Title t= 13010.00000 step= 6505000
68209
    1GLY      N    1   3.219   5.100   4.354
    1GLY    HT1    2   3.141   5.116   4.287
    1GLY    HT2    3   3.300   5.143   4.306
    1GLY    HT3    4   3.205   5.142   4.448
    1GLY     CA    5   3.243   4.951   4.378
    1GLY    HA1    6   3.178   4.922   4.459
    1GLY    HA2    7   3.347   4.951   4.407
    1GLY      C    8   3.212   4.862   4.259
    1GLY      O    9   3.223   4.907   4.150
    2PRO      N   10   3.163   4.741   4.267
    2PRO     CD   11   3.140   4.662   4.388
    2PRO    HD1   12   3.091   4.726   4.464
    2PRO    HD2   13   3.237   4.628   4.432
    2PRO     CA   14   3.112   4.672   4.147
    2PRO     HA   15   3.189   4.674   4.071
    2PRO     CB   16   3.087   4.520   4.198
    2PRO    HB1   17   3.184   4.468   4.179
    2PRO    HB2   18   3.009   4.471   4.136
    2PRO     CG   19   3.060   4.538   4.353
    2PRO    HG1   20   2.950   4.543   4.367
    2PRO    HG2   21   3.088   4.447   4.410
    2PRO      C   22   2.990   4.744   4.096
    2PRO      O   23   2.912   4.793   4.177
    3GLY      N   24   2.987   4.753   3.962
    3GLY     HN   25   3.072   4.725   3.917
    3GLY     CA   26   2.890   4.832   3.890
    3GLY    HA1   27   2.788   4.823   3.923
    3GLY    HA2   28   2.894   4.796   3.789
    3GLY      C   29   2.915   4.976   3.879
    3GLY      O   30   3.009   5.020   3.936
    4ASP      N   31   2.837   5.055   3.806
    4ASP     HN   32   2.759   5.015   3.759
    4ASP     CA   33   2.854   5.205   3.802
    4ASP     HA   34   2.954   5.225   3.838
    4ASP     CB   35   2.816   5.260   3.660
    4ASP    HB1   36   2.837   5.370   3.665
    4ASP    HB2   37   2.714   5.228   3.630
    4ASP     CG   38   2.919   5.207   3.564
    4ASP    OD1   39   2.894   5.169   3.443
    4ASP    OD2   40   3.043   5.206   3.597
    4ASP      C   41   2.774   5.281   3.906
    4ASP      O   42   2.682   5.217   3.970
    5PRO      N   43   2.802   5.412   3.941
    5PRO     CD   44   2.933   5.477   3.904
    5PRO    HD1   45   2.939   5.512   3.799
    5PRO    HD2   46   3.025   5.417   3.925
    5PRO     CA   47   2.727   5.489   4.035
    5PRO     HA   48   2.735   5.431   4.126
    5PRO     CB   49   2.793   5.629   4.023
    5PRO    HB1   50   2.774   5.691   4.113
    5PRO    HB2   51   2.757   5.677   3.929
    5PRO     CG   52   2.940   5.593   3.997
    5PRO    HG1   53   2.989   5.683   3.954
    5PRO    HG2   54   2.982   5.564   4.096
    5PRO      C   55   2.579   5.493   4.007
    5PRO      O   56   2.540   5.466   3.891
    6GLY      N   57   2.503   5.515   4.113
    6GLY     HN   58   2.541   5.535   4.204
    6GLY     CA   59   2.357   5.515   4.104
    6GLY    HA1   60   2.317   5.421   4.140
    6GLY    HA2   61   2.331   5.540   4.002
    6GLY      C   62   2.313   5.625   4.194
    6GLY      O   63   2.388   5.706   4.253
    7SER      N   64   2.181   5.625   4.237
    7SER     HN   65   2.122   5.557   4.194
    7SER     CA   66   2.135   5.711   4.343
    7SER     HA   67   2.173   5.807   4.312
    7SER     CB   68   1.980   5.724   4.347
    7SER    HB1   69   1.950   5.766   4.248
    7SER    HB2   70   1.952   5.793   4.430
    7SER     OG   71   1.924   5.595   4.372
    7SER    HG1   72   1.952   5.544   4.296
    7SER      C   73   2.186   5.682   4.484
    7SER      O   74   2.166   5.753   4.579
    8GLY      N   75   2.234   5.550   4.499
    8GLY     HN   76   2.229   5.487   4.422
    8GLY     CA   77   2.291   5.502   4.629
    8GLY    HA1   78   2.345   5.411   4.611
    8GLY    HA2   79   2.204   5.495   4.693
    8GLY      C   80   2.397   5.595   4.690
    8GLY      O   81   2.465   5.664   4.610
    9PRO      N   82   2.429   5.595   4.821
    9PRO     CD   83   2.331   5.552   4.918
    9PRO    HD1   84   2.351   5.448   4.953
    9PRO    HD2   85   2.226   5.554   4.883
    9PRO     CA   86   2.530   5.672   4.882
    9PRO     HA   87   2.518   5.775   4.850
    9PRO     CB   88   2.503   5.661   5.033
    9PRO    HB1   89   2.539   5.741   5.101
    9PRO    HB2   90   2.537   5.567   5.082
    9PRO     CG   91   2.349   5.649   5.032
    9PRO    HG1   92   2.293   5.614   5.121
    9PRO    HG2   93   2.306   5.747   5.005
    9PRO      C   94   2.672   5.632   4.841
    9PRO      O   95   2.694   5.512   4.832
   10GLY      N   96   2.763   5.721   4.816
   10GLY     HN   97   2.755   5.818   4.838
   10GLY     CA   98   2.904   5.691   4.779
   10GLY    HA1   99   2.956   5.786   4.778
   10GLY    HA2  100   2.895   5.643   4.683
   10GLY      C  101   2.980   5.599   4.868
   10GLY      O  102   2.956   5.575   4.988
   11ASP      N  103   3.085   5.538   4.806
   11ASP     HN  104   3.096   5.560   4.710
   11ASP     CA  105   3.187   5.449   4.876
   11ASP     HA  106   3.131   5.379   4.936
   11ASP     CB  107   3.284   5.374   4.782
   11ASP    HB1  108   3.352   5.315   4.846
   11ASP    HB2  109   3.333   5.440   4.707
   11ASP     CG  110   3.207   5.278   4.703
   11ASP    OD1  111   3.116   5.212   4.763
   11ASP    OD2  112   3.240   5.248   4.586
   11ASP      C  113   3.261   5.530   4.982
   11ASP      O  114   3.287   5.650   4.967
   12PRO      N  115   3.301   5.484   5.101
   12PRO     CD  116   3.304   5.339   5.139
   12PRO    HD1  117   3.386   5.282   5.091
   12PRO    HD2  118   3.202   5.304   5.114
   12PRO     CA  119   3.382   5.553   5.193
   12PRO     HA  120   3.315   5.632   5.224
   12PRO     CB  121   3.411   5.455   5.315
   12PRO    HB1  122   3.374   5.500   5.409
   12PRO    HB2  123   3.518   5.425   5.316
   12PRO     CG  124   3.322   5.329   5.293
   12PRO    HG1  125   3.374   5.235   5.321
   12PRO    HG2  126   3.224   5.344   5.342
   12PRO      C  127   3.504   5.630   5.145
   12PRO      O  128   3.579   5.569   5.073
   13GLY      N  129   3.531   5.752   5.193
   13GLY     HN  130   3.477   5.798   5.263
   13GLY     CA  131   3.643   5.820   5.133
   13GLY    HA1  132   3.722   5.754   5.101
   13GLY    HA2  133   3.683   5.879   5.214
   13GLY      C  134   3.601   5.906   5.013
   13GLY      O  135   3.657   6.014   4.994
   14SER      N  136   3.499   5.866   4.936
   14SER     HN  137   3.432   5.803   4.976
   14SER     CA  138   3.467   5.937   4.806
   14SER     HA  139   3.539   5.903   4.733
   14SER     CB  140   3.350   5.876   4.733
   14SER    HB1  141   3.369   5.776   4.690
   14SER    HB2  142   3.324   5.941   4.647
   14SER     OG  143   3.237   5.872   4.817
   14SER    HG1  144   3.227   5.785   4.855
   14SER      C  145   3.459   6.087   4.807
   14SER      O  146   3.415   6.158   4.897
   15GLY      N  147   3.502   6.157   4.698
   15GLY     HN  148   3.540   6.103   4.624
   15GLY     CA  149   3.511   6.303   4.703
   15GLY    HA1  150   3.422   6.339   4.752
   15GLY    HA2  151   3.515   6.330   4.599
   15GLY      C  152   3.640   6.364   4.764
   15GLY      O  153   3.722   6.294   4.825
   16PRO      N  154   3.657   6.498   4.760
   16PRO     CD  155   3.553   6.581   4.701
   16PRO    HD1  156   3.476   6.585   4.781
   16PRO    HD2  157   3.503   6.543   4.610
   16PRO     CA  158   3.759   6.575   4.840
   16PRO     HA  159   3.845   6.574   4.775
   16PRO     CB  160   3.714   6.718   4.821
   16PRO    HB1  161   3.791   6.794   4.796
   16PRO    HB2  162   3.666   6.754   4.914
   16PRO     CG  163   3.626   6.712   4.695
   16PRO    HG1  164   3.560   6.800   4.710
   16PRO    HG2  165   3.684   6.734   4.602
   16PRO      C  166   3.796   6.526   4.976
   16PRO      O  167   3.711   6.510   5.058
   17GLY      N  168   3.925   6.504   5.001
   17GLY     HN  169   3.991   6.519   4.927
   17GLY     CA  170   3.964   6.477   5.139
   17GLY    HA1  171   3.897   6.532   5.203
   17GLY    HA2  172   4.068   6.505   5.137
   17GLY      C  173   3.973   6.331   5.176
   17GLY      O  174   3.905   6.247   5.105
   18ASP      N  175   4.051   6.297   5.278
   18ASP     HN  176   4.098   6.374   5.321
   18ASP     CA  177   4.081   6.172   5.349
   18ASP     HA  178   4.109   6.107   5.267
   18ASP     CB  179   4.192   6.183   5.460
   18ASP    HB1  180   4.215   6.087   5.509
   18ASP    HB2  181   4.163   6.246   5.546
   18ASP     CG  182   4.318   6.231   5.399
   18ASP    OD1  183   4.347   6.203   5.280
   18ASP    OD2  184   4.398   6.282   5.480
   18ASP      C  185   3.950   6.110   5.415
   18ASP      O  186   3.860   6.190   5.452
   19PRO      N  187   3.927   5.980   5.440
   19PRO     CD  188   3.991   5.868   5.369
   19PRO    HD1  189   4.101   5.883   5.375
   19PRO    HD2  190   3.953   5.868   5.265
   19PRO     CA  191   3.817   5.935   5.526
   19PRO     HA  192   3.723   5.981   5.497
   19PRO     CB  193   3.803   5.785   5.489
   19PRO    HB1  194   3.735   5.779   5.402
   19PRO    HB2  195   3.765   5.720   5.571
   19PRO     CG  196   3.942   5.743   5.442
   19PRO    HG1  197   4.008   5.709   5.525
   19PRO    HG2  198   3.936   5.649   5.383
   19PRO      C  199   3.849   5.954   5.673
   19PRO    OT1  200   3.966   5.934   5.714
   19PRO    OT2  201   3.753   5.986   5.754
   20SOD    SOD  202   5.374   5.035   5.158
   21SOD    SOD  203   5.217   8.237   1.951
   22SOD    SOD  204   5.576   3.095   6.107
   23SOD    SOD  205   5.398   4.865   0.219
   24SOD    SOD  206   2.029   5.269   2.724
   25SOD    SOD  207   7.625   7.246   6.199
   26SOD    SOD  208   2.981   3.835   7.223
   27SOD    SOD  209   4.233   2.509   5.648
   28SOD    SOD  210   3.805   7.333   0.597
   29SOD    SOD  211   8.899   5.216   5.685
   30SOD    SOD  212   1.231   5.204   3.088
   31SOD    SOD  213   4.065   2.023   3.054
   32SOD    SOD  214   3.081   1.524   2.106
   33SOD    SOD  215   6.648   4.831   4.702
   34SOD    SOD  216   4.500   6.611   3.886
   35SOD    SOD  217   8.003   7.960   7.320
   36SOD    SOD  218   2.861   0.152   3.263
   37SOD    SOD  219   8.571   1.728   7.205
   38SOD    SOD  220   1.311   2.007   2.819
   39SOD    SOD  221   7.952   8.362   1.624
   40SOD    SOD  222   0.850   0.117   7.305
   41SOD    SOD  223   9.324   4.624   3.137
   42SOD    SOD  224   4.562   6.947   7.303
   43SOD    SOD  225   9.401   2.237   1.568
   44SOD    SOD  226   5.021   3.713   7.208
   45SOD    SOD  227   1.926   2.035   1.720
   46SOD    SOD  228   8.368   5.952   4.401
   47SOD    SOD  229   1.385   1.789   3.525
   48SOD    SOD  230   7.869   3.284   2.277
   49SOD    SOD  231   2.192   3.161   3.222
   50SOD    SOD  232   9.120   6.179   0.605
   51SOD    SOD  233   2.244   6.095   5.259
   52SOD    SOD  234   8.326   2.896   4.189
   53SOD    SOD  235   4.258   7.243   6.578
   54SOD    SOD  236   8.617   0.223   2.671
   55SOD    SOD  237   1.805   7.746   5.697
   56SOD    SOD  238   4.938   1.997   6.035
   57SOD    SOD  239   2.890   5.348   6.431
   58SOD    SOD  240   5.926   1.509   0.046
   59SOD    SOD  241   7.709   6.219   4.592
   60SOD    SOD  242   0.559   6.957   1.258
   61SOD    SOD  243   5.718   6.053   1.139
   62SOD    SOD  244   0.985   1.796   4.208
   63SOD    SOD  245   3.882   0.156   4.832
   64SOD    SOD  246   3.842   6.139   4.919
   65SOD    SOD  247   0.543   5.669   4.288
   66SOD    SOD  248   8.950   7.416   6.822
   67SOD    SOD  249   6.699   4.586   4.133
   68SOD    SOD  250   6.548   1.081   1.311
   69SOD    SOD  251   0.566   5.982   6.096
   70SOD    SOD  252   6.503   8.726   1.632
   71SOD    SOD  253   0.807   4.640   1.190
   72SOD    SOD  254   2.406   4.356   4.557
   73SOD    SOD  255   3.117   6.690   1.815
   74SOD    SOD  256   4.805   8.610   1.616
   75SOD    SOD  257   5.031   2.545   1.958
   76SOD    SOD  258   3.377   5.089   7.714
   77SOD    SOD  259   8.618   1.795   0.786
   78SOD    SOD  260   3.234   6.547   5.396
   79SOD    SOD  261   2.196   8.175   5.782
   80SOD    SOD  262   0.931   8.917   4.283
   81SOD    SOD  263   6.516   2.515   4.738
   82SOD    SOD  264   6.310   8.699   3.588
   83SOD    SOD  265   0.654   2.285   4.381
   84SOD    SOD  266   6.090   5.178   7.241
   85SOD    SOD  267   1.260   1.915   3.199
   86SOD    SOD  268   8.969   8.416   7.373
   87SOD    SOD  269   2.181   4.758   6.456
   88CLA    CLA  270   2.568   6.377   5.835
   89CLA    CLA  271   3.790   7.243   4.230
   90CLA    CLA  272   6.257   3.013   0.121
   91CLA    CLA  273   5.941   3.694   4.598
   92CLA    CLA  274   5.205   2.105   6.402
   93CLA    CLA  275   3.731   7.581   3.562
   94CLA    CLA  276   0.285   5.559   6.219
   95CLA    CLA  277   5.622   8.681   3.522
   96CLA    CLA  278   0.379   1.644   4.514
   97CLA    CLA  279   3.759   1.522   1.210
   98CLA    CLA  280   2.938   1.404   4.807
   99CLA    CLA  281   2.954   0.576   3.099
  100CLA    CLA  282   0.270   8.773   3.920
  101CLA    CLA  283   3.098   4.288   5.087
  102CLA    CLA  284   4.614   0.621   4.798
  103CLA    CLA  285   9.029   2.156   0.432
  104CLA    CLA  286   1.449   6.326   5.932
  105CLA    CLA  287   0.160   1.634   2.863
  106CLA    CLA  288   1.497   4.363   3.505
  107CLA    CLA  289   2.073   6.336   4.942
  108CLA    CLA  290   7.146   0.371   7.027
  109CLA    CLA  291   1.755   2.193   0.099
  110CLA    CLA  292   0.893   3.999   0.441
  111CLA    CLA  293   2.908   0.151   6.584
  112CLA    CLA  294   7.265   3.093   0.418
  113CLA    CLA  295   0.697   3.240   2.452
  114CLA    CLA  296   3.050   5.787   6.886
  115CLA    CLA  297   5.306   0.254   5.066
  116CLA    CLA  298   5.328   5.481   1.186
  117CLA    CLA  299   9.035   4.845   6.301
  118CLA    CLA  300   9.063   0.285   1.158
  119CLA    CLA  301   1.094   4.233   7.366
  120CLA    CLA  302   2.884   2.398   0.948
  121CLA    CLA  303   7.885   5.597   2.226
  122CLA    CLA  304   4.096   4.805   1.013
  123CLA    CLA  305   3.414   4.359   7.590
  124CLA    CLA  306   0.024   6.142   4.102
  125CLA    CLA  307   4.829   4.653   7.301
  126CLA    CLA  308   2.880   3.843   6.404
  127CLA    CLA  309   5.737   7.716   6.936
  128CLA    CLA  310   3.637   1.559   7.006
  129CLA    CLA  311   0.286   1.554   3.809
  130CLA    CLA  312   0.948   2.184   3.631
  131CLA    CLA  313   0.417   5.424   3.305
  132CLA    CLA  314   1.015   4.153   1.639
  133CLA    CLA  315   8.102   1.166   7.146
  134CLA    CLA  316   3.611   3.857   5.555
  135CLA    CLA  317   6.670   2.769   3.215
  136CLA    CLA  318   7.186   4.885   3.499
  137CLA    CLA  319   0.655   0.700   1.279
  138CLA    CLA  320   8.151   0.177   2.154
  139CLA    CLA  321   7.581   5.418   6.321
  140CLA    CLA  322   0.969   1.399   6.944
  141CLA    CLA  323   7.969   7.382   6.476
  142CLA    CLA  324   7.259   5.748   5.732
  143CLA    CLA  325   9.452   3.034   3.463
  144CLA    CLA  326   6.637   2.485   3.851
  145CLA    CLA  327   8.630   5.270   5.698
  146CLA    CLA  328   0.378   1.487   6.906
  147CLA    CLA  329   5.288   6.808   0.905
  148CLA    CLA  330   2.698   3.925   0.391
  149CLA    CLA  331   7.438   8.900   5.383
  150CLA    CLA  332   6.922   4.521   2.617
  151CLA    CLA  333   7.955   0.529   3.059
  152CLA    CLA  334   9.325   2.742   6.780
  153TIP3   OH2  335   8.551   6.374   2.261
  153TIP3    H1  336   8.487   6.361   2.191
  153TIP3    H2  337   8.573   6.285   2.289
  154TIP3   OH2  338   7.434   2.203   7.694
  154TIP3    H1  339   7.395   2.116   7.695
  154TIP3    H2  340   7.434   2.231   7.786
  155TIP3   OH2  341   2.186   6.071   3.212
  155TIP3    H1  342   2.226   6.139   3.265
  155TIP3    H2  343   2.227   6.079   3.126
  156TIP3   OH2  344   0.671   5.956   5.909
  156TIP3    H1  345   0.697   5.870   5.875
  156TIP3    H2  346   0.740   6.015   5.880
  157TIP3   OH2  347   2.062   8.880   5.236
  157TIP3    H1  348   2.014   8.953   5.196
  157TIP3    H2  349   2.006   8.804   5.224
  158TIP3   OH2  350   8.694   0.801   0.605
  158TIP3    H1  351   8.756   0.768   0.540
  158TIP3    H2  352   8.744   0.800   0.687
  159TIP3   OH2  353   4.964   3.948   5.249
  159TIP3    H1  354   4.918   4.002   5.313
  159TIP3    H2  355   4.964   3.999   5.169
  160TIP3   OH2  356   2.047   0.294   4.387
  160TIP3    H1  357   2.038   0.280   4.481
  160TIP3    H2  358   2.001   0.377   4.370
  161TIP3   OH2  359   3.600   3.243   3.499
  161TIP3    H1  360   3.684   3.199   3.513
  161TIP3    H2  361   3.574   3.274   3.586
  162TIP3   OH2  362   1.728   4.681   1.710
  162TIP3    H1  363   1.817   4.677   1.746
  162TIP3    H2  364   1.724   4.765   1.665
  163TIP3   OH2  365   9.324   3.533   5.619
  163TIP3    H1  366   9.347   3.514   5.528
  163TIP3    H2  367   9.307   3.628   5.620
  164TIP3   OH2  368   7.557   1.331   6.364
  164TIP3    H1  369   7.602   1.371   6.438
  164TIP3    H2  370   7.604   1.250   6.348
  165TIP3   OH2  371   4.751   8.433   6.541
  165TIP3    H1  372   4.714   8.521   6.550
  165TIP3    H2  373   4.766   8.404   6.631
  166TIP3   OH2  374   0.561   2.340   4.181
  166TIP3    H1  375   0.586   2.423   4.140
  166TIP3    H2  376   0.475   2.320   4.143
  167TIP3   OH2  377   5.744   7.087   5.829
  167TIP3    H1  378   5.735   7.177   5.795
  167TIP3    H2  379   5.741   7.097   5.924
  168TIP3   OH2  380   4.025   7.533   1.442
  168TIP3    H1  381   3.992   7.468   1.504
  168TIP3    H2  382   3.978   7.515   1.361
  169TIP3   OH2  383   7.708   5.312   5.178
  169TIP3    H1  384   7.683   5.382   5.238
  169TIP3    H2  385   7.664   5.333   5.096
  170TIP3   OH2  386   7.796   6.275   3.807
  170TIP3    H1  387   7.874   6.223   3.788
  170TIP3    H2  388   7.778   6.321   3.725
  171TIP3   OH2  389   7.431   3.831   1.309
  171TIP3    H1  390   7.436   3.788   1.223
  171TIP3    H2  391   7.384   3.768   1.364
  172TIP3   OH2  392   4.113   0.898   7.327
  172TIP3    H1  393   4.028   0.941   7.318
  172TIP3    H2  394   4.130   0.860   7.241
  173TIP3   OH2  395   6.852   8.424   5.825
  173TIP3    H1  396   6.892   8.339   5.804
  173TIP3    H2  397   6.914   8.465   5.886
  174TIP3   OH2  398   0.546   1.881   0.519
  174TIP3    H1  399   0.517   1.952   0.577
  174TIP3    H2  400   0.636   1.903   0.497
  175TIP3   OH2  401   7.174   5.896   3.860
  175TIP3    H1  402   7.248   5.840   3.840
  175TIP3    H2  403   7.120   5.845   3.921
  176TIP3   OH2  404   5.222   4.465   3.082
  176TIP3    H1  405   5.151   4.524   3.105
  176TIP3    H2  406   5.249   4.492   2.994
  177TIP3   OH2  407   8.259   7.322   0.188
  177TIP3    H1  408   8.195   7.382   0.227
  177TIP3    H2  409   8.336   7.376   0.173
  178TIP3   OH2  410   4.403   5.728   6.459
  178TIP3    H1  411   4.380   5.775   6.539
  178TIP3    H2  412   4.341   5.761   6.394
  179TIP3   OH2  413   5.406   0.064   5.287
  179TIP3    H1  414   5.363  -0.020   5.270
  179TIP3    H2  415   5.385   0.118   5.212
  180TIP3   OH2  416   3.567   1.289   4.310
  180TIP3    H1  417   3.502   1.261   4.375
  180TIP3    H2  418   3.522   1.356   4.258
  181TIP3   OH2  419   4.114   1.594   6.884
  181TIP3    H1  420   4.114   1.606   6.789
  181TIP3    H2  421   4.206   1.584   6.907
  182TIP3   OH2  422   8.335   0.490   3.682
  182TIP3    H1  423   8.342   0.404   3.724
  182TIP3    H2  424   8.299   0.472   3.596
  183TIP3   OH2  425   3.841   4.832   4.600
  183TIP3    H1  426   3.917   4.854   4.654
  183TIP3    H2  427   3.840   4.737   4.597
  184TIP3   OH2  428   2.557   8.682   7.017
  184TIP3    H1  429   2.544   8.719   7.104
  184TIP3    H2  430   2.574   8.589   7.033
  185TIP3   OH2  431   8.852   0.293   5.187
  185TIP3    H1  432   8.761   0.271   5.167
  185TIP3    H2  433   8.887   0.327   5.105
  186TIP3   OH2  434   1.212   4.799   2.016
  186TIP3    H1  435   1.242   4.890   2.017
  186TIP3    H2  436   1.259   4.757   2.087
  187TIP3   OH2  437   3.349   7.391   2.341
  187TIP3    H1  438   3.282   7.442   2.295
  187TIP3    H2  439   3.423   7.451   2.351
  188TIP3   OH2  440   8.803   0.989   2.474
  188TIP3    H1  441   8.852   1.026   2.400
  188TIP3    H2  442   8.814   0.895   2.466
  189TIP3   OH2  443   9.029   4.099   4.892
  189TIP3    H1  444   9.005   4.136   4.807
  189TIP3    H2  445   9.124   4.111   4.896
  190TIP3   OH2  446   9.421   3.960   7.165
  190TIP3    H1  447   9.512   3.985   7.178
  190TIP3    H2  448   9.370   4.028   7.209
  191TIP3   OH2  449   4.849   6.895   3.510
  191TIP3    H1  450   4.910   6.833   3.471
  191TIP3    H2  451   4.765   6.879   3.466
  192TIP3   OH2  452   4.328   4.248   7.724
  192TIP3    H1  453   4.374   4.231   7.642
  192TIP3    H2  454   4.389   4.220   7.792
  193TIP3   OH2  455   1.791   8.220   1.233
  193TIP3    H1  456   1.880   8.254   1.243
  193TIP3    H2  457   1.736   8.298   1.235
  194TIP3   OH2  458   9.166   8.063   7.691
  194TIP3    H1  459   9.122   8.012   7.758
  194TIP3    H2  460   9.238   8.007   7.661
  195TIP3   OH2  461   1.473   8.209   0.511
  195TIP3    H1  462   1.540   8.141   0.516
  195TIP3    H2  463   1.501   8.265   0.438
  196TIP3   OH2  464   1.213   2.945   4.711
  196TIP3    H1  465   1.172   2.993   4.783
  196TIP3    H2  466   1.280   3.006   4.677
  197TIP3   OH2  467   9.240   6.000   5.661
  197TIP3    H1  468   9.243   6.067   5.729
  197TIP3    H2  469   9.147   5.986   5.646
  198TIP3   OH2  470   0.014   4.868   4.969
  198TIP3    H1  471  -0.071   4.911   4.979
  198TIP3    H2  472   0.070   4.910   5.034
  199TIP3   OH2  473   4.238   0.565   6.897
  199TIP3    H1  474   4.324   0.526   6.914
  199TIP3    H2  475   4.179   0.490   6.888
  200TIP3   OH2  476   9.111   6.402   4.659
  200TIP3    H1  477   9.080   6.410   4.749
  200TIP3    H2  478   9.206   6.403   4.665
  201TIP3   OH2  479   3.277   8.914   5.744
  201TIP3    H1  480   3.203   8.969   5.720
  201TIP3    H2  481   3.322   8.896   5.662
  202TIP3   OH2  482   0.934   1.957   5.578
  202TIP3    H1  483   0.938   2.051   5.561
  202TIP3    H2  484   1.013   1.921   5.538
  203TIP3   OH2  485   0.451   5.037   0.466
  203TIP3    H1  486   0.440   4.993   0.382
  203TIP3    H2  487   0.546   5.039   0.480
  204TIP3   OH2  488   3.110   3.523   2.453
  204TIP3    H1  489   3.079   3.464   2.523
  204TIP3    H2  490   3.076   3.484   2.372
  205TIP3   OH2  491   8.385   6.822   7.264
  205TIP3    H1  492   8.440   6.895   7.235
  205TIP3    H2  493   8.377   6.834   7.358
  206TIP3   OH2  494   8.315   6.358   0.772
  206TIP3    H1  495   8.300   6.351   0.867
  206TIP3    H2  496   8.376   6.287   0.753
  207TIP3   OH2  497   6.073   0.627   1.671
  207TIP3    H1  498   6.016   0.699   1.647
  207TIP3    H2  499   6.021   0.548   1.654
  208TIP3   OH2  500   3.721   7.651   1.024
  208TIP3    H1  501   3.676   7.736   1.022
  208TIP3    H2  502   3.654   7.588   0.998
  209TIP3   OH2  503   5.169   4.194   6.395
  209TIP3    H1  504   5.207   4.236   6.318
  209TIP3    H2  505   5.158   4.102   6.368
  210TIP3   OH2  506   0.728   6.423   6.167
  210TIP3    H1  507   0.637   6.395   6.158
  210TIP3    H2  508   0.778   6.341   6.169
  211TIP3   OH2  509   4.041   6.861   5.187
  211TIP3    H1  510   3.995   6.931   5.140
  211TIP3    H2  511   4.099   6.906   5.247
  212TIP3   OH2  512   2.779   6.183   5.391
  212TIP3    H1  513   2.837   6.159   5.463
  212TIP3    H2  514   2.701   6.218   5.434
  213TIP3   OH2  515   1.645   8.898   6.594
  213TIP3    H1  516   1.566   8.851   6.619
  213TIP3    H2  517   1.713   8.830   6.590
  214TIP3   OH2  518   2.112   2.912   5.198
  214TIP3    H1  519   2.071   2.998   5.203
  214TIP3    H2  520   2.059   2.856   5.255
  215TIP3   OH2  521   2.688   4.496   2.960
  215TIP3    H1  522   2.710   4.588   2.978
  215TIP3    H2  523   2.772   4.450   2.966
  216TIP3   OH2  524   0.547   3.139   2.691
  216TIP3    H1  525   0.588   3.143   2.604
  216TIP3    H2  526   0.505   3.224   2.701
  217TIP3   OH2  527   3.545   2.890   6.489
  217TIP3    H1  528   3.465   2.937   6.512
  217TIP3    H2  529   3.514   2.811   6.444
  218TIP3   OH2  530   0.107   9.011   7.722
  218TIP3    H1  531   0.117   9.057   7.806
  218TIP3    H2  532   0.197   8.994   7.693
  219TIP3   OH2  533   1.702   7.002   3.744
  219TIP3    H1  534   1.631   6.975   3.803
  219TIP3    H2  535   1.671   6.976   3.657
  220TIP3   OH2  536   0.707   6.051   1.532
  220TIP3    H1  537   0.722   6.050   1.437
  220TIP3    H2  538   0.751   6.130   1.562
  221TIP3   OH2  539   8.887   6.100   5.612
  221TIP3    H1  540   8.868   6.090   5.705
  221TIP3    H2  541   8.934   6.020   5.588
  222TIP3   OH2  542   9.064   2.677   7.517
  222TIP3    H1  543   9.025   2.725   7.590
  222TIP3    H2  544   9.159   2.684   7.531
  223TIP3   OH2  545   6.987   0.590   3.743
  223TIP3    H1  546   6.971   0.497   3.724
  223TIP3    H2  547   7.061   0.613   3.688
  224TIP3   OH2  548   6.098   8.054   2.906
  224TIP3    H1  549   6.119   8.129   2.961
  224TIP3    H2  550   6.080   7.983   2.968
  225TIP3   OH2  551   9.156   0.081   0.253
  225TIP3    H1  552   9.100   0.093   0.177
  225TIP3    H2  553   9.161   0.167   0.294
  226TIP3   OH2  554   1.704   3.626   0.453
  226TIP3    H1  555   1.626   3.594   0.500
  226TIP3    H2  556   1.774   3.622   0.518
  227TIP3   OH2  557   3.840   1.361   2.593
  227TIP3    H1  558   3.875   1.273   2.607
  227TIP3    H2  559   3.916   1.418   2.595
  228TIP3   OH2  560   1.226   2.570   4.694
  228TIP3    H1  561   1.285   2.513   4.745
  228TIP3    H2  562   1.239   2.657   4.732
  229TIP3   OH2  563   1.438   3.784   5.142
  229TIP3    H1  564   1.464   3.876   5.153
  229TIP3    H2  565   1.520   3.739   5.120
  230TIP3   OH2  566   9.376   6.183   4.558
  230TIP3    H1  567   9.444   6.126   4.523
  230TIP3    H2  568   9.399   6.270   4.525
  231TIP3   OH2  569   5.990   0.668   0.276
  231TIP3    H1  570   5.975   0.747   0.224
  231TIP3    H2  571   6.010   0.700   0.364
  232TIP3   OH2  572   0.655   0.635   5.489
  232TIP3    H1  573   0.699   0.550   5.490
  232TIP3    H2  574   0.562   0.614   5.502
  233TIP3   OH2  575   3.169   7.183   3.768
  233TIP3    H1  576   3.170   7.088   3.759
  233TIP3    H2  577   3.077   7.204   3.787
  234TIP3   OH2  578   4.723   5.779   2.819
  234TIP3    H1  579   4.755   5.779   2.729
  234TIP3    H2  580   4.802   5.779   2.874
  235TIP3   OH2  581   3.694   3.438   5.864
  235TIP3    H1  582   3.637   3.372   5.905
  235TIP3    H2  583   3.633   3.504   5.831
  236TIP3   OH2  584   5.847   3.344   0.816
  236TIP3    H1  585   5.877   3.346   0.725
  236TIP3    H2  586   5.847   3.251   0.839
  237TIP3   OH2  587   8.009   2.412   2.306
  237TIP3    H1  588   8.010   2.316   2.313
  237TIP3    H2  589   7.998   2.429   2.212
  238TIP3   OH2  590   4.305   6.866   4.679
  238TIP3    H1  591   4.294   6.865   4.774
  238TIP3    H2  592   4.324   6.957   4.658
  239TIP3   OH2  593   0.858   5.292   2.097
  239TIP3    H1  594   0.927   5.228   2.112
  239TIP3    H2  595   0.784   5.242   2.064
  240TIP3   OH2  596   8.525   4.998   4.880
  240TIP3    H1  597   8.526   4.902   4.882
  240TIP3    H2  598   8.595   5.023   4.940
  241TIP3   OH2  599   0.287   5.872   3.637
  241TIP3    H1  600   0.290   5.785   3.596
  241TIP3    H2  601   0.319   5.931   3.569
  242TIP3   OH2  602   0.190   3.734   0.441
  242TIP3    H1  603   0.194   3.648   0.484
  242TIP3    H2  604   0.273   3.741   0.394
  243TIP3   OH2  605   6.631   2.236   3.364
  243TIP3    H1  606   6.697   2.298   3.335
  243TIP3    H2  607   6.570   2.289   3.415
  244TIP3   OH2  608   7.522   7.287   5.548
  244TIP3    H1  609   7.542   7.230   5.622
  244TIP3    H2  610   7.512   7.374   5.587
  245TIP3   OH2  611   6.009   0.359   2.977
  245TIP3    H1  612   6.100   0.356   3.007
  245TIP3    H2  613   6.005   0.294   2.907
  246TIP3   OH2  614   5.957   2.663   5.126
  246TIP3    H1  615   5.996   2.587   5.170
  246TIP3    H2  616   5.976   2.649   5.033
  247TIP3   OH2  617   2.758   3.012   2.579
  247TIP3    H1  618   2.775   3.069   2.654
  247TIP3    H2  619   2.710   2.938   2.615
  248TIP3   OH2  620   1.640   4.233   0.884
  248TIP3    H1  621   1.650   4.292   0.958
  248TIP3    H2  622   1.707   4.166   0.897
  249TIP3   OH2  623   2.247   6.208   1.375
  249TIP3    H1  624   2.313   6.141   1.391
  249TIP3    H2  625   2.175   6.185   1.433
  250TIP3   OH2  626   1.007   5.333   5.018
  250TIP3    H1  627   0.911   5.339   5.014
  250TIP3    H2  628   1.038   5.413   4.976
  251TIP3   OH2  629   6.144   7.563   3.978
  251TIP3    H1  630   6.176   7.472   3.975
  251TIP3    H2  631   6.072   7.564   3.915
  252TIP3   OH2  632   5.188   2.620   2.405
  252TIP3    H1  633   5.211   2.553   2.469
  252TIP3    H2  634   5.258   2.615   2.340
  253TIP3   OH2  635   4.596   8.704   0.906
  253TIP3    H1  636   4.643   8.623   0.928
  253TIP3    H2  637   4.659   8.755   0.856
  254TIP3   OH2  638   0.131   8.211   2.409
  254TIP3    H1  639   0.128   8.118   2.384
  254TIP3    H2  640   0.107   8.257   2.328
  255TIP3   OH2  641   0.163   7.322   4.604
  255TIP3    H1  642   0.145   7.388   4.537
  255TIP3    H2  643   0.077   7.301   4.641
  256TIP3   OH2  644   7.881   1.873   2.460
  256TIP3    H1  645   7.914   1.785   2.442
  256TIP3    H2  646   7.796   1.858   2.503
  257TIP3   OH2  647   0.396   0.685   6.081
  257TIP3    H1  648   0.363   0.638   6.004
  257TIP3    H2  649   0.462   0.745   6.046
  258TIP3   OH2  650   0.005   3.634   0.072
  258TIP3    H1  651  -0.047   3.580   0.132
  258TIP3    H2  652   0.022   3.715   0.121
  259TIP3   OH2  653   9.195   3.088   1.495
  259TIP3    H1  654   9.178   3.104   1.587
  259TIP3    H2  655   9.108   3.085   1.454
  260TIP3   OH2  656   0.638   4.515   6.265
  260TIP3    H1  657   0.707   4.450   6.278
  260TIP3    H2  658   0.682   4.599   6.272
  261TIP3   OH2  659   4.954   2.925   4.138
  261TIP3    H1  660   4.962   2.924   4.233
  261TIP3    H2  661   4.940   2.834   4.114
  262TIP3   OH2  662   4.929   3.281   5.412
  262TIP3    H1  663   4.988   3.340   5.459
  262TIP3    H2  664   4.987   3.213   5.377
  263TIP3   OH2  665   6.246   7.612   4.867
  263TIP3    H1  666   6.175   7.548   4.862
  263TIP3    H2  667   6.326   7.560   4.871
  264TIP3   OH2  668   5.673   7.156   3.519
  264TIP3    H1  669   5.605   7.222   3.525
  264TIP3    H2  670   5.715   7.171   3.434
  265TIP3   OH2  671   3.072   8.753   1.119
  265TIP3    H1  672   3.145   8.698   1.091
  265TIP3    H2  673   3.050   8.804   1.042
  266TIP3   OH2  674   5.931   8.476   4.453
  266TIP3    H1  675   5.895   8.520   4.375
  266TIP3    H2  676   5.860   8.419   4.483
  267TIP3   OH2  677   7.726   2.573   3.506
  267TIP3    H1  678   7.697   2.658   3.472
  267TIP3    H2  679   7.748   2.523   3.427
  268TIP3   OH2  680   3.757   5.172   5.185
  268TIP3    H1  681   3.740   5.266   5.171
  268TIP3    H2  682   3.816   5.148   5.114
  269TIP3   OH2  683   4.757   5.728   7.709
  269TIP3    H1  684   4.735   5.782   7.633
  269TIP3    H2  685   4.748   5.787   7.784
  270TIP3   OH2  686   6.671   3.758   2.448
  270TIP3    H1  687   6.679   3.819   2.375
  270TIP3    H2  688   6.743   3.696   2.436
  271TIP3   OH2  689   7.948   5.224   5.837
  271TIP3    H1  690   7.859   5.240   5.869
  271TIP3    H2  691   7.947   5.254   5.746
  272TIP3   OH2  692   4.416   3.251   7.235
  272TIP3    H1  693   4.454   3.163   7.228
  272TIP3    H2  694   4.395   3.275   7.144
  273TIP3   OH2  695   2.362   2.480   0.210
  273TIP3    H1  696   2.358   2.397   0.163
  273TIP3    H2  697   2.352   2.456   0.302
  274TIP3   OH2  698   2.554   7.258   0.727
  274TIP3    H1  699   2.547   7.289   0.637
  274TIP3    H2  700   2.648   7.255   0.744
  275TIP3   OH2  701   9.286   4.618   2.170
  275TIP3    H1  702   9.217   4.658   2.223
  275TIP3    H2  703   9.296   4.677   2.095
  276TIP3   OH2  704   2.698   2.549   6.585
  276TIP3    H1  705   2.668   2.629   6.541
  276TIP3    H2  706   2.779   2.526   6.539
  277TIP3   OH2  707   0.583   0.140   7.784
  277TIP3    H1  708   0.617   0.225   7.756
  277TIP3    H2  709   0.534   0.108   7.709
  278TIP3   OH2  710   5.650   8.864   3.851
  278TIP3    H1  711   5.702   8.921   3.908
  278TIP3    H2  712   5.697   8.862   3.768
  279TIP3   OH2  713   7.143   1.431   1.651
  279TIP3    H1  714   7.224   1.464   1.689
  279TIP3    H2  715   7.169   1.350   1.606
  280TIP3   OH2  716   3.936   5.768   4.793
  280TIP3    H1  717   3.977   5.772   4.706
  280TIP3    H2  718   3.860   5.712   4.781
  281TIP3   OH2  719   6.493   0.664   0.243
  281TIP3    H1  720   6.470   0.607   0.169
  281TIP3    H2  721   6.589   0.665   0.243
  282TIP3   OH2  722   6.820   5.728   7.014
  282TIP3    H1  723   6.815   5.822   7.002
  282TIP3    H2  724   6.816   5.716   7.109
  283TIP3   OH2  725   2.848   2.360   0.175
  283TIP3    H1  726   2.918   2.335   0.234
  283TIP3    H2  727   2.848   2.456   0.177
  284TIP3   OH2  728   7.866   2.362   2.581
  284TIP3    H1  729   7.943   2.323   2.622
  284TIP3    H2  730   7.826   2.291   2.532
  285TIP3   OH2  731   7.190   3.768   4.601
  285TIP3    H1  732   7.243   3.744   4.676
  285TIP3    H2  733   7.200   3.863   4.593
  286TIP3   OH2  734   4.676   7.652   4.300
  286TIP3    H1  735   4.605   7.620   4.244
  286TIP3    H2  736   4.640   7.646   4.389
  287TIP3   OH2  737   3.325   3.162   0.381
  287TIP3    H1  738   3.283   3.096   0.327
  287TIP3    H2  739   3.306   3.245   0.336
  288TIP3   OH2  740   5.439   2.247   2.545
  288TIP3    H1  741   5.467   2.187   2.613
  288TIP3    H2  742   5.393   2.193   2.482
  289TIP3   OH2  743   0.974   4.878   5.806
  289TIP3    H1  744   1.056   4.902   5.763
  289TIP3    H2  745   0.972   4.782   5.802
  290TIP3   OH2  746   3.326   4.625   1.384
  290TIP3    H1  747   3.319   4.593   1.474
  290TIP3    H2  748   3.299   4.717   1.389
  291TIP3   OH2  749   1.395   5.139   3.759
  291TIP3    H1  750   1.317   5.168   3.711
  291TIP3    H2  751   1.397   5.044   3.746
  292TIP3   OH2  752   0.996   2.377   0.750
  292TIP3    H1  753   0.931   2.427   0.798
  292TIP3    H2  754   0.954   2.358   0.666
  293TIP3   OH2  755   4.997   2.039   7.470
  293TIP3    H1  756   5.060   2.111   7.464
  293TIP3    H2  757   4.923   2.068   7.418
  294TIP3   OH2  758   4.978   3.553   2.010
  294TIP3    H1  759   4.958   3.499   2.087
  294TIP3    H2  760   4.901   3.545   1.955
  295TIP3   OH2  761   2.054   5.556   5.201
  295TIP3    H1  762   2.103   5.616   5.257
  295TIP3    H2  763   1.970   5.544   5.246
  296TIP3   OH2  764   0.637   0.311   6.961
  296TIP3    H1  765   0.559   0.332   6.910
  296TIP3    H2  766   0.604   0.267   7.039
  297TIP3   OH2  767   1.620   4.181   4.891
  297TIP3    H1  768   1.533   4.142   4.892
  297TIP3    H2  769   1.667   4.137   4.962
  298TIP3   OH2  770   6.781   8.828   3.887
  298TIP3    H1  771   6.809   8.900   3.831
  298TIP3    H2  772   6.713   8.865   3.943
  299TIP3   OH2  773   0.169   7.369   0.254
  299TIP3    H1  774   0.174   7.292   0.311
  299TIP3    H2  775   0.230   7.431   0.294
  300TIP3   OH2  776   3.586   2.772   0.008
  300TIP3    H1  777   3.530   2.703   0.044
  300TIP3    H2  778   3.568   2.848   0.063
  301TIP3   OH2  779   8.977   6.567   5.910
  301TIP3    H1  780   8.896   6.515   5.912
  301TIP3    H2  781   8.955   6.648   5.956
  302TIP3   OH2  782   6.726   6.251   0.619
  302TIP3    H1  783   6.742   6.230   0.527
  302TIP3    H2  784   6.787   6.196   0.667
  303TIP3   OH2  785   6.586   5.823   5.963
  303TIP3    H1  786   6.668   5.867   5.939
  303TIP3    H2  787   6.517   5.884   5.934
  304TIP3   OH2  788   8.091   1.092   5.135
  304TIP3    H1  789   8.096   1.113   5.229
  304TIP3    H2  790   8.182   1.094   5.106
  305TIP3   OH2  791   0.730   6.168   0.481
  305TIP3    H1  792   0.642   6.133   0.470
  305TIP3    H2  793   0.781   6.129   0.411
  306TIP3   OH2  794   8.047   6.382   5.456
  306TIP3    H1  795   7.993   6.305   5.472
  306TIP3    H2  796   8.070   6.376   5.363
  307TIP3   OH2  797   3.608   6.718   3.758
  307TIP3    H1  798   3.600   6.811   3.740
  307TIP3    H2  799   3.649   6.712   3.844
  308TIP3   OH2  800   1.813   5.147   6.324
  308TIP3    H1  801   1.807   5.167   6.230
  308TIP3    H2  802   1.833   5.231   6.365
  309TIP3   OH2  803   8.194   3.177   3.178
  309TIP3    H1  804   8.205   3.236   3.252
  309TIP3    H2  805   8.099   3.161   3.174
  310TIP3   OH2  806   6.112   3.662   1.739
  310TIP3    H1  807   6.114   3.736   1.799
  310TIP3    H2  808   6.133   3.586   1.793
  311TIP3   OH2  809   4.357   2.570   5.817
  311TIP3    H1  810   4.449   2.579   5.791
  311TIP3    H2  811   4.360   2.566   5.913
  312TIP3   OH2  812   3.318   5.936   1.794
  312TIP3    H1  813   3.312   5.887   1.712
  312TIP3    H2  814   3.410   5.930   1.820
  313TIP3   OH2  815   2.312   7.667   5.111
  313TIP3    H1  816   2.389   7.679   5.166
  313TIP3    H2  817   2.305   7.749   5.062
  314TIP3   OH2  818   0.405   3.397   2.710
  314TIP3    H1  819   0.489   3.442   2.697
  314TIP3    H2  820   0.362   3.446   2.780
  315TIP3   OH2  821   0.510   5.746   7.336
  315TIP3    H1  822   0.526   5.654   7.354
  315TIP3    H2  823   0.436   5.747   7.275
  316TIP3   OH2  824   8.820   2.603   7.017
  316TIP3    H1  825   8.892   2.612   7.080
  316TIP3    H2  826   8.844   2.662   6.946
  317TIP3   OH2  827   4.931   8.894   7.684
  317TIP3    H1  828   4.884   8.823   7.728
  317TIP3    H2  829   4.887   8.904   7.599
  318TIP3   OH2  830   6.154   3.418   0.924
  318TIP3    H1  831   6.080   3.464   0.884
  318TIP3    H2  832   6.116   3.366   0.994
  319TIP3   OH2  833   0.138   5.625   4.031
  319TIP3    H1  834   0.175   5.616   4.119
  319TIP3    H2  835   0.098   5.712   4.031
  320TIP3   OH2  836   0.248   3.109   2.463
  320TIP3    H1  837   0.311   3.165   2.419
  320TIP3    H2  838   0.274   3.020   2.439
  321TIP3   OH2  839   6.461   6.125   0.209
  321TIP3    H1  840   6.393   6.060   0.192
  321TIP3    H2  841   6.540   6.089   0.167
  322TIP3   OH2  842   0.324   4.652   2.641
  322TIP3    H1  843   0.275   4.621   2.565
  322TIP3    H2  844   0.351   4.741   2.618
  323TIP3   OH2  845   2.571   8.150   1.838
  323TIP3    H1  846   2.524   8.186   1.762
  323TIP3    H2  847   2.636   8.217   1.860
  324TIP3   OH2  848   5.623   1.607   0.808
  324TIP3    H1  849   5.578   1.530   0.774
  324TIP3    H2  850   5.716   1.581   0.809
  325TIP3   OH2  851   3.003   7.038   4.364
  325TIP3    H1  852   2.933   6.982   4.333
  325TIP3    H2  853   2.993   7.120   4.315
  326TIP3   OH2  854   1.450   2.271   2.733
  326TIP3    H1  855   1.516   2.255   2.665
  326TIP3    H2  856   1.435   2.366   2.728
  327TIP3   OH2  857   8.473   8.481   1.956
  327TIP3    H1  858   8.472   8.525   1.871
  327TIP3    H2  859   8.431   8.543   2.016
  328TIP3   OH2  860   7.106   8.105   7.617
  328TIP3    H1  861   7.128   8.110   7.710
  328TIP3    H2  862   7.185   8.133   7.571
  329TIP3   OH2  863   7.531   3.914   0.457
  329TIP3    H1  864   7.444   3.877   0.445
  329TIP3    H2  865   7.588   3.838   0.470
  330TIP3   OH2  866   2.784   1.770   5.889
  330TIP3    H1  867   2.746   1.858   5.882
  330TIP3    H2  868   2.737   1.730   5.962
  331TIP3   OH2  869   9.208   2.566   7.017
  331TIP3    H1  870   9.117   2.580   6.991
  331TIP3    H2  871   9.259   2.619   6.955
  332TIP3   OH2  872   0.590   4.424   3.007
  332TIP3    H1  873   0.566   4.368   3.080
  332TIP3    H2  874   0.511   4.476   2.989
  333TIP3   OH2  875   0.330   3.263   4.377
  333TIP3    H1  876   0.392   3.248   4.305
  333TIP3    H2  877   0.323   3.178   4.420
  334TIP3   OH2  878   6.437   1.841   4.817
  334TIP3    H1  879   6.387   1.826   4.898
  334TIP3    H2  880   6.457   1.752   4.786
  335TIP3   OH2  881   8.514   6.557   3.998
  335TIP3    H1  882   8.562   6.481   4.033
  335TIP3    H2  883   8.554   6.632   4.042
  336TIP3   OH2  884   6.593   5.125   4.038
  336TIP3    H1  885   6.592   5.186   3.964
  336TIP3    H2  886   6.604   5.039   3.998
  337TIP3   OH2  887   4.332   0.394   4.906
  337TIP3    H1  888   4.298   0.389   4.817
  337TIP3    H2  889   4.427   0.385   4.897
  338TIP3   OH2  890   8.459   3.007   0.534
  338TIP3    H1  891   8.522   2.956   0.585
  338TIP3    H2  892   8.451   2.960   0.451
  339TIP3   OH2  893   3.140   4.856   2.153
  339TIP3    H1  894   3.097   4.935   2.122
  339TIP3    H2  895   3.219   4.887   2.197
  340TIP3   OH2  896   7.156   7.069   3.369
  340TIP3    H1  897   7.205   6.987   3.371
  340TIP3    H2  898   7.099   7.061   3.292
  341TIP3   OH2  899   2.354   3.029   3.327
  341TIP3    H1  900   2.329   2.944   3.364
  341TIP3    H2  901   2.443   3.043   3.358
  342TIP3   OH2  902   8.789   0.387   1.327
  342TIP3    H1  903   8.774   0.481   1.328
  342TIP3    H2  904   8.854   0.374   1.257
  343TIP3   OH2  905   6.217   6.455   7.633
  343TIP3    H1  906   6.281   6.518   7.600
  343TIP3    H2  907   6.220   6.383   7.570
  344TIP3   OH2  908   7.914   6.577   3.697
  344TIP3    H1  909   7.992   6.544   3.653
  344TIP3    H2  910   7.933   6.668   3.716
  345TIP3   OH2  911   5.408   2.600   3.066
  345TIP3    H1  912   5.435   2.635   3.151
  345TIP3    H2  913   5.319   2.568   3.082
  346TIP3   OH2  914   6.339   5.320   1.953
  346TIP3    H1  915   6.389   5.401   1.952
  346TIP3    H2  916   6.403   5.252   1.930
  347TIP3   OH2  917   9.305   5.477   0.166
  347TIP3    H1  918   9.317   5.392   0.207
  347TIP3    H2  919   9.246   5.461   0.093
  348TIP3   OH2  920   1.527   8.817   2.180
  348TIP3    H1  921   1.533   8.751   2.111
  348TIP3    H2  922   1.469   8.778   2.246
  349TIP3   OH2  923   0.537   3.429   4.159
  349TIP3    H1  924   0.503   3.340   4.164
  349TIP3    H2  925   0.589   3.440   4.238
  350TIP3   OH2  926   2.025   1.017   2.989
  350TIP3    H1  927   2.049   1.088   3.048
  350TIP3    H2  928   1.968   0.960   3.041
  351TIP3   OH2  929   3.908   4.609   3.704
  351TIP3    H1  930   3.843   4.649   3.763
  351TIP3    H2  931   3.900   4.515   3.720
  352TIP3   OH2  932   8.389   3.047   3.588
  352TIP3    H1  933   8.335   3.036   3.509
  352TIP3    H2  934   8.474   3.077   3.555
  353TIP3   OH2  935   8.587   3.507   1.721
  353TIP3    H1  936   8.583   3.437   1.786
  353TIP3    H2  937   8.675   3.499   1.684
  354TIP3   OH2  938   6.723   6.372   6.580
  354TIP3    H1  939   6.719   6.388   6.674
  354TIP3    H2  940   6.632   6.378   6.550
  355TIP3   OH2  941   1.672   2.485   4.445
  355TIP3    H1  942   1.633   2.515   4.527
  355TIP3    H2  943   1.754   2.444   4.471
  356TIP3   OH2  944   6.044   5.030   3.101
  356TIP3    H1  945   6.135   5.051   3.121
  356TIP3    H2  946   6.033   5.055   3.009
  357TIP3   OH2  947   0.878   3.180   3.531
  357TIP3    H1  948   0.905   3.151   3.618
  357TIP3    H2  949   0.888   3.103   3.476
  358TIP3   OH2  950   2.972   6.187   7.135
  358TIP3    H1  951   2.905   6.248   7.166
  358TIP3    H2  952   3.018   6.159   7.214
  359TIP3   OH2  953   4.460   5.229   6.540
  359TIP3    H1  954   4.486   5.202   6.452
  359TIP3    H2  955   4.435   5.321   6.531
  360TIP3   OH2  956   7.894   0.309   3.531
  360TIP3    H1  957   7.816   0.294   3.584
  360TIP3    H2  958   7.947   0.230   3.543
  361TIP3   OH2  959   7.273   3.946   6.264
  361TIP3    H1  960   7.235   3.933   6.351
  361TIP3    H2  961   7.278   4.041   6.254
  362TIP3   OH2  962   6.043   7.053   6.069
  362TIP3    H1  963   5.985   6.992   6.114
  362TIP3    H2  964   6.125   7.005   6.059
  363TIP3   OH2  965   4.288   5.313   4.681
  363TIP3    H1  966   4.332   5.313   4.766
  363TIP3    H2  967   4.211   5.368   4.694
  364TIP3   OH2  968   0.379   5.603   0.625
  364TIP3    H1  969   0.348   5.512   0.627
  364TIP3    H2  970   0.412   5.615   0.536
  365TIP3   OH2  971   3.866   2.601   6.071
  365TIP3    H1  972   3.929   2.634   6.007
  365TIP3    H2  973   3.891   2.510   6.085
  366TIP3   OH2  974   1.474   3.512   7.314
  366TIP3    H1  975   1.488   3.526   7.220
  366TIP3    H2  976   1.541   3.566   7.357
  367TIP3   OH2  977   8.943   1.704   3.507
  367TIP3    H1  978   9.013   1.699   3.442
  367TIP3    H2  979   8.965   1.638   3.572
  368TIP3   OH2  980   2.278   6.922   6.837
  368TIP3    H1  981   2.185   6.913   6.813
  368TIP3    H2  982   2.293   7.016   6.839
  369TIP3   OH2  983   8.782   1.183   0.902
  369TIP3    H1  984   8.798   1.212   0.992
  369TIP3    H2  985   8.773   1.088   0.908
  370TIP3   OH2  986   4.318   2.176   1.535
  370TIP3    H1  987   4.348   2.267   1.529
  370TIP3    H2  988   4.291   2.153   1.446
  371TIP3   OH2  989   6.996   8.888   4.309
  371TIP3    H1  990   7.064   8.942   4.348
  371TIP3    H2  991   6.920   8.946   4.303
  372TIP3   OH2  992   6.185   2.660   5.552
  372TIP3    H1  993   6.252   2.597   5.574
  372TIP3    H2  994   6.214   2.699   5.469
  373TIP3   OH2  995   2.647   0.874   3.368
  373TIP3    H1  996   2.646   0.782   3.394
  373TIP3    H2  997   2.564   0.910   3.399
  374TIP3   OH2  998   9.514   8.969   6.650
  374TIP3    H1  999   9.512   9.024   6.728
  374TIP3    H2 1000   9.435   8.993   6.602
  375TIP3   OH2 1001   4.161   1.580   1.255
  375TIP3    H1 1002   4.180   1.497   1.212
  375TIP3    H2 1003   4.245   1.608   1.292
  376TIP3   OH2 1004   0.473   3.779   2.468
  376TIP3    H1 1005   0.431   3.701   2.433
  376TIP3    H2 1006   0.455   3.776   2.562
  377TIP3   OH2 1007   3.708   4.295   3.192
  377TIP3    H1 1008   3.773   4.262   3.131
  377TIP3    H2 1009   3.734   4.386   3.209
  378TIP3   OH2 1010   2.820   5.940   7.625
  378TIP3    H1 1011   2.773   5.866   7.585
  378TIP3    H2 1012   2.896   5.954   7.569
  379TIP3   OH2 1013   3.842   0.828   1.984
  379TIP3    H1 1014   3.849   0.783   2.069
  379TIP3    H2 1015   3.756   0.801   1.951
  380TIP3   OH2 1016   3.724   0.884   7.445
  380TIP3    H1 1017   3.724   0.813   7.381
  380TIP3    H2 1018   3.722   0.964   7.392
  381TIP3   OH2 1019   4.809   1.564   2.485
  381TIP3    H1 1020   4.790   1.657   2.467
  381TIP3    H2 1021   4.761   1.517   2.417
  382TIP3   OH2 1022   4.013   1.057   4.922
  382TIP3    H1 1023   4.101   1.030   4.896
  382TIP3    H2 1024   4.012   1.152   4.906
  383TIP3   OH2 1025   5.187   2.753   4.340
  383TIP3    H1 1026   5.233   2.836   4.331
  383TIP3    H2 1027   5.239   2.703   4.403
  384TIP3   OH2 1028   1.501   4.130   0.658
  384TIP3    H1 1029   1.576   4.185   0.682
  384TIP3    H2 1030   1.471   4.166   0.574
  385TIP3   OH2 1031   2.835   0.602   5.398
  385TIP3    H1 1032   2.883   0.631   5.475
  385TIP3    H2 1033   2.874   0.518   5.375
  386TIP3   OH2 1034   3.230   5.414   0.814
  386TIP3    H1 1035   3.185   5.460   0.743
  386TIP3    H2 1036   3.314   5.459   0.822
  387TIP3   OH2 1037   8.820   8.649   7.772
  387TIP3    H1 1038   8.895   8.666   7.829
  387TIP3    H2 1039   8.753   8.711   7.801
  388TIP3   OH2 1040   0.899   7.809   1.296
  388TIP3    H1 1041   0.888   7.718   1.269
  388TIP3    H2 1042   0.993   7.821   1.307
  389TIP3   OH2 1043   1.560   2.375   5.126
  389TIP3    H1 1044   1.513   2.407   5.048
  389TIP3    H2 1045   1.491   2.346   5.185
  390TIP3   OH2 1046   1.459   1.360   0.645
  390TIP3    H1 1047   1.384   1.317   0.604
  390TIP3    H2 1048   1.502   1.291   0.696
  391TIP3   OH2 1049   1.275   7.177   0.494
  391TIP3    H1 1050   1.285   7.121   0.416
  391TIP3    H2 1051   1.253   7.116   0.564
  392TIP3   OH2 1052   5.662   6.019   5.541
  392TIP3    H1 1053   5.631   6.027   5.451
  392TIP3    H2 1054   5.684   5.926   5.550
  393TIP3   OH2 1055   5.308   1.823   3.047
  393TIP3    H1 1056   5.237   1.790   2.992
  393TIP3    H2 1057   5.386   1.817   2.992
  394TIP3   OH2 1058   2.532   2.247   5.031
  394TIP3    H1 1059   2.584   2.322   5.003
  394TIP3    H2 1060   2.493   2.274   5.114
  395TIP3   OH2 1061   2.540   2.200   4.114
  395TIP3    H1 1062   2.556   2.114   4.075
  395TIP3    H2 1063   2.626   2.230   4.142
  396TIP3   OH2 1064   7.879   1.266   7.354
  396TIP3    H1 1065   7.877   1.192   7.414
  396TIP3    H2 1066   7.950   1.245   7.293
  397TIP3   OH2 1067   6.605   0.710   6.447
  397TIP3    H1 1068   6.626   0.773   6.379
  397TIP3    H2 1069   6.646   0.745   6.526
  398TIP3   OH2 1070   1.478   2.645   1.790
  398TIP3    H1 1071   1.500   2.716   1.730
  398TIP3    H2 1072   1.404   2.600   1.749
  399TIP3   OH2 1073   4.950   5.180   1.569
  399TIP3    H1 1074   4.898   5.130   1.505
  399TIP3    H2 1075   4.886   5.228   1.620
  400TIP3   OH2 1076   4.954   6.808   6.823
  400TIP3    H1 1077   4.962   6.824   6.729
  400TIP3    H2 1078   5.039   6.832   6.859
  401TIP3   OH2 1079   1.970   3.491   4.707
  401TIP3    H1 1080   1.882   3.463   4.729
  401TIP3    H2 1081   2.025   3.414   4.726
  402TIP3   OH2 1082   2.808   4.667   7.780
  402TIP3    H1 1083   2.844   4.754   7.764
  402TIP3    H2 1084   2.720   4.683   7.814
  403TIP3   OH2 1085   1.458   0.369   7.790
  403TIP3    H1 1086   1.442   0.378   7.884
  403TIP3    H2 1087   1.507   0.448   7.766
  404TIP3   OH2 1088   0.825   7.764   0.905
  404TIP3    H1 1089   0.774   7.765   0.823
  404TIP3    H2 1090   0.903   7.815   0.884
  405TIP3   OH2 1091   5.743   4.728   5.056
  405TIP3    H1 1092   5.795   4.650   5.072
  405TIP3    H2 1093   5.783   4.769   4.980
  406TIP3   OH2 1094   6.564   3.080   7.242
  406TIP3    H1 1095   6.525   3.004   7.284
  406TIP3    H2 1096   6.610   3.126   7.313
  407TIP3   OH2 1097   2.521   6.410   0.348
  407TIP3    H1 1098   2.508   6.338   0.410
  407TIP3    H2 1099   2.448   6.403   0.287
  408TIP3   OH2 1100   7.000   0.135   1.688
  408TIP3    H1 1101   6.951   0.054   1.676
  408TIP3    H2 1102   6.980   0.187   1.610
  409TIP3   OH2 1103   5.423   8.380   6.504
  409TIP3    H1 1104   5.517   8.372   6.518
  409TIP3    H2 1105   5.398   8.459   6.552
  410TIP3   OH2 1106   8.946   6.380   5.597
  410TIP3    H1 1107   8.874   6.333   5.640
  410TIP3    H2 1108   8.972   6.322   5.526
  411TIP3   OH2 1109   7.992   1.896   2.785
  411TIP3    H1 1110   8.052   1.874   2.713
  411TIP3    H2 1111   8.048   1.901   2.862
  412TIP3   OH2 1112   5.342   5.808   1.810
  412TIP3    H1 1113   5.384   5.740   1.757
  412TIP3    H2 1114   5.375   5.793   1.898
  413TIP3   OH2 1115   1.979   8.559   7.284
  413TIP3    H1 1116   2.051   8.621   7.272
  413TIP3    H2 1117   2.008   8.479   7.239
  414TIP3   OH2 1118   9.027   2.086   7.645
  414TIP3    H1 1119   9.042   2.044   7.560
  414TIP3    H2 1120   8.939   2.059   7.670
  415TIP3   OH2 1121   8.950   3.133   4.088
  415TIP3    H1 1122   8.938   3.134   4.183
  415TIP3    H2 1123   9.042   3.156   4.076
  416TIP3   OH2 1124   8.450   3.109   4.119
  416TIP3    H1 1125   8.426   3.113   4.026
  416TIP3    H2 1126   8.545   3.121   4.119
  417TIP3   OH2 1127   7.956   6.541   7.363
  417TIP3    H1 1128   7.899   6.533   7.439
  417TIP3    H2 1129   8.011   6.617   7.381
  418TIP3   OH2 1130   6.436   3.264   3.397
  418TIP3    H1 1131   6.443   3.261   3.492
  418TIP3    H2 1132   6.448   3.173   3.369
  419TIP3   OH2 1133   2.480   0.811   0.507
  419TIP3    H1 1134   2.505   0.749   0.576
  419TIP3    H2 1135   2.491   0.897   0.547
  420TIP3   OH2 1136   2.715   0.195   0.214
  420TIP3    H1 1137   2.649   0.194   0.145
  420TIP3    H2 1138   2.718   0.105   0.246
  421TIP3   OH2 1139   0.396   0.983   5.616
  421TIP3    H1 1140   0.490   0.966   5.614
  421TIP3    H2 1141   0.362   0.918   5.677
  422TIP3   OH2 1142   4.998   3.880   1.563
  422TIP3    H1 1143   5.050   3.954   1.594
  422TIP3    H2 1144   5.032   3.860   1.476
  423TIP3   OH2 1145   8.576   4.255   3.815
  423TIP3    H1 1146   8.604   4.176   3.768
  423TIP3    H2 1147   8.577   4.323   3.748
  424TIP3   OH2 1148   6.611   3.966   5.163
  424TIP3    H1 1149   6.686   4.025   5.167
  424TIP3    H2 1150   6.617   3.927   5.076
  425TIP3   OH2 1151   7.846   1.483   7.678
  425TIP3    H1 1152   7.780   1.478   7.609
  425TIP3    H2 1153   7.903   1.407   7.662
  426TIP3   OH2 1154   6.460   2.089   7.678
  426TIP3    H1 1155   6.469   2.053   7.766
  426TIP3    H2 1156   6.532   2.049   7.628
  427TIP3   OH2 1157   5.206   3.012   1.195
  427TIP3    H1 1158   5.142   3.083   1.191
  427TIP3    H2 1159   5.153   2.932   1.203
  428TIP3   OH2 1160   5.080   5.734   0.049
  428TIP3    H1 1161   5.032   5.753  -0.031
  428TIP3    H2 1162   5.095   5.639   0.047
  429TIP3   OH2 1163   1.097   8.222   2.671
  429TIP3    H1 1164   1.097   8.201   2.764
  429TIP3    H2 1165   1.086   8.137   2.627
  430TIP3   OH2 1166   2.781   3.444   5.484
  430TIP3    H1 1167   2.875   3.432   5.497
  430TIP3    H2 1168   2.757   3.511   5.547
  431TIP3   OH2 1169   2.066   7.797   3.703
  431TIP3    H1 1170   2.094   7.774   3.791
  431TIP3    H2 1171   1.972   7.814   3.711
  432TIP3   OH2 1172   5.460   1.151   6.854
  432TIP3    H1 1173   5.418   1.093   6.918
  432TIP3    H2 1174   5.388   1.198   6.812
  433TIP3   OH2 1175   3.192   1.555   0.880
  433TIP3    H1 1176   3.116   1.579   0.826
  433TIP3    H2 1177   3.263   1.608   0.845
  434TIP3   OH2 1178   3.196   6.781   5.429
  434TIP3    H1 1179   3.257   6.846   5.393
  434TIP3    H2 1180   3.118   6.831   5.450
  435TIP3   OH2 1181   7.122   1.891   2.200
  435TIP3    H1 1182   7.174   1.972   2.204
  435TIP3    H2 1183   7.089   1.880   2.289
  436TIP3   OH2 1184   0.715   0.879   5.584
  436TIP3    H1 1185   0.702   0.785   5.569
  436TIP3    H2 1186   0.719   0.887   5.680
  437TIP3   OH2 1187   8.932   1.820   1.294
  437TIP3    H1 1188   8.889   1.744   1.332
  437TIP3    H2 1189   9.020   1.790   1.272
  438TIP3   OH2 1190   8.259   7.707   3.611
  438TIP3    H1 1191   8.204   7.711   3.690
  438TIP3    H2 1192   8.314   7.786   3.616
  439TIP3   OH2 1193   8.276   6.028   3.770
  439TIP3    H1 1194   8.323   5.971   3.709
  439TIP3    H2 1195   8.226   6.088   3.715
  440TIP3   OH2 1196   3.889   7.259   0.795
  440TIP3    H1 1197   3.913   7.283   0.885
  440TIP3    H2 1198   3.882   7.164   0.796
  441TIP3   OH2 1199   0.243   9.012   2.525
  441TIP3    H1 1200   0.151   9.013   2.499
  441TIP3    H2 1201   0.265   9.104   2.538
  442TIP3   OH2 1202   1.031   7.046   6.426
  442TIP3    H1 1203   1.096   6.998   6.375
  442TIP3    H2 1204   0.997   6.982   6.488
  443TIP3   OH2 1205   1.577   4.347   2.872
  443TIP3    H1 1206   1.608   4.331   2.961
  443TIP3    H2 1207   1.617   4.278   2.820
  444TIP3   OH2 1208   0.389   2.546   6.440
  444TIP3    H1 1209   0.445   2.514   6.510
  444TIP3    H2 1210   0.372   2.469   6.386
  445TIP3   OH2 1211   8.015   3.875   7.272
  445TIP3    H1 1212   7.935   3.922   7.292
  445TIP3    H2 1213   8.060   3.930   7.207
  446TIP3   OH2 1214   3.492   7.250   5.418
  446TIP3    H1 1215   3.566   7.283   5.469
  446TIP3    H2 1216   3.531   7.220   5.336
  447TIP3   OH2 1217   0.669   5.606   3.419
  447TIP3    H1 1218   0.648   5.699   3.415
  447TIP3    H2 1219   0.596   5.563   3.374
  448TIP3   OH2 1220   6.539   2.178   4.118
  448TIP3    H1 1221   6.511   2.203   4.030
  448TIP3    H2 1222   6.510   2.250   4.174
  449TIP3   OH2 1223   2.765   5.744   7.439
  449TIP3    H1 1224   2.678   5.705   7.452
  449TIP3    H2 1225   2.751   5.809   7.370
  450TIP3   OH2 1226   2.423   9.005   2.086
  450TIP3    H1 1227   2.461   9.072   2.143
  450TIP3    H2 1228   2.434   9.039   1.998
  451TIP3   OH2 1229   8.884   8.565   7.235
  451TIP3    H1 1230   8.891   8.660   7.225
  451TIP3    H2 1231   8.790   8.549   7.248
  452TIP3   OH2 1232   1.604   7.498   6.958
  452TIP3    H1 1233   1.627   7.407   6.937
  452TIP3    H2 1234   1.601   7.542   6.873
  453TIP3   OH2 1235   3.253   1.099   4.322
  453TIP3    H1 1236   3.343   1.068   4.325
  453TIP3    H2 1237   3.254   1.181   4.372
  454TIP3   OH2 1238   2.411   6.493   6.757
  454TIP3    H1 1239   2.361   6.549   6.698
  454TIP3    H2 1240   2.458   6.554   6.814
  455TIP3   OH2 1241   3.163   6.726   4.328
  455TIP3    H1 1242   3.110   6.747   4.252
  455TIP3    H2 1243   3.156   6.630   4.337
  456TIP3   OH2 1244   0.848   5.221   4.059
  456TIP3    H1 1245   0.910   5.276   4.108
  456TIP3    H2 1246   0.829   5.271   3.980
  457TIP3   OH2 1247   7.541   7.897   5.787
  457TIP3    H1 1248   7.513   7.834   5.721
  457TIP3    H2 1249   7.611   7.947   5.745
  458TIP3   OH2 1250   6.365   6.011   1.086
  458TIP3    H1 1251   6.452   5.981   1.113
  458TIP3    H2 1252   6.356   6.098   1.127
  459TIP3   OH2 1253   0.786   7.385   0.908
  459TIP3    H1 1254   0.797   7.295   0.937
  459TIP3    H2 1255   0.865   7.403   0.856
  460TIP3   OH2 1256   6.214   4.068   3.768
  460TIP3    H1 1257   6.247   4.112   3.846
  460TIP3    H2 1258   6.237   4.127   3.696
  461TIP3   OH2 1259   1.408   8.566   4.061
  461TIP3    H1 1260   1.403   8.490   4.003
  461TIP3    H2 1261   1.388   8.531   4.148
  462TIP3   OH2 1262   8.719   5.483   5.479
  462TIP3    H1 1263   8.808   5.510   5.504
  462TIP3    H2 1264   8.694   5.418   5.545
  463TIP3   OH2 1265   1.824   1.603   4.242
  463TIP3    H1 1266   1.747   1.612   4.185
  463TIP3    H2 1267   1.788   1.587   4.329
  464TIP3   OH2 1268   5.440   1.929   3.628
  464TIP3    H1 1269   5.391   1.957   3.706
  464TIP3    H2 1270   5.419   1.836   3.618
  465TIP3   OH2 1271   3.751   7.471   4.011
  465TIP3    H1 1272   3.748   7.440   4.101
  465TIP3    H2 1273   3.834   7.438   3.976
  466TIP3   OH2 1274   2.404   1.486   2.391
  466TIP3    H1 1275   2.471   1.443   2.444
  466TIP3    H2 1276   2.387   1.425   2.320
  467TIP3   OH2 1277   8.127   7.805   5.188
  467TIP3    H1 1278   8.136   7.755   5.269
  467TIP3    H2 1279   8.135   7.896   5.215
  468TIP3   OH2 1280   5.126   3.798   3.273
  468TIP3    H1 1281   5.214   3.762   3.279
  468TIP3    H2 1282   5.077   3.732   3.223
  469TIP3   OH2 1283   1.100   3.600   3.381
  469TIP3    H1 1284   1.114   3.661   3.454
  469TIP3    H2 1285   1.114   3.513   3.419
  470TIP3   OH2 1286   4.250   1.859   0.015
  470TIP3    H1 1287   4.329   1.833  -0.033
  470TIP3    H2 1288   4.226   1.944  -0.022
  471TIP3   OH2 1289   7.962   6.916   1.851
  471TIP3    H1 1290   8.027   6.982   1.825
  471TIP3    H2 1291   8.008   6.832   1.839
  472TIP3   OH2 1292   4.279   6.082   2.505
  472TIP3    H1 1293   4.302   5.992   2.481
  472TIP3    H2 1294   4.355   6.114   2.552
  473TIP3   OH2 1295   5.672   2.373   5.572
  473TIP3    H1 1296   5.720   2.297   5.537
  473TIP3    H2 1297   5.631   2.412   5.495
  474TIP3   OH2 1298   5.879   7.346   7.671
  474TIP3    H1 1299   5.833   7.372   7.751
  474TIP3    H2 1300   5.971   7.341   7.697
  475TIP3   OH2 1301   5.521   3.668   1.997
  475TIP3    H1 1302   5.495   3.751   2.037
  475TIP3    H2 1303   5.518   3.605   2.069
  476TIP3   OH2 1304   7.389   4.632   4.088
  476TIP3    H1 1305   7.455   4.600   4.149
  476TIP3    H2 1306   7.387   4.727   4.102
  477TIP3   OH2 1307   0.699   8.936   5.169
  477TIP3    H1 1308   0.674   8.869   5.233
  477TIP3    H2 1309   0.784   8.906   5.135
  478TIP3   OH2 1310   6.250   2.015   2.829
  478TIP3    H1 1311   6.214   2.029   2.741
  478TIP3    H2 1312   6.290   2.099   2.852
  479TIP3   OH2 1313   6.562   2.794   7.017
  479TIP3    H1 1314   6.648   2.830   7.036
  479TIP3    H2 1315   6.520   2.861   6.962
  480TIP3   OH2 1316   7.092   3.186   6.987
  480TIP3    H1 1317   7.101   3.279   6.969
  480TIP3    H2 1318   7.088   3.180   7.083
  481TIP3   OH2 1319   3.725   3.466   7.115
  481TIP3    H1 1320   3.700   3.558   7.111
  481TIP3    H2 1321   3.671   3.424   7.049
  482TIP3   OH2 1322   8.644   3.571   1.327
  482TIP3    H1 1323   8.698   3.609   1.396
  482TIP3    H2 1324   8.639   3.638   1.259
  483TIP3   OH2 1325   5.484   8.951   3.614
  483TIP3    H1 1326   5.518   8.862   3.606
  483TIP3    H2 1327   5.539   9.003   3.556
  484TIP3   OH2 1328   2.462   4.182   4.690
  484TIP3    H1 1329   2.447   4.087   4.681
  484TIP3    H2 1330   2.548   4.189   4.731
  485TIP3   OH2 1331   3.347   7.850   7.493
  485TIP3    H1 1332   3.391   7.926   7.456
  485TIP3    H2 1333   3.257   7.855   7.461
  486TIP3   OH2 1334   6.787   5.135   0.539
  486TIP3    H1 1335   6.696   5.134   0.570
  486TIP3    H2 1336   6.822   5.050   0.566
  487TIP3   OH2 1337   9.026   0.475   5.641
  487TIP3    H1 1338   8.931   0.485   5.631
  487TIP3    H2 1339   9.050   0.540   5.707
  488TIP3   OH2 1340   0.715   2.835   1.858
  488TIP3    H1 1341   0.807   2.829   1.882
  488TIP3    H2 1342   0.670   2.779   1.920
  489TIP3   OH2 1343   8.139   0.693   6.308
  489TIP3    H1 1344   8.221   0.741   6.325
  489TIP3    H2 1345   8.140   0.621   6.372
  490TIP3   OH2 1346   4.287   8.113   7.624
  490TIP3    H1 1347   4.237   8.181   7.578
  490TIP3    H2 1348   4.363   8.158   7.659
  491TIP3   OH2 1349   1.391   7.257   2.467
  491TIP3    H1 1350   1.325   7.256   2.536
  491TIP3    H2 1351   1.444   7.179   2.484
  492TIP3   OH2 1352   3.629   0.548   2.330
  492TIP3    H1 1353   3.697   0.585   2.386
  492TIP3    H2 1354   3.550   0.595   2.354
  493TIP3   OH2 1355   5.278   3.361   1.265
  493TIP3    H1 1356   5.346   3.297   1.286
  493TIP3    H2 1357   5.307   3.441   1.308
  494TIP3   OH2 1358   4.031   8.434   2.680
  494TIP3    H1 1359   4.071   8.351   2.703
  494TIP3    H2 1360   3.938   8.414   2.667
  495TIP3   OH2 1361   6.847   3.219   6.628
  495TIP3    H1 1362   6.790   3.170   6.688
  495TIP3    H2 1363   6.845   3.309   6.660
  496TIP3   OH2 1364   7.868   0.672   6.237
  496TIP3    H1 1365   7.954   0.684   6.276
  496TIP3    H2 1366   7.869   0.727   6.158
  497TIP3   OH2 1367   1.530   0.435   5.948
  497TIP3    H1 1368   1.476   0.514   5.945
  497TIP3    H2 1369   1.571   0.432   5.861
  498TIP3   OH2 1370   3.384   2.122   5.319
  498TIP3    H1 1371   3.401   2.190   5.385
  498TIP3    H2 1372   3.469   2.105   5.279
  499TIP3   OH2 1373   1.884   7.756   1.522
  499TIP3    H1 1374   1.956   7.799   1.474
  499TIP3    H2 1375   1.878   7.669   1.482
  500TIP3   OH2 1376   1.351   5.623   4.769
  500TIP3    H1 1377   1.341   5.573   4.851
  500TIP3    H2 1378   1.386   5.559   4.707
  501TIP3   OH2 1379   4.400   3.713   5.332
  501TIP3    H1 1380   4.484   3.742   5.296
  501TIP3    H2 1381   4.412   3.714   5.426
  502TIP3   OH2 1382   9.557   0.701   4.535
  502TIP3    H1 1383   9.579   0.651   4.614
  502TIP3    H2 1384   9.532   0.787   4.568
  503TIP3   OH2 1385   5.101   8.707   6.568
  503TIP3    H1 1386   5.118   8.691   6.475
  503TIP3    H2 1387   5.038   8.779   6.569
  504TIP3   OH2 1388   0.749   5.156   0.169
  504TIP3    H1 1389   0.814   5.200   0.114
  504TIP3    H2 1390   0.675   5.141   0.110
  505TIP3   OH2 1391   3.333   1.389   1.303
  505TIP3    H1 1392   3.271   1.376   1.232
  505TIP3    H2 1393   3.406   1.437   1.262
  506TIP3   OH2 1394   4.753   7.063   4.630
  506TIP3    H1 1395   4.805   7.046   4.709
  506TIP3    H2 1396   4.708   6.981   4.612
  507TIP3   OH2 1397   0.347   4.008   3.916
  507TIP3    H1 1398   0.269   4.014   3.971
  507TIP3    H2 1399   0.411   3.961   3.969
  508TIP3   OH2 1400   7.561   1.474   7.580
  508TIP3    H1 1401   7.552   1.381   7.557
  508TIP3    H2 1402   7.508   1.484   7.659
  509TIP3   OH2 1403   5.755   6.496   5.733
  509TIP3    H1 1404   5.833   6.451   5.766
  509TIP3    H2 1405   5.684   6.433   5.747
  510TIP3   OH2 1406   8.558   7.094   4.651
  510TIP3    H1 1407   8.621   7.128   4.588
  510TIP3    H2 1408   8.542   7.168   4.710
  511TIP3   OH2 1409   6.010   8.901   4.254
  511TIP3    H1 1410   5.983   8.974   4.310
  511TIP3    H2 1411   6.101   8.885   4.280
  512TIP3   OH2 1412   2.470   2.801   3.138
  512TIP3    H1 1413   2.442   2.815   3.228
  512TIP3    H2 1414   2.430   2.874   3.089
  513TIP3   OH2 1415   9.130   8.525   1.438
  513TIP3    H1 1416   9.078   8.474   1.376
  513TIP3    H2 1417   9.068   8.551   1.506
  514TIP3   OH2 1418   4.510   3.592   5.684
  514TIP3    H1 1419   4.603   3.616   5.678
  514TIP3    H2 1420   4.503   3.512   5.630
  515TIP3   OH2 1421   4.479   6.176   2.679
  515TIP3    H1 1422   4.505   6.106   2.739
  515TIP3    H2 1423   4.549   6.180   2.615
  516TIP3   OH2 1424   5.063   3.569   3.093
  516TIP3    H1 1425   5.037   3.498   3.034
  516TIP3    H2 1426   5.124   3.622   3.041
  517TIP3   OH2 1427   1.373   5.396   0.119
  517TIP3    H1 1428   1.402   5.477   0.076
  517TIP3    H2 1429   1.284   5.414   0.147
  518TIP3   OH2 1430   3.204   0.737   2.135
  518TIP3    H1 1431   3.131   0.724   2.196
  518TIP3    H2 1432   3.268   0.671   2.160
  519TIP3   OH2 1433   0.862   4.403   0.140
  519TIP3    H1 1434   0.821   4.319   0.162
  519TIP3    H2 1435   0.857   4.407   0.045
  520TIP3   OH2 1436   0.989   8.090   4.685
  520TIP3    H1 1437   1.075   8.086   4.726
  520TIP3    H2 1438   0.951   8.172   4.717
  521TIP3   OH2 1439   7.113   8.303   4.438
  521TIP3    H1 1440   7.159   8.385   4.423
  521TIP3    H2 1441   7.173   8.251   4.491
  522TIP3   OH2 1442   3.023   0.395   1.520
  522TIP3    H1 1443   3.111   0.362   1.537
  522TIP3    H2 1444   2.999   0.442   1.601
  523TIP3   OH2 1445   8.763   0.401   7.712
  523TIP3    H1 1446   8.809   0.318   7.700
  523TIP3    H2 1447   8.772   0.446   7.628
  524TIP3   OH2 1448   3.585   1.452   4.939
  524TIP3    H1 1449   3.502   1.497   4.957
  524TIP3    H2 1450   3.622   1.434   5.026
  525TIP3   OH2 1451   6.914   2.618   0.780
  525TIP3    H1 1452   6.895   2.626   0.873
  525TIP3    H2 1453   7.000   2.658   0.769
  526TIP3   OH2 1454   6.359   4.574   1.873
  526TIP3    H1 1455   6.422   4.634   1.913
  526TIP3    H2 1456   6.395   4.556   1.787
  527TIP3   OH2 1457   5.457   2.515   2.394
  527TIP3    H1 1458   5.512   2.463   2.453
  527TIP3    H2 1459   5.492   2.498   2.306
  528TIP3   OH2 1460   1.344   4.781   3.139
  528TIP3    H1 1461   1.365   4.728   3.215
  528TIP3    H2 1462   1.251   4.803   3.151
  529TIP3   OH2 1463   8.270   8.281   2.939
  529TIP3    H1 1464   8.333   8.242   2.999
  529TIP3    H2 1465   8.321   8.301   2.860
  530TIP3   OH2 1466   4.632   4.361   1.468
  530TIP3    H1 1467   4.555   4.390   1.420
  530TIP3    H2 1468   4.679   4.443   1.488
  531TIP3   OH2 1469   3.822   5.225   6.526
  531TIP3    H1 1470   3.835   5.315   6.496
  531TIP3    H2 1471   3.735   5.201   6.494
  532TIP3   OH2 1472   6.079   8.329   3.970
  532TIP3    H1 1473   5.986   8.325   3.948
  532TIP3    H2 1474   6.086   8.401   4.033
  533TIP3   OH2 1475   2.659   4.286   1.612
  533TIP3    H1 1476   2.566   4.284   1.591
  533TIP3    H2 1477   2.663   4.261   1.705
  534TIP3   OH2 1478   1.176   7.597   5.674
  534TIP3    H1 1479   1.261   7.630   5.703
  534TIP3    H2 1480   1.159   7.523   5.732
  535TIP3   OH2 1481   2.799   7.433   7.260
  535TIP3    H1 1482   2.749   7.352   7.273
  535TIP3    H2 1483   2.738   7.503   7.280
  536TIP3   OH2 1484   5.935  -0.001   1.383
  536TIP3    H1 1485   5.896   0.086   1.392
  536TIP3    H2 1486   5.887  -0.042   1.311
  537TIP3   OH2 1487   9.113   2.085   4.212
  537TIP3    H1 1488   9.156   2.053   4.132
  537TIP3    H2 1489   9.082   2.172   4.189
  538TIP3   OH2 1490   2.309   2.419   1.217
  538TIP3    H1 1491   2.215   2.409   1.204
  538TIP3    H2 1492   2.323   2.400   1.310
  539TIP3   OH2 1493   9.505   6.653   6.217
  539TIP3    H1 1494   9.570   6.621   6.155
  539TIP3    H2 1495   9.446   6.579   6.230
  540TIP3   OH2 1496   0.911   5.792   3.999
  540TIP3    H1 1497   0.958   5.848   4.060
  540TIP3    H2 1498   0.839   5.846   3.966
  541TIP3   OH2 1499   8.773   0.540   2.181
  541TIP3    H1 1500   8.720   0.489   2.242
  541TIP3    H2 1501   8.862   0.508   2.194
  542TIP3   OH2 1502   3.527   3.720   6.075
  542TIP3    H1 1503   3.505   3.742   5.984
  542TIP3    H2 1504   3.563   3.801   6.110
  543TIP3   OH2 1505   9.543   5.816   3.453
  543TIP3    H1 1506   9.533   5.893   3.397
  543TIP3    H2 1507   9.597   5.755   3.402
  544TIP3   OH2 1508   4.681   5.273   7.033
  544TIP3    H1 1509   4.761   5.287   6.982
  544TIP3    H2 1510   4.696   5.191   7.080
  545TIP3   OH2 1511   2.832   0.406   5.685
  545TIP3    H1 1512   2.892   0.478   5.666
  545TIP3    H2 1513   2.874   0.357   5.756
  546TIP3   OH2 1514   6.944   1.150   0.243
  546TIP3    H1 1515   6.875   1.207   0.209
  546TIP3    H2 1516   6.928   1.147   0.337
  547TIP3   OH2 1517   7.850   3.629   6.219
  547TIP3    H1 1518   7.832   3.723   6.212
  547TIP3    H2 1519   7.783   3.596   6.279
  548TIP3   OH2 1520   4.288   0.744   2.703
  548TIP3    H1 1521   4.270   0.654   2.730
  548TIP3    H2 1522   4.202   0.780   2.683
  549TIP3   OH2 1523   4.043   6.659   1.837
  549TIP3    H1 1524   4.009   6.569   1.838
  549TIP3    H2 1525   4.077   6.671   1.749
  550TIP3   OH2 1526   6.632   6.959   1.853
  550TIP3    H1 1527   6.585   7.033   1.892
  550TIP3    H2 1528   6.724   6.986   1.853
  551TIP3   OH2 1529   0.877   1.252   2.693
  551TIP3    H1 1530   0.812   1.250   2.622
  551TIP3    H2 1531   0.877   1.342   2.724
  552TIP3   OH2 1532   4.861   4.632   1.966
  552TIP3    H1 1533   4.800   4.641   2.039
  552TIP3    H2 1534   4.837   4.703   1.906
  553TIP3   OH2 1535   3.460   2.065   6.245
  553TIP3    H1 1536   3.476   2.136   6.183
  553TIP3    H2 1537   3.420   1.995   6.192
  554TIP3   OH2 1538   1.389   4.409   1.478
  554TIP3    H1 1539   1.479   4.430   1.451
  554TIP3    H2 1540   1.382   4.315   1.461
  555TIP3   OH2 1541   6.820   0.061   2.448
  555TIP3    H1 1542   6.759   0.119   2.495
  555TIP3    H2 1543   6.799  -0.026   2.481
  556TIP3   OH2 1544   8.540   4.019   0.376
  556TIP3    H1 1545   8.475   3.963   0.418
  556TIP3    H2 1546   8.617   3.963   0.366
  557TIP3   OH2 1547   3.377   0.730   5.954
  557TIP3    H1 1548   3.353   0.686   6.036
  557TIP3    H2 1549   3.467   0.760   5.969
  558TIP3   OH2 1550   5.175   6.262   4.221
  558TIP3    H1 1551   5.198   6.285   4.311
  558TIP3    H2 1552   5.231   6.188   4.199
  559TIP3   OH2 1553   6.305   6.077   4.770
  559TIP3    H1 1554   6.230   6.136   4.766
  559TIP3    H2 1555   6.290   6.024   4.849
  560TIP3   OH2 1556   6.038   7.875   0.849
  560TIP3    H1 1557   6.042   7.837   0.937
  560TIP3    H2 1558   6.113   7.935   0.846
  561TIP3   OH2 1559   9.529   0.849   0.385
  561TIP3    H1 1560   9.510   0.871   0.294
  561TIP3    H2 1561   9.544   0.934   0.427
  562TIP3   OH2 1562   7.077   0.830   7.208
  562TIP3    H1 1563   6.999   0.817   7.261
  562TIP3    H2 1564   7.135   0.757   7.231
  563TIP3   OH2 1565   3.205   6.939   3.634
  563TIP3    H1 1566   3.158   6.889   3.701
  563TIP3    H2 1567   3.254   6.872   3.585
  564TIP3   OH2 1568   5.908   4.874   6.419
  564TIP3    H1 1569   5.873   4.946   6.470
  564TIP3    H2 1570   5.914   4.801   6.482
  565TIP3   OH2 1571   1.649   8.345   5.895
  565TIP3    H1 1572   1.633   8.411   5.962
  565TIP3    H2 1573   1.592   8.272   5.918
  566TIP3   OH2 1574   2.150   4.196   3.851
  566TIP3    H1 1575   2.084   4.250   3.807
  566TIP3    H2 1576   2.107   4.113   3.867
  567TIP3   OH2 1577   4.333   3.032   5.347
  567TIP3    H1 1578   4.308   3.124   5.357
  567TIP3    H2 1579   4.328   3.016   5.252
  568TIP3   OH2 1580   6.496   8.122   2.099
  568TIP3    H1 1581   6.565   8.138   2.163
  568TIP3    H2 1582   6.509   8.031   2.070
  569TIP3   OH2 1583   2.653   2.927   4.672
  569TIP3    H1 1584   2.588   2.859   4.657
  569TIP3    H2 1585   2.610   2.989   4.731
  570TIP3   OH2 1586   2.033   5.447   3.535
  570TIP3    H1 1587   1.969   5.406   3.592
  570TIP3    H2 1588   2.031   5.540   3.558
  571TIP3   OH2 1589   0.747   8.611   5.189
  571TIP3    H1 1590   0.692   8.537   5.217
  571TIP3    H2 1591   0.785   8.644   5.271
  572TIP3   OH2 1592   7.839   2.972   0.276
  572TIP3    H1 1593   7.877   2.901   0.225
  572TIP3    H2 1594   7.914   3.028   0.298
  573TIP3   OH2 1595   1.361   3.745   1.988
  573TIP3    H1 1596   1.317   3.825   1.957
  573TIP3    H2 1597   1.293   3.677   1.983
  574TIP3   OH2 1598   8.033   0.476   1.597
  574TIP3    H1 1599   8.127   0.477   1.610
  574TIP3    H2 1600   8.010   0.566   1.574
  575TIP3   OH2 1601   1.524   8.547   2.362
  575TIP3    H1 1602   1.489   8.619   2.415
  575TIP3    H2 1603   1.478   8.470   2.394
  576TIP3   OH2 1604   5.024   3.743   4.542
  576TIP3    H1 1605   4.946   3.781   4.504
  576TIP3    H2 1606   5.023   3.773   4.633
  577TIP3   OH2 1607   9.551   8.738   4.021
  577TIP3    H1 1608   9.541   8.670   4.087
  577TIP3    H2 1609   9.640   8.726   3.987
  578TIP3   OH2 1610   6.083   7.290   7.274
  578TIP3    H1 1611   6.024   7.303   7.199
  578TIP3    H2 1612   6.163   7.256   7.235
  579TIP3   OH2 1613   2.052   0.612   3.299
  579TIP3    H1 1614   1.989   0.682   3.283
  579TIP3    H2 1615   2.000   0.542   3.339
  580TIP3   OH2 1616   5.942   6.138   2.057
  580TIP3    H1 1617   5.924   6.232   2.062
  580TIP3    H2 1618   5.939   6.118   1.964
  581TIP3   OH2 1619   6.813   7.884   4.377
  581TIP3    H1 1620   6.866   7.919   4.449
  581TIP3    H2 1621   6.747   7.951   4.360
  582TIP3   OH2 1622   2.716   7.625   3.637
  582TIP3    H1 1623   2.794   7.581   3.669
  582TIP3    H2 1624   2.744   7.715   3.621
  583TIP3   OH2 1625   8.673   4.784   4.666
  583TIP3    H1 1626   8.767   4.765   4.672
  583TIP3    H2 1627   8.634   4.731   4.736
  584TIP3   OH2 1628   3.993   5.826   7.259
  584TIP3    H1 1629   4.034   5.752   7.214
  584TIP3    H2 1630   3.996   5.803   7.352
  585TIP3   OH2 1631   5.369   6.269   2.459
  585TIP3    H1 1632   5.285   6.284   2.416
  585TIP3    H2 1633   5.393   6.180   2.434
  586TIP3   OH2 1634   3.560   1.687   1.388
  586TIP3    H1 1635   3.624   1.629   1.347
  586TIP3    H2 1636   3.609   1.738   1.452
  587TIP3   OH2 1637   1.919   0.782   5.691
  587TIP3    H1 1638   1.841   0.758   5.741
  587TIP3    H2 1639   1.991   0.740   5.737
  588TIP3   OH2 1640   7.567   8.258   3.560
  588TIP3    H1 1641   7.504   8.271   3.488
  588TIP3    H2 1642   7.569   8.163   3.573
  589TIP3   OH2 1643   5.223   0.747   4.055
  589TIP3    H1 1644   5.250   0.747   3.963
  589TIP3    H2 1645   5.295   0.703   4.101
  590TIP3   OH2 1646   0.086   1.801   6.739
  590TIP3    H1 1647   0.048   1.714   6.741
  590TIP3    H2 1648   0.156   1.796   6.674
  591TIP3   OH2 1649   9.535   5.621   0.356
  591TIP3    H1 1650   9.572   5.598   0.271
  591TIP3    H2 1651   9.572   5.557   0.417
  592TIP3   OH2 1652   7.788   3.997   7.737
  592TIP3    H1 1653   7.876   3.990   7.775
  592TIP3    H2 1654   7.784   3.925   7.674
  593TIP3   OH2 1655   0.158   3.812   1.370
  593TIP3    H1 1656   0.091   3.770   1.316
  593TIP3    H2 1657   0.133   3.791   1.460
  594TIP3   OH2 1658   4.245   1.265   1.219
  594TIP3    H1 1659   4.251   1.210   1.141
  594TIP3    H2 1660   4.191   1.214   1.280
  595TIP3   OH2 1661   6.884   3.690   6.474
  595TIP3    H1 1662   6.877   3.696   6.379
  595TIP3    H2 1663   6.978   3.700   6.492
  596TIP3   OH2 1664   9.323   6.853   7.419
  596TIP3    H1 1665   9.280   6.938   7.432
  596TIP3    H2 1666   9.336   6.820   7.508
  597TIP3   OH2 1667   8.236   6.736   0.872
  597TIP3    H1 1668   8.313   6.685   0.850
  597TIP3    H2 1669   8.167   6.701   0.816
  598TIP3   OH2 1670   1.009   7.772   6.394
  598TIP3    H1 1671   1.022   7.851   6.342
  598TIP3    H2 1672   1.002   7.803   6.484
  599TIP3   OH2 1673   3.743   7.329   7.671
  599TIP3    H1 1674   3.752   7.355   7.763
  599TIP3    H2 1675   3.754   7.410   7.622
  600TIP3   OH2 1676   7.883   1.863   6.438
  600TIP3    H1 1677   7.847   1.913   6.512
  600TIP3    H2 1678   7.843   1.902   6.361
  601TIP3   OH2 1679   4.071   7.402   3.328
  601TIP3    H1 1680   4.013   7.339   3.370
  601TIP3    H2 1681   4.119   7.352   3.262
  602TIP3   OH2 1682   0.038   8.066   1.224
  602TIP3    H1 1683   0.118   8.020   1.252
  602TIP3    H2 1684   0.043   8.151   1.266
  603TIP3   OH2 1685   8.247   3.601   3.176
  603TIP3    H1 1686   8.178   3.625   3.114
  603TIP3    H2 1687   8.313   3.557   3.123
  604TIP3   OH2 1688   4.744   1.049   2.146
  604TIP3    H1 1689   4.767   0.981   2.083
  604TIP3    H2 1690   4.668   1.014   2.192
  605TIP3   OH2 1691   2.378   7.253   2.230
  605TIP3    H1 1692   2.408   7.241   2.140
  605TIP3    H2 1693   2.368   7.348   2.239
  606TIP3   OH2 1694   6.286   7.150   4.371
  606TIP3    H1 1695   6.220   7.100   4.322
  606TIP3    H2 1696   6.360   7.089   4.379
  607TIP3   OH2 1697   3.630   5.864   7.069
  607TIP3    H1 1698   3.536   5.871   7.052
  607TIP3    H2 1699   3.664   5.817   6.993
  608TIP3   OH2 1700   6.001   5.701   3.237
  608TIP3    H1 1701   6.031   5.792   3.240
  608TIP3    H2 1702   6.016   5.668   3.325
  609TIP3   OH2 1703   0.132   8.923   7.086
  609TIP3    H1 1704   0.213   8.878   7.109
  609TIP3    H2 1705   0.097   8.872   7.013
  610TIP3   OH2 1706   0.117   4.063   4.855
  610TIP3    H1 1707   0.146   3.983   4.811
  610TIP3    H2 1708   0.049   4.034   4.916
  611TIP3   OH2 1709   1.628   7.588   1.902
  611TIP3    H1 1710   1.634   7.683   1.913
  611TIP3    H2 1711   1.712   7.563   1.863
  612TIP3   OH2 1712   6.103   1.662   4.328
  612TIP3    H1 1713   6.058   1.681   4.246
  612TIP3    H2 1714   6.063   1.720   4.392
  613TIP3   OH2 1715   3.636   7.725   6.681
  613TIP3    H1 1716   3.564   7.665   6.661
  613TIP3    H2 1717   3.594   7.811   6.689
  614TIP3   OH2 1718   2.482   0.405   3.101
  614TIP3    H1 1719   2.399   0.452   3.092
  614TIP3    H2 1720   2.533   0.430   3.024
  615TIP3   OH2 1721   3.311   3.243   5.928
  615TIP3    H1 1722   3.219   3.238   5.954
  615TIP3    H2 1723   3.350   3.301   5.994
  616TIP3   OH2 1724   2.498   0.218   5.095
  616TIP3    H1 1725   2.560   0.273   5.143
  616TIP3    H2 1726   2.552   0.172   5.030
  617TIP3   OH2 1727   8.580   7.134   1.364
  617TIP3    H1 1728   8.563   7.189   1.440
  617TIP3    H2 1729   8.503   7.147   1.307
  618TIP3   OH2 1730   2.650   6.655   5.089
  618TIP3    H1 1731   2.654   6.563   5.116
  618TIP3    H2 1732   2.693   6.702   5.161
  619TIP3   OH2 1733   3.559   3.967   6.220
  619TIP3    H1 1734   3.607   4.043   6.254
  619TIP3    H2 1735   3.468   3.994   6.219
  620TIP3   OH2 1736   8.790   7.999   1.597
  620TIP3    H1 1737   8.790   8.045   1.681
  620TIP3    H2 1738   8.697   7.981   1.579
  621TIP3   OH2 1739   0.036   1.550   1.976
  621TIP3    H1 1740  -0.029   1.537   1.908
  621TIP3    H2 1741   0.098   1.613   1.939
  622TIP3   OH2 1742   5.363   6.296   0.622
  622TIP3    H1 1743   5.446   6.249   0.629
  622TIP3    H2 1744   5.380   6.364   0.556
  623TIP3   OH2 1745   1.689   6.265   1.105
  623TIP3    H1 1746   1.600   6.262   1.071
  623TIP3    H2 1747   1.689   6.339   1.166
  624TIP3   OH2 1748   1.926   4.008   3.971
  624TIP3    H1 1749   1.854   4.067   3.993
  624TIP3    H2 1750   1.892   3.954   3.900
  625TIP3   OH2 1751   0.185   2.567   2.245
  625TIP3    H1 1752   0.128   2.491   2.232
  625TIP3    H2 1753   0.262   2.531   2.289
  626TIP3   OH2 1754   1.898   1.496   4.801
  626TIP3    H1 1755   1.874   1.431   4.866
  626TIP3    H2 1756   1.989   1.518   4.823
  627TIP3   OH2 1757   0.511   5.403   6.072
  627TIP3    H1 1758   0.471   5.319   6.051
  627TIP3    H2 1759   0.446   5.448   6.126
  628TIP3   OH2 1760   6.986   3.772   4.304
  628TIP3    H1 1761   6.990   3.745   4.396
  628TIP3    H2 1762   7.076   3.759   4.272
  629TIP3   OH2 1763   4.838   8.179   0.847
  629TIP3    H1 1764   4.778   8.132   0.905
  629TIP3    H2 1765   4.849   8.122   0.771
  630TIP3   OH2 1766   0.617   6.649   2.924
  630TIP3    H1 1767   0.591   6.741   2.915
  630TIP3    H2 1768   0.680   6.649   2.996
  631TIP3   OH2 1769   1.199   8.162   0.437
  631TIP3    H1 1770   1.287   8.162   0.473
  631TIP3    H2 1771   1.158   8.241   0.474
  632TIP3   OH2 1772   8.862   0.158   2.662
  632TIP3    H1 1773   8.888   0.150   2.754
  632TIP3    H2 1774   8.893   0.078   2.621
  633TIP3   OH2 1775   2.661   3.983   5.763
  633TIP3    H1 1776   2.737   4.037   5.786
  633TIP3    H2 1777   2.607   4.040   5.708
  634TIP3   OH2 1778   9.293   0.938   1.346
  634TIP3    H1 1779   9.308   0.944   1.252
  634TIP3    H2 1780   9.199   0.951   1.357
  635TIP3   OH2 1781   2.456   3.225   1.847
  635TIP3    H1 1782   2.515   3.265   1.783
  635TIP3    H2 1783   2.439   3.294   1.911
  636TIP3   OH2 1784   4.411   3.484   1.117
  636TIP3    H1 1785   4.487   3.501   1.060
  636TIP3    H2 1786   4.335   3.498   1.060
  637TIP3   OH2 1787   6.240   2.554   0.027
  637TIP3    H1 1788   6.297   2.547   0.104
  637TIP3    H2 1789   6.246   2.646   0.001
  638TIP3   OH2 1790   9.128   6.200   6.085
  638TIP3    H1 1791   9.191   6.159   6.145
  638TIP3    H2 1792   9.059   6.234   6.143
  639TIP3   OH2 1793   6.886   0.332   4.694
  639TIP3    H1 1794   6.926   0.315   4.779
  639TIP3    H2 1795   6.957   0.366   4.640
  640TIP3   OH2 1796   5.053   1.247   0.253
  640TIP3    H1 1797   5.111   1.222   0.325
  640TIP3    H2 1798   4.975   1.193   0.266
  641TIP3   OH2 1799   0.298   3.030   4.484
  641TIP3    H1 1800   0.278   3.024   4.578
  641TIP3    H2 1801   0.346   2.949   4.465
  642TIP3   OH2 1802   3.054   5.397   4.464
  642TIP3    H1 1803   3.107   5.329   4.505
  642TIP3    H2 1804   3.077   5.391   4.371
  643TIP3   OH2 1805   2.444   7.887   1.862
  643TIP3    H1 1806   2.456   7.977   1.832
  643TIP3    H2 1807   2.446   7.834   1.782
  644TIP3   OH2 1808   6.326   7.869   3.475
  644TIP3    H1 1809   6.314   7.774   3.475
  644TIP3    H2 1810   6.291   7.897   3.560
  645TIP3   OH2 1811   0.164   5.524   6.886
  645TIP3    H1 1812   0.218   5.447   6.902
  645TIP3    H2 1813   0.190   5.553   6.798
  646TIP3   OH2 1814   7.739   7.482   4.127
  646TIP3    H1 1815   7.723   7.393   4.158
  646TIP3    H2 1816   7.656   7.509   4.087
  647TIP3   OH2 1817   7.408   0.517   3.866
  647TIP3    H1 1818   7.499   0.495   3.883
  647TIP3    H2 1819   7.378   0.560   3.947
  648TIP3   OH2 1820   7.907   2.725   4.083
  648TIP3    H1 1821   7.968   2.752   4.014
  648TIP3    H2 1822   7.821   2.724   4.040
  649TIP3   OH2 1823   3.156   5.246   0.286
  649TIP3    H1 1824   3.165   5.151   0.276
  649TIP3    H2 1825   3.202   5.266   0.367
  650TIP3   OH2 1826   2.418   6.720   6.940
  650TIP3    H1 1827   2.476   6.793   6.961
  650TIP3    H2 1828   2.343   6.762   6.897
  651TIP3   OH2 1829   7.382   7.273   4.335
  651TIP3    H1 1830   7.389   7.339   4.265
  651TIP3    H2 1831   7.328   7.204   4.297
  652TIP3   OH2 1832   6.531   0.437   6.436
  652TIP3    H1 1833   6.600   0.377   6.463
  652TIP3    H2 1834   6.561   0.523   6.467
  653TIP3   OH2 1835   8.593   9.009   5.065
  653TIP3    H1 1836   8.621   8.981   4.978
  653TIP3    H2 1837   8.627   8.942   5.124
  654TIP3   OH2 1838   8.513   4.801   6.595
  654TIP3    H1 1839   8.553   4.772   6.513
  654TIP3    H2 1840   8.515   4.724   6.651
  655TIP3   OH2 1841   2.667   2.379   2.988
  655TIP3    H1 1842   2.700   2.419   2.908
  655TIP3    H2 1843   2.647   2.454   3.045
  656TIP3   OH2 1844   6.133   1.728   6.271
  656TIP3    H1 1845   6.055   1.679   6.299
  656TIP3    H2 1846   6.152   1.695   6.183
  657TIP3   OH2 1847   1.349   8.302   3.930
  657TIP3    H1 1848   1.430   8.257   3.950
  657TIP3    H2 1849   1.309   8.250   3.860
  658TIP3   OH2 1850   3.609   3.608   1.739
  658TIP3    H1 1851   3.700   3.578   1.742
  658TIP3    H2 1852   3.570   3.557   1.667
  659TIP3   OH2 1853   6.035   6.602   3.597
  659TIP3    H1 1854   5.979   6.544   3.547
  659TIP3    H2 1855   5.984   6.623   3.676
  660TIP3   OH2 1856   5.943   8.752   6.177
  660TIP3    H1 1857   6.003   8.750   6.103
  660TIP3    H2 1858   5.982   8.692   6.241
  661TIP3   OH2 1859   9.324   2.387   5.951
  661TIP3    H1 1860   9.379   2.365   5.875
  661TIP3    H2 1861   9.271   2.309   5.966
  662TIP3   OH2 1862   3.355   3.024   6.647
  662TIP3    H1 1863   3.410   3.099   6.667
  662TIP3    H2 1864   3.285   3.059   6.592
  663TIP3   OH2 1865   3.409   7.964   7.799
  663TIP3    H1 1866   3.340   8.019   7.836
  663TIP3    H2 1867   3.363   7.883   7.773
  664TIP3   OH2 1868   7.494   7.938   0.998
  664TIP3    H1 1869   7.497   8.007   1.064
  664TIP3    H2 1870   7.458   7.981   0.920
  665TIP3   OH2 1871   8.744   6.836   6.480
  665TIP3    H1 1872   8.766   6.895   6.551
  665TIP3    H2 1873   8.666   6.875   6.439
  666TIP3   OH2 1874   0.076   0.822   3.046
  666TIP3    H1 1875   0.103   0.898   2.994
  666TIP3    H2 1876   0.142   0.755   3.026
  667TIP3   OH2 1877   2.262   4.989   4.179
  667TIP3    H1 1878   2.327   4.977   4.110
  667TIP3    H2 1879   2.245   5.083   4.180
  668TIP3   OH2 1880   5.110   8.486   6.745
  668TIP3    H1 1881   5.045   8.449   6.686
  668TIP3    H2 1882   5.113   8.579   6.723
  669TIP3   OH2 1883   7.720   5.114   2.650
  669TIP3    H1 1884   7.809   5.087   2.625
  669TIP3    H2 1885   7.664   5.048   2.610
  670TIP3   OH2 1886   4.215   8.003   1.486
  670TIP3    H1 1887   4.311   8.000   1.489
  670TIP3    H2 1888   4.189   7.911   1.476
  671TIP3   OH2 1889   3.580   7.491   5.786
  671TIP3    H1 1890   3.583   7.578   5.824
  671TIP3    H2 1891   3.498   7.488   5.738
  672TIP3   OH2 1892   3.863   6.654   0.486
  672TIP3    H1 1893   3.892   6.647   0.395
  672TIP3    H2 1894   3.927   6.603   0.536
  673TIP3   OH2 1895   0.338   6.414   3.871
  673TIP3    H1 1896   0.403   6.462   3.820
  673TIP3    H2 1897   0.332   6.462   3.954
  674TIP3   OH2 1898   4.696   3.736   0.465
  674TIP3    H1 1899   4.682   3.820   0.421
  674TIP3    H2 1900   4.610   3.695   0.467
  675TIP3   OH2 1901   5.005   4.056   7.025
  675TIP3    H1 1902   5.004   4.152   7.023
  675TIP3    H2 1903   4.914   4.030   7.010
  676TIP3   OH2 1904   2.270   6.232   1.713
  676TIP3    H1 1905   2.248   6.320   1.744
  676TIP3    H2 1906   2.194   6.204   1.662
  677TIP3   OH2 1907   8.285   5.237   7.386
  677TIP3    H1 1908   8.357   5.261   7.328
  677TIP3    H2 1909   8.211   5.289   7.355
  678TIP3   OH2 1910   6.419   7.829   7.142
  678TIP3    H1 1911   6.349   7.764   7.143
  678TIP3    H2 1912   6.471   7.810   7.220
  679TIP3   OH2 1913   3.501   5.757   1.547
  679TIP3    H1 1914   3.545   5.842   1.548
  679TIP3    H2 1915   3.408   5.778   1.539
  680TIP3   OH2 1916   1.468   1.369   1.372
  680TIP3    H1 1917   1.543   1.396   1.318
  680TIP3    H2 1918   1.396   1.426   1.343
  681TIP3   OH2 1919   4.073   2.652   0.537
  681TIP3    H1 1920   4.140   2.669   0.470
  681TIP3    H2 1921   4.009   2.723   0.525
  682TIP3   OH2 1922   6.410   8.133   7.490
  682TIP3    H1 1923   6.332   8.142   7.436
  682TIP3    H2 1924   6.426   8.039   7.494
  683TIP3   OH2 1925   5.338   3.613   4.137
  683TIP3    H1 1926   5.355   3.691   4.189
  683TIP3    H2 1927   5.404   3.617   4.067
  684TIP3   OH2 1928   2.366   4.037   5.994
  684TIP3    H1 1929   2.409   4.121   5.986
  684TIP3    H2 1930   2.431   3.980   6.036
  685TIP3   OH2 1931   3.174   5.399   2.116
  685TIP3    H1 1932   3.157   5.492   2.128
  685TIP3    H2 1933   3.236   5.376   2.185
  686TIP3   OH2 1934   3.706   2.844   5.879
  686TIP3    H1 1935   3.776   2.906   5.898
  686TIP3    H2 1936   3.626   2.897   5.876
  687TIP3   OH2 1937   6.750   2.883   0.018
  687TIP3    H1 1938   6.768   2.823  -0.055
  687TIP3    H2 1939   6.658   2.867   0.040
  688TIP3   OH2 1940   5.831   4.222   3.117
  688TIP3    H1 1941   5.773   4.248   3.188
  688TIP3    H2 1942   5.773   4.204   3.043
  689TIP3   OH2 1943   6.441   8.479   7.727
  689TIP3    H1 1944   6.467   8.464   7.636
  689TIP3    H2 1945   6.349   8.453   7.730
  690TIP3   OH2 1946   6.487   4.281   0.090
  690TIP3    H1 1947   6.569   4.329   0.078
  690TIP3    H2 1948   6.422   4.331   0.041
  691TIP3   OH2 1949   4.381   8.495   2.963
  691TIP3    H1 1950   4.476   8.505   2.950
  691TIP3    H2 1951   4.342   8.529   2.883
  692TIP3   OH2 1952   5.069   8.360   2.102
  692TIP3    H1 1953   5.028   8.446   2.106
  692TIP3    H2 1954   5.056   8.324   2.190
  693TIP3   OH2 1955   3.487   5.676   0.500
  693TIP3    H1 1956   3.402   5.695   0.460
  693TIP3    H2 1957   3.520   5.762   0.525
  694TIP3   OH2 1958   3.333   1.378   1.762
  694TIP3    H1 1959   3.354   1.436   1.688
  694TIP3    H2 1960   3.402   1.312   1.761
  695TIP3   OH2 1961   2.622   4.409   0.427
  695TIP3    H1 1962   2.621   4.468   0.502
  695TIP3    H2 1963   2.697   4.352   0.442
  696TIP3   OH2 1964   4.553   7.753   2.746
  696TIP3    H1 1965   4.551   7.657   2.753
  696TIP3    H2 1966   4.571   7.783   2.836
  697TIP3   OH2 1967   7.603   7.053   2.565
  697TIP3    H1 1968   7.525   7.097   2.597
  697TIP3    H2 1969   7.605   6.970   2.613
  698TIP3   OH2 1970   8.261   8.044   3.988
  698TIP3    H1 1971   8.275   8.045   4.083
  698TIP3    H2 1972   8.170   8.070   3.977
  699TIP3   OH2 1973   6.958   6.632   3.751
  699TIP3    H1 1974   6.986   6.662   3.664
  699TIP3    H2 1975   6.875   6.678   3.767
  700TIP3   OH2 1976   1.746   4.516   6.479
  700TIP3    H1 1977   1.668   4.466   6.457
  700TIP3    H2 1978   1.800   4.455   6.530
  701TIP3   OH2 1979   7.416   0.252   7.520
  701TIP3    H1 1980   7.505   0.231   7.546
  701TIP3    H2 1981   7.412   0.230   7.427
  702TIP3   OH2 1982   6.736   4.057   7.687
  702TIP3    H1 1983   6.779   3.982   7.728
  702TIP3    H2 1984   6.801   4.091   7.626
  703TIP3   OH2 1985   4.474   3.690   3.159
  703TIP3    H1 1986   4.472   3.732   3.073
  703TIP3    H2 1987   4.558   3.643   3.161
  704TIP3   OH2 1988   6.839   6.928   4.529
  704TIP3    H1 1989   6.791   6.941   4.610
  704TIP3    H2 1990   6.885   6.844   4.541
  705TIP3   OH2 1991   9.046   3.992   0.667
  705TIP3    H1 1992   9.069   4.038   0.748
  705TIP3    H2 1993   8.961   4.029   0.642
  706TIP3   OH2 1994   8.269   5.658   4.810
  706TIP3    H1 1995   8.308   5.606   4.739
  706TIP3    H2 1996   8.198   5.707   4.767
  707TIP3   OH2 1997   7.074   4.255   3.422
  707TIP3    H1 1998   7.097   4.163   3.405
  707TIP3    H2 1999   7.051   4.290   3.336
  708TIP3   OH2 2000   7.587   5.375   4.324
  708TIP3    H1 2001   7.595   5.361   4.419
  708TIP3    H2 2002   7.554   5.464   4.316
  709TIP3   OH2 2003   0.973   7.190   6.042
  709TIP3    H1 2004   1.029   7.246   6.097
  709TIP3    H2 2005   1.026   7.170   5.965
  710TIP3   OH2 2006   8.461   3.381   4.030
  710TIP3    H1 2007   8.534   3.325   4.055
  710TIP3    H2 2008   8.404   3.324   3.978
  711TIP3   OH2 2009   7.089   5.478   0.807
  711TIP3    H1 2010   7.065   5.570   0.813
  711TIP3    H2 2011   7.008   5.431   0.822
  712TIP3   OH2 2012   2.850   6.616   3.503
  712TIP3    H1 2013   2.918   6.638   3.440
  712TIP3    H2 2014   2.783   6.684   3.492
  713TIP3   OH2 2015   2.809   2.192   5.706
  713TIP3    H1 2016   2.844   2.280   5.695
  713TIP3    H2 2017   2.855   2.139   5.640
  714TIP3   OH2 2018   3.636   4.913   0.598
  714TIP3    H1 2019   3.597   4.935   0.514
  714TIP3    H2 2020   3.723   4.880   0.577
  715TIP3   OH2 2021   4.942   1.097   6.499
  715TIP3    H1 2022   4.976   1.157   6.432
  715TIP3    H2 2023   4.855   1.073   6.467
  716TIP3   OH2 2024   9.513   0.301   4.837
  716TIP3    H1 2025   9.452   0.348   4.780
  716TIP3    H2 2026   9.501   0.342   4.923
  717TIP3   OH2 2027   6.841   7.184   6.103
  717TIP3    H1 2028   6.905   7.251   6.127
  717TIP3    H2 2029   6.853   7.115   6.169
  718TIP3   OH2 2030   0.297   7.466   4.290
  718TIP3    H1 2031   0.242   7.468   4.212
  718TIP3    H2 2032   0.363   7.400   4.272
  719TIP3   OH2 2033   4.431   8.138   0.098
  719TIP3    H1 2034   4.479   8.086   0.163
  719TIP3    H2 2035   4.348   8.092   0.088
  720TIP3   OH2 2036   3.638   0.159   2.201
  720TIP3    H1 2037   3.620   0.070   2.231
  720TIP3    H2 2038   3.701   0.149   2.130
  721TIP3   OH2 2039   7.909   6.930   6.980
  721TIP3    H1 2040   7.977   6.882   7.027
  721TIP3    H2 2041   7.830   6.915   7.033
  722TIP3   OH2 2042   2.605   8.938   5.650
  722TIP3    H1 2043   2.588   9.031   5.664
  722TIP3    H2 2044   2.525   8.906   5.609
  723TIP3   OH2 2045   3.239   6.435   3.111
  723TIP3    H1 2046   3.266   6.370   3.177
  723TIP3    H2 2047   3.292   6.512   3.131
  724TIP3   OH2 2048   2.155   8.991   6.040
  724TIP3    H1 2049   2.180   9.034   5.957
  724TIP3    H2 2050   2.088   9.048   6.077
  725TIP3   OH2 2051   4.582   2.613   6.301
  725TIP3    H1 2052   4.591   2.685   6.363
  725TIP3    H2 2053   4.595   2.534   6.355
  726TIP3   OH2 2054   5.191   4.169   5.608
  726TIP3    H1 2055   5.131   4.117   5.661
  726TIP3    H2 2056   5.185   4.131   5.520
  727TIP3   OH2 2057   1.757   5.794   0.327
  727TIP3    H1 2058   1.765   5.717   0.384
  727TIP3    H2 2059   1.837   5.844   0.344
  728TIP3   OH2 2060   2.377   2.259   0.036
  728TIP3    H1 2061   2.305   2.247  -0.025
  728TIP3    H2 2062   2.415   2.172   0.045
  729TIP3   OH2 2063   3.922   3.140   5.555
  729TIP3    H1 2064   3.985   3.185   5.611
  729TIP3    H2 2065   3.842   3.138   5.606
  730TIP3   OH2 2066   3.746   6.107   3.686
  730TIP3    H1 2067   3.732   6.155   3.768
  730TIP3    H2 2068   3.693   6.028   3.695
  731TIP3   OH2 2069   1.431   6.861   3.131
  731TIP3    H1 2070   1.470   6.790   3.081
  731TIP3    H2 2071   1.372   6.905   3.070
  732TIP3   OH2 2072   9.301   1.316   1.725
  732TIP3    H1 2073   9.354   1.258   1.670
  732TIP3    H2 2074   9.351   1.397   1.730
  733TIP3   OH2 2075   9.044   8.268   0.224
  733TIP3    H1 2076   9.022   8.348   0.177
  733TIP3    H2 2077   8.975   8.258   0.289
  734TIP3   OH2 2078   5.785   1.804   3.976
  734TIP3    H1 2079   5.812   1.893   3.953
  734TIP3    H2 2080   5.864   1.752   3.963
  735TIP3   OH2 2081   7.964   0.349   4.706
  735TIP3    H1 2082   8.049   0.334   4.747
  735TIP3    H2 2083   7.926   0.261   4.697
  736TIP3   OH2 2084   6.894   8.641   7.102
  736TIP3    H1 2085   6.856   8.640   7.014
  736TIP3    H2 2086   6.985   8.613   7.089
  737TIP3   OH2 2087   8.843   3.695   5.029
  737TIP3    H1 2088   8.751   3.678   5.006
  737TIP3    H2 2089   8.865   3.627   5.092
  738TIP3   OH2 2090   9.568   0.572   0.417
  738TIP3    H1 2091   9.541   0.663   0.428
  738TIP3    H2 2092   9.531   0.526   0.493
  739TIP3   OH2 2093   1.030   5.170   6.424
  739TIP3    H1 2094   1.017   5.206   6.512
  739TIP3    H2 2095   1.123   5.152   6.418
  740TIP3   OH2 2096   7.260   5.466   4.427
  740TIP3    H1 2097   7.342   5.514   4.415
  740TIP3    H2 2098   7.287   5.375   4.443
  741TIP3   OH2 2099   7.669   8.983   4.959
  741TIP3    H1 2100   7.725   8.944   5.027
  741TIP3    H2 2101   7.731   9.012   4.892
  742TIP3   OH2 2102   7.954   2.446   5.056
  742TIP3    H1 2103   8.028   2.412   5.106
  742TIP3    H2 2104   7.906   2.369   5.027
  743TIP3   OH2 2105   2.627   1.303   0.197
  743TIP3    H1 2106   2.723   1.312   0.190
  743TIP3    H2 2107   2.614   1.220   0.243
  744TIP3   OH2 2108   5.354   4.300   2.305
  744TIP3    H1 2109   5.442   4.335   2.290
  744TIP3    H2 2110   5.301   4.376   2.329
  745TIP3   OH2 2111   9.204   2.141   6.797
  745TIP3    H1 2112   9.209   2.169   6.706
  745TIP3    H2 2113   9.224   2.047   6.795
  746TIP3   OH2 2114   2.759   2.325   3.349
  746TIP3    H1 2115   2.767   2.255   3.284
  746TIP3    H2 2116   2.724   2.399   3.300
  747TIP3   OH2 2117   4.082   5.056   7.733
  747TIP3    H1 2118   4.001   5.097   7.703
  747TIP3    H2 2119   4.083   5.069   7.828
  748TIP3   OH2 2120   4.218   5.076   4.911
  748TIP3    H1 2121   4.132   5.111   4.933
  748TIP3    H2 2122   4.276   5.152   4.917
  749TIP3   OH2 2123   3.654   1.782   6.107
  749TIP3    H1 2124   3.659   1.713   6.041
  749TIP3    H2 2125   3.562   1.810   6.106
  750TIP3   OH2 2126   8.203   0.717   4.336
  750TIP3    H1 2127   8.147   0.740   4.410
  750TIP3    H2 2128   8.159   0.642   4.296
  751TIP3   OH2 2129   2.913   3.803   5.472
  751TIP3    H1 2130   2.827   3.846   5.474
  751TIP3    H2 2131   2.937   3.800   5.380
  752TIP3   OH2 2132   9.305   0.763   7.693
  752TIP3    H1 2133   9.332   0.767   7.785
  752TIP3    H2 2134   9.270   0.675   7.682
  753TIP3   OH2 2135   6.044   8.744   2.997
  753TIP3    H1 2136   6.013   8.756   3.087
  753TIP3    H2 2137   5.972   8.774   2.942
  754TIP3   OH2 2138   2.414   5.882   0.537
  754TIP3    H1 2139   2.473   5.875   0.613
  754TIP3    H2 2140   2.348   5.815   0.553
  755TIP3   OH2 2141   8.936   2.771   3.369
  755TIP3    H1 2142   8.994   2.733   3.303
  755TIP3    H2 2143   8.865   2.708   3.378
  756TIP3   OH2 2144   1.645   2.792   6.851
  756TIP3    H1 2145   1.604   2.715   6.890
  756TIP3    H2 2146   1.623   2.787   6.758
  757TIP3   OH2 2147   2.393   6.865   6.099
  757TIP3    H1 2148   2.426   6.943   6.054
  757TIP3    H2 2149   2.462   6.799   6.085
  758TIP3   OH2 2150   6.541   8.247   2.858
  758TIP3    H1 2151   6.486   8.315   2.896
  758TIP3    H2 2152   6.631   8.277   2.873
  759TIP3   OH2 2153   8.855   4.152   3.588
  759TIP3    H1 2154   8.788   4.091   3.618
  759TIP3    H2 2155   8.806   4.229   3.560
  760TIP3   OH2 2156   1.980   4.718   2.323
  760TIP3    H1 2157   2.044   4.787   2.337
  760TIP3    H2 2158   2.015   4.642   2.369
  761TIP3   OH2 2159   1.262   0.863   1.061
  761TIP3    H1 2160   1.315   0.795   1.102
  761TIP3    H2 2161   1.290   0.862   0.969
  762TIP3   OH2 2162   5.596   5.897   4.530
  762TIP3    H1 2163   5.586   5.812   4.572
  762TIP3    H2 2164   5.684   5.895   4.492
  763TIP3   OH2 2165   7.877   3.290   1.392
  763TIP3    H1 2166   7.909   3.369   1.348
  763TIP3    H2 2167   7.809   3.322   1.451
  764TIP3   OH2 2168   3.258   5.286   7.337
  764TIP3    H1 2169   3.350   5.304   7.315
  764TIP3    H2 2170   3.222   5.246   7.258
  765TIP3   OH2 2171   7.018   2.097   1.104
  765TIP3    H1 2172   7.091   2.054   1.148
  765TIP3    H2 2173   6.943   2.040   1.119
  766TIP3   OH2 2174   7.771   3.986   4.764
  766TIP3    H1 2175   7.822   3.915   4.802
  766TIP3    H2 2176   7.814   4.066   4.794
  767TIP3   OH2 2177   7.066   8.440   2.849
  767TIP3    H1 2178   7.075   8.516   2.792
  767TIP3    H2 2179   7.127   8.458   2.921
  768TIP3   OH2 2180   6.691   7.236   5.150
  768TIP3    H1 2181   6.685   7.219   5.056
  768TIP3    H2 2182   6.615   7.291   5.170
  769TIP3   OH2 2183   0.824   1.958   0.496
  769TIP3    H1 2184   0.819   1.918   0.409
  769TIP3    H2 2185   0.875   1.896   0.548
  770TIP3   OH2 2186   8.381   7.909   5.379
  770TIP3    H1 2187   8.332   7.991   5.369
  770TIP3    H2 2188   8.457   7.919   5.322
  771TIP3   OH2 2189   3.935   7.720   2.284
  771TIP3    H1 2190   3.913   7.813   2.271
  771TIP3    H2 2191   3.981   7.718   2.367
  772TIP3   OH2 2192   0.847   8.107   5.975
  772TIP3    H1 2193   0.795   8.187   5.970
  772TIP3    H2 2194   0.815   8.062   6.053
  773TIP3   OH2 2195   1.246   8.135   6.872
  773TIP3    H1 2196   1.335   8.154   6.900
  773TIP3    H2 2197   1.223   8.054   6.918
  774TIP3   OH2 2198   0.111   2.112   4.292
  774TIP3    H1 2199   0.137   2.020   4.295
  774TIP3    H2 2200   0.046   2.121   4.363
  775TIP3   OH2 2201   5.183   1.498   1.793
  775TIP3    H1 2202   5.275   1.477   1.775
  775TIP3    H2 2203   5.135   1.459   1.720
  776TIP3   OH2 2204   6.941   6.407   6.186
  776TIP3    H1 2205   6.881   6.480   6.203
  776TIP3    H2 2206   7.021   6.450   6.156
  777TIP3   OH2 2207   1.285   2.099   6.520
  777TIP3    H1 2208   1.290   2.060   6.607
  777TIP3    H2 2209   1.192   2.122   6.509
  778TIP3   OH2 2210   2.707   0.538   1.157
  778TIP3    H1 2211   2.619   0.516   1.128
  778TIP3    H2 2212   2.693   0.591   1.236
  779TIP3   OH2 2213   1.050   0.755   1.280
  779TIP3    H1 2214   1.093   0.757   1.194
  779TIP3    H2 2215   0.996   0.834   1.282
  780TIP3   OH2 2216   9.303   2.740   5.259
  780TIP3    H1 2217   9.324   2.760   5.350
  780TIP3    H2 2218   9.321   2.822   5.211
  781TIP3   OH2 2219   2.330   6.370   1.141
  781TIP3    H1 2220   2.299   6.335   1.225
  781TIP3    H2 2221   2.327   6.296   1.081
  782TIP3   OH2 2222   8.382   8.320   5.794
  782TIP3    H1 2223   8.418   8.235   5.818
  782TIP3    H2 2224   8.437   8.383   5.840
  783TIP3   OH2 2225   2.777   0.793   0.463
  783TIP3    H1 2226   2.724   0.759   0.391
  783TIP3    H2 2227   2.732   0.872   0.492
  784TIP3   OH2 2228   0.748   3.591   1.589
  784TIP3    H1 2229   0.665   3.604   1.542
  784TIP3    H2 2230   0.724   3.594   1.682
  785TIP3   OH2 2231   9.514   0.259   1.734
  785TIP3    H1 2232   9.497   0.352   1.729
  785TIP3    H2 2233   9.506   0.238   1.828
  786TIP3   OH2 2234   5.482   5.846   0.425
  786TIP3    H1 2235   5.557   5.835   0.367
  786TIP3    H2 2236   5.430   5.916   0.385
  787TIP3   OH2 2237   4.203   8.883   1.384
  787TIP3    H1 2238   4.240   8.960   1.340
  787TIP3    H2 2239   4.195   8.910   1.475
  788TIP3   OH2 2240   1.745   0.622   3.310
  788TIP3    H1 2241   1.707   0.558   3.371
  788TIP3    H2 2242   1.764   0.699   3.365
  789TIP3   OH2 2243   0.679   0.226   1.812
  789TIP3    H1 2244   0.724   0.223   1.727
  789TIP3    H2 2245   0.748   0.246   1.875
  790TIP3   OH2 2246   2.551   4.275   5.966
  790TIP3    H1 2247   2.536   4.370   5.967
  790TIP3    H2 2248   2.582   4.257   5.877
  791TIP3   OH2 2249   0.175   1.843   4.238
  791TIP3    H1 2250   0.159   1.769   4.297
  791TIP3    H2 2251   0.251   1.816   4.186
  792TIP3   OH2 2252   7.801   2.167   4.821
  792TIP3    H1 2253   7.839   2.183   4.735
  792TIP3    H2 2254   7.750   2.087   4.810
  793TIP3   OH2 2255   2.622   6.614   2.245
  793TIP3    H1 2256   2.673   6.634   2.324
  793TIP3    H2 2257   2.559   6.686   2.239
  794TIP3   OH2 2258   9.554   4.640   2.258
  794TIP3    H1 2259   9.532   4.660   2.167
  794TIP3    H2 2260   9.470   4.642   2.304
  795TIP3   OH2 2261   1.635   8.458   0.430
  795TIP3    H1 2262   1.663   8.490   0.344
  795TIP3    H2 2263   1.708   8.403   0.461
  796TIP3   OH2 2264   5.009   1.788   3.915
  796TIP3    H1 2265   5.088   1.738   3.892
  796TIP3    H2 2266   4.976   1.819   3.831
  797TIP3   OH2 2267   0.981   6.140   6.721
  797TIP3    H1 2268   0.893   6.171   6.737
  797TIP3    H2 2269   1.034   6.176   6.792
  798TIP3   OH2 2270   8.466   1.491   3.706
  798TIP3    H1 2271   8.528   1.564   3.710
  798TIP3    H2 2272   8.410   1.502   3.783
  799TIP3   OH2 2273   0.235   5.597   2.849
  799TIP3    H1 2274   0.176   5.602   2.924
  799TIP3    H2 2275   0.321   5.576   2.887
  800TIP3   OH2 2276   7.565   7.233   5.054
  800TIP3    H1 2277   7.479   7.224   5.012
  800TIP3    H2 2278   7.553   7.302   5.119
  801TIP3   OH2 2279   8.435   5.131   7.025
  801TIP3    H1 2280   8.454   5.099   6.936
  801TIP3    H2 2281   8.389   5.059   7.067
  802TIP3   OH2 2282   0.380   0.952   2.137
  802TIP3    H1 2283   0.400   0.861   2.117
  802TIP3    H2 2284   0.379   0.955   2.233
  803TIP3   OH2 2285   8.342   4.079   4.610
  803TIP3    H1 2286   8.270   4.064   4.549
  803TIP3    H2 2287   8.420   4.079   4.554
  804TIP3   OH2 2288   2.693   2.718   5.502
  804TIP3    H1 2289   2.756   2.789   5.517
  804TIP3    H2 2290   2.611   2.750   5.539
  805TIP3   OH2 2291   4.255   7.301   0.887
  805TIP3    H1 2292   4.211   7.353   0.819
  805TIP3    H2 2293   4.304   7.365   0.938
  806TIP3   OH2 2294   6.409   4.855   7.003
  806TIP3    H1 2295   6.342   4.813   6.949
  806TIP3    H2 2296   6.453   4.783   7.046
  807TIP3   OH2 2297   1.332   8.906   4.399
  807TIP3    H1 2298   1.326   8.963   4.476
  807TIP3    H2 2299   1.248   8.918   4.354
  808TIP3   OH2 2300   4.629   0.641   3.807
  808TIP3    H1 2301   4.597   0.724   3.771
  808TIP3    H2 2302   4.581   0.631   3.889
  809TIP3   OH2 2303   1.514   3.863   2.184
  809TIP3    H1 2304   1.502   3.807   2.261
  809TIP3    H2 2305   1.478   3.811   2.112
  810TIP3   OH2 2306   2.669   0.587   7.538
  810TIP3    H1 2307   2.675   0.642   7.615
  810TIP3    H2 2308   2.723   0.511   7.558
  811TIP3   OH2 2309   1.210   0.044   5.596
  811TIP3    H1 2310   1.149   0.109   5.630
  811TIP3    H2 2311   1.160  -0.005   5.531
  812TIP3   OH2 2312   3.431   3.380   7.503
  812TIP3    H1 2313   3.489   3.309   7.474
  812TIP3    H2 2314   3.480   3.424   7.573
  813TIP3   OH2 2315   2.021   1.424   4.246
  813TIP3    H1 2316   1.959   1.495   4.228
  813TIP3    H2 2317   1.967   1.355   4.285
  814TIP3   OH2 2318   0.264   7.370   4.897
  814TIP3    H1 2319   0.359   7.360   4.889
  814TIP3    H2 2320   0.230   7.339   4.813
  815TIP3   OH2 2321   0.540   2.259   2.321
  815TIP3    H1 2322   0.631   2.241   2.342
  815TIP3    H2 2323   0.505   2.299   2.401
  816TIP3   OH2 2324   8.520   6.062   4.887
  816TIP3    H1 2325   8.530   6.079   4.793
  816TIP3    H2 2326   8.511   5.967   4.893
  817TIP3   OH2 2327   0.185   8.400   1.208
  817TIP3    H1 2328   0.264   8.363   1.249
  817TIP3    H2 2329   0.117   8.391   1.275
  818TIP3   OH2 2330   5.924   4.746   1.917
  818TIP3    H1 2331   5.880   4.757   1.832
  818TIP3    H2 2332   5.933   4.835   1.951
  819TIP3   OH2 2333   8.660   1.633   2.803
  819TIP3    H1 2334   8.733   1.691   2.781
  819TIP3    H2 2335   8.697   1.572   2.867
  820TIP3   OH2 2336   8.023   0.433   2.348
  820TIP3    H1 2337   8.027   0.349   2.302
  820TIP3    H2 2338   8.110   0.444   2.386
  821TIP3   OH2 2339   1.498   8.531   6.055
  821TIP3    H1 2340   1.488   8.624   6.036
  821TIP3    H2 2341   1.473   8.523   6.147
  822TIP3   OH2 2342   1.850   2.819   7.378
  822TIP3    H1 2343   1.849   2.739   7.325
  822TIP3    H2 2344   1.830   2.789   7.467
  823TIP3   OH2 2345   0.924   6.836   2.954
  823TIP3    H1 2346   0.972   6.919   2.940
  823TIP3    H2 2347   0.876   6.822   2.872
  824TIP3   OH2 2348   7.577   6.354   5.687
  824TIP3    H1 2349   7.642   6.288   5.713
  824TIP3    H2 2350   7.624   6.413   5.629
  825TIP3   OH2 2351   6.372   6.024   3.011
  825TIP3    H1 2352   6.425   6.081   2.954
  825TIP3    H2 2353   6.284   6.030   2.975
  826TIP3   OH2 2354   4.952   8.946   4.666
  826TIP3    H1 2355   5.028   8.995   4.698
  826TIP3    H2 2356   4.937   8.980   4.578
  827TIP3   OH2 2357   7.398   4.015   4.365
  827TIP3    H1 2358   7.388   4.047   4.455
  827TIP3    H2 2359   7.365   3.925   4.369
  828TIP3   OH2 2360   9.419   5.791   7.035
  828TIP3    H1 2361   9.461   5.871   7.067
  828TIP3    H2 2362   9.331   5.794   7.071
  829TIP3   OH2 2363   4.167   7.592   5.635
  829TIP3    H1 2364   4.114   7.641   5.572
  829TIP3    H2 2365   4.242   7.560   5.584
  830TIP3   OH2 2366   6.496   6.376   7.635
  830TIP3    H1 2367   6.461   6.418   7.713
  830TIP3    H2 2368   6.577   6.424   7.616
  831TIP3   OH2 2369   2.678   8.900   2.563
  831TIP3    H1 2370   2.749   8.872   2.505
  831TIP3    H2 2371   2.692   8.851   2.643
  832TIP3   OH2 2372   9.512   0.358   5.887
  832TIP3    H1 2373   9.595   0.390   5.922
  832TIP3    H2 2374   9.525   0.355   5.792
  833TIP3   OH2 2375   1.023   8.631   6.136
  833TIP3    H1 2376   0.988   8.558   6.186
  833TIP3    H2 2377   0.973   8.707   6.166
  834TIP3   OH2 2378   6.450   0.885   0.465
  834TIP3    H1 2379   6.544   0.890   0.447
  834TIP3    H2 2380   6.408   0.916   0.384
  835TIP3   OH2 2381   7.169   3.462   1.790
  835TIP3    H1 2382   7.172   3.366   1.793
  835TIP3    H2 2383   7.076   3.483   1.778
  836TIP3   OH2 2384   0.352   7.276   2.458
  836TIP3    H1 2385   0.440   7.296   2.425
  836TIP3    H2 2386   0.315   7.361   2.480
  837TIP3   OH2 2387   5.815   2.901   7.782
  837TIP3    H1 2388   5.890   2.905   7.724
  837TIP3    H2 2389   5.840   2.954   7.858
  838TIP3   OH2 2390   1.828   1.501   4.539
  838TIP3    H1 2391   1.867   1.584   4.511
  838TIP3    H2 2392   1.859   1.490   4.629
  839TIP3   OH2 2393   5.803   0.172   3.801
  839TIP3    H1 2394   5.721   0.176   3.752
  839TIP3    H2 2395   5.871   0.183   3.735
  840TIP3   OH2 2396   2.025   3.102   6.829
  840TIP3    H1 2397   1.930   3.096   6.834
  840TIP3    H2 2398   2.056   3.054   6.906
  841TIP3   OH2 2399   5.407   8.935   4.621
  841TIP3    H1 2400   5.490   8.891   4.605
  841TIP3    H2 2401   5.425   9.027   4.603
  842TIP3   OH2 2402   4.372   7.505   5.466
  842TIP3    H1 2403   4.433   7.435   5.488
  842TIP3    H2 2404   4.414   7.552   5.394
  843TIP3   OH2 2405   2.825   1.617   4.368
  843TIP3    H1 2406   2.781   1.576   4.293
  843TIP3    H2 2407   2.861   1.545   4.418
  844TIP3   OH2 2408   7.139   3.815   7.490
  844TIP3    H1 2409   7.054   3.772   7.489
  844TIP3    H2 2410   7.118   3.909   7.497
  845TIP3   OH2 2411   6.542   7.448   3.108
  845TIP3    H1 2412   6.578   7.512   3.170
  845TIP3    H2 2413   6.447   7.453   3.121
  846TIP3   OH2 2414   1.400   2.559   2.571
  846TIP3    H1 2415   1.436   2.605   2.495
  846TIP3    H2 2416   1.318   2.606   2.590
  847TIP3   OH2 2417   2.457   4.077   7.027
  847TIP3    H1 2418   2.533   4.119   6.986
  847TIP3    H2 2419   2.494   4.003   7.075
  848TIP3   OH2 2420   9.070   3.281   3.386
  848TIP3    H1 2421   9.021   3.199   3.384
  848TIP3    H2 2422   9.022   3.339   3.327
  849TIP3   OH2 2423   1.044   5.009   7.757
  849TIP3    H1 2424   0.981   5.081   7.761
  849TIP3    H2 2425   1.012   4.946   7.822
  850TIP3   OH2 2426   1.474   3.006   1.155
  850TIP3    H1 2427   1.486   3.090   1.199
  850TIP3    H2 2428   1.434   3.028   1.071
  851TIP3   OH2 2429   7.632   0.573   4.988
  851TIP3    H1 2430   7.582   0.586   5.069
  851TIP3    H2 2431   7.695   0.505   5.010
  852TIP3   OH2 2432   6.121   1.057   0.180
  852TIP3    H1 2433   6.202   1.007   0.182
  852TIP3    H2 2434   6.059   1.000   0.134
  853TIP3   OH2 2435   8.929   3.230   6.498
  853TIP3    H1 2436   8.963   3.233   6.409
  853TIP3    H2 2437   8.860   3.296   6.501
  854TIP3   OH2 2438   6.028   6.577   6.222
  854TIP3    H1 2439   5.937   6.596   6.199
  854TIP3    H2 2440   6.023   6.522   6.300
  855TIP3   OH2 2441   1.945   1.392   1.782
  855TIP3    H1 2442   2.007   1.322   1.803
  855TIP3    H2 2443   1.984   1.437   1.707
  856TIP3   OH2 2444   2.969   5.465   6.030
  856TIP3    H1 2445   2.934   5.396   6.086
  856TIP3    H2 2446   3.021   5.519   6.088
  857TIP3   OH2 2447   9.517   5.579   1.834
  857TIP3    H1 2448   9.544   5.527   1.909
  857TIP3    H2 2449   9.519   5.518   1.760
  858TIP3   OH2 2450   8.394   5.410   5.985
  858TIP3    H1 2451   8.490   5.406   5.990
  858TIP3    H2 2452   8.372   5.496   6.021
  859TIP3   OH2 2453   2.353   8.984   7.386
  859TIP3    H1 2454   2.355   8.996   7.481
  859TIP3    H2 2455   2.278   9.036   7.357
  860TIP3   OH2 2456   9.094   1.057   5.270
  860TIP3    H1 2457   9.023   0.994   5.264
  860TIP3    H2 2458   9.120   1.056   5.363
  861TIP3   OH2 2459   5.773   8.060   0.340
  861TIP3    H1 2460   5.818   8.037   0.258
  861TIP3    H2 2461   5.680   8.054   0.318
  862TIP3   OH2 2462   2.038   1.314   3.926
  862TIP3    H1 2463   2.110   1.370   3.957
  862TIP3    H2 2464   2.077   1.264   3.854
  863TIP3   OH2 2465   6.103   8.537   3.222
  863TIP3    H1 2466   6.010   8.519   3.211
  863TIP3    H2 2467   6.145   8.451   3.224
  864TIP3   OH2 2468   3.629   7.164   4.479
  864TIP3    H1 2469   3.573   7.241   4.470
  864TIP3    H2 2470   3.697   7.176   4.413
  865TIP3   OH2 2471   2.127   5.101   6.843
  865TIP3    H1 2472   2.050   5.053   6.813
  865TIP3    H2 2473   2.097   5.152   6.917
  866TIP3   OH2 2474   2.335   3.508   5.491
  866TIP3    H1 2475   2.278   3.497   5.567
  866TIP3    H2 2476   2.332   3.601   5.471
  867TIP3   OH2 2477   6.218   6.971   5.097
  867TIP3    H1 2478   6.167   6.967   5.178
  867TIP3    H2 2479   6.221   6.880   5.066
  868TIP3   OH2 2480   7.945   6.286   7.251
  868TIP3    H1 2481   7.881   6.273   7.181
  868TIP3    H2 2482   7.954   6.382   7.257
  869TIP3   OH2 2483   8.890   7.983   0.269
  869TIP3    H1 2484   8.938   8.051   0.221
  869TIP3    H2 2485   8.813   8.029   0.304
  870TIP3   OH2 2486   5.320   7.362   5.488
  870TIP3    H1 2487   5.363   7.282   5.520
  870TIP3    H2 2488   5.226   7.344   5.497
  871TIP3   OH2 2489   5.841   4.205   6.587
  871TIP3    H1 2490   5.839   4.236   6.677
  871TIP3    H2 2491   5.934   4.191   6.568
  872TIP3   OH2 2492   3.976   3.610   6.530
  872TIP3    H1 2493   3.884   3.613   6.559
  872TIP3    H2 2494   4.026   3.612   6.611
  873TIP3   OH2 2495   6.072   0.171   3.716
  873TIP3    H1 2496   6.138   0.208   3.657
  873TIP3    H2 2497   6.095   0.207   3.802
  874TIP3   OH2 2498   7.228   6.284   6.340
  874TIP3    H1 2499   7.171   6.256   6.269
  874TIP3    H2 2500   7.192   6.368   6.369
  875TIP3   OH2 2501   7.390   3.358   0.524
  875TIP3    H1 2502   7.404   3.334   0.616
  875TIP3    H2 2503   7.370   3.275   0.481
  876TIP3   OH2 2504   3.610   3.693   3.958
  876TIP3    H1 2505   3.565   3.731   4.034
  876TIP3    H2 2506   3.578   3.602   3.954
  877TIP3   OH2 2507   0.825   6.612   6.730
  877TIP3    H1 2508   0.890   6.655   6.675
  877TIP3    H2 2509   0.866   6.609   6.817
  878TIP3   OH2 2510   1.192   2.882   2.082
  878TIP3    H1 2511   1.224   2.860   2.169
  878TIP3    H2 2512   1.270   2.880   2.027
  879TIP3   OH2 2513   0.054   3.968   0.434
  879TIP3    H1 2514   0.117   4.036   0.459
  879TIP3    H2 2515   0.106   3.888   0.430
  880TIP3   OH2 2516   5.727   2.032   6.763
  880TIP3    H1 2517   5.813   2.028   6.804
  880TIP3    H2 2518   5.715   1.946   6.723
  881TIP3   OH2 2519   4.864   5.080   6.744
  881TIP3    H1 2520   4.778   5.043   6.764
  881TIP3    H2 2521   4.919   5.005   6.725
  882TIP3   OH2 2522   6.281   1.206   7.661
  882TIP3    H1 2523   6.234   1.228   7.741
  882TIP3    H2 2524   6.243   1.263   7.594
  883TIP3   OH2 2525   3.211   3.353   7.678
  883TIP3    H1 2526   3.204   3.258   7.693
  883TIP3    H2 2527   3.284   3.361   7.616
  884TIP3   OH2 2528   1.449   4.627   1.154
  884TIP3    H1 2529   1.455   4.534   1.135
  884TIP3    H2 2530   1.528   4.647   1.204
  885TIP3   OH2 2531   4.146   5.191   3.215
  885TIP3    H1 2532   4.094   5.270   3.226
  885TIP3    H2 2533   4.154   5.181   3.120
  886TIP3   OH2 2534   7.926   4.842   4.873
  886TIP3    H1 2535   7.881   4.792   4.805
  886TIP3    H2 2536   8.018   4.840   4.847
  887TIP3   OH2 2537   7.055   4.766   0.759
  887TIP3    H1 2538   7.118   4.701   0.790
  887TIP3    H2 2539   7.028   4.734   0.673
  888TIP3   OH2 2540   3.403   4.379   4.966
  888TIP3    H1 2541   3.326   4.357   5.018
  888TIP3    H2 2542   3.421   4.301   4.915
  889TIP3   OH2 2543   1.463   0.271   3.483
  889TIP3    H1 2544   1.394   0.273   3.417
  889TIP3    H2 2545   1.536   0.227   3.439
  890TIP3   OH2 2546   3.525   2.127   7.355
  890TIP3    H1 2547   3.506   2.039   7.389
  890TIP3    H2 2548   3.611   2.118   7.315
  891TIP3   OH2 2549   8.571   0.393   3.962
  891TIP3    H1 2550   8.520   0.377   3.882
  891TIP3    H2 2551   8.660   0.365   3.940
  892TIP3   OH2 2552   7.120   1.870   3.596
  892TIP3    H1 2553   7.120   1.938   3.528
  892TIP3    H2 2554   7.061   1.803   3.562
  893TIP3   OH2 2555   2.456   5.775   0.936
  893TIP3    H1 2556   2.527   5.834   0.912
  893TIP3    H2 2557   2.494   5.716   1.002
  894TIP3   OH2 2558   0.681   5.053   7.287
  894TIP3    H1 2559   0.707   4.982   7.228
  894TIP3    H2 2560   0.734   5.040   7.365
  895TIP3   OH2 2561   1.358   6.708   3.602
  895TIP3    H1 2562   1.401   6.784   3.642
  895TIP3    H2 2563   1.303   6.745   3.534
  896TIP3   OH2 2564   3.232   1.350   2.023
  896TIP3    H1 2565   3.266   1.359   1.934
  896TIP3    H2 2566   3.253   1.260   2.048
  897TIP3   OH2 2567   7.026   6.913   1.879
  897TIP3    H1 2568   6.974   6.851   1.931
  897TIP3    H2 2569   7.101   6.862   1.850
  898TIP3   OH2 2570   5.195   1.968   1.775
  898TIP3    H1 2571   5.279   1.989   1.817
  898TIP3    H2 2572   5.219   1.925   1.693
  899TIP3   OH2 2573   0.091   2.062   0.251
  899TIP3    H1 2574   0.174   2.016   0.236
  899TIP3    H2 2575   0.024   2.000   0.223
  900TIP3   OH2 2576   7.641   7.706   1.219
  900TIP3    H1 2577   7.550   7.724   1.195
  900TIP3    H2 2578   7.671   7.641   1.156
  901TIP3   OH2 2579   9.390   8.624   6.519
  901TIP3    H1 2580   9.315   8.592   6.470
  901TIP3    H2 2581   9.464   8.612   6.460
  902TIP3   OH2 2582   2.115   8.598   4.614
  902TIP3    H1 2583   2.143   8.528   4.555
  902TIP3    H2 2584   2.185   8.663   4.610
  903TIP3   OH2 2585   3.533   8.464   6.796
  903TIP3    H1 2586   3.461   8.496   6.850
  903TIP3    H2 2587   3.569   8.390   6.844
  904TIP3   OH2 2588   4.352   2.013   5.616
  904TIP3    H1 2589   4.307   1.951   5.675
  904TIP3    H2 2590   4.382   1.958   5.543
  905TIP3   OH2 2591   6.942   4.770   6.421
  905TIP3    H1 2592   6.865   4.827   6.424
  905TIP3    H2 2593   6.986   4.794   6.339
  906TIP3   OH2 2594   9.265   8.727   6.726
  906TIP3    H1 2595   9.314   8.694   6.651
  906TIP3    H2 2596   9.195   8.662   6.739
  907TIP3   OH2 2597   8.616   1.890   1.888
  907TIP3    H1 2598   8.600   1.935   1.971
  907TIP3    H2 2599   8.568   1.941   1.823
  908TIP3   OH2 2600   1.959   5.920   2.729
  908TIP3    H1 2601   1.953   6.012   2.754
  908TIP3    H2 2602   2.039   5.915   2.676
  909TIP3   OH2 2603   1.311   6.349   7.639
  909TIP3    H1 2604   1.323   6.278   7.576
  909TIP3    H2 2605   1.275   6.421   7.587
  910TIP3   OH2 2606   4.519   3.176   0.662
  910TIP3    H1 2607   4.565   3.137   0.736
  910TIP3    H2 2608   4.428   3.147   0.673
  911TIP3   OH2 2609   5.458   4.590   3.689
  911TIP3    H1 2610   5.461   4.659   3.623
  911TIP3    H2 2611   5.415   4.516   3.646
  912TIP3   OH2 2612   7.111   7.134   0.991
  912TIP3    H1 2613   7.194   7.157   0.950
  912TIP3    H2 2614   7.108   7.039   0.987
  913TIP3   OH2 2615   2.052   6.909   5.899
  913TIP3    H1 2616   2.025   6.893   5.809
  913TIP3    H2 2617   2.132   6.858   5.910
  914TIP3   OH2 2618   1.384   7.991   0.274
  914TIP3    H1 2619   1.437   8.069   0.259
  914TIP3    H2 2620   1.302   8.024   0.311
  915TIP3   OH2 2621   5.034   7.590   3.647
  915TIP3    H1 2622   4.958   7.628   3.692
  915TIP3    H2 2623   4.998   7.518   3.596
  916TIP3   OH2 2624   8.697   7.757   1.363
  916TIP3    H1 2625   8.767   7.795   1.310
  916TIP3    H2 2626   8.665   7.683   1.312
  917TIP3   OH2 2627   6.045   5.326   1.369
  917TIP3    H1 2628   6.105   5.363   1.305
  917TIP3    H2 2629   6.034   5.234   1.342
  918TIP3   OH2 2630   4.807   7.042   1.850
  918TIP3    H1 2631   4.807   7.046   1.945
  918TIP3    H2 2632   4.853   7.121   1.822
  919TIP3   OH2 2633   5.698   1.019   5.666
  919TIP3    H1 2634   5.655   1.094   5.708
  919TIP3    H2 2635   5.781   1.054   5.634
  920TIP3   OH2 2636   9.111   1.068   6.209
  920TIP3    H1 2637   9.150   0.986   6.240
  920TIP3    H2 2638   9.101   1.055   6.114
  921TIP3   OH2 2639   3.314   6.323   0.488
  921TIP3    H1 2640   3.233   6.292   0.529
  921TIP3    H2 2641   3.340   6.253   0.429
  922TIP3   OH2 2642   4.267   7.280   5.838
  922TIP3    H1 2643   4.332   7.251   5.774
  922TIP3    H2 2644   4.258   7.374   5.821
  923TIP3   OH2 2645   1.857   8.225   3.874
  923TIP3    H1 2646   1.914   8.216   3.950
  923TIP3    H2 2647   1.880   8.309   3.836
  924TIP3   OH2 2648   5.923   3.245   2.333
  924TIP3    H1 2649   5.956   3.256   2.422
  924TIP3    H2 2650   5.832   3.219   2.345
  925TIP3   OH2 2651   7.403   1.052   0.097
  925TIP3    H1 2652   7.387   1.101   0.178
  925TIP3    H2 2653   7.316   1.034   0.063
  926TIP3   OH2 2654   9.545   0.746   1.271
  926TIP3    H1 2655   9.526   0.832   1.235
  926TIP3    H2 2656   9.487   0.686   1.224
  927TIP3   OH2 2657   6.865   5.161   0.171
  927TIP3    H1 2658   6.909   5.210   0.101
  927TIP3    H2 2659   6.890   5.205   0.252
  928TIP3   OH2 2660   6.223   5.413   0.455
  928TIP3    H1 2661   6.277   5.438   0.380
  928TIP3    H2 2662   6.260   5.462   0.528
  929TIP3   OH2 2663   3.319   3.462   0.341
  929TIP3    H1 2664   3.380   3.531   0.316
  929TIP3    H2 2665   3.233   3.505   0.340
  930TIP3   OH2 2666   2.141   6.056   4.625
  930TIP3    H1 2667   2.203   6.030   4.694
  930TIP3    H2 2668   2.163   5.999   4.551
  931TIP3   OH2 2669   2.275   7.728   3.553
  931TIP3    H1 2670   2.277   7.772   3.468
  931TIP3    H2 2671   2.197   7.765   3.596
  932TIP3   OH2 2672   3.623   5.308   0.072
  932TIP3    H1 2673   3.531   5.292   0.094
  932TIP3    H2 2674   3.620   5.357  -0.010
  933TIP3   OH2 2675   8.347   0.528   6.850
  933TIP3    H1 2676   8.423   0.511   6.795
  933TIP3    H2 2677   8.335   0.448   6.901
  934TIP3   OH2 2678   2.651   8.746   3.717
  934TIP3    H1 2679   2.569   8.790   3.742
  934TIP3    H2 2680   2.719   8.794   3.764
  935TIP3   OH2 2681   6.772   1.776   4.677
  935TIP3    H1 2682   6.687   1.734   4.695
  935TIP3    H2 2683   6.836   1.707   4.694
  936TIP3   OH2 2684   4.783   8.172   7.029
  936TIP3    H1 2685   4.868   8.209   7.050
  936TIP3    H2 2686   4.739   8.163   7.113
  937TIP3   OH2 2687   4.806   3.805   0.969
  937TIP3    H1 2688   4.765   3.864   1.032
  937TIP3    H2 2689   4.887   3.850   0.944
  938TIP3   OH2 2690   3.575   8.606   0.291
  938TIP3    H1 2691   3.584   8.610   0.196
  938TIP3    H2 2692   3.650   8.656   0.324
  939TIP3   OH2 2693   5.560   5.257   1.683
  939TIP3    H1 2694   5.597   5.173   1.657
  939TIP3    H2 2695   5.483   5.268   1.627
  940TIP3   OH2 2696   7.218   3.147   5.746
  940TIP3    H1 2697   7.142   3.162   5.803
  940TIP3    H2 2698   7.238   3.054   5.756
  941TIP3   OH2 2699   4.423   3.015   0.128
  941TIP3    H1 2700   4.439   3.048   0.216
  941TIP3    H2 2701   4.458   2.926   0.128
  942TIP3   OH2 2702   7.438   0.678   2.106
  942TIP3    H1 2703   7.395   0.698   2.188
  942TIP3    H2 2704   7.525   0.647   2.131
  943TIP3   OH2 2705   5.756   2.164   0.355
  943TIP3    H1 2706   5.729   2.225   0.286
  943TIP3    H2 2707   5.765   2.218   0.433
  944TIP3   OH2 2708   7.380   5.940   6.277
  944TIP3    H1 2709   7.309   5.983   6.325
  944TIP3    H2 2710   7.406   5.867   6.334
  945TIP3   OH2 2711   7.449   4.202   5.599
  945TIP3    H1 2712   7.489   4.177   5.682
  945TIP3    H2 2713   7.430   4.118   5.556
  946TIP3   OH2 2714   8.949   3.394   7.182
  946TIP3    H1 2715   8.915   3.364   7.098
  946TIP3    H2 2716   9.032   3.347   7.192
  947TIP3   OH2 2717   6.525   2.051   0.894
  947TIP3    H1 2718   6.452   2.108   0.869
  947TIP3    H2 2719   6.603   2.097   0.862
  948TIP3   OH2 2720   2.875   6.626   7.520
  948TIP3    H1 2721   2.782   6.650   7.510
  948TIP3    H2 2722   2.884   6.610   7.614
  949TIP3   OH2 2723   3.245   3.305   6.578
  949TIP3    H1 2724   3.173   3.249   6.549
  949TIP3    H2 2725   3.221   3.393   6.548
  950TIP3   OH2 2726   4.677   1.487   0.044
  950TIP3    H1 2727   4.688   1.443  -0.041
  950TIP3    H2 2728   4.669   1.416   0.107
  951TIP3   OH2 2729   5.136   3.614   3.548
  951TIP3    H1 2730   5.227   3.643   3.552
  951TIP3    H2 2731   5.087   3.684   3.591
  952TIP3   OH2 2732   6.680   2.380   7.282
  952TIP3    H1 2733   6.709   2.354   7.195
  952TIP3    H2 2734   6.585   2.366   7.281
  953TIP3   OH2 2735   5.325   4.897   3.799
  953TIP3    H1 2736   5.299   4.989   3.799
  953TIP3    H2 2737   5.402   4.893   3.742
  954TIP3   OH2 2738   3.563   3.593   4.815
  954TIP3    H1 2739   3.476   3.555   4.799
  954TIP3    H2 2740   3.552   3.645   4.894
  955TIP3   OH2 2741   2.230   0.107   4.475
  955TIP3    H1 2742   2.184   0.028   4.505
  955TIP3    H2 2743   2.160   0.164   4.443
  956TIP3   OH2 2744   0.550   8.686   7.580
  956TIP3    H1 2745   0.602   8.764   7.560
  956TIP3    H2 2746   0.612   8.614   7.582
  957TIP3   OH2 2747   2.960   1.949   6.955
  957TIP3    H1 2748   3.033   1.911   7.005
  957TIP3    H2 2749   2.955   1.897   6.876
  958TIP3   OH2 2750   1.253   1.202   2.153
  958TIP3    H1 2751   1.250   1.230   2.245
  958TIP3    H2 2752   1.234   1.109   2.156
  959TIP3   OH2 2753   7.979   7.985   0.487
  959TIP3    H1 2754   7.978   8.081   0.492
  959TIP3    H2 2755   8.040   7.965   0.417
  960TIP3   OH2 2756   2.415   4.289   2.771
  960TIP3    H1 2757   2.322   4.295   2.750
  960TIP3    H2 2758   2.459   4.289   2.686
  961TIP3   OH2 2759   3.194   5.973   5.185
  961TIP3    H1 2760   3.282   5.974   5.146
  961TIP3    H2 2761   3.204   6.018   5.269
  962TIP3   OH2 2762   4.618   0.456   2.290
  962TIP3    H1 2763   4.588   0.366   2.288
  962TIP3    H2 2764   4.538   0.508   2.298
  963TIP3   OH2 2765   0.740   1.980   2.000
  963TIP3    H1 2766   0.821   2.013   2.037
  963TIP3    H2 2767   0.711   2.049   1.940
  964TIP3   OH2 2768   1.973   3.353   1.641
  964TIP3    H1 2769   1.927   3.419   1.590
  964TIP3    H2 2770   2.024   3.404   1.705
  965TIP3   OH2 2771   5.453   1.672   1.894
  965TIP3    H1 2772   5.434   1.718   1.812
  965TIP3    H2 2773   5.534   1.712   1.925
  966TIP3   OH2 2774   4.668   7.387   4.734
  966TIP3    H1 2775   4.684   7.299   4.768
  966TIP3    H2 2776   4.741   7.439   4.766
  967TIP3   OH2 2777   3.604   0.670   1.860
  967TIP3    H1 2778   3.548   0.717   1.922
  967TIP3    H2 2779   3.572   0.695   1.774
  968TIP3   OH2 2780   4.938   4.703   0.562
  968TIP3    H1 2781   4.895   4.695   0.477
  968TIP3    H2 2782   4.888   4.770   0.608
  969TIP3   OH2 2783   3.584   2.061   4.320
  969TIP3    H1 2784   3.535   2.141   4.339
  969TIP3    H2 2785   3.520   2.002   4.280
  970TIP3   OH2 2786   1.403   2.313   0.418
  970TIP3    H1 2787   1.324   2.271   0.451
  970TIP3    H2 2788   1.373   2.401   0.392
  971TIP3   OH2 2789   6.150   1.686   3.894
  971TIP3    H1 2790   6.078   1.624   3.906
  971TIP3    H2 2791   6.128   1.760   3.950
  972TIP3   OH2 2792   6.900   3.676   5.105
  972TIP3    H1 2793   6.844   3.640   5.173
  972TIP3    H2 2794   6.978   3.621   5.106
  973TIP3   OH2 2795   0.458   3.304   7.094
  973TIP3    H1 2796   0.407   3.237   7.141
  973TIP3    H2 2797   0.456   3.276   7.003
  974TIP3   OH2 2798   8.006   4.908   0.370
  974TIP3    H1 2799   7.965   4.829   0.407
  974TIP3    H2 2800   8.019   4.886   0.277
  975TIP3   OH2 2801   2.325   3.132   2.747
  975TIP3    H1 2802   2.412   3.123   2.788
  975TIP3    H2 2803   2.299   3.222   2.765
  976TIP3   OH2 2804   1.794   0.921   7.640
  976TIP3    H1 2805   1.800   1.015   7.621
  976TIP3    H2 2806   1.830   0.912   7.728
  977TIP3   OH2 2807   4.510   3.766   3.857
  977TIP3    H1 2808   4.601   3.761   3.888
  977TIP3    H2 2809   4.515   3.737   3.766
  978TIP3   OH2 2810   0.577   2.338   3.020
  978TIP3    H1 2811   0.633   2.386   2.959
  978TIP3    H2 2812   0.488   2.363   2.994
  979TIP3   OH2 2813   8.873   4.342   5.090
  979TIP3    H1 2814   8.835   4.412   5.142
  979TIP3    H2 2815   8.801   4.309   5.036
  980TIP3   OH2 2816   5.427   6.861   5.531
  980TIP3    H1 2817   5.348   6.847   5.478
  980TIP3    H2 2818   5.463   6.774   5.544
  981TIP3   OH2 2819   1.481   5.386   5.424
  981TIP3    H1 2820   1.448   5.360   5.338
  981TIP3    H2 2821   1.501   5.479   5.414
  982TIP3   OH2 2822   4.648   5.986   2.357
  982TIP3    H1 2823   4.728   5.935   2.375
  982TIP3    H2 2824   4.670   6.037   2.279
  983TIP3   OH2 2825   7.245   5.873   0.126
  983TIP3    H1 2826   7.311   5.836   0.184
  983TIP3    H2 2827   7.236   5.964   0.155
  984TIP3   OH2 2828   5.997   2.248   4.525
  984TIP3    H1 2829   6.035   2.164   4.550
  984TIP3    H2 2830   6.067   2.294   4.478
  985TIP3   OH2 2831   6.802   7.059   2.785
  985TIP3    H1 2832   6.790   7.125   2.853
  985TIP3    H2 2833   6.714   7.046   2.749
  986TIP3   OH2 2834   1.475   4.562   1.722
  986TIP3    H1 2835   1.559   4.603   1.699
  986TIP3    H2 2836   1.444   4.523   1.640
  987TIP3   OH2 2837   7.969   8.374   6.661
  987TIP3    H1 2838   7.973   8.349   6.753
  987TIP3    H2 2839   7.913   8.308   6.620
  988TIP3   OH2 2840   6.591   7.782   5.254
  988TIP3    H1 2841   6.509   7.774   5.206
  988TIP3    H2 2842   6.608   7.876   5.258
  989TIP3   OH2 2843   4.736   5.691   0.510
  989TIP3    H1 2844   4.787   5.704   0.431
  989TIP3    H2 2845   4.694   5.776   0.525
  990TIP3   OH2 2846   8.688   8.362   6.485
  990TIP3    H1 2847   8.640   8.366   6.401
  990TIP3    H2 2848   8.626   8.397   6.549
  991TIP3   OH2 2849   3.502   2.777   0.320
  991TIP3    H1 2850   3.461   2.734   0.395
  991TIP3    H2 2851   3.443   2.850   0.300
  992TIP3   OH2 2852   6.207   7.414   6.540
  992TIP3    H1 2853   6.148   7.410   6.466
  992TIP3    H2 2854   6.294   7.421   6.502
  993TIP3   OH2 2855   3.338   8.967   6.620
  993TIP3    H1 2856   3.432   8.951   6.625
  993TIP3    H2 2857   3.303   8.888   6.579
  994TIP3   OH2 2858   5.023   3.218   1.186
  994TIP3    H1 2859   4.958   3.235   1.255
  994TIP3    H2 2860   5.088   3.287   1.197
  995TIP3   OH2 2861   6.174   8.102   7.350
  995TIP3    H1 2862   6.129   8.037   7.297
  995TIP3    H2 2863   6.116   8.115   7.426
  996TIP3   OH2 2864   1.841   4.272   6.673
  996TIP3    H1 2865   1.765   4.218   6.696
  996TIP3    H2 2866   1.868   4.239   6.587
  997TIP3   OH2 2867   6.572   1.315   1.719
  997TIP3    H1 2868   6.611   1.228   1.732
  997TIP3    H2 2869   6.636   1.375   1.757
  998TIP3   OH2 2870   8.834   2.911   6.133
  998TIP3    H1 2871   8.776   2.973   6.089
  998TIP3    H2 2872   8.856   2.847   6.065
  999TIP3   OH2 2873   7.672   7.593   1.670
  999TIP3    H1 2874   7.757   7.558   1.644
  999TIP3    H2 2875   7.673   7.683   1.639
 1000TIP3   OH2 2876   2.410   5.978   0.147
 1000TIP3    H1 2877   2.450   6.019   0.071
 1000TIP3    H2 2878   2.482   5.933   0.191
 1001TIP3   OH2 2879   0.608   5.859   5.454
 1001TIP3    H1 2880   0.607   5.923   5.524
 1001TIP3    H2 2881   0.620   5.775   5.498
 1002TIP3   OH2 2882   8.767   0.987   1.403
 1002TIP3    H1 2883   8.818   0.910   1.379
 1002TIP3    H2 2884   8.824   1.035   1.464
 1003TIP3   OH2 2885   6.019   5.974   7.340
 1003TIP3    H1 2886   6.008   5.990   7.246
 1003TIP3    H2 2887   5.938   5.931   7.367
 1004TIP3   OH2 2888   5.383   7.004   5.791
 1004TIP3    H1 2889   5.439   6.965   5.724
 1004TIP3    H2 2890   5.298   7.015   5.749
 1005TIP3   OH2 2891   6.023   4.361   0.952
 1005TIP3    H1 2892   5.943   4.370   1.003
 1005TIP3    H2 2893   6.081   4.429   0.986
 1006TIP3   OH2 2894   3.665   9.012   3.144
 1006TIP3    H1 2895   3.710   8.928   3.142
 1006TIP3    H2 2896   3.573   8.991   3.133
 1007TIP3   OH2 2897   7.149   7.907   5.289
 1007TIP3    H1 2898   7.075   7.965   5.308
 1007TIP3    H2 2899   7.118   7.852   5.217
 1008TIP3   OH2 2900   8.238   0.206   1.632
 1008TIP3    H1 2901   8.253   0.301   1.642
 1008TIP3    H2 2902   8.168   0.187   1.694
 1009TIP3   OH2 2903   2.360   8.155   2.647
 1009TIP3    H1 2904   2.327   8.143   2.558
 1009TIP3    H2 2905   2.366   8.067   2.683
 1010TIP3   OH2 2906   1.276   6.682   6.094
 1010TIP3    H1 2907   1.366   6.653   6.080
 1010TIP3    H2 2908   1.239   6.616   6.152
 1011TIP3   OH2 2909   9.176   1.820   1.590
 1011TIP3    H1 2910   9.117   1.895   1.589
 1011TIP3    H2 2911   9.252   1.850   1.640
 1012TIP3   OH2 2912   4.559   0.145   0.382
 1012TIP3    H1 2913   4.614   0.221   0.366
 1012TIP3    H2 2914   4.524   0.123   0.296
 1013TIP3   OH2 2915   4.155   8.730   1.160
 1013TIP3    H1 2916   4.194   8.651   1.196
 1013TIP3    H2 2917   4.166   8.796   1.228
 1014TIP3   OH2 2918   8.562   4.201   2.200
 1014TIP3    H1 2919   8.510   4.278   2.180
 1014TIP3    H2 2920   8.529   4.133   2.142
 1015TIP3   OH2 2921   3.717   8.404   4.846
 1015TIP3    H1 2922   3.770   8.327   4.866
 1015TIP3    H2 2923   3.633   8.388   4.889
 1016TIP3   OH2 2924   5.482   2.567   3.364
 1016TIP3    H1 2925   5.476   2.508   3.439
 1016TIP3    H2 2926   5.427   2.641   3.387
 1017TIP3   OH2 2927   6.560   6.407   1.306
 1017TIP3    H1 2928   6.573   6.381   1.398
 1017TIP3    H2 2929   6.496   6.479   1.311
 1018TIP3   OH2 2930   4.422   0.704   7.239
 1018TIP3    H1 2931   4.425   0.684   7.333
 1018TIP3    H2 2932   4.499   0.758   7.223
 1019TIP3   OH2 2933   9.501   2.905   0.684
 1019TIP3    H1 2934   9.531   2.817   0.708
 1019TIP3    H2 2935   9.454   2.936   0.761
 1020TIP3   OH2 2936   6.450   1.204   4.264
 1020TIP3    H1 2937   6.392   1.146   4.314
 1020TIP3    H2 2938   6.500   1.144   4.207
 1021TIP3   OH2 2939   2.950   8.745   5.978
 1021TIP3    H1 2940   3.043   8.740   5.999
 1021TIP3    H2 2941   2.936   8.674   5.916
 1022TIP3   OH2 2942   0.202   1.402   5.091
 1022TIP3    H1 2943   0.188   1.307   5.098
 1022TIP3    H2 2944   0.115   1.437   5.070
 1023TIP3   OH2 2945   5.828   3.164   3.817
 1023TIP3    H1 2946   5.736   3.189   3.828
 1023TIP3    H2 2947   5.873   3.246   3.800
 1024TIP3   OH2 2948   4.263   2.339   6.588
 1024TIP3    H1 2949   4.177   2.373   6.611
 1024TIP3    H2 2950   4.247   2.249   6.560
 1025TIP3   OH2 2951   8.761   6.571   2.706
 1025TIP3    H1 2952   8.769   6.655   2.662
 1025TIP3    H2 2953   8.771   6.591   2.799
 1026TIP3   OH2 2954   8.875   5.657   2.887
 1026TIP3    H1 2955   8.941   5.614   2.941
 1026TIP3    H2 2956   8.914   5.740   2.862
 1027TIP3   OH2 2957   0.691   5.937   3.952
 1027TIP3    H1 2958   0.618   5.959   3.894
 1027TIP3    H2 2959   0.676   5.991   4.030
 1028TIP3   OH2 2960   9.141   5.967   3.853
 1028TIP3    H1 2961   9.114   5.897   3.912
 1028TIP3    H2 2962   9.212   6.011   3.899
 1029TIP3   OH2 2963   7.981   5.720   7.345
 1029TIP3    H1 2964   7.998   5.711   7.439
 1029TIP3    H2 2965   8.018   5.805   7.322
 1030TIP3   OH2 2966   5.787   0.855   1.379
 1030TIP3    H1 2967   5.823   0.934   1.338
 1030TIP3    H2 2968   5.749   0.806   1.307
 1031TIP3   OH2 2969   2.901   8.001   4.433
 1031TIP3    H1 2970   2.863   7.926   4.387
 1031TIP3    H2 2971   2.996   7.989   4.422
 1032TIP3   OH2 2972   2.137   5.934   0.072
 1032TIP3    H1 2973   2.084   5.995   0.124
 1032TIP3    H2 2974   2.227   5.951   0.101
 1033TIP3   OH2 2975   3.845   8.655   0.009
 1033TIP3    H1 2976   3.837   8.608  -0.074
 1033TIP3    H2 2977   3.857   8.586   0.074
 1034TIP3   OH2 2978   1.389   0.474   3.267
 1034TIP3    H1 2979   1.419   0.383   3.270
 1034TIP3    H2 2980   1.434   0.512   3.192
 1035TIP3   OH2 2981   0.222   3.890   0.006
 1035TIP3    H1 2982   0.282   3.950   0.051
 1035TIP3    H2 2983   0.277   3.816  -0.021
 1036TIP3   OH2 2984   9.394   4.795   7.593
 1036TIP3    H1 2985   9.329   4.865   7.592
 1036TIP3    H2 2986   9.343   4.715   7.593
 1037TIP3   OH2 2987   6.540   3.739   6.012
 1037TIP3    H1 2988   6.576   3.694   5.935
 1037TIP3    H2 2989   6.602   3.811   6.029
 1038TIP3   OH2 2990   2.972   4.775   4.911
 1038TIP3    H1 2991   2.952   4.695   4.862
 1038TIP3    H2 2992   3.023   4.828   4.849
 1039TIP3   OH2 2993   8.746   3.507   3.086
 1039TIP3    H1 2994   8.687   3.493   3.160
 1039TIP3    H2 2995   8.744   3.602   3.072
 1040TIP3   OH2 2996   8.743   1.363   6.826
 1040TIP3    H1 2997   8.663   1.329   6.866
 1040TIP3    H2 2998   8.736   1.458   6.835
 1041TIP3   OH2 2999   0.175   6.093   2.158
 1041TIP3    H1 3000   0.218   6.176   2.135
 1041TIP3    H2 3001   0.107   6.082   2.092
 1042TIP3   OH2 3002   7.247   5.017   6.837
 1042TIP3    H1 3003   7.326   4.969   6.812
 1042TIP3    H2 3004   7.229   4.989   6.927
 1043TIP3   OH2 3005   0.754   8.553   1.960
 1043TIP3    H1 3006   0.757   8.571   1.866
 1043TIP3    H2 3007   0.664   8.525   1.976
 1044TIP3   OH2 3008   8.066   5.974   7.286
 1044TIP3    H1 3009   8.158   5.970   7.315
 1044TIP3    H2 3010   8.069   6.025   7.206
 1045TIP3   OH2 3011   6.292   2.184   0.840
 1045TIP3    H1 3012   6.281   2.277   0.858
 1045TIP3    H2 3013   6.204   2.154   0.815
 1046TIP3   OH2 3014   5.886   6.050   0.701
 1046TIP3    H1 3015   5.869   5.966   0.658
 1046TIP3    H2 3016   5.832   6.112   0.652
 1047TIP3   OH2 3017   2.552   3.493   0.378
 1047TIP3    H1 3018   2.583   3.403   0.389
 1047TIP3    H2 3019   2.630   3.541   0.347
 1048TIP3   OH2 3020   8.455   3.533   3.768
 1048TIP3    H1 3021   8.385   3.496   3.822
 1048TIP3    H2 3022   8.528   3.472   3.778
 1049TIP3   OH2 3023   5.362   0.369   5.671
 1049TIP3    H1 3024   5.403   0.444   5.627
 1049TIP3    H2 3025   5.423   0.348   5.742
 1050TIP3   OH2 3026   3.009   3.890   6.122
 1050TIP3    H1 3027   2.964   3.877   6.205
 1050TIP3    H2 3028   3.072   3.819   6.117
 1051TIP3   OH2 3029   8.154   1.560   4.918
 1051TIP3    H1 3030   8.111   1.591   4.838
 1051TIP3    H2 3031   8.143   1.465   4.917
 1052TIP3   OH2 3032   8.611   8.717   2.115
 1052TIP3    H1 3033   8.516   8.715   2.112
 1052TIP3    H2 3034   8.633   8.810   2.122
 1053TIP3   OH2 3035   4.820   0.328   4.116
 1053TIP3    H1 3036   4.882   0.262   4.148
 1053TIP3    H2 3037   4.845   0.408   4.161
 1054TIP3   OH2 3038   7.893   4.787   5.788
 1054TIP3    H1 3039   7.860   4.864   5.743
 1054TIP3    H2 3040   7.927   4.731   5.718
 1055TIP3   OH2 3041   5.593   7.871   5.174
 1055TIP3    H1 3042   5.670   7.928   5.175
 1055TIP3    H2 3043   5.572   7.860   5.081
 1056TIP3   OH2 3044   9.297   2.043   7.093
 1056TIP3    H1 3045   9.383   2.024   7.056
 1056TIP3    H2 3046   9.237   2.038   7.019
 1057TIP3   OH2 3047   5.580   2.307   6.565
 1057TIP3    H1 3048   5.526   2.382   6.589
 1057TIP3    H2 3049   5.527   2.231   6.587
 1058TIP3   OH2 3050   5.684   8.715   6.052
 1058TIP3    H1 3051   5.772   8.729   6.085
 1058TIP3    H2 3052   5.694   8.708   5.957
 1059TIP3   OH2 3053   9.523   4.531   3.056
 1059TIP3    H1 3054   9.538   4.448   3.011
 1059TIP3    H2 3055   9.593   4.589   3.025
 1060TIP3   OH2 3056   3.993   3.159   1.484
 1060TIP3    H1 3057   4.018   3.159   1.391
 1060TIP3    H2 3058   3.958   3.246   1.500
 1061TIP3   OH2 3059   7.671   7.467   7.191
 1061TIP3    H1 3060   7.744   7.508   7.145
 1061TIP3    H2 3061   7.701   7.378   7.207
 1062TIP3   OH2 3062   0.817   4.798   0.575
 1062TIP3    H1 3063   0.849   4.880   0.537
 1062TIP3    H2 3064   0.872   4.730   0.537
 1063TIP3   OH2 3065   0.099   1.753   2.279
 1063TIP3    H1 3066   0.026   1.692   2.291
 1063TIP3    H2 3067   0.086   1.789   2.192
 1064TIP3   OH2 3068   5.235   1.658   3.984
 1064TIP3    H1 3069   5.326   1.665   3.954
 1064TIP3    H2 3070   5.228   1.568   4.016
 1065TIP3   OH2 3071   7.900   8.221   1.809
 1065TIP3    H1 3072   7.956   8.197   1.883
 1065TIP3    H2 3073   7.812   8.196   1.836
 1066TIP3   OH2 3074   2.078   4.255   0.853
 1066TIP3    H1 3075   2.048   4.233   0.765
 1066TIP3    H2 3076   2.070   4.174   0.902
 1067TIP3   OH2 3077   3.395   2.881   0.789
 1067TIP3    H1 3078   3.489   2.868   0.780
 1067TIP3    H2 3079   3.387   2.940   0.864
 1068TIP3   OH2 3080   8.858   5.331   3.093
 1068TIP3    H1 3081   8.882   5.379   3.014
 1068TIP3    H2 3082   8.896   5.382   3.164
 1069TIP3   OH2 3083   9.256   8.668   2.693
 1069TIP3    H1 3084   9.161   8.677   2.700
 1069TIP3    H2 3085   9.281   8.618   2.771
 1070TIP3   OH2 3086   4.521   4.442   1.769
 1070TIP3    H1 3087   4.522   4.351   1.796
 1070TIP3    H2 3088   4.471   4.443   1.687
 1071TIP3   OH2 3089   7.176   7.408   7.464
 1071TIP3    H1 3090   7.259   7.374   7.498
 1071TIP3    H2 3091   7.163   7.492   7.509
 1072TIP3   OH2 3092   7.259   5.412   1.902
 1072TIP3    H1 3093   7.314   5.390   1.826
 1072TIP3    H2 3094   7.286   5.501   1.926
 1073TIP3   OH2 3095   6.053   6.921   5.317
 1073TIP3    H1 3096   6.106   6.843   5.331
 1073TIP3    H2 3097   6.037   6.955   5.405
 1074TIP3   OH2 3098   2.029   2.595   4.168
 1074TIP3    H1 3099   2.015   2.568   4.259
 1074TIP3    H2 3100   2.051   2.514   4.122
 1075TIP3   OH2 3101   7.317   5.076   3.916
 1075TIP3    H1 3102   7.338   4.986   3.892
 1075TIP3    H2 3103   7.322   5.125   3.834
 1076TIP3   OH2 3104   0.879   3.091   6.662
 1076TIP3    H1 3105   0.885   3.076   6.756
 1076TIP3    H2 3106   0.815   3.027   6.631
 1077TIP3   OH2 3107   4.205   5.669   1.251
 1077TIP3    H1 3108   4.248   5.712   1.177
 1077TIP3    H2 3109   4.135   5.617   1.211
 1078TIP3   OH2 3110   4.448   4.391   3.478
 1078TIP3    H1 3111   4.446   4.438   3.395
 1078TIP3    H2 3112   4.432   4.300   3.454
 1079TIP3   OH2 3113   2.832   1.404   3.297
 1079TIP3    H1 3114   2.785   1.385   3.378
 1079TIP3    H2 3115   2.853   1.318   3.261
 1080TIP3   OH2 3116   9.564   1.263   0.895
 1080TIP3    H1 3117   9.636   1.316   0.859
 1080TIP3    H2 3118   9.569   1.277   0.989
 1081TIP3   OH2 3119   7.529   1.604   6.466
 1081TIP3    H1 3120   7.501   1.686   6.424
 1081TIP3    H2 3121   7.447   1.564   6.495
 1082TIP3   OH2 3122   8.783   1.535   2.068
 1082TIP3    H1 3123   8.800   1.481   2.145
 1082TIP3    H2 3124   8.867   1.538   2.022
 1083TIP3   OH2 3125   4.733   4.054   7.685
 1083TIP3    H1 3126   4.718   4.149   7.682
 1083TIP3    H2 3127   4.662   4.018   7.631
 1084TIP3   OH2 3128   8.106   3.616   5.150
 1084TIP3    H1 3129   8.145   3.566   5.221
 1084TIP3    H2 3130   8.012   3.599   5.156
 1085TIP3   OH2 3131   9.561   8.908   2.349
 1085TIP3    H1 3132   9.520   8.994   2.359
 1085TIP3    H2 3133   9.536   8.860   2.428
 1086TIP3   OH2 3134   6.968   0.910   6.983
 1086TIP3    H1 3135   6.905   0.974   7.016
 1086TIP3    H2 3136   7.045   0.920   7.040
 1087TIP3   OH2 3137   7.262   1.778   6.884
 1087TIP3    H1 3138   7.305   1.743   6.806
 1087TIP3    H2 3139   7.213   1.854   6.852
 1088TIP3   OH2 3140   3.467   0.360   1.980
 1088TIP3    H1 3141   3.392   0.300   1.981
 1088TIP3    H2 3142   3.544   0.304   1.984
 1089TIP3   OH2 3143   4.069   1.533   2.509
 1089TIP3    H1 3144   4.090   1.571   2.594
 1089TIP3    H2 3145   4.049   1.609   2.454
 1090TIP3   OH2 3146   4.586   5.840   7.225
 1090TIP3    H1 3147   4.582   5.902   7.152
 1090TIP3    H2 3148   4.514   5.780   7.209
 1091TIP3   OH2 3149   2.536   2.712   2.406
 1091TIP3    H1 3150   2.447   2.737   2.384
 1091TIP3    H2 3151   2.589   2.789   2.384
 1092TIP3   OH2 3152   6.898   5.485   3.017
 1092TIP3    H1 3153   6.941   5.442   3.092
 1092TIP3    H2 3154   6.950   5.458   2.941
 1093TIP3   OH2 3155   8.413   0.891   0.940
 1093TIP3    H1 3156   8.318   0.900   0.940
 1093TIP3    H2 3157   8.446   0.980   0.949
 1094TIP3   OH2 3158   5.064   4.559   6.422
 1094TIP3    H1 3159   5.147   4.587   6.461
 1094TIP3    H2 3160   5.076   4.465   6.406
 1095TIP3   OH2 3161   7.586   4.154   5.841
 1095TIP3    H1 3162   7.680   4.164   5.822
 1095TIP3    H2 3163   7.563   4.234   5.888
 1096TIP3   OH2 3164   3.039   8.801   0.034
 1096TIP3    H1 3165   3.123   8.759   0.053
 1096TIP3    H2 3166   2.979   8.766   0.100
 1097TIP3   OH2 3167   0.765   2.613   5.637
 1097TIP3    H1 3168   0.765   2.699   5.595
 1097TIP3    H2 3169   0.724   2.556   5.572
 1098TIP3   OH2 3170   8.642   2.125   3.300
 1098TIP3    H1 3171   8.578   2.175   3.349
 1098TIP3    H2 3172   8.683   2.067   3.365
 1099TIP3   OH2 3173   7.970   5.946   2.838
 1099TIP3    H1 3174   8.004   5.955   2.749
 1099TIP3    H2 3175   8.027   5.880   2.879
 1100TIP3   OH2 3176   0.602   5.565   6.398
 1100TIP3    H1 3177   0.660   5.502   6.355
 1100TIP3    H2 3178   0.528   5.575   6.338
 1101TIP3   OH2 3179   8.202   7.582   7.571
 1101TIP3    H1 3180   8.282   7.630   7.591
 1101TIP3    H2 3181   8.144   7.597   7.646
 1102TIP3   OH2 3182   4.400   6.958   5.993
 1102TIP3    H1 3183   4.362   6.967   5.905
 1102TIP3    H2 3184   4.326   6.973   6.052
 1103TIP3   OH2 3185   7.905   3.604   1.751
 1103TIP3    H1 3186   7.978   3.561   1.796
 1103TIP3    H2 3187   7.874   3.670   1.813
 1104TIP3   OH2 3188   1.895   4.491   3.565
 1104TIP3    H1 3189   1.913   4.579   3.599
 1104TIP3    H2 3190   1.810   4.499   3.522
 1105TIP3   OH2 3191   6.682   4.716   3.664
 1105TIP3    H1 3192   6.769   4.713   3.704
 1105TIP3    H2 3193   6.654   4.625   3.661
 1106TIP3   OH2 3194   5.033   6.400   7.519
 1106TIP3    H1 3195   5.021   6.382   7.612
 1106TIP3    H2 3196   5.099   6.470   7.517
 1107TIP3   OH2 3197   4.768   7.113   0.151
 1107TIP3    H1 3198   4.731   7.088   0.235
 1107TIP3    H2 3199   4.862   7.095   0.160
 1108TIP3   OH2 3200   2.895   0.039   0.585
 1108TIP3    H1 3201   2.969   0.099   0.596
 1108TIP3    H2 3202   2.910   0.000   0.498
 1109TIP3   OH2 3203   0.796   3.758   0.940
 1109TIP3    H1 3204   0.768   3.716   1.022
 1109TIP3    H2 3205   0.862   3.821   0.968
 1110TIP3   OH2 3206   6.513   6.447   2.991
 1110TIP3    H1 3207   6.464   6.528   3.006
 1110TIP3    H2 3208   6.520   6.407   3.077
 1111TIP3   OH2 3209   6.096   1.289   1.133
 1111TIP3    H1 3210   6.184   1.320   1.154
 1111TIP3    H2 3211   6.101   1.262   1.041
 1112TIP3   OH2 3212   5.364   4.236   1.234
 1112TIP3    H1 3213   5.351   4.185   1.314
 1112TIP3    H2 3214   5.295   4.205   1.175
 1113TIP3   OH2 3215   2.898   1.458   2.950
 1113TIP3    H1 3216   2.988   1.491   2.951
 1113TIP3    H2 3217   2.865   1.477   3.038
 1114TIP3   OH2 3218   4.897   0.099   5.404
 1114TIP3    H1 3219   4.908   0.011   5.440
 1114TIP3    H2 3220   4.853   0.085   5.320
 1115TIP3   OH2 3221   9.189   4.004   0.039
 1115TIP3    H1 3222   9.244   3.938  -0.002
 1115TIP3    H2 3223   9.195   4.081  -0.018
 1116TIP3   OH2 3224   7.714   0.456   6.759
 1116TIP3    H1 3225   7.798   0.413   6.770
 1116TIP3    H2 3226   7.705   0.465   6.664
 1117TIP3   OH2 3227   6.678   5.503   2.667
 1117TIP3    H1 3228   6.643   5.453   2.741
 1117TIP3    H2 3229   6.671   5.444   2.592
 1118TIP3   OH2 3230   6.053   0.578   0.929
 1118TIP3    H1 3231   6.021   0.489   0.916
 1118TIP3    H2 3232   6.095   0.577   1.015
 1119TIP3   OH2 3233   6.993   3.412   4.076
 1119TIP3    H1 3234   6.989   3.502   4.047
 1119TIP3    H2 3235   6.902   3.387   4.091
 1120TIP3   OH2 3236   7.103   4.998   7.805
 1120TIP3    H1 3237   7.064   4.915   7.776
 1120TIP3    H2 3238   7.039   5.035   7.865
 1121TIP3   OH2 3239   1.449   0.408   2.717
 1121TIP3    H1 3240   1.385   0.457   2.767
 1121TIP3    H2 3241   1.424   0.422   2.626
 1122TIP3   OH2 3242   5.979   3.805   3.395
 1122TIP3    H1 3243   5.927   3.885   3.400
 1122TIP3    H2 3244   6.007   3.799   3.304
 1123TIP3   OH2 3245   1.728   5.885   4.584
 1123TIP3    H1 3246   1.770   5.969   4.601
 1123TIP3    H2 3247   1.665   5.874   4.655
 1124TIP3   OH2 3248   9.530   4.258   5.930
 1124TIP3    H1 3249   9.562   4.335   5.978
 1124TIP3    H2 3250   9.435   4.269   5.928
 1125TIP3   OH2 3251   7.972   4.027   7.020
 1125TIP3    H1 3252   7.958   4.111   7.065
 1125TIP3    H2 3253   8.018   4.050   6.940
 1126TIP3   OH2 3254   2.347   1.039   7.080
 1126TIP3    H1 3255   2.392   0.978   7.021
 1126TIP3    H2 3256   2.258   1.044   7.045
 1127TIP3   OH2 3257   6.246   1.430   5.504
 1127TIP3    H1 3258   6.309   1.377   5.553
 1127TIP3    H2 3259   6.287   1.445   5.419
 1128TIP3   OH2 3260   6.880   9.013   2.959
 1128TIP3    H1 3261   6.805   9.019   2.900
 1128TIP3    H2 3262   6.843   9.024   3.046
 1129TIP3   OH2 3263   2.190   1.434   7.034
 1129TIP3    H1 3264   2.148   1.510   6.994
 1129TIP3    H2 3265   2.146   1.359   6.995
 1130TIP3   OH2 3266   6.059   7.090   0.066
 1130TIP3    H1 3267   6.013   7.147   0.129
 1130TIP3    H2 3268   6.100   7.150   0.005
 1131TIP3   OH2 3269   2.545   5.644   3.109
 1131TIP3    H1 3270   2.558   5.668   3.201
 1131TIP3    H2 3271   2.500   5.559   3.113
 1132TIP3   OH2 3272   4.836   5.407   1.329
 1132TIP3    H1 3273   4.838   5.382   1.237
 1132TIP3    H2 3274   4.744   5.397   1.355
 1133TIP3   OH2 3275   5.484   2.153   1.794
 1133TIP3    H1 3276   5.486   2.244   1.763
 1133TIP3    H2 3277   5.573   2.121   1.782
 1134TIP3   OH2 3278   3.393   7.240   6.833
 1134TIP3    H1 3279   3.406   7.155   6.791
 1134TIP3    H2 3280   3.481   7.278   6.838
 1135TIP3   OH2 3281   0.388   6.101   6.024
 1135TIP3    H1 3282   0.363   6.142   5.941
 1135TIP3    H2 3283   0.313   6.045   6.046
 1136TIP3   OH2 3284   0.736   3.490   0.208
 1136TIP3    H1 3285   0.775   3.540   0.280
 1136TIP3    H2 3286   0.692   3.555   0.154
 1137TIP3   OH2 3287   3.239   8.647   1.475
 1137TIP3    H1 3288   3.171   8.600   1.525
 1137TIP3    H2 3289   3.190   8.696   1.410
 1138TIP3   OH2 3290   5.195   7.424   3.075
 1138TIP3    H1 3291   5.236   7.460   2.996
 1138TIP3    H2 3292   5.267   7.417   3.138
 1139TIP3   OH2 3293   3.384   2.563   5.035
 1139TIP3    H1 3294   3.353   2.605   5.116
 1139TIP3    H2 3295   3.424   2.633   4.985
 1140TIP3   OH2 3296   5.540   8.891   3.315
 1140TIP3    H1 3297   5.465   8.939   3.352
 1140TIP3    H2 3298   5.556   8.820   3.378
 1141TIP3   OH2 3299   0.612   6.451   0.956
 1141TIP3    H1 3300   0.648   6.411   1.035
 1141TIP3    H2 3301   0.518   6.460   0.974
 1142TIP3   OH2 3302   5.832   6.339   5.049
 1142TIP3    H1 3303   5.772   6.292   5.107
 1142TIP3    H2 3304   5.819   6.431   5.073
 1143TIP3   OH2 3305   5.834   0.754   4.888
 1143TIP3    H1 3306   5.776   0.733   4.815
 1143TIP3    H2 3307   5.829   0.849   4.896
 1144TIP3   OH2 3308   3.687   0.707   6.824
 1144TIP3    H1 3309   3.643   0.752   6.751
 1144TIP3    H2 3310   3.618   0.694   6.889
 1145TIP3   OH2 3311   8.638   8.405   3.693
 1145TIP3    H1 3312   8.706   8.338   3.688
 1145TIP3    H2 3313   8.684   8.487   3.673
 1146TIP3   OH2 3314   0.071   7.431   7.528
 1146TIP3    H1 3315   0.158   7.464   7.548
 1146TIP3    H2 3316   0.075   7.338   7.546
 1147TIP3   OH2 3317   7.171   0.753   5.418
 1147TIP3    H1 3318   7.111   0.691   5.458
 1147TIP3    H2 3319   7.156   0.835   5.465
 1148TIP3   OH2 3320   6.250   5.041   4.372
 1148TIP3    H1 3321   6.305   4.963   4.362
 1148TIP3    H2 3322   6.165   5.015   4.339
 1149TIP3   OH2 3323   6.282   4.108   6.186
 1149TIP3    H1 3324   6.285   4.025   6.235
 1149TIP3    H2 3325   6.341   4.094   6.112
 1150TIP3   OH2 3326   5.379   8.432   2.387
 1150TIP3    H1 3327   5.469   8.459   2.408
 1150TIP3    H2 3328   5.390   8.352   2.335
 1151TIP3   OH2 3329   8.291   3.497   5.319
 1151TIP3    H1 3330   8.257   3.517   5.406
 1151TIP3    H2 3331   8.382   3.472   5.334
 1152TIP3   OH2 3332   5.169   1.510   2.326
 1152TIP3    H1 3333   5.227   1.443   2.362
 1152TIP3    H2 3334   5.202   1.525   2.238
 1153TIP3   OH2 3335   6.825   5.304   6.731
 1153TIP3    H1 3336   6.760   5.313   6.800
 1153TIP3    H2 3337   6.902   5.268   6.775
 1154TIP3   OH2 3338   8.039   3.139   0.261
 1154TIP3    H1 3339   8.085   3.158   0.343
 1154TIP3    H2 3340   8.096   3.174   0.193
 1155TIP3   OH2 3341   5.987   8.018   4.750
 1155TIP3    H1 3342   5.971   8.048   4.661
 1155TIP3    H2 3343   6.061   7.958   4.743
 1156TIP3   OH2 3344   5.596   1.827   2.291
 1156TIP3    H1 3345   5.641   1.800   2.371
 1156TIP3    H2 3346   5.504   1.807   2.308
 1157TIP3   OH2 3347   7.561   8.199   5.435
 1157TIP3    H1 3348   7.548   8.248   5.517
 1157TIP3    H2 3349   7.601   8.262   5.375
 1158TIP3   OH2 3350   1.082   7.733   2.789
 1158TIP3    H1 3351   1.057   7.788   2.863
 1158TIP3    H2 3352   1.002   7.727   2.737
 1159TIP3   OH2 3353   8.802   4.265   3.982
 1159TIP3    H1 3354   8.723   4.223   3.947
 1159TIP3    H2 3355   8.806   4.237   4.073
 1160TIP3   OH2 3356   0.154   7.519   7.016
 1160TIP3    H1 3357   0.061   7.517   6.995
 1160TIP3    H2 3358   0.198   7.521   6.931
 1161TIP3   OH2 3359   0.129   1.105   0.714
 1161TIP3    H1 3360   0.071   1.125   0.788
 1161TIP3    H2 3361   0.201   1.056   0.753
 1162TIP3   OH2 3362   6.072   3.596   4.317
 1162TIP3    H1 3363   6.008   3.614   4.249
 1162TIP3    H2 3364   6.021   3.599   4.399
 1163TIP3   OH2 3365   5.323   1.902   6.169
 1163TIP3    H1 3366   5.364   1.945   6.093
 1163TIP3    H2 3367   5.316   1.971   6.235
 1164TIP3   OH2 3368   2.538   3.813   5.255
 1164TIP3    H1 3369   2.530   3.860   5.172
 1164TIP3    H2 3370   2.529   3.720   5.231
 1165TIP3   OH2 3371   8.517   8.926   0.628
 1165TIP3    H1 3372   8.588   8.869   0.599
 1165TIP3    H2 3373   8.538   9.012   0.590
 1166TIP3   OH2 3374   7.420   4.733   5.217
 1166TIP3    H1 3375   7.372   4.695   5.290
 1166TIP3    H2 3376   7.488   4.787   5.257
 1167TIP3   OH2 3377   4.513   7.407   1.388
 1167TIP3    H1 3378   4.572   7.383   1.317
 1167TIP3    H2 3379   4.445   7.460   1.346
 1168TIP3   OH2 3380   5.099   5.976   6.985
 1168TIP3    H1 3381   5.093   6.005   7.076
 1168TIP3    H2 3382   5.129   6.053   6.936
 1169TIP3   OH2 3383   4.157   8.342   4.818
 1169TIP3    H1 3384   4.138   8.362   4.726
 1169TIP3    H2 3385   4.091   8.279   4.843
 1170TIP3   OH2 3386   0.040   1.964   4.549
 1170TIP3    H1 3387   0.012   1.965   4.641
 1170TIP3    H2 3388  -0.009   1.891   4.510
 1171TIP3   OH2 3389   1.958   3.481   4.397
 1171TIP3    H1 3390   1.916   3.549   4.450
 1171TIP3    H2 3391   2.030   3.449   4.452
 1172TIP3   OH2 3392   2.219   0.087   6.974
 1172TIP3    H1 3393   2.225   0.097   7.069
 1172TIP3    H2 3394   2.144   0.142   6.950
 1173TIP3   OH2 3395   5.646   1.416   0.414
 1173TIP3    H1 3396   5.628   1.509   0.428
 1173TIP3    H2 3397   5.612   1.373   0.493
 1174TIP3   OH2 3398   4.506   2.809   0.933
 1174TIP3    H1 3399   4.496   2.766   0.848
 1174TIP3    H2 3400   4.597   2.793   0.958
 1175TIP3   OH2 3401   0.141   5.721   0.593
 1175TIP3    H1 3402   0.114   5.689   0.679
 1175TIP3    H2 3403   0.237   5.722   0.597
 1176TIP3   OH2 3404   7.256   2.024   0.380
 1176TIP3    H1 3405   7.266   2.119   0.381
 1176TIP3    H2 3406   7.203   2.006   0.302
 1177TIP3   OH2 3407   8.522   4.939   3.213
 1177TIP3    H1 3408   8.590   5.007   3.203
 1177TIP3    H2 3409   8.509   4.905   3.125
 1178TIP3   OH2 3410   7.365   2.692   1.745
 1178TIP3    H1 3411   7.416   2.693   1.826
 1178TIP3    H2 3412   7.332   2.782   1.737
 1179TIP3   OH2 3413   3.749   3.857   1.262
 1179TIP3    H1 3414   3.739   3.787   1.326
 1179TIP3    H2 3415   3.844   3.872   1.257
 1180TIP3   OH2 3416   4.433   8.044   5.038
 1180TIP3    H1 3417   4.456   8.093   5.116
 1180TIP3    H2 3418   4.399   7.961   5.070
 1181TIP3   OH2 3419   3.437   8.859   0.520
 1181TIP3    H1 3420   3.366   8.883   0.461
 1181TIP3    H2 3421   3.512   8.910   0.489
 1182TIP3   OH2 3422   6.279   0.887   3.066
 1182TIP3    H1 3423   6.307   0.932   3.146
 1182TIP3    H2 3424   6.254   0.799   3.096
 1183TIP3   OH2 3425   8.910   4.724   5.753
 1183TIP3    H1 3426   8.834   4.702   5.700
 1183TIP3    H2 3427   8.941   4.807   5.718
 1184TIP3   OH2 3428   5.714   4.379   6.418
 1184TIP3    H1 3429   5.774   4.326   6.471
 1184TIP3    H2 3430   5.731   4.352   6.328
 1185TIP3   OH2 3431   2.406   8.957   5.037
 1185TIP3    H1 3432   2.497   8.977   5.018
 1185TIP3    H2 3433   2.360   9.040   5.025
 1186TIP3   OH2 3434   4.821   3.422   2.646
 1186TIP3    H1 3435   4.787   3.450   2.731
 1186TIP3    H2 3436   4.862   3.338   2.663
 1187TIP3   OH2 3437   8.557   1.028   1.623
 1187TIP3    H1 3438   8.500   1.018   1.546
 1187TIP3    H2 3439   8.645   1.022   1.588
 1188TIP3   OH2 3440   9.104   6.418   5.214
 1188TIP3    H1 3441   9.168   6.453   5.152
 1188TIP3    H2 3442   9.032   6.387   5.160
 1189TIP3   OH2 3443   3.451   4.315   2.049
 1189TIP3    H1 3444   3.357   4.294   2.046
 1189TIP3    H2 3445   3.471   4.348   1.962
 1190TIP3   OH2 3446   4.051   8.691   3.911
 1190TIP3    H1 3447   4.070   8.781   3.938
 1190TIP3    H2 3448   3.960   8.677   3.938
 1191TIP3   OH2 3449   0.332   0.682   2.171
 1191TIP3    H1 3450   0.295   0.630   2.242
 1191TIP3    H2 3451   0.415   0.638   2.149
 1192TIP3   OH2 3452   3.799   1.418   1.696
 1192TIP3    H1 3453   3.890   1.408   1.667
 1192TIP3    H2 3454   3.747   1.405   1.616
 1193TIP3   OH2 3455   0.030   3.567   2.768
 1193TIP3    H1 3456   0.066   3.638   2.714
 1193TIP3    H2 3457   0.106   3.530   2.813
 1194TIP3   OH2 3458   6.125   0.588   4.677
 1194TIP3    H1 3459   6.218   0.598   4.695
 1194TIP3    H2 3460   6.098   0.513   4.730
 1195TIP3   OH2 3461   1.607   4.249   2.348
 1195TIP3    H1 3462   1.528   4.206   2.314
 1195TIP3    H2 3463   1.653   4.179   2.395
 1196TIP3   OH2 3464   1.537   4.881   0.819
 1196TIP3    H1 3465   1.602   4.810   0.825
 1196TIP3    H2 3466   1.518   4.904   0.910
 1197TIP3   OH2 3467   9.046   5.562   4.688
 1197TIP3    H1 3468   9.056   5.644   4.640
 1197TIP3    H2 3469   9.131   5.520   4.682
 1198TIP3   OH2 3470   1.560   3.322   3.156
 1198TIP3    H1 3471   1.509   3.331   3.076
 1198TIP3    H2 3472   1.514   3.375   3.221
 1199TIP3   OH2 3473   9.307   5.842   2.067
 1199TIP3    H1 3474   9.221   5.807   2.042
 1199TIP3    H2 3475   9.317   5.922   2.015
 1200TIP3   OH2 3476   5.102   5.531   3.052
 1200TIP3    H1 3477   5.030   5.588   3.026
 1200TIP3    H2 3478   5.174   5.556   2.994
 1201TIP3   OH2 3479   2.238   2.181   3.181
 1201TIP3    H1 3480   2.254   2.253   3.241
 1201TIP3    H2 3481   2.319   2.173   3.131
 1202TIP3   OH2 3482   5.973   7.666   7.485
 1202TIP3    H1 3483   6.021   7.649   7.566
 1202TIP3    H2 3484   5.896   7.609   7.491
 1203TIP3   OH2 3485   8.025   4.755   4.291
 1203TIP3    H1 3486   8.112   4.742   4.330
 1203TIP3    H2 3487   7.964   4.734   4.361
 1204TIP3   OH2 3488   2.759   8.941   3.545
 1204TIP3    H1 3489   2.793   8.957   3.633
 1204TIP3    H2 3490   2.679   8.889   3.558
 1205TIP3   OH2 3491   6.457   8.371   6.895
 1205TIP3    H1 3492   6.450   8.317   6.816
 1205TIP3    H2 3493   6.551   8.377   6.911
 1206TIP3   OH2 3494   7.212   6.741   0.126
 1206TIP3    H1 3495   7.296   6.696   0.113
 1206TIP3    H2 3496   7.148   6.685   0.083
 1207TIP3   OH2 3497   4.445   5.361   6.959
 1207TIP3    H1 3498   4.535   5.336   6.978
 1207TIP3    H2 3499   4.397   5.279   6.953
 1208TIP3   OH2 3500   4.420   8.877   2.159
 1208TIP3    H1 3501   4.348   8.823   2.189
 1208TIP3    H2 3502   4.419   8.869   2.064
 1209TIP3   OH2 3503   2.776   0.240   5.479
 1209TIP3    H1 3504   2.750   0.310   5.418
 1209TIP3    H2 3505   2.811   0.286   5.555
 1210TIP3   OH2 3506   5.372   1.343   1.677
 1210TIP3    H1 3507   5.301   1.322   1.616
 1210TIP3    H2 3508   5.418   1.260   1.690
 1211TIP3   OH2 3509   3.077   7.246   0.855
 1211TIP3    H1 3510   3.047   7.197   0.932
 1211TIP3    H2 3511   3.042   7.197   0.781
 1212TIP3   OH2 3512   4.271   1.976   3.438
 1212TIP3    H1 3513   4.338   1.924   3.394
 1212TIP3    H2 3514   4.318   2.026   3.505
 1213TIP3   OH2 3515   9.418   1.545   1.679
 1213TIP3    H1 3516   9.408   1.628   1.725
 1213TIP3    H2 3517   9.499   1.555   1.630
 1214TIP3   OH2 3518   2.328   2.733   1.118
 1214TIP3    H1 3519   2.422   2.748   1.126
 1214TIP3    H2 3520   2.318   2.639   1.132
 1215TIP3   OH2 3521   5.988   0.485   3.683
 1215TIP3    H1 3522   6.001   0.395   3.652
 1215TIP3    H2 3523   5.939   0.475   3.765
 1216TIP3   OH2 3524   3.740   6.646   7.469
 1216TIP3    H1 3525   3.729   6.617   7.378
 1216TIP3    H2 3526   3.834   6.654   7.480
 1217TIP3   OH2 3527   3.175   5.268   1.389
 1217TIP3    H1 3528   3.236   5.216   1.337
 1217TIP3    H2 3529   3.091   5.224   1.380
 1218TIP3   OH2 3530   1.043   7.101   6.731
 1218TIP3    H1 3531   0.974   7.165   6.742
 1218TIP3    H2 3532   1.101   7.139   6.665
 1219TIP3   OH2 3533   7.339   6.599   6.285
 1219TIP3    H1 3534   7.273   6.609   6.353
 1219TIP3    H2 3535   7.293   6.555   6.213
 1220TIP3   OH2 3536   7.076   1.265   1.133
 1220TIP3    H1 3537   7.061   1.343   1.081
 1220TIP3    H2 3538   7.171   1.262   1.146
 1221TIP3   OH2 3539   0.792   8.116   5.435
 1221TIP3    H1 3540   0.818   8.094   5.524
 1221TIP3    H2 3541   0.856   8.181   5.406
 1222TIP3   OH2 3542   9.086   0.599   3.605
 1222TIP3    H1 3543   9.002   0.625   3.643
 1222TIP3    H2 3544   9.123   0.680   3.570
 1223TIP3   OH2 3545   5.716   9.026   6.649
 1223TIP3    H1 3546   5.798   9.068   6.623
 1223TIP3    H2 3547   5.721   8.938   6.611
 1224TIP3   OH2 3548   9.122   0.901   2.691
 1224TIP3    H1 3549   9.204   0.940   2.723
 1224TIP3    H2 3550   9.142   0.872   2.602
 1225TIP3   OH2 3551   0.346   8.894   3.027
 1225TIP3    H1 3552   0.315   8.841   2.953
 1225TIP3    H2 3553   0.339   8.984   2.996
 1226TIP3   OH2 3554   2.569   1.156   2.949
 1226TIP3    H1 3555   2.587   1.063   2.965
 1226TIP3    H2 3556   2.498   1.155   2.885
 1227TIP3   OH2 3557   0.116   1.638   0.985
 1227TIP3    H1 3558   0.154   1.725   0.976
 1227TIP3    H2 3559   0.168   1.583   0.925
 1228TIP3   OH2 3560   4.483   1.513   1.632
 1228TIP3    H1 3561   4.405   1.460   1.612
 1228TIP3    H2 3562   4.449   1.602   1.640
 1229TIP3   OH2 3563   1.804   0.580   2.093
 1229TIP3    H1 3564   1.725   0.551   2.047
 1229TIP3    H2 3565   1.785   0.563   2.186
 1230TIP3   OH2 3566   0.078   2.659   0.706
 1230TIP3    H1 3567   0.081   2.564   0.692
 1230TIP3    H2 3568   0.163   2.681   0.743
 1231TIP3   OH2 3569   5.521   4.900   2.785
 1231TIP3    H1 3570   5.469   4.980   2.797
 1231TIP3    H2 3571   5.534   4.894   2.690
 1232TIP3   OH2 3572   1.634   8.264   0.007
 1232TIP3    H1 3573   1.613   8.301  -0.079
 1232TIP3    H2 3574   1.696   8.193  -0.013
 1233TIP3   OH2 3575   0.275   2.670   1.994
 1233TIP3    H1 3576   0.240   2.677   2.082
 1233TIP3    H2 3577   0.261   2.757   1.955
 1234TIP3   OH2 3578   6.160   6.601   4.447
 1234TIP3    H1 3579   6.205   6.529   4.492
 1234TIP3    H2 3580   6.221   6.629   4.378
 1235TIP3   OH2 3581   0.222   3.310   3.174
 1235TIP3    H1 3582   0.219   3.243   3.242
 1235TIP3    H2 3583   0.290   3.371   3.203
 1236TIP3   OH2 3584   7.175   4.894   5.105
 1236TIP3    H1 3585   7.244   4.863   5.046
 1236TIP3    H2 3586   7.152   4.817   5.157
 1237TIP3   OH2 3587   8.197   6.023   4.533
 1237TIP3    H1 3588   8.203   6.072   4.615
 1237TIP3    H2 3589   8.108   6.040   4.502
 1238TIP3   OH2 3590   8.580   7.037   4.190
 1238TIP3    H1 3591   8.648   7.087   4.236
 1238TIP3    H2 3592   8.506   7.097   4.185
 1239TIP3   OH2 3593   7.048   1.846   2.492
 1239TIP3    H1 3594   7.043   1.932   2.534
 1239TIP3    H2 3595   7.125   1.805   2.530
 1240TIP3   OH2 3596   8.149   1.275   1.674
 1240TIP3    H1 3597   8.243   1.272   1.695
 1240TIP3    H2 3598   8.109   1.209   1.730
 1241TIP3   OH2 3599   8.503   6.640   6.219
 1241TIP3    H1 3600   8.552   6.632   6.137
 1241TIP3    H2 3601   8.566   6.615   6.287
 1242TIP3   OH2 3602   2.559   1.910   0.795
 1242TIP3    H1 3603   2.541   1.825   0.754
 1242TIP3    H2 3604   2.541   1.974   0.727
 1243TIP3   OH2 3605   8.402   3.421   6.064
 1243TIP3    H1 3606   8.379   3.328   6.064
 1243TIP3    H2 3607   8.498   3.421   6.058
 1244TIP3   OH2 3608   5.788   8.123   2.611
 1244TIP3    H1 3609   5.861   8.156   2.559
 1244TIP3    H2 3610   5.823   8.044   2.653
 1245TIP3   OH2 3611   1.864   0.755   6.603
 1245TIP3    H1 3612   1.868   0.740   6.697
 1245TIP3    H2 3613   1.781   0.802   6.589
 1246TIP3   OH2 3614   3.163   6.835   1.988
 1246TIP3    H1 3615   3.113   6.797   2.060
 1246TIP3    H2 3616   3.176   6.927   2.014
 1247TIP3   OH2 3617   7.452   0.665   2.953
 1247TIP3    H1 3618   7.517   0.689   3.019
 1247TIP3    H2 3619   7.382   0.622   3.002
 1248TIP3   OH2 3620   9.147   3.190   3.088
 1248TIP3    H1 3621   9.226   3.228   3.049
 1248TIP3    H2 3622   9.172   3.171   3.178
 1249TIP3   OH2 3623   3.033   3.315   1.321
 1249TIP3    H1 3624   3.021   3.224   1.347
 1249TIP3    H2 3625   3.125   3.333   1.341
 1250TIP3   OH2 3626   2.365   1.343   4.414
 1250TIP3    H1 3627   2.441   1.292   4.386
 1250TIP3    H2 3628   2.318   1.364   4.333
 1251TIP3   OH2 3629   2.718   4.740   1.713
 1251TIP3    H1 3630   2.769   4.778   1.784
 1251TIP3    H2 3631   2.667   4.671   1.754
 1252TIP3   OH2 3632   0.772   1.521   5.918
 1252TIP3    H1 3633   0.861   1.556   5.924
 1252TIP3    H2 3634   0.761   1.500   5.825
 1253TIP3   OH2 3635   2.723   0.211   4.058
 1253TIP3    H1 3636   2.648   0.253   4.100
 1253TIP3    H2 3637   2.766   0.163   4.129
 1254TIP3   OH2 3638   8.083   4.043   0.557
 1254TIP3    H1 3639   8.089   4.020   0.464
 1254TIP3    H2 3640   8.158   4.100   0.572
 1255TIP3   OH2 3641   9.035   0.786   5.999
 1255TIP3    H1 3642   8.992   0.724   6.058
 1255TIP3    H2 3643   8.967   0.851   5.980
 1256TIP3   OH2 3644   0.307   0.562   0.095
 1256TIP3    H1 3645   0.396   0.528   0.089
 1256TIP3    H2 3646   0.300   0.595   0.184
 1257TIP3   OH2 3647   5.439   7.256   2.978
 1257TIP3    H1 3648   5.524   7.227   2.947
 1257TIP3    H2 3649   5.451   7.348   3.000
 1258TIP3   OH2 3650   4.259   3.728   3.339
 1258TIP3    H1 3651   4.329   3.723   3.275
 1258TIP3    H2 3652   4.291   3.790   3.405
 1259TIP3   OH2 3653   5.435   0.919   5.180
 1259TIP3    H1 3654   5.416   0.955   5.266
 1259TIP3    H2 3655   5.530   0.928   5.170
 1260TIP3   OH2 3656   3.598   7.505   2.618
 1260TIP3    H1 3657   3.687   7.480   2.594
 1260TIP3    H2 3658   3.576   7.450   2.693
 1261TIP3   OH2 3659   7.799   8.297   2.527
 1261TIP3    H1 3660   7.891   8.321   2.530
 1261TIP3    H2 3661   7.797   8.207   2.560
 1262TIP3   OH2 3662   8.661   2.992   1.517
 1262TIP3    H1 3663   8.610   2.936   1.576
 1262TIP3    H2 3664   8.595   3.031   1.459
 1263TIP3   OH2 3665   9.189   3.054   4.878
 1263TIP3    H1 3666   9.132   3.129   4.897
 1263TIP3    H2 3667   9.244   3.084   4.806
 1264TIP3   OH2 3668   9.071   1.094   1.204
 1264TIP3    H1 3669   8.983   1.067   1.177
 1264TIP3    H2 3670   9.058   1.177   1.249
 1265TIP3   OH2 3671   2.674   1.366   5.969
 1265TIP3    H1 3672   2.721   1.373   6.052
 1265TIP3    H2 3673   2.596   1.314   5.989
 1266TIP3   OH2 3674   8.143   5.470   3.045
 1266TIP3    H1 3675   8.143   5.459   3.140
 1266TIP3    H2 3676   8.223   5.427   3.015
 1267TIP3   OH2 3677   1.332   8.602   5.668
 1267TIP3    H1 3678   1.299   8.692   5.666
 1267TIP3    H2 3679   1.427   8.612   5.660
 1268TIP3   OH2 3680   7.635   5.723   7.727
 1268TIP3    H1 3681   7.551   5.713   7.772
 1268TIP3    H2 3682   7.695   5.755   7.795
 1269TIP3   OH2 3683   3.730   2.075   0.963
 1269TIP3    H1 3684   3.651   2.035   0.999
 1269TIP3    H2 3685   3.697   2.140   0.901
 1270TIP3   OH2 3686   6.628   5.117   7.383
 1270TIP3    H1 3687   6.652   5.187   7.444
 1270TIP3    H2 3688   6.700   5.115   7.320
 1271TIP3   OH2 3689   1.021   0.725   5.456
 1271TIP3    H1 3690   0.977   0.807   5.431
 1271TIP3    H2 3691   1.066   0.697   5.376
 1272TIP3   OH2 3692   8.246   6.770   4.695
 1272TIP3    H1 3693   8.341   6.772   4.689
 1272TIP3    H2 3694   8.216   6.792   4.607
 1273TIP3   OH2 3695   0.292   7.555   2.525
 1273TIP3    H1 3696   0.206   7.581   2.492
 1273TIP3    H2 3697   0.351   7.624   2.495
 1274TIP3   OH2 3698   6.712   8.394   1.534
 1274TIP3    H1 3699   6.653   8.387   1.459
 1274TIP3    H2 3700   6.750   8.482   1.527
 1275TIP3   OH2 3701   4.367   1.562   0.145
 1275TIP3    H1 3702   4.406   1.563   0.058
 1275TIP3    H2 3703   4.282   1.520   0.133
 1276TIP3   OH2 3704   4.552   6.884   3.595
 1276TIP3    H1 3705   4.553   6.874   3.690
 1276TIP3    H2 3706   4.506   6.806   3.563
 1277TIP3   OH2 3707   5.909   1.547   3.941
 1277TIP3    H1 3708   5.837   1.548   4.004
 1277TIP3    H2 3709   5.890   1.472   3.884
 1278TIP3   OH2 3710   6.944   5.484   2.130
 1278TIP3    H1 3711   7.010   5.553   2.125
 1278TIP3    H2 3712   6.908   5.493   2.219
 1279TIP3   OH2 3713   3.716   7.163   3.939
 1279TIP3    H1 3714   3.729   7.207   4.023
 1279TIP3    H2 3715   3.647   7.099   3.956
 1280TIP3   OH2 3716   5.800   6.302   4.784
 1280TIP3    H1 3717   5.810   6.301   4.879
 1280TIP3    H2 3718   5.806   6.394   4.759
 1281TIP3   OH2 3719   1.654   5.989   4.090
 1281TIP3    H1 3720   1.577   5.949   4.131
 1281TIP3    H2 3721   1.682   6.056   4.152
 1282TIP3   OH2 3722   9.426   8.628   5.871
 1282TIP3    H1 3723   9.475   8.709   5.870
 1282TIP3    H2 3724   9.340   8.652   5.907
 1283TIP3   OH2 3725   0.108   7.391   3.591
 1283TIP3    H1 3726   0.056   7.335   3.535
 1283TIP3    H2 3727   0.135   7.464   3.535
 1284TIP3   OH2 3728   9.558   4.475   2.805
 1284TIP3    H1 3729   9.610   4.555   2.811
 1284TIP3    H2 3730   9.475   4.503   2.768
 1285TIP3   OH2 3731   8.397   6.744   6.742
 1285TIP3    H1 3732   8.384   6.747   6.837
 1285TIP3    H2 3733   8.399   6.651   6.721
 1286TIP3   OH2 3734   8.887   5.084   4.010
 1286TIP3    H1 3735   8.923   5.089   3.921
 1286TIP3    H2 3736   8.929   5.008   4.049
 1287TIP3   OH2 3737   2.245   1.432   1.771
 1287TIP3    H1 3738   2.331   1.456   1.736
 1287TIP3    H2 3739   2.183   1.476   1.713
 1288TIP3   OH2 3740   0.726   3.729   3.874
 1288TIP3    H1 3741   0.765   3.702   3.790
 1288TIP3    H2 3742   0.799   3.727   3.936
 1289TIP3   OH2 3743   3.992   1.986   6.766
 1289TIP3    H1 3744   4.021   1.947   6.849
 1289TIP3    H2 3745   3.902   1.957   6.756
 1290TIP3   OH2 3746   4.107   3.376   1.638
 1290TIP3    H1 3747   4.155   3.455   1.616
 1290TIP3    H2 3748   4.147   3.345   1.719
 1291TIP3   OH2 3749   0.260   7.172   3.648
 1291TIP3    H1 3750   0.346   7.181   3.606
 1291TIP3    H2 3751   0.210   7.248   3.619
 1292TIP3   OH2 3752   3.404   8.932   3.183
 1292TIP3    H1 3753   3.408   8.849   3.230
 1292TIP3    H2 3754   3.314   8.962   3.193
 1293TIP3   OH2 3755   3.443   1.275   4.534
 1293TIP3    H1 3756   3.362   1.282   4.585
 1293TIP3    H2 3757   3.509   1.315   4.591
 1294TIP3   OH2 3758   2.267   5.640   5.374
 1294TIP3    H1 3759   2.270   5.678   5.462
 1294TIP3    H2 3760   2.339   5.577   5.373
 1295TIP3   OH2 3761   6.631   8.381   4.885
 1295TIP3    H1 3762   6.666   8.459   4.929
 1295TIP3    H2 3763   6.573   8.417   4.817
 1296TIP3   OH2 3764   8.105   3.666   2.966
 1296TIP3    H1 3765   8.169   3.677   2.896
 1296TIP3    H2 3766   8.047   3.597   2.934
 1297TIP3   OH2 3767   0.367   0.038   4.052
 1297TIP3    H1 3768   0.437  -0.025   4.033
 1297TIP3    H2 3769   0.302  -0.013   4.101
 1298TIP3   OH2 3770   4.281   4.479   2.718
 1298TIP3    H1 3771   4.367   4.513   2.693
 1298TIP3    H2 3772   4.220   4.549   2.696
 1299TIP3   OH2 3773   4.804   1.571   3.774
 1299TIP3    H1 3774   4.739   1.512   3.735
 1299TIP3    H2 3775   4.886   1.522   3.771
 1300TIP3   OH2 3776   6.713   6.138   0.363
 1300TIP3    H1 3777   6.754   6.065   0.317
 1300TIP3    H2 3778   6.638   6.163   0.308
 1301TIP3   OH2 3779   6.808   3.750   6.220
 1301TIP3    H1 3780   6.814   3.819   6.153
 1301TIP3    H2 3781   6.726   3.768   6.265
 1302TIP3   OH2 3782   7.971   4.909   2.272
 1302TIP3    H1 3783   7.889   4.895   2.226
 1302TIP3    H2 3784   8.023   4.832   2.253
 1303TIP3   OH2 3785   5.130   2.287   7.477
 1303TIP3    H1 3786   5.193   2.286   7.405
 1303TIP3    H2 3787   5.158   2.359   7.533
 1304TIP3   OH2 3788   7.703   8.565   1.894
 1304TIP3    H1 3789   7.666   8.488   1.938
 1304TIP3    H2 3790   7.742   8.616   1.964
 1305TIP3   OH2 3791   1.762   6.910   6.793
 1305TIP3    H1 3792   1.763   6.820   6.825
 1305TIP3    H2 3793   1.757   6.964   6.872
 1306TIP3   OH2 3794   8.765   5.490   2.441
 1306TIP3    H1 3795   8.753   5.395   2.444
 1306TIP3    H2 3796   8.852   5.504   2.477
 1307TIP3   OH2 3797   2.121   2.827   3.759
 1307TIP3    H1 3798   2.132   2.750   3.815
 1307TIP3    H2 3799   2.208   2.867   3.755
 1308TIP3   OH2 3800   9.548   6.122   1.956
 1308TIP3    H1 3801   9.599   6.046   1.930
 1308TIP3    H2 3802   9.458   6.099   1.937
 1309TIP3   OH2 3803   6.454   5.350   3.952
 1309TIP3    H1 3804   6.421   5.436   3.980
 1309TIP3    H2 3805   6.379   5.291   3.962
 1310TIP3   OH2 3806   1.035   8.722   5.872
 1310TIP3    H1 3807   1.127   8.744   5.857
 1310TIP3    H2 3808   1.034   8.680   5.958
 1311TIP3   OH2 3809   0.679   3.918   4.702
 1311TIP3    H1 3810   0.726   4.000   4.716
 1311TIP3    H2 3811   0.587   3.943   4.704
 1312TIP3   OH2 3812   1.056   7.414   4.845
 1312TIP3    H1 3813   1.016   7.448   4.765
 1312TIP3    H2 3814   1.039   7.482   4.911
 1313TIP3   OH2 3815   7.457   3.429   4.950
 1313TIP3    H1 3816   7.537   3.381   4.927
 1313TIP3    H2 3817   7.454   3.427   5.046
 1314TIP3   OH2 3818   5.395   1.400   4.981
 1314TIP3    H1 3819   5.398   1.314   4.939
 1314TIP3    H2 3820   5.415   1.382   5.073
 1315TIP3   OH2 3821   0.347   1.491   6.585
 1315TIP3    H1 3822   0.377   1.580   6.569
 1315TIP3    H2 3823   0.343   1.483   6.680
 1316TIP3   OH2 3824   7.223   3.099   4.683
 1316TIP3    H1 3825   7.284   3.166   4.652
 1316TIP3    H2 3826   7.275   3.046   4.744
 1317TIP3   OH2 3827   0.488   7.462   7.183
 1317TIP3    H1 3828   0.577   7.435   7.205
 1317TIP3    H2 3829   0.432   7.392   7.219
 1318TIP3   OH2 3830   8.033   0.381   0.683
 1318TIP3    H1 3831   8.020   0.463   0.635
 1318TIP3    H2 3832   7.949   0.364   0.725
 1319TIP3   OH2 3833   1.438   3.295   2.567
 1319TIP3    H1 3834   1.481   3.357   2.625
 1319TIP3    H2 3835   1.506   3.267   2.507
 1320TIP3   OH2 3836   1.769   0.747   6.118
 1320TIP3    H1 3837   1.727   0.827   6.150
 1320TIP3    H2 3838   1.863   0.764   6.123
 1321TIP3   OH2 3839   0.812   5.368   5.410
 1321TIP3    H1 3840   0.761   5.349   5.489
 1321TIP3    H2 3841   0.817   5.283   5.365
 1322TIP3   OH2 3842   1.469   0.838   2.636
 1322TIP3    H1 3843   1.556   0.848   2.596
 1322TIP3    H2 3844   1.408   0.858   2.565
 1323TIP3   OH2 3845   0.021   8.555   0.198
 1323TIP3    H1 3846  -0.069   8.524   0.185
 1323TIP3    H2 3847   0.047   8.589   0.112
 1324TIP3   OH2 3848   3.899   2.154   7.111
 1324TIP3    H1 3849   3.858   2.193   7.033
 1324TIP3    H2 3850   3.963   2.220   7.139
 1325TIP3   OH2 3851   7.379   1.220   5.889
 1325TIP3    H1 3852   7.440   1.184   5.825
 1325TIP3    H2 3853   7.425   1.294   5.927
 1326TIP3   OH2 3854   8.469   1.646   0.238
 1326TIP3    H1 3855   8.459   1.737   0.267
 1326TIP3    H2 3856   8.562   1.628   0.250
 1327TIP3   OH2 3857   2.212   1.563   3.542
 1327TIP3    H1 3858   2.251   1.492   3.491
 1327TIP3    H2 3859   2.223   1.641   3.487
 1328TIP3   OH2 3860   4.814   6.685   6.090
 1328TIP3    H1 3861   4.811   6.603   6.140
 1328TIP3    H2 3862   4.726   6.722   6.101
 1329TIP3   OH2 3863   4.737   1.980   3.587
 1329TIP3    H1 3864   4.765   1.925   3.514
 1329TIP3    H2 3865   4.814   1.984   3.644
 1330TIP3   OH2 3866   9.028   6.435   3.037
 1330TIP3    H1 3867   9.015   6.454   3.130
 1330TIP3    H2 3868   9.085   6.506   3.006
 1331TIP3   OH2 3869   2.186   1.113   4.271
 1331TIP3    H1 3870   2.238   1.179   4.225
 1331TIP3    H2 3871   2.172   1.045   4.205
 1332TIP3   OH2 3872   5.406   3.439   2.631
 1332TIP3    H1 3873   5.407   3.417   2.725
 1332TIP3    H2 3874   5.319   3.411   2.601
 1333TIP3   OH2 3875   1.750   7.176   1.538
 1333TIP3    H1 3876   1.681   7.118   1.573
 1333TIP3    H2 3877   1.781   7.224   1.615
 1334TIP3   OH2 3878   0.212   8.224   3.248
 1334TIP3    H1 3879   0.272   8.269   3.188
 1334TIP3    H2 3880   0.253   8.235   3.334
 1335TIP3   OH2 3881   9.027   5.268   0.829
 1335TIP3    H1 3882   9.018   5.192   0.886
 1335TIP3    H2 3883   8.950   5.322   0.849
 1336TIP3   OH2 3884   5.746   8.091   3.036
 1336TIP3    H1 3885   5.660   8.133   3.025
 1336TIP3    H2 3886   5.753   8.031   2.962
 1337TIP3   OH2 3887   5.038   4.735   7.515
 1337TIP3    H1 3888   4.981   4.693   7.579
 1337TIP3    H2 3889   4.988   4.733   7.433
 1338TIP3   OH2 3890   3.890   1.028   4.316
 1338TIP3    H1 3891   3.894   1.020   4.221
 1338TIP3    H2 3892   3.875   1.121   4.331
 1339TIP3   OH2 3893   9.421   5.747   5.989
 1339TIP3    H1 3894   9.477   5.813   6.030
 1339TIP3    H2 3895   9.382   5.701   6.063
 1340TIP3   OH2 3896   0.604   4.948   6.676
 1340TIP3    H1 3897   0.689   4.905   6.670
 1340TIP3    H2 3898   0.541   4.881   6.651
 1341TIP3   OH2 3899   3.348   3.404   1.275
 1341TIP3    H1 3900   3.300   3.454   1.210
 1341TIP3    H2 3901   3.392   3.335   1.224
 1342TIP3   OH2 3902   7.031   3.648   1.380
 1342TIP3    H1 3903   7.002   3.714   1.442
 1342TIP3    H2 3904   7.008   3.684   1.294
 1343TIP3   OH2 3905   2.588   9.007   0.150
 1343TIP3    H1 3906   2.644   8.981   0.077
 1343TIP3    H2 3907   2.631   8.971   0.228
 1344TIP3   OH2 3908   3.298   0.201   4.410
 1344TIP3    H1 3909   3.272   0.224   4.320
 1344TIP3    H2 3910   3.375   0.146   4.399
 1345TIP3   OH2 3911   4.636   1.626   3.322
 1345TIP3    H1 3912   4.636   1.531   3.333
 1345TIP3    H2 3913   4.720   1.654   3.359
 1346TIP3   OH2 3914   2.961   0.383   2.037
 1346TIP3    H1 3915   2.895   0.322   2.006
 1346TIP3    H2 3916   2.933   0.468   2.003
 1347TIP3   OH2 3917   3.157   6.950   1.361
 1347TIP3    H1 3918   3.202   7.018   1.410
 1347TIP3    H2 3919   3.132   6.885   1.427
 1348TIP3   OH2 3920   4.014   4.276   6.732
 1348TIP3    H1 3921   4.061   4.343   6.781
 1348TIP3    H2 3922   3.995   4.316   6.648
 1349TIP3   OH2 3923   7.468   0.446   5.869
 1349TIP3    H1 3924   7.487   0.532   5.906
 1349TIP3    H2 3925   7.439   0.394   5.944
 1350TIP3   OH2 3926   3.162   2.487   0.842
 1350TIP3    H1 3927   3.120   2.553   0.786
 1350TIP3    H2 3928   3.090   2.438   0.880
 1351TIP3   OH2 3929   4.721   5.564   3.305
 1351TIP3    H1 3930   4.811   5.595   3.315
 1351TIP3    H2 3931   4.723   5.474   3.336
 1352TIP3   OH2 3932   4.199   6.799   0.519
 1352TIP3    H1 3933   4.171   6.870   0.461
 1352TIP3    H2 3934   4.254   6.743   0.464
 1353TIP3   OH2 3935   2.709   4.275   0.912
 1353TIP3    H1 3936   2.775   4.280   0.980
 1353TIP3    H2 3937   2.758   4.286   0.830
 1354TIP3   OH2 3938   0.315   4.549   4.334
 1354TIP3    H1 3939   0.355   4.604   4.402
 1354TIP3    H2 3940   0.381   4.483   4.314
 1355TIP3   OH2 3941   3.321   7.791   1.064
 1355TIP3    H1 3942   3.340   7.784   1.158
 1355TIP3    H2 3943   3.395   7.838   1.028
 1356TIP3   OH2 3944   7.201   2.309   0.373
 1356TIP3    H1 3945   7.203   2.354   0.289
 1356TIP3    H2 3946   7.171   2.376   0.435
 1357TIP3   OH2 3947   6.706   0.503   3.251
 1357TIP3    H1 3948   6.633   0.527   3.195
 1357TIP3    H2 3949   6.707   0.407   3.249
 1358TIP3   OH2 3950   8.205   1.531   1.069
 1358TIP3    H1 3951   8.243   1.617   1.089
 1358TIP3    H2 3952   8.212   1.523   0.974
 1359TIP3   OH2 3953   1.157   0.493   1.462
 1359TIP3    H1 3954   1.150   0.493   1.557
 1359TIP3    H2 3955   1.191   0.581   1.441
 1360TIP3   OH2 3956   7.831   8.344   5.208
 1360TIP3    H1 3957   7.867   8.393   5.134
 1360TIP3    H2 3958   7.742   8.378   5.219
 1361TIP3   OH2 3959   5.533   3.709   3.073
 1361TIP3    H1 3960   5.515   3.704   2.979
 1361TIP3    H2 3961   5.597   3.780   3.081
 1362TIP3   OH2 3962   8.540   8.553   1.009
 1362TIP3    H1 3963   8.544   8.573   0.915
 1362TIP3    H2 3964   8.563   8.461   1.015
 1363TIP3   OH2 3965   8.091   6.091   7.017
 1363TIP3    H1 3966   8.059   6.171   6.976
 1363TIP3    H2 3967   8.155   6.056   6.954
 1364TIP3   OH2 3968   5.803   4.403   4.141
 1364TIP3    H1 3969   5.838   4.387   4.229
 1364TIP3    H2 3970   5.842   4.487   4.115
 1365TIP3   OH2 3971   6.490   6.669   5.144
 1365TIP3    H1 3972   6.443   6.641   5.224
 1365TIP3    H2 3973   6.526   6.754   5.166
 1366TIP3   OH2 3974   3.503   1.530   1.047
 1366TIP3    H1 3975   3.582   1.527   1.101
 1366TIP3    H2 3976   3.456   1.607   1.078
 1367TIP3   OH2 3977   7.425   5.327   7.665
 1367TIP3    H1 3978   7.378   5.387   7.724
 1367TIP3    H2 3979   7.406   5.359   7.577
 1368TIP3   OH2 3980   6.095   4.455   4.511
 1368TIP3    H1 3981   6.085   4.420   4.599
 1368TIP3    H2 3982   6.031   4.406   4.458
 1369TIP3   OH2 3983   1.669   8.514   7.294
 1369TIP3    H1 3984   1.746   8.568   7.313
 1369TIP3    H2 3985   1.666   8.450   7.365
 1370TIP3   OH2 3986   5.501   0.361   5.300
 1370TIP3    H1 3987   5.428   0.301   5.281
 1370TIP3    H2 3988   5.464   0.448   5.288
 1371TIP3   OH2 3989   0.709   2.205   0.488
 1371TIP3    H1 3990   0.721   2.110   0.496
 1371TIP3    H2 3991   0.696   2.235   0.578
 1372TIP3   OH2 3992   6.977   6.329   0.333
 1372TIP3    H1 3993   6.989   6.370   0.247
 1372TIP3    H2 3994   6.897   6.277   0.323
 1373TIP3   OH2 3995   0.304   0.491   4.564
 1373TIP3    H1 3996   0.358   0.416   4.585
 1373TIP3    H2 3997   0.358   0.567   4.586
 1374TIP3   OH2 3998   1.255   5.981   2.376
 1374TIP3    H1 3999   1.346   5.963   2.350
 1374TIP3    H2 4000   1.207   5.904   2.346
 1375TIP3   OH2 4001   0.132   7.716   4.269
 1375TIP3    H1 4002   0.124   7.650   4.201
 1375TIP3    H2 4003   0.225   7.720   4.288
 1376TIP3   OH2 4004   0.092   0.520   4.743
 1376TIP3    H1 4005   0.174   0.489   4.704
 1376TIP3    H2 4006   0.046   0.440   4.767
 1377TIP3   OH2 4007   8.601   4.331   4.930
 1377TIP3    H1 4008   8.615   4.240   4.903
 1377TIP3    H2 4009   8.513   4.332   4.967
 1378TIP3   OH2 4010   2.923   6.171   2.802
 1378TIP3    H1 4011   2.921   6.091   2.854
 1378TIP3    H2 4012   2.915   6.242   2.866
 1379TIP3   OH2 4013   7.106   3.331   2.107
 1379TIP3    H1 4014   7.080   3.258   2.050
 1379TIP3    H2 4015   7.024   3.370   2.136
 1380TIP3   OH2 4016   4.286   2.261   2.775
 1380TIP3    H1 4017   4.342   2.294   2.846
 1380TIP3    H2 4018   4.254   2.177   2.808
 1381TIP3   OH2 4019   1.060   1.500   4.309
 1381TIP3    H1 4020   1.044   1.405   4.303
 1381TIP3    H2 4021   1.052   1.531   4.219
 1382TIP3   OH2 4022   3.376   3.727   4.583
 1382TIP3    H1 4023   3.358   3.646   4.535
 1382TIP3    H2 4024   3.327   3.794   4.535
 1383TIP3   OH2 4025   3.756   0.323   1.098
 1383TIP3    H1 4026   3.704   0.403   1.107
 1383TIP3    H2 4027   3.833   0.350   1.048
 1384TIP3   OH2 4028   3.802   8.758   1.256
 1384TIP3    H1 4029   3.845   8.843   1.261
 1384TIP3    H2 4030   3.850   8.710   1.189
 1385TIP3   OH2 4031   2.668   4.375   5.453
 1385TIP3    H1 4032   2.707   4.437   5.392
 1385TIP3    H2 4033   2.607   4.324   5.398
 1386TIP3   OH2 4034   2.493   8.209   0.241
 1386TIP3    H1 4035   2.473   8.118   0.263
 1386TIP3    H2 4036   2.549   8.202   0.163
 1387TIP3   OH2 4037   9.020   4.841   4.030
 1387TIP3    H1 4038   9.034   4.768   4.090
 1387TIP3    H2 4039   9.106   4.857   3.991
 1388TIP3   OH2 4040   8.466   8.453   6.644
 1388TIP3    H1 4041   8.389   8.428   6.593
 1388TIP3    H2 4042   8.431   8.505   6.717
 1389TIP3   OH2 4043   5.239   6.715   4.128
 1389TIP3    H1 4044   5.196   6.640   4.168
 1389TIP3    H2 4045   5.170   6.782   4.122
 1390TIP3   OH2 4046   7.992   7.587   2.981
 1390TIP3    H1 4047   8.062   7.627   3.032
 1390TIP3    H2 4048   7.933   7.549   3.046
 1391TIP3   OH2 4049   6.432   6.349   1.803
 1391TIP3    H1 4050   6.445   6.260   1.836
 1391TIP3    H2 4051   6.359   6.384   1.854
 1392TIP3   OH2 4052   5.707   0.157   0.974
 1392TIP3    H1 4053   5.636   0.219   0.987
 1392TIP3    H2 4054   5.706   0.139   0.880
 1393TIP3   OH2 4055   4.749   4.867   2.400
 1393TIP3    H1 4056   4.667   4.917   2.398
 1393TIP3    H2 4057   4.801   4.902   2.329
 1394TIP3   OH2 4058   8.031   8.959   5.405
 1394TIP3    H1 4059   8.004   8.991   5.491
 1394TIP3    H2 4060   8.048   9.038   5.354
 1395TIP3   OH2 4061   1.184   8.529   2.054
 1395TIP3    H1 4062   1.156   8.466   2.121
 1395TIP3    H2 4063   1.189   8.478   1.974
 1396TIP3   OH2 4064   3.244   1.894   6.979
 1396TIP3    H1 4065   3.301   1.869   7.052
 1396TIP3    H2 4066   3.239   1.989   6.984
 1397TIP3   OH2 4067   0.252   1.066   6.926
 1397TIP3    H1 4068   0.329   1.123   6.929
 1397TIP3    H2 4069   0.182   1.123   6.893
 1398TIP3   OH2 4070   3.174   7.176   2.121
 1398TIP3    H1 4071   3.101   7.131   2.163
 1398TIP3    H2 4072   3.248   7.163   2.180
 1399TIP3   OH2 4073   9.518   1.667   0.766
 1399TIP3    H1 4074   9.556   1.627   0.845
 1399TIP3    H2 4075   9.593   1.686   0.710
 1400TIP3   OH2 4076   5.191   5.913   4.582
 1400TIP3    H1 4077   5.261   5.858   4.617
 1400TIP3    H2 4078   5.210   6.001   4.614
 1401TIP3   OH2 4079   2.650   7.848   2.832
 1401TIP3    H1 4080   2.636   7.888   2.746
 1401TIP3    H2 4081   2.665   7.756   2.814
 1402TIP3   OH2 4082   4.812   7.772   0.810
 1402TIP3    H1 4083   4.899   7.792   0.775
 1402TIP3    H2 4084   4.808   7.820   0.892
 1403TIP3   OH2 4085   5.456   5.533   0.109
 1403TIP3    H1 4086   5.443   5.584   0.029
 1403TIP3    H2 4087   5.372   5.536   0.154
 1404TIP3   OH2 4088   9.251   7.845   2.386
 1404TIP3    H1 4089   9.283   7.898   2.458
 1404TIP3    H2 4090   9.286   7.887   2.307
 1405TIP3   OH2 4091   2.124   2.365   3.955
 1405TIP3    H1 4092   2.191   2.308   3.994
 1405TIP3    H2 4093   2.047   2.309   3.946
 1406TIP3   OH2 4094   2.017   4.048   6.276
 1406TIP3    H1 4095   1.957   4.023   6.206
 1406TIP3    H2 4096   2.078   3.975   6.283
 1407TIP3   OH2 4097   7.275   4.367   3.789
 1407TIP3    H1 4098   7.268   4.414   3.706
 1407TIP3    H2 4099   7.360   4.393   3.824
 1408TIP3   OH2 4100   8.735   5.420   1.635
 1408TIP3    H1 4101   8.671   5.402   1.704
 1408TIP3    H2 4102   8.819   5.400   1.674
 1409TIP3   OH2 4103   0.360   9.012   7.655
 1409TIP3    H1 4104   0.395   9.067   7.725
 1409TIP3    H2 4105   0.398   9.048   7.575
 1410TIP3   OH2 4106   2.340   8.596   2.878
 1410TIP3    H1 4107   2.348   8.522   2.818
 1410TIP3    H2 4108   2.355   8.673   2.822
 1411TIP3   OH2 4109   0.672   2.783   0.620
 1411TIP3    H1 4110   0.648   2.780   0.712
 1411TIP3    H2 4111   0.676   2.691   0.592
 1412TIP3   OH2 4112   1.246   2.513   2.239
 1412TIP3    H1 4113   1.204   2.428   2.257
 1412TIP3    H2 4114   1.309   2.494   2.171
 1413TIP3   OH2 4115   1.247   6.369   7.098
 1413TIP3    H1 4116   1.306   6.373   7.023
 1413TIP3    H2 4117   1.267   6.285   7.140
 1414TIP3   OH2 4118   7.988   0.368   6.844
 1414TIP3    H1 4119   7.951   0.396   6.928
 1414TIP3    H2 4120   8.006   0.275   6.855
 1415TIP3   OH2 4121   5.574   4.498   2.925
 1415TIP3    H1 4122   5.526   4.535   2.850
 1415TIP3    H2 4123   5.591   4.572   2.982
 1416TIP3   OH2 4124   2.053   4.103   0.599
 1416TIP3    H1 4125   2.143   4.125   0.573
 1416TIP3    H2 4126   2.012   4.072   0.518
 1417TIP3   OH2 4127   5.415   1.491   7.469
 1417TIP3    H1 4128   5.490   1.434   7.488
 1417TIP3    H2 4129   5.403   1.485   7.375
 1418TIP3   OH2 4130   7.793   1.681   4.947
 1418TIP3    H1 4131   7.705   1.718   4.952
 1418TIP3    H2 4132   7.793   1.631   4.865
 1419TIP3   OH2 4133   2.103   4.772   6.163
 1419TIP3    H1 4134   2.162   4.836   6.122
 1419TIP3    H2 4135   2.045   4.825   6.218
 1420TIP3   OH2 4136   7.797   2.235   3.355
 1420TIP3    H1 4137   7.756   2.285   3.426
 1420TIP3    H2 4138   7.870   2.289   3.326
 1421TIP3   OH2 4139   6.708   4.011   6.655
 1421TIP3    H1 4140   6.675   4.039   6.569
 1421TIP3    H2 4141   6.732   3.919   6.642
 1422TIP3   OH2 4142   0.465   8.510   3.728
 1422TIP3    H1 4143   0.425   8.587   3.766
 1422TIP3    H2 4144   0.394   8.446   3.722
 1423TIP3   OH2 4145   4.755   1.304   5.654
 1423TIP3    H1 4146   4.774   1.374   5.716
 1423TIP3    H2 4147   4.660   1.298   5.653
 1424TIP3   OH2 4148   8.471   3.893   7.125
 1424TIP3    H1 4149   8.447   3.900   7.032
 1424TIP3    H2 4150   8.567   3.896   7.125
 1425TIP3   OH2 4151   1.671   1.477   1.140
 1425TIP3    H1 4152   1.755   1.514   1.112
 1425TIP3    H2 4153   1.615   1.484   1.063
 1426TIP3   OH2 4154   1.515   7.491   5.103
 1426TIP3    H1 4155   1.495   7.558   5.037
 1426TIP3    H2 4156   1.437   7.434   5.103
 1427TIP3   OH2 4157   8.866   7.024   2.718
 1427TIP3    H1 4158   8.940   6.974   2.755
 1427TIP3    H2 4159   8.896   7.049   2.631
 1428TIP3   OH2 4160   1.073   5.072   5.048
 1428TIP3    H1 4161   1.033   5.158   5.062
 1428TIP3    H2 4162   1.024   5.033   4.976
 1429TIP3   OH2 4163   7.505   4.592   3.466
 1429TIP3    H1 4164   7.521   4.679   3.428
 1429TIP3    H2 4165   7.446   4.549   3.405
 1430TIP3   OH2 4166   9.139   1.372   0.483
 1430TIP3    H1 4167   9.106   1.447   0.532
 1430TIP3    H2 4168   9.216   1.405   0.437
 1431TIP3   OH2 4169   3.867   8.880   7.708
 1431TIP3    H1 4170   3.855   8.952   7.646
 1431TIP3    H2 4171   3.783   8.872   7.752
 1432TIP3   OH2 4172   5.189   4.220   0.188
 1432TIP3    H1 4173   5.212   4.176   0.269
 1432TIP3    H2 4174   5.108   4.267   0.208
 1433TIP3   OH2 4175   1.510   6.580   5.532
 1433TIP3    H1 4176   1.516   6.631   5.613
 1433TIP3    H2 4177   1.597   6.587   5.493
 1434TIP3   OH2 4178   8.736   4.077   5.758
 1434TIP3    H1 4179   8.649   4.059   5.794
 1434TIP3    H2 4180   8.763   4.158   5.801
 1435TIP3   OH2 4181   2.748   0.136   1.975
 1435TIP3    H1 4182   2.796   0.087   1.908
 1435TIP3    H2 4183   2.657   0.134   1.946
 1436TIP3   OH2 4184   8.590   1.049   1.214
 1436TIP3    H1 4185   8.585   0.972   1.158
 1436TIP3    H2 4186   8.646   1.023   1.287
 1437TIP3   OH2 4187   2.751   5.852   5.915
 1437TIP3    H1 4188   2.730   5.945   5.927
 1437TIP3    H2 4189   2.807   5.831   5.989
 1438TIP3   OH2 4190   7.294   8.714   0.244
 1438TIP3    H1 4191   7.337   8.715   0.158
 1438TIP3    H2 4192   7.210   8.756   0.229
 1439TIP3   OH2 4193   1.652   4.783   1.283
 1439TIP3    H1 4194   1.686   4.814   1.367
 1439TIP3    H2 4195   1.725   4.735   1.245
 1440TIP3   OH2 4196   4.185   1.942   6.591
 1440TIP3    H1 4197   4.111   1.950   6.651
 1440TIP3    H2 4198   4.169   2.009   6.524
 1441TIP3   OH2 4199   4.369   3.971   1.107
 1441TIP3    H1 4200   4.354   4.008   1.020
 1441TIP3    H2 4201   4.341   4.040   1.168
 1442TIP3   OH2 4202   1.407   7.105   4.639
 1442TIP3    H1 4203   1.348   7.070   4.571
 1442TIP3    H2 4204   1.354   7.170   4.685
 1443TIP3   OH2 4205   7.897   6.284   3.334
 1443TIP3    H1 4206   7.977   6.232   3.326
 1443TIP3    H2 4207   7.836   6.245   3.271
 1444TIP3   OH2 4208   5.837   2.249   0.662
 1444TIP3    H1 4209   5.766   2.313   0.661
 1444TIP3    H2 4210   5.908   2.291   0.613
 1445TIP3   OH2 4211   8.548   7.524   0.700
 1445TIP3    H1 4212   8.595   7.574   0.634
 1445TIP3    H2 4213   8.521   7.589   0.765
 1446TIP3   OH2 4214   3.568   6.441   1.915
 1446TIP3    H1 4215   3.515   6.361   1.911
 1446TIP3    H2 4216   3.576   6.460   2.008
 1447TIP3   OH2 4217   8.098   4.470   5.400
 1447TIP3    H1 4218   8.135   4.544   5.351
 1447TIP3    H2 4219   8.170   4.439   5.454
 1448TIP3   OH2 4220   8.980   2.060   3.163
 1448TIP3    H1 4221   9.063   2.067   3.210
 1448TIP3    H2 4222   8.942   2.148   3.167
 1449TIP3   OH2 4223   4.629   4.014   1.756
 1449TIP3    H1 4224   4.620   4.025   1.851
 1449TIP3    H2 4225   4.682   4.089   1.729
 1450TIP3   OH2 4226   3.961   6.734   6.514
 1450TIP3    H1 4227   3.901   6.808   6.525
 1450TIP3    H2 4228   4.031   6.750   6.577
 1451TIP3   OH2 4229   0.747   8.261   6.329
 1451TIP3    H1 4230   0.661   8.272   6.288
 1451TIP3    H2 4231   0.731   8.203   6.403
 1452TIP3   OH2 4232   3.458   6.854   1.917
 1452TIP3    H1 4233   3.519   6.877   1.987
 1452TIP3    H2 4234   3.401   6.931   1.909
 1453TIP3   OH2 4235   0.821   4.466   0.426
 1453TIP3    H1 4236   0.820   4.453   0.331
 1453TIP3    H2 4237   0.736   4.433   0.455
 1454TIP3   OH2 4238   3.521   5.736   2.586
 1454TIP3    H1 4239   3.495   5.819   2.626
 1454TIP3    H2 4240   3.552   5.683   2.660
 1455TIP3   OH2 4241   6.074   4.621   7.427
 1455TIP3    H1 4242   6.084   4.584   7.339
 1455TIP3    H2 4243   5.979   4.633   7.437
 1456TIP3   OH2 4244   9.029   3.386   0.097
 1456TIP3    H1 4245   9.057   3.316   0.156
 1456TIP3    H2 4246   8.990   3.340   0.023
 1457TIP3   OH2 4247   7.051   2.539   0.494
 1457TIP3    H1 4248   7.105   2.618   0.494
 1457TIP3    H2 4249   6.966   2.568   0.461
 1458TIP3   OH2 4250   1.189   4.008   6.515
 1458TIP3    H1 4251   1.182   4.078   6.581
 1458TIP3    H2 4252   1.105   4.011   6.469
 1459TIP3   OH2 4253   8.487   0.302   4.204
 1459TIP3    H1 4254   8.528   0.374   4.251
 1459TIP3    H2 4255   8.517   0.312   4.114
 1460TIP3   OH2 4256   9.494   3.225   6.349
 1460TIP3    H1 4257   9.497   3.168   6.271
 1460TIP3    H2 4258   9.406   3.213   6.383
 1461TIP3   OH2 4259   7.810   3.148   0.856
 1461TIP3    H1 4260   7.794   3.080   0.790
 1461TIP3    H2 4261   7.866   3.106   0.921
 1462TIP3   OH2 4262   6.913   7.163   5.257
 1462TIP3    H1 4263   6.947   7.101   5.193
 1462TIP3    H2 4264   6.823   7.181   5.228
 1463TIP3   OH2 4265   2.524   3.310   0.819
 1463TIP3    H1 4266   2.590   3.289   0.753
 1463TIP3    H2 4267   2.553   3.264   0.898
 1464TIP3   OH2 4268   5.283   3.353   5.019
 1464TIP3    H1 4269   5.238   3.271   4.998
 1464TIP3    H2 4270   5.291   3.353   5.114
 1465TIP3   OH2 4271   5.356   0.495   0.304
 1465TIP3    H1 4272   5.274   0.541   0.321
 1465TIP3    H2 4273   5.372   0.507   0.211
 1466TIP3   OH2 4274   5.878   8.017   3.720
 1466TIP3    H1 4275   5.889   8.036   3.627
 1466TIP3    H2 4276   5.851   7.926   3.723
 1467TIP3   OH2 4277   4.408   1.679   7.467
 1467TIP3    H1 4278   4.314   1.676   7.484
 1467TIP3    H2 4279   4.423   1.765   7.429
 1468TIP3   OH2 4280   1.128   4.664   7.127
 1468TIP3    H1 4281   1.056   4.666   7.065
 1468TIP3    H2 4282   1.175   4.583   7.107
 1469TIP3   OH2 4283   1.481   0.680   5.337
 1469TIP3    H1 4284   1.562   0.641   5.370
 1469TIP3    H2 4285   1.435   0.608   5.295
 1470TIP3   OH2 4286   6.707   4.174   6.051
 1470TIP3    H1 4287   6.674   4.192   6.139
 1470TIP3    H2 4288   6.786   4.227   6.043
 1471TIP3   OH2 4289   1.153   3.984   1.878
 1471TIP3    H1 4290   1.123   4.010   1.792
 1471TIP3    H2 4291   1.082   3.931   1.914
 1472TIP3   OH2 4292   6.723   4.407   3.999
 1472TIP3    H1 4293   6.670   4.337   3.962
 1472TIP3    H2 4294   6.770   4.443   3.924
 1473TIP3   OH2 4295   8.646   1.926   4.009
 1473TIP3    H1 4296   8.605   1.852   3.963
 1473TIP3    H2 4297   8.573   1.983   4.032
 1474TIP3   OH2 4298   6.089   4.843   3.500
 1474TIP3    H1 4299   6.145   4.917   3.479
 1474TIP3    H2 4300   6.149   4.774   3.528
 1475TIP3   OH2 4301   8.701   1.552   3.112
 1475TIP3    H1 4302   8.607   1.562   3.098
 1475TIP3    H2 4303   8.733   1.641   3.126
 1476TIP3   OH2 4304   8.737   4.856   6.394
 1476TIP3    H1 4305   8.832   4.862   6.380
 1476TIP3    H2 4306   8.701   4.849   6.306
 1477TIP3   OH2 4307   9.024   4.766   0.432
 1477TIP3    H1 4308   8.930   4.755   0.419
 1477TIP3    H2 4309   9.058   4.677   0.439
 1478TIP3   OH2 4310   4.108   1.098   3.868
 1478TIP3    H1 4311   4.170   1.027   3.885
 1478TIP3    H2 4312   4.038   1.085   3.931
 1479TIP3   OH2 4313   4.725   2.798   7.248
 1479TIP3    H1 4314   4.763   2.723   7.294
 1479TIP3    H2 4315   4.763   2.794   7.160
 1480TIP3   OH2 4316   1.709   3.634   7.435
 1480TIP3    H1 4317   1.766   3.568   7.395
 1480TIP3    H2 4318   1.751   3.656   7.517
 1481TIP3   OH2 4319   8.740   8.003   6.311
 1481TIP3    H1 4320   8.752   7.908   6.306
 1481TIP3    H2 4321   8.816   8.039   6.264
 1482TIP3   OH2 4322   4.617   8.560   5.595
 1482TIP3    H1 4323   4.554   8.575   5.665
 1482TIP3    H2 4324   4.668   8.485   5.624
 1483TIP3   OH2 4325   3.402   0.365   7.704
 1483TIP3    H1 4326   3.454   0.290   7.735
 1483TIP3    H2 4327   3.376   0.410   7.784
 1484TIP3   OH2 4328   0.160   4.637   7.119
 1484TIP3    H1 4329   0.068   4.663   7.118
 1484TIP3    H2 4330   0.159   4.543   7.103
 1485TIP3   OH2 4331   3.717   2.596   7.488
 1485TIP3    H1 4332   3.687   2.686   7.475
 1485TIP3    H2 4333   3.652   2.543   7.440
 1486TIP3   OH2 4334   6.513   0.099   2.495
 1486TIP3    H1 4335   6.516   0.026   2.434
 1486TIP3    H2 4336   6.497   0.059   2.580
 1487TIP3   OH2 4337   7.249   0.672   0.295
 1487TIP3    H1 4338   7.160   0.669   0.332
 1487TIP3    H2 4339   7.293   0.740   0.346
 1488TIP3   OH2 4340   6.148   3.307   7.213
 1488TIP3    H1 4341   6.206   3.239   7.179
 1488TIP3    H2 4342   6.101   3.339   7.136
 1489TIP3   OH2 4343   5.506   8.091   0.287
 1489TIP3    H1 4344   5.494   7.996   0.281
 1489TIP3    H2 4345   5.456   8.116   0.364
 1490TIP3   OH2 4346   8.854   1.229   5.469
 1490TIP3    H1 4347   8.800   1.290   5.518
 1490TIP3    H2 4348   8.944   1.250   5.493
 1491TIP3   OH2 4349   8.856   4.434   6.737
 1491TIP3    H1 4350   8.848   4.527   6.715
 1491TIP3    H2 4351   8.856   4.432   6.833
 1492TIP3   OH2 4352   7.629   1.658   2.309
 1492TIP3    H1 4353   7.724   1.668   2.317
 1492TIP3    H2 4354   7.615   1.620   2.223
 1493TIP3   OH2 4355   6.617   7.941   1.484
 1493TIP3    H1 4356   6.580   7.860   1.519
 1493TIP3    H2 4357   6.617   8.001   1.558
 1494TIP3   OH2 4358   8.074   2.858   7.298
 1494TIP3    H1 4359   8.083   2.775   7.344
 1494TIP3    H2 4360   7.980   2.867   7.283
 1495TIP3   OH2 4361   7.586   0.447   6.449
 1495TIP3    H1 4362   7.523   0.487   6.509
 1495TIP3    H2 4363   7.578   0.499   6.369
 1496TIP3   OH2 4364   2.468   0.301   4.174
 1496TIP3    H1 4365   2.395   0.278   4.116
 1496TIP3    H2 4366   2.439   0.379   4.220
 1497TIP3   OH2 4367   2.161   7.441   5.111
 1497TIP3    H1 4368   2.211   7.522   5.097
 1497TIP3    H2 4369   2.085   7.450   5.054
 1498TIP3   OH2 4370   8.979   6.396   7.335
 1498TIP3    H1 4371   8.951   6.388   7.244
 1498TIP3    H2 4372   8.913   6.452   7.375
 1499TIP3   OH2 4373   6.116   4.153   1.920
 1499TIP3    H1 4374   6.181   4.213   1.953
 1499TIP3    H2 4375   6.108   4.174   1.827
 1500TIP3   OH2 4376   3.410   5.435   7.762
 1500TIP3    H1 4377   3.371   5.490   7.694
 1500TIP3    H2 4378   3.334   5.397   7.807
 1501TIP3   OH2 4379   6.264   6.282   0.803
 1501TIP3    H1 4380   6.289   6.303   0.713
 1501TIP3    H2 4381   6.335   6.317   0.857
 1502TIP3   OH2 4382   4.706   1.163   6.130
 1502TIP3    H1 4383   4.676   1.130   6.215
 1502TIP3    H2 4384   4.626   1.174   6.079
 1503TIP3   OH2 4385   4.067   5.164   2.672
 1503TIP3    H1 4386   4.129   5.231   2.643
 1503TIP3    H2 4387   3.990   5.178   2.617
 1504TIP3   OH2 4388   2.297   4.024   4.266
 1504TIP3    H1 4389   2.255   3.955   4.214
 1504TIP3    H2 4390   2.249   4.025   4.348
 1505TIP3   OH2 4391   3.255   3.037   5.182
 1505TIP3    H1 4392   3.318   3.108   5.170
 1505TIP3    H2 4393   3.280   2.997   5.265
 1506TIP3   OH2 4394   7.305   8.543   5.603
 1506TIP3    H1 4395   7.267   8.547   5.690
 1506TIP3    H2 4396   7.398   8.563   5.616
 1507TIP3   OH2 4397   4.477   4.833   5.197
 1507TIP3    H1 4398   4.572   4.839   5.209
 1507TIP3    H2 4399   4.444   4.805   5.282
 1508TIP3   OH2 4400   1.658   0.159   4.499
 1508TIP3    H1 4401   1.699   0.079   4.533
 1508TIP3    H2 4402   1.684   0.227   4.562
 1509TIP3   OH2 4403   1.607   5.414   1.533
 1509TIP3    H1 4404   1.543   5.426   1.603
 1509TIP3    H2 4405   1.575   5.468   1.461
 1510TIP3   OH2 4406   3.609   1.316   2.168
 1510TIP3    H1 4407   3.652   1.244   2.122
 1510TIP3    H2 4408   3.587   1.379   2.099
 1511TIP3   OH2 4409   8.102   6.687   2.528
 1511TIP3    H1 4410   8.007   6.699   2.535
 1511TIP3    H2 4411   8.137   6.776   2.518
 1512TIP3   OH2 4412   2.418   0.617   1.814
 1512TIP3    H1 4413   2.468   0.698   1.813
 1512TIP3    H2 4414   2.476   0.553   1.773
 1513TIP3   OH2 4415   1.958   4.975   4.160
 1513TIP3    H1 4416   2.053   4.973   4.162
 1513TIP3    H2 4417   1.932   4.976   4.253
 1514TIP3   OH2 4418   4.047   0.054   6.600
 1514TIP3    H1 4419   4.085   0.044   6.512
 1514TIP3    H2 4420   3.953   0.065   6.584
 1515TIP3   OH2 4421   2.907   7.342   0.081
 1515TIP3    H1 4422   2.937   7.339   0.172
 1515TIP3    H2 4423   2.855   7.262   0.070
 1516TIP3   OH2 4424   0.875   1.233   3.798
 1516TIP3    H1 4425   0.780   1.239   3.804
 1516TIP3    H2 4426   0.890   1.157   3.742
 1517TIP3   OH2 4427   1.770   7.545   0.245
 1517TIP3    H1 4428   1.858   7.552   0.207
 1517TIP3    H2 4429   1.723   7.486   0.186
 1518TIP3   OH2 4430   7.453   8.935   6.864
 1518TIP3    H1 4431   7.375   8.987   6.845
 1518TIP3    H2 4432   7.476   8.959   6.954
 1519TIP3   OH2 4433   8.344   7.159   2.379
 1519TIP3    H1 4434   8.363   7.134   2.470
 1519TIP3    H2 4435   8.296   7.242   2.386
 1520TIP3   OH2 4436   6.998   2.899   3.403
 1520TIP3    H1 4437   6.993   2.922   3.310
 1520TIP3    H2 4438   6.928   2.950   3.444
 1521TIP3   OH2 4439   2.087   6.914   3.959
 1521TIP3    H1 4440   2.172   6.893   3.921
 1521TIP3    H2 4441   2.027   6.912   3.884
 1522TIP3   OH2 4442   4.284   5.865   0.588
 1522TIP3    H1 4443   4.269   5.922   0.664
 1522TIP3    H2 4444   4.202   5.817   0.578
 1523TIP3   OH2 4445   3.133   2.026   0.267
 1523TIP3    H1 4446   3.147   2.024   0.362
 1523TIP3    H2 4447   3.121   2.118   0.246
 1524TIP3   OH2 4448   9.002   1.036   4.268
 1524TIP3    H1 4449   8.950   1.026   4.348
 1524TIP3    H2 4450   8.941   1.018   4.197
 1525TIP3   OH2 4451   7.145   4.770   2.303
 1525TIP3    H1 4452   7.054   4.779   2.332
 1525TIP3    H2 4453   7.175   4.860   2.291
 1526TIP3   OH2 4454   1.805   5.109   3.063
 1526TIP3    H1 4455   1.755   5.088   2.985
 1526TIP3    H2 4456   1.878   5.047   3.063
 1527TIP3   OH2 4457   2.310   8.378   5.841
 1527TIP3    H1 4458   2.337   8.429   5.917
 1527TIP3    H2 4459   2.358   8.416   5.767
 1528TIP3   OH2 4460   7.934   6.660   5.130
 1528TIP3    H1 4461   7.936   6.724   5.059
 1528TIP3    H2 4462   7.883   6.703   5.199
 1529TIP3   OH2 4463   3.763   4.305   4.054
 1529TIP3    H1 4464   3.708   4.376   4.088
 1529TIP3    H2 4465   3.706   4.229   4.054
 1530TIP3   OH2 4466   3.599   6.048   1.575
 1530TIP3    H1 4467   3.677   6.085   1.534
 1530TIP3    H2 4468   3.540   6.123   1.586
 1531TIP3   OH2 4469   3.862   3.534   1.730
 1531TIP3    H1 4470   3.897   3.476   1.662
 1531TIP3    H2 4471   3.921   3.521   1.804
 1532TIP3   OH2 4472   0.337   7.581   0.242
 1532TIP3    H1 4473   0.401   7.583   0.171
 1532TIP3    H2 4474   0.278   7.654   0.225
 1533TIP3   OH2 4475   2.275   3.337   4.429
 1533TIP3    H1 4476   2.316   3.279   4.493
 1533TIP3    H2 4477   2.327   3.418   4.435
 1534TIP3   OH2 4478   7.545   0.051   5.323
 1534TIP3    H1 4479   7.625   0.082   5.364
 1534TIP3    H2 4480   7.517  -0.023   5.377
 1535TIP3   OH2 4481   8.233   1.475   1.344
 1535TIP3    H1 4482   8.173   1.544   1.371
 1535TIP3    H2 4483   8.251   1.493   1.252
 1536TIP3   OH2 4484   4.542   8.057   6.225
 1536TIP3    H1 4485   4.563   7.981   6.171
 1536TIP3    H2 4486   4.597   8.048   6.303
 1537TIP3   OH2 4487   5.307   3.862   6.019
 1537TIP3    H1 4488   5.366   3.859   5.944
 1537TIP3    H2 4489   5.353   3.813   6.088
 1538TIP3   OH2 4490   7.895   4.238   1.739
 1538TIP3    H1 4491   7.908   4.144   1.736
 1538TIP3    H2 4492   7.976   4.274   1.701
 1539TIP3   OH2 4493   6.509   8.167   3.883
 1539TIP3    H1 4494   6.568   8.222   3.934
 1539TIP3    H2 4495   6.480   8.099   3.944
 1540TIP3   OH2 4496   3.574   3.233   1.231
 1540TIP3    H1 4497   3.590   3.144   1.262
 1540TIP3    H2 4498   3.609   3.234   1.142
 1541TIP3   OH2 4499   6.115   0.445   2.552
 1541TIP3    H1 4500   6.079   0.395   2.478
 1541TIP3    H2 4501   6.209   0.442   2.538
 1542TIP3   OH2 4502   6.914   6.320   1.282
 1542TIP3    H1 4503   6.890   6.356   1.367
 1542TIP3    H2 4504   6.925   6.396   1.226
 1543TIP3   OH2 4505   9.370   2.446   7.190
 1543TIP3    H1 4506   9.408   2.527   7.224
 1543TIP3    H2 4507   9.312   2.474   7.120
 1544TIP3   OH2 4508   9.223   7.977   0.148
 1544TIP3    H1 4509   9.269   8.027   0.215
 1544TIP3    H2 4510   9.134   7.966   0.183
 1545TIP3   OH2 4511   2.555   3.444   6.316
 1545TIP3    H1 4512   2.522   3.445   6.406
 1545TIP3    H2 4513   2.590   3.533   6.303
 1546TIP3   OH2 4514   4.512   5.723   6.856
 1546TIP3    H1 4515   4.535   5.674   6.935
 1546TIP3    H2 4516   4.575   5.694   6.790
 1547TIP3   OH2 4517   4.679   2.728   6.056
 1547TIP3    H1 4518   4.752   2.666   6.056
 1547TIP3    H2 4519   4.627   2.704   6.133
 1548TIP3   OH2 4520   0.131   8.094   5.480
 1548TIP3    H1 4521   0.199   8.029   5.463
 1548TIP3    H2 4522   0.177   8.168   5.519
 1549TIP3   OH2 4523   4.315   7.615   3.829
 1549TIP3    H1 4524   4.356   7.695   3.862
 1549TIP3    H2 4525   4.248   7.646   3.768
 1550TIP3   OH2 4526   6.858   1.028   5.741
 1550TIP3    H1 4527   6.847   0.986   5.655
 1550TIP3    H2 4528   6.952   1.033   5.752
 1551TIP3   OH2 4529   5.335   3.176   0.118
 1551TIP3    H1 4530   5.284   3.213   0.047
 1551TIP3    H2 4531   5.389   3.248   0.149
 1552TIP3   OH2 4532   0.263   5.255   2.303
 1552TIP3    H1 4533   0.192   5.207   2.346
 1552TIP3    H2 4534   0.228   5.343   2.291
 1553TIP3   OH2 4535   6.870   2.702   6.794
 1553TIP3    H1 4536   6.803   2.744   6.739
 1553TIP3    H2 4537   6.820   2.653   6.860
 1554TIP3   OH2 4538   5.707   6.608   1.784
 1554TIP3    H1 4539   5.720   6.703   1.783
 1554TIP3    H2 4540   5.795   6.572   1.769
 1555TIP3   OH2 4541   1.165   7.108   5.874
 1555TIP3    H1 4542   1.124   7.030   5.834
 1555TIP3    H2 4543   1.231   7.073   5.934
 1556TIP3   OH2 4544   1.264   4.450   4.458
 1556TIP3    H1 4545   1.203   4.524   4.452
 1556TIP3    H2 4546   1.285   4.430   4.367
 1557TIP3   OH2 4547   5.142   4.762   1.936
 1557TIP3    H1 4548   5.200   4.782   2.010
 1557TIP3    H2 4549   5.056   4.751   1.976
 1558TIP3   OH2 4550   7.392   0.100   1.916
 1558TIP3    H1 4551   7.318   0.160   1.923
 1558TIP3    H2 4552   7.447   0.123   1.992
 1559TIP3   OH2 4553   8.833   8.629   6.824
 1559TIP3    H1 4554   8.866   8.695   6.884
 1559TIP3    H2 4555   8.768   8.580   6.876
 1560TIP3   OH2 4556   3.572   1.871   7.407
 1560TIP3    H1 4557   3.658   1.828   7.407
 1560TIP3    H2 4558   3.542   1.863   7.317
 1561TIP3   OH2 4559   5.636   0.671   2.905
 1561TIP3    H1 4560   5.652   0.694   2.813
 1561TIP3    H2 4561   5.721   0.643   2.938
 1562TIP3   OH2 4562   5.117   7.197   7.187
 1562TIP3    H1 4563   5.151   7.274   7.233
 1562TIP3    H2 4564   5.037   7.228   7.144
 1563TIP3   OH2 4565   0.615   8.111   6.540
 1563TIP3    H1 4566   0.571   8.040   6.494
 1563TIP3    H2 4567   0.634   8.075   6.627
 1564TIP3   OH2 4568   2.998   4.896   1.146
 1564TIP3    H1 4569   2.934   4.875   1.078
 1564TIP3    H2 4570   3.078   4.917   1.097
 1565TIP3   OH2 4571   7.820   1.230   1.074
 1565TIP3    H1 4572   7.859   1.143   1.068
 1565TIP3    H2 4573   7.831   1.268   0.986
 1566TIP3   OH2 4574   6.991   6.878   7.322
 1566TIP3    H1 4575   7.023   6.946   7.381
 1566TIP3    H2 4576   7.018   6.906   7.235
 1567TIP3   OH2 4577   5.338   7.007   5.192
 1567TIP3    H1 4578   5.414   6.956   5.220
 1567TIP3    H2 4579   5.353   7.021   5.098
 1568TIP3   OH2 4580   1.484   3.635   1.425
 1568TIP3    H1 4581   1.450   3.707   1.479
 1568TIP3    H2 4582   1.479   3.668   1.336
 1569TIP3   OH2 4583   5.485   4.503   3.198
 1569TIP3    H1 4584   5.395   4.473   3.187
 1569TIP3    H2 4585   5.492   4.582   3.145
 1570TIP3   OH2 4586   2.282   1.392   6.547
 1570TIP3    H1 4587   2.189   1.417   6.547
 1570TIP3    H2 4588   2.327   1.468   6.511
 1571TIP3   OH2 4589   8.760   3.188   1.199
 1571TIP3    H1 4590   8.665   3.175   1.210
 1571TIP3    H2 4591   8.770   3.219   1.109
 1572TIP3   OH2 4592   8.696   0.880   1.830
 1572TIP3    H1 4593   8.622   0.934   1.802
 1572TIP3    H2 4594   8.657   0.817   1.890
 1573TIP3   OH2 4595   3.878   3.387   2.189
 1573TIP3    H1 4596   3.849   3.460   2.133
 1573TIP3    H2 4597   3.862   3.309   2.136
 1574TIP3   OH2 4598   5.654   5.894   1.293
 1574TIP3    H1 4599   5.691   5.869   1.378
 1574TIP3    H2 4600   5.610   5.815   1.261
 1575TIP3   OH2 4601   4.865   5.667   5.292
 1575TIP3    H1 4602   4.902   5.755   5.307
 1575TIP3    H2 4603   4.783   5.683   5.246
 1576TIP3   OH2 4604   4.132   5.933   6.453
 1576TIP3    H1 4605   4.066   5.973   6.511
 1576TIP3    H2 4606   4.216   5.958   6.493
 1577TIP3   OH2 4607   4.441   1.054   5.943
 1577TIP3    H1 4608   4.477   1.018   5.862
 1577TIP3    H2 4609   4.444   0.981   6.005
 1578TIP3   OH2 4610   7.792   2.602   5.755
 1578TIP3    H1 4611   7.755   2.689   5.768
 1578TIP3    H2 4612   7.886   2.614   5.765
 1579TIP3   OH2 4613   8.115   8.363   0.586
 1579TIP3    H1 4614   8.154   8.321   0.510
 1579TIP3    H2 4615   8.021   8.342   0.580
 1580TIP3   OH2 4616   6.916   3.826   3.258
 1580TIP3    H1 4617   6.870   3.838   3.174
 1580TIP3    H2 4618   6.995   3.878   3.250
 1581TIP3   OH2 4619   8.858   8.270   0.432
 1581TIP3    H1 4620   8.812   8.187   0.443
 1581TIP3    H2 4621   8.793   8.329   0.394
 1582TIP3   OH2 4622   4.215   2.849   3.570
 1582TIP3    H1 4623   4.247   2.905   3.500
 1582TIP3    H2 4624   4.120   2.849   3.560
 1583TIP3   OH2 4625   0.575   4.926   6.965
 1583TIP3    H1 4626   0.668   4.911   6.978
 1583TIP3    H2 4627   0.562   4.918   6.870
 1584TIP3   OH2 4628   2.037   3.299   0.563
 1584TIP3    H1 4629   2.008   3.390   0.554
 1584TIP3    H2 4630   2.123   3.305   0.604
 1585TIP3   OH2 4631   5.696   8.328   5.383
 1585TIP3    H1 4632   5.670   8.262   5.318
 1585TIP3    H2 4633   5.786   8.350   5.359
 1586TIP3   OH2 4634   6.503   2.540   1.068
 1586TIP3    H1 4635   6.569   2.528   1.136
 1586TIP3    H2 4636   6.422   2.558   1.117
 1587TIP3   OH2 4637   6.875   5.931   5.891
 1587TIP3    H1 4638   6.940   5.919   5.961
 1587TIP3    H2 4639   6.856   6.025   5.893
 1588TIP3   OH2 4640   9.491   5.438   4.576
 1588TIP3    H1 4641   9.409   5.463   4.534
 1588TIP3    H2 4642   9.517   5.515   4.627
 1589TIP3   OH2 4643   2.929   7.310   2.337
 1589TIP3    H1 4644   2.935   7.265   2.253
 1589TIP3    H2 4645   2.835   7.312   2.355
 1590TIP3   OH2 4646   5.320   7.724   0.745
 1590TIP3    H1 4647   5.400   7.682   0.774
 1590TIP3    H2 4648   5.324   7.721   0.649
 1591TIP3   OH2 4649   5.452   4.571   0.615
 1591TIP3    H1 4650   5.532   4.623   0.621
 1591TIP3    H2 4651   5.402   4.596   0.692
 1592TIP3   OH2 4652   1.315   8.171   4.531
 1592TIP3    H1 4653   1.264   8.241   4.490
 1592TIP3    H2 4654   1.352   8.212   4.610
 1593TIP3   OH2 4655   5.869   5.578   4.196
 1593TIP3    H1 4656   5.908   5.538   4.274
 1593TIP3    H2 4657   5.943   5.585   4.135
 1594TIP3   OH2 4658   5.482   4.854   6.708
 1594TIP3    H1 4659   5.514   4.864   6.798
 1594TIP3    H2 4660   5.551   4.806   6.663
 1595TIP3   OH2 4661   6.950   6.613   2.945
 1595TIP3    H1 4662   6.885   6.681   2.956
 1595TIP3    H2 4663   7.026   6.658   2.907
 1596TIP3   OH2 4664   4.798   0.630   7.056
 1596TIP3    H1 4665   4.746   0.708   7.077
 1596TIP3    H2 4666   4.878   0.665   7.017
 1597TIP3   OH2 4667   5.880   1.484   3.187
 1597TIP3    H1 4668   5.937   1.450   3.256
 1597TIP3    H2 4669   5.941   1.517   3.120
 1598TIP3   OH2 4670   9.396   3.176   2.469
 1598TIP3    H1 4671   9.458   3.129   2.524
 1598TIP3    H2 4672   9.318   3.185   2.522
 1599TIP3   OH2 4673   8.133   2.773   7.808
 1599TIP3    H1 4674   8.150   2.684   7.840
 1599TIP3    H2 4675   8.085   2.761   7.727
 1600TIP3   OH2 4676   1.496   8.827   5.161
 1600TIP3    H1 4677   1.420   8.816   5.218
 1600TIP3    H2 4678   1.530   8.739   5.147
 1601TIP3   OH2 4679   5.572   7.288   4.889
 1601TIP3    H1 4680   5.497   7.229   4.898
 1601TIP3    H2 4681   5.648   7.229   4.885
 1602TIP3   OH2 4682   0.657   3.641   7.579
 1602TIP3    H1 4683   0.613   3.567   7.537
 1602TIP3    H2 4684   0.748   3.636   7.548
 1603TIP3   OH2 4685   0.155   3.324   6.887
 1603TIP3    H1 4686   0.131   3.387   6.819
 1603TIP3    H2 4687   0.249   3.311   6.876
 1604TIP3   OH2 4688   8.453   1.301   7.546
 1604TIP3    H1 4689   8.369   1.346   7.535
 1604TIP3    H2 4690   8.444   1.254   7.629
 1605TIP3   OH2 4691   7.813   4.855   5.339
 1605TIP3    H1 4692   7.867   4.829   5.265
 1605TIP3    H2 4693   7.866   4.920   5.386
 1606TIP3   OH2 4694   3.874   3.874   5.359
 1606TIP3    H1 4695   3.870   3.950   5.300
 1606TIP3    H2 4696   3.794   3.881   5.412
 1607TIP3   OH2 4697   4.563   7.436   7.016
 1607TIP3    H1 4698   4.607   7.391   7.087
 1607TIP3    H2 4699   4.623   7.428   6.941
 1608TIP3   OH2 4700   4.804   8.515   6.244
 1608TIP3    H1 4701   4.777   8.494   6.334
 1608TIP3    H2 4702   4.731   8.485   6.190
 1609TIP3   OH2 4703   4.820   2.693   2.985
 1609TIP3    H1 4704   4.806   2.613   3.035
 1609TIP3    H2 4705   4.752   2.753   3.017
 1610TIP3   OH2 4706   1.084   8.541   0.429
 1610TIP3    H1 4707   1.066   8.635   0.438
 1610TIP3    H2 4708   1.115   8.531   0.339
 1611TIP3   OH2 4709   8.488   5.051   2.331
 1611TIP3    H1 4710   8.476   4.958   2.351
 1611TIP3    H2 4711   8.492   5.055   2.235
 1612TIP3   OH2 4712   6.146   7.281   5.359
 1612TIP3    H1 4713   6.072   7.225   5.381
 1612TIP3    H2 4714   6.133   7.305   5.268
 1613TIP3   OH2 4715   6.745   3.334   1.118
 1613TIP3    H1 4716   6.669   3.283   1.091
 1613TIP3    H2 4717   6.712   3.424   1.124
 1614TIP3   OH2 4718   0.406   2.765   6.092
 1614TIP3    H1 4719   0.373   2.787   6.005
 1614TIP3    H2 4720   0.335   2.718   6.134
 1615TIP3   OH2 4721   6.691   3.198   2.850
 1615TIP3    H1 4722   6.636   3.187   2.772
 1615TIP3    H2 4723   6.628   3.201   2.922
 1616TIP3   OH2 4724   8.613   5.549   3.258
 1616TIP3    H1 4725   8.707   5.552   3.245
 1616TIP3    H2 4726   8.595   5.623   3.317
 1617TIP3   OH2 4727   3.608   2.011   1.222
 1617TIP3    H1 4728   3.570   2.027   1.309
 1617TIP3    H2 4729   3.540   1.961   1.176
 1618TIP3   OH2 4730   5.201   3.511   4.403
 1618TIP3    H1 4731   5.158   3.528   4.320
 1618TIP3    H2 4732   5.281   3.464   4.380
 1619TIP3   OH2 4733   5.989   5.190   6.968
 1619TIP3    H1 4734   6.030   5.268   7.006
 1619TIP3    H2 4735   6.021   5.189   6.878
 1620TIP3   OH2 4736   4.888   8.048   0.604
 1620TIP3    H1 4737   4.901   8.086   0.517
 1620TIP3    H2 4738   4.941   7.968   0.604
 1621TIP3   OH2 4739   4.233   2.890   5.574
 1621TIP3    H1 4740   4.271   2.931   5.496
 1621TIP3    H2 4741   4.308   2.864   5.626
 1622TIP3   OH2 4742   9.388   8.480   2.163
 1622TIP3    H1 4743   9.310   8.477   2.108
 1622TIP3    H2 4744   9.431   8.562   2.141
 1623TIP3   OH2 4745   7.422   6.499   4.559
 1623TIP3    H1 4746   7.366   6.512   4.483
 1623TIP3    H2 4747   7.476   6.424   4.535
 1624TIP3   OH2 4748   2.369   5.808   2.222
 1624TIP3    H1 4749   2.324   5.765   2.296
 1624TIP3    H2 4750   2.298   5.845   2.170
 1625TIP3   OH2 4751   5.636   7.910   0.997
 1625TIP3    H1 4752   5.697   7.837   1.014
 1625TIP3    H2 4753   5.570   7.902   1.066
 1626TIP3   OH2 4754   7.248   2.984   0.137
 1626TIP3    H1 4755   7.154   2.998   0.127
 1626TIP3    H2 4756   7.268   3.020   0.223
 1627TIP3   OH2 4757   5.595   3.187   0.433
 1627TIP3    H1 4758   5.532   3.244   0.388
 1627TIP3    H2 4759   5.593   3.105   0.383
 1628TIP3   OH2 4760   0.265   2.940   1.884
 1628TIP3    H1 4761   0.289   3.004   1.951
 1628TIP3    H2 4762   0.334   2.947   1.818
 1629TIP3   OH2 4763   2.522   5.317   5.846
 1629TIP3    H1 4764   2.590   5.375   5.881
 1629TIP3    H2 4765   2.547   5.303   5.755
 1630TIP3   OH2 4766   8.319   2.814   1.252
 1630TIP3    H1 4767   8.374   2.737   1.267
 1630TIP3    H2 4768   8.232   2.787   1.280
 1631TIP3   OH2 4769   5.986   7.524   3.500
 1631TIP3    H1 4770   5.948   7.484   3.578
 1631TIP3    H2 4771   6.080   7.521   3.514
 1632TIP3   OH2 4772   8.841   5.463   0.885
 1632TIP3    H1 4773   8.857   5.523   0.958
 1632TIP3    H2 4774   8.756   5.423   0.904
 1633TIP3   OH2 4775   1.397   5.098   7.045
 1633TIP3    H1 4776   1.303   5.100   7.029
 1633TIP3    H2 4777   1.433   5.044   6.974
 1634TIP3   OH2 4778   1.706   7.181   7.631
 1634TIP3    H1 4779   1.761   7.243   7.583
 1634TIP3    H2 4780   1.666   7.233   7.700
 1635TIP3   OH2 4781   2.779   6.918   6.019
 1635TIP3    H1 4782   2.743   6.915   5.930
 1635TIP3    H2 4783   2.821   7.003   6.025
 1636TIP3   OH2 4784   8.894   8.795   6.556
 1636TIP3    H1 4785   8.953   8.804   6.630
 1636TIP3    H2 4786   8.816   8.752   6.592
 1637TIP3   OH2 4787   2.902   4.901   6.327
 1637TIP3    H1 4788   2.848   4.865   6.257
 1637TIP3    H2 4789   2.841   4.949   6.383
 1638TIP3   OH2 4790   5.076   6.758   4.901
 1638TIP3    H1 4791   5.066   6.848   4.871
 1638TIP3    H2 4792   5.077   6.763   4.996
 1639TIP3   OH2 4793   0.604   5.340   6.603
 1639TIP3    H1 4794   0.604   5.371   6.693
 1639TIP3    H2 4795   0.601   5.420   6.550
 1640TIP3   OH2 4796   1.297   2.597   7.395
 1640TIP3    H1 4797   1.240   2.522   7.377
 1640TIP3    H2 4798   1.249   2.673   7.360
 1641TIP3   OH2 4799   3.698   2.250   4.915
 1641TIP3    H1 4800   3.679   2.160   4.889
 1641TIP3    H2 4801   3.633   2.269   4.983
 1642TIP3   OH2 4802   8.799   4.077   0.567
 1642TIP3    H1 4803   8.720   4.083   0.621
 1642TIP3    H2 4804   8.775   4.016   0.497
 1643TIP3   OH2 4805   3.564   4.416   3.516
 1643TIP3    H1 4806   3.617   4.488   3.484
 1643TIP3    H2 4807   3.615   4.378   3.587
 1644TIP3   OH2 4808   4.809   2.013   0.097
 1644TIP3    H1 4809   4.749   1.939   0.089
 1644TIP3    H2 4810   4.781   2.059   0.177
 1645TIP3   OH2 4811   6.311   2.712   6.849
 1645TIP3    H1 4812   6.392   2.745   6.888
 1645TIP3    H2 4813   6.252   2.699   6.923
 1646TIP3   OH2 4814   5.198   2.930   2.727
 1646TIP3    H1 4815   5.165   2.913   2.638
 1646TIP3    H2 4816   5.163   2.858   2.779
 1647TIP3   OH2 4817   2.617   0.585   5.796
 1647TIP3    H1 4818   2.614   0.659   5.735
 1647TIP3    H2 4819   2.705   0.549   5.785
 1648TIP3   OH2 4820   1.203   6.799   4.179
 1648TIP3    H1 4821   1.255   6.733   4.224
 1648TIP3    H2 4822   1.184   6.761   4.094
 1649TIP3   OH2 4823   8.327   6.100   6.086
 1649TIP3    H1 4824   8.395   6.049   6.130
 1649TIP3    H2 4825   8.263   6.119   6.154
 1650TIP3   OH2 4826   9.164   6.428   3.822
 1650TIP3    H1 4827   9.084   6.396   3.782
 1650TIP3    H2 4828   9.141   6.445   3.913
 1651TIP3   OH2 4829   6.086   3.314   2.612
 1651TIP3    H1 4830   6.120   3.403   2.613
 1651TIP3    H2 4831   6.079   3.290   2.704
 1652TIP3   OH2 4832   0.816   3.261   1.348
 1652TIP3    H1 4833   0.853   3.179   1.379
 1652TIP3    H2 4834   0.884   3.300   1.293
 1653TIP3   OH2 4835   2.853   4.158   5.442
 1653TIP3    H1 4836   2.812   4.243   5.452
 1653TIP3    H2 4837   2.781   4.095   5.446
 1654TIP3   OH2 4838   5.439   4.351   6.515
 1654TIP3    H1 4839   5.533   4.366   6.499
 1654TIP3    H2 4840   5.397   4.370   6.431
 1655TIP3   OH2 4841   6.994   7.679   6.340
 1655TIP3    H1 4842   7.053   7.669   6.265
 1655TIP3    H2 4843   7.013   7.767   6.373
 1656TIP3   OH2 4844   5.381   2.242   1.324
 1656TIP3    H1 4845   5.454   2.181   1.319
 1656TIP3    H2 4846   5.407   2.307   1.388
 1657TIP3   OH2 4847   7.978   8.848   3.145
 1657TIP3    H1 4848   7.970   8.856   3.050
 1657TIP3    H2 4849   8.042   8.778   3.158
 1658TIP3   OH2 4850   7.224   6.672   2.609
 1658TIP3    H1 4851   7.317   6.652   2.599
 1658TIP3    H2 4852   7.187   6.654   2.523
 1659TIP3   OH2 4853   1.332   3.661   3.927
 1659TIP3    H1 4854   1.335   3.637   4.020
 1659TIP3    H2 4855   1.408   3.618   3.889
 1660TIP3   OH2 4856   2.173   3.238   5.636
 1660TIP3    H1 4857   2.190   3.178   5.709
 1660TIP3    H2 4858   2.113   3.303   5.672
 1661TIP3   OH2 4859   5.561   2.167   0.023
 1661TIP3    H1 4860   5.624   2.145  -0.045
 1661TIP3    H2 4861   5.603   2.238   0.072
 1662TIP3   OH2 4862   6.720   2.851   6.493
 1662TIP3    H1 4863   6.684   2.868   6.406
 1662TIP3    H2 4864   6.762   2.765   6.486
 1663TIP3   OH2 4865   0.947   4.607   5.801
 1663TIP3    H1 4866   0.995   4.526   5.785
 1663TIP3    H2 4867   0.858   4.579   5.822
 1664TIP3   OH2 4868   6.075   5.676   6.721
 1664TIP3    H1 4869   6.127   5.747   6.760
 1664TIP3    H2 4870   6.027   5.717   6.649
 1665TIP3   OH2 4871   8.212   2.541   6.495
 1665TIP3    H1 4872   8.233   2.477   6.564
 1665TIP3    H2 4873   8.193   2.622   6.543
 1666TIP3   OH2 4874   2.895   5.485   7.174
 1666TIP3    H1 4875   2.875   5.557   7.115
 1666TIP3    H2 4876   2.960   5.520   7.235
 1667TIP3   OH2 4877   5.877   5.988   7.001
 1667TIP3    H1 4878   5.816   6.034   6.943
 1667TIP3    H2 4879   5.821   5.933   7.055
 1668TIP3   OH2 4880   8.430   6.786   1.939
 1668TIP3    H1 4881   8.482   6.767   1.861
 1668TIP3    H2 4882   8.375   6.861   1.914
 1669TIP3   OH2 4883   8.214   4.579   7.790
 1669TIP3    H1 4884   8.183   4.501   7.835
 1669TIP3    H2 4885   8.194   4.562   7.698
 1670TIP3   OH2 4886   8.457   8.095   7.746
 1670TIP3    H1 4887   8.464   8.064   7.656
 1670TIP3    H2 4888   8.538   8.143   7.762
 1671TIP3   OH2 4889   5.493   5.026   3.589
 1671TIP3    H1 4890   5.494   5.116   3.556
 1671TIP3    H2 4891   5.449   4.976   3.521
 1672TIP3   OH2 4892   4.768   4.192   3.156
 1672TIP3    H1 4893   4.857   4.191   3.120
 1672TIP3    H2 4894   4.779   4.229   3.244
 1673TIP3   OH2 4895   1.876   1.780   2.616
 1673TIP3    H1 4896   1.834   1.861   2.587
 1673TIP3    H2 4897   1.923   1.748   2.539
 1674TIP3   OH2 4898   2.182   4.258   4.925
 1674TIP3    H1 4899   2.154   4.334   4.874
 1674TIP3    H2 4900   2.196   4.189   4.860
 1675TIP3   OH2 4901   1.190   2.316   4.113
 1675TIP3    H1 4902   1.189   2.371   4.192
 1675TIP3    H2 4903   1.206   2.227   4.146
 1676TIP3   OH2 4904   2.444   1.823   5.791
 1676TIP3    H1 4905   2.488   1.738   5.790
 1676TIP3    H2 4906   2.500   1.879   5.738
 1677TIP3   OH2 4907   2.520   0.001   7.470
 1677TIP3    H1 4908   2.525   0.094   7.491
 1677TIP3    H2 4909   2.475  -0.002   7.385
 1678TIP3   OH2 4910   0.074   0.126   3.413
 1678TIP3    H1 4911  -0.007   0.129   3.363
 1678TIP3    H2 4912   0.055   0.177   3.492
 1679TIP3   OH2 4913   0.424   7.892   1.006
 1679TIP3    H1 4914   0.494   7.839   1.043
 1679TIP3    H2 4915   0.395   7.845   0.928
 1680TIP3   OH2 4916   0.959   8.319   6.183
 1680TIP3    H1 4917   0.923   8.289   6.100
 1680TIP3    H2 4918   0.888   8.308   6.246
 1681TIP3   OH2 4919   3.990   6.742   2.870
 1681TIP3    H1 4920   3.917   6.777   2.819
 1681TIP3    H2 4921   4.031   6.819   2.909
 1682TIP3   OH2 4922   7.787   7.309   5.444
 1682TIP3    H1 4923   7.702   7.292   5.484
 1682TIP3    H2 4924   7.779   7.397   5.406
 1683TIP3   OH2 4925   3.555   7.994   5.803
 1683TIP3    H1 4926   3.634   8.021   5.756
 1683TIP3    H2 4927   3.483   8.026   5.748
 1684TIP3   OH2 4928   2.146   8.386   3.655
 1684TIP3    H1 4929   2.145   8.313   3.717
 1684TIP3    H2 4930   2.206   8.450   3.693
 1685TIP3   OH2 4931   9.261   6.293   7.607
 1685TIP3    H1 4932   9.205   6.246   7.669
 1685TIP3    H2 4933   9.245   6.250   7.523
 1686TIP3   OH2 4934   0.281   1.594   3.166
 1686TIP3    H1 4935   0.267   1.610   3.072
 1686TIP3    H2 4936   0.284   1.499   3.174
 1687TIP3   OH2 4937   6.186   1.596   1.345
 1687TIP3    H1 4938   6.098   1.604   1.383
 1687TIP3    H2 4939   6.244   1.585   1.421
 1688TIP3   OH2 4940   1.346   1.954   0.361
 1688TIP3    H1 4941   1.326   1.936   0.269
 1688TIP3    H2 4942   1.433   1.994   0.359
 1689TIP3   OH2 4943   4.910   4.907   3.896
 1689TIP3    H1 4944   4.936   4.844   3.829
 1689TIP3    H2 4945   4.979   4.974   3.893
 1690TIP3   OH2 4946   6.604   8.535   6.526
 1690TIP3    H1 4947   6.664   8.556   6.454
 1690TIP3    H2 4948   6.659   8.490   6.590
 1691TIP3   OH2 4949   6.060   2.987   2.144
 1691TIP3    H1 4950   6.116   2.914   2.116
 1691TIP3    H2 4951   6.113   3.034   2.208
 1692TIP3   OH2 4952   2.990   4.593   5.712
 1692TIP3    H1 4953   2.970   4.512   5.759
 1692TIP3    H2 4954   2.905   4.622   5.679
 1693TIP3   OH2 4955   3.088   1.087   5.989
 1693TIP3    H1 4956   3.006   1.047   6.018
 1693TIP3    H2 4957   3.123   1.025   5.925
 1694TIP3   OH2 4958   1.824   3.058   0.584
 1694TIP3    H1 4959   1.897   3.060   0.646
 1694TIP3    H2 4960   1.847   3.122   0.517
 1695TIP3   OH2 4961   8.221   7.374   6.752
 1695TIP3    H1 4962   8.155   7.317   6.790
 1695TIP3    H2 4963   8.180   7.461   6.751
 1696TIP3   OH2 4964   8.504   2.254   6.278
 1696TIP3    H1 4965   8.560   2.181   6.305
 1696TIP3    H2 4966   8.419   2.235   6.319
 1697TIP3   OH2 4967   0.454   3.564   7.073
 1697TIP3    H1 4968   0.376   3.593   7.121
 1697TIP3    H2 4969   0.465   3.472   7.099
 1698TIP3   OH2 4970   9.487   8.582   1.280
 1698TIP3    H1 4971   9.393   8.598   1.265
 1698TIP3    H2 4972   9.518   8.661   1.325
 1699TIP3   OH2 4973   5.391   6.797   1.731
 1699TIP3    H1 4974   5.398   6.701   1.734
 1699TIP3    H2 4975   5.459   6.828   1.791
 1700TIP3   OH2 4976   3.012   3.531   7.718
 1700TIP3    H1 4977   3.034   3.538   7.811
 1700TIP3    H2 4978   3.080   3.473   7.681
 1701TIP3   OH2 4979   0.747   8.295   7.789
 1701TIP3    H1 4980   0.668   8.244   7.807
 1701TIP3    H2 4981   0.816   8.230   7.776
 1702TIP3   OH2 4982   2.100   3.344   6.956
 1702TIP3    H1 4983   2.091   3.261   6.908
 1702TIP3    H2 4984   2.011   3.381   6.957
 1703TIP3   OH2 4985   7.906   8.074   2.939
 1703TIP3    H1 4986   7.938   8.024   2.865
 1703TIP3    H2 4987   7.878   8.158   2.902
 1704TIP3   OH2 4988   3.581   6.192   5.442
 1704TIP3    H1 4989   3.653   6.163   5.498
 1704TIP3    H2 4990   3.603   6.282   5.419
 1705TIP3   OH2 4991   6.938   6.273   7.542
 1705TIP3    H1 4992   6.995   6.350   7.537
 1705TIP3    H2 4993   6.850   6.307   7.528
 1706TIP3   OH2 4994   6.043   4.580   4.120
 1706TIP3    H1 4995   6.089   4.498   4.100
 1706TIP3    H2 4996   6.073   4.641   4.052
 1707TIP3   OH2 4997   7.312   6.552   6.883
 1707TIP3    H1 4998   7.244   6.505   6.835
 1707TIP3    H2 4999   7.283   6.643   6.882
 1708TIP3   OH2 5000   6.144   4.598   5.569
 1708TIP3    H1 5001   6.146   4.507   5.598
 1708TIP3    H2 5002   6.148   4.592   5.473
 1709TIP3   OH2 5003   1.384   7.795   2.067
 1709TIP3    H1 5004   1.396   7.732   2.138
 1709TIP3    H2 5005   1.385   7.742   1.988
 1710TIP3   OH2 5006   0.920   7.476   4.588
 1710TIP3    H1 5007   0.884   7.535   4.523
 1710TIP3    H2 5008   0.858   7.481   4.662
 1711TIP3   OH2 5009   6.032   5.261   1.007
 1711TIP3    H1 5010   6.099   5.329   1.008
 1711TIP3    H2 5011   5.951   5.306   1.029
 1712TIP3   OH2 5012   4.151   8.569   0.934
 1712TIP3    H1 5013   4.098   8.610   0.865
 1712TIP3    H2 5014   4.148   8.631   1.007
 1713TIP3   OH2 5015   1.947   6.388   3.384
 1713TIP3    H1 5016   2.024   6.438   3.409
 1713TIP3    H2 5017   1.972   6.297   3.398
 1714TIP3   OH2 5018   1.929   4.707   6.469
 1714TIP3    H1 5019   1.871   4.631   6.466
 1714TIP3    H2 5020   1.874   4.778   6.501
 1715TIP3   OH2 5021   5.596   7.517   3.802
 1715TIP3    H1 5022   5.621   7.509   3.894
 1715TIP3    H2 5023   5.600   7.611   3.784
 1716TIP3   OH2 5024   5.463   8.866   1.541
 1716TIP3    H1 5025   5.445   8.855   1.447
 1716TIP3    H2 5026   5.409   8.940   1.567
 1717TIP3   OH2 5027   6.635   0.068   0.705
 1717TIP3    H1 5028   6.605   0.089   0.616
 1717TIP3    H2 5029   6.696  -0.004   0.693
 1718TIP3   OH2 5030   4.570   3.337   0.457
 1718TIP3    H1 5031   4.572   3.275   0.384
 1718TIP3    H2 5032   4.531   3.288   0.529
 1719TIP3   OH2 5033   6.288   0.876   0.953
 1719TIP3    H1 5034   6.252   0.865   0.865
 1719TIP3    H2 5035   6.316   0.788   0.978
 1720TIP3   OH2 5036   6.896   7.468   7.525
 1720TIP3    H1 5037   6.941   7.489   7.443
 1720TIP3    H2 5038   6.960   7.420   7.576
 1721TIP3   OH2 5039   3.552   6.875   5.195
 1721TIP3    H1 5040   3.630   6.827   5.167
 1721TIP3    H2 5041   3.544   6.946   5.132
 1722TIP3   OH2 5042   7.378   3.335   1.388
 1722TIP3    H1 5043   7.352   3.349   1.297
 1722TIP3    H2 5044   7.308   3.374   1.440
 1723TIP3   OH2 5045   3.396   1.620   5.080
 1723TIP3    H1 5046   3.415   1.709   5.051
 1723TIP3    H2 5047   3.302   1.620   5.099
 1724TIP3   OH2 5048   1.800   8.826   0.056
 1724TIP3    H1 5049   1.860   8.779   0.114
 1724TIP3    H2 5050   1.713   8.807   0.092
 1725TIP3   OH2 5051   4.347   4.273   1.296
 1725TIP3    H1 5052   4.254   4.258   1.312
 1725TIP3    H2 5053   4.356   4.368   1.296
 1726TIP3   OH2 5054   0.248   5.183   3.310
 1726TIP3    H1 5055   0.296   5.264   3.326
 1726TIP3    H2 5056   0.266   5.162   3.218
 1727TIP3   OH2 5057   1.106   6.352   0.035
 1727TIP3    H1 5058   1.150   6.320  -0.044
 1727TIP3    H2 5059   1.013   6.342   0.016
 1728TIP3   OH2 5060   1.273   3.262   4.834
 1728TIP3    H1 5061   1.212   3.269   4.907
 1728TIP3    H2 5062   1.243   3.328   4.771
 1729TIP3   OH2 5063   5.429   2.904   0.109
 1729TIP3    H1 5064   5.421   2.998   0.093
 1729TIP3    H2 5065   5.352   2.882   0.162
 1730TIP3   OH2 5066   0.231   6.554   4.798
 1730TIP3    H1 5067   0.323   6.578   4.785
 1730TIP3    H2 5068   0.207   6.597   4.880
 1731TIP3   OH2 5069   8.475   3.711   4.677
 1731TIP3    H1 5070   8.456   3.621   4.649
 1731TIP3    H2 5071   8.557   3.733   4.634
 1732TIP3   OH2 5072   0.269   7.108   4.068
 1732TIP3    H1 5073   0.329   7.034   4.076
 1732TIP3    H2 5074   0.214   7.104   4.146
 1733TIP3   OH2 5075   2.013   0.096   1.696
 1733TIP3    H1 5076   1.979   0.082   1.608
 1733TIP3    H2 5077   2.035   0.189   1.699
 1734TIP3   OH2 5078   7.074   1.966   6.763
 1734TIP3    H1 5079   7.121   1.975   6.680
 1734TIP3    H2 5080   7.005   1.902   6.745
 1735TIP3   OH2 5081   8.689   1.906   3.469
 1735TIP3    H1 5082   8.614   1.848   3.484
 1735TIP3    H2 5083   8.765   1.854   3.497
 1736TIP3   OH2 5084   3.784   2.844   2.185
 1736TIP3    H1 5085   3.792   2.766   2.240
 1736TIP3    H2 5086   3.874   2.867   2.163
 1737TIP3   OH2 5087   4.232   0.639   5.720
 1737TIP3    H1 5088   4.295   0.607   5.784
 1737TIP3    H2 5089   4.252   0.590   5.640
 1738TIP3   OH2 5090   2.879   6.831   3.285
 1738TIP3    H1 5091   2.965   6.869   3.272
 1738TIP3    H2 5092   2.820   6.906   3.287
 1739TIP3   OH2 5093   3.665   4.194   1.766
 1739TIP3    H1 5094   3.746   4.150   1.792
 1739TIP3    H2 5095   3.694   4.272   1.719
 1740TIP3   OH2 5096   8.952   7.233   4.920
 1740TIP3    H1 5097   8.963   7.163   4.983
 1740TIP3    H2 5098   8.985   7.311   4.964
 1741TIP3   OH2 5099   2.082   8.752   5.858
 1741TIP3    H1 5100   1.997   8.712   5.873
 1741TIP3    H2 5101   2.085   8.827   5.917
 1742TIP3   OH2 5102   4.164   3.272   5.363
 1742TIP3    H1 5103   4.106   3.321   5.421
 1742TIP3    H2 5104   4.229   3.336   5.334
 1743TIP3   OH2 5105   8.231   3.561   6.259
 1743TIP3    H1 5106   8.299   3.518   6.208
 1743TIP3    H2 5107   8.149   3.525   6.225
 1744TIP3   OH2 5108   3.928   8.547   4.936
 1744TIP3    H1 5109   3.844   8.507   4.915
 1744TIP3    H2 5110   3.993   8.489   4.896
 1745TIP3   OH2 5111   9.200   6.746   6.311
 1745TIP3    H1 5112   9.207   6.695   6.230
 1745TIP3    H2 5113   9.286   6.785   6.323
 1746TIP3   OH2 5114   8.446   7.504   4.090
 1746TIP3    H1 5115   8.517   7.567   4.107
 1746TIP3    H2 5116   8.428   7.514   3.996
 1747TIP3   OH2 5117   4.903   1.213   3.617
 1747TIP3    H1 5118   4.944   1.173   3.540
 1747TIP3    H2 5119   4.940   1.165   3.691
 1748TIP3   OH2 5120   8.489   7.925   1.653
 1748TIP3    H1 5121   8.429   7.999   1.654
 1748TIP3    H2 5122   8.511   7.910   1.745
 1749TIP3   OH2 5123   8.411   4.753   3.639
 1749TIP3    H1 5124   8.363   4.717   3.714
 1749TIP3    H2 5125   8.344   4.762   3.571
 1750TIP3   OH2 5126   2.899   5.219   6.639
 1750TIP3    H1 5127   2.827   5.174   6.683
 1750TIP3    H2 5128   2.974   5.211   6.699
 1751TIP3   OH2 5129   3.540   4.923   7.653
 1751TIP3    H1 5130   3.541   4.840   7.700
 1751TIP3    H2 5131   3.632   4.949   7.650
 1752TIP3   OH2 5132   6.360   5.429   6.198
 1752TIP3    H1 5133   6.280   5.444   6.148
 1752TIP3    H2 5134   6.426   5.482   6.154
 1753TIP3   OH2 5135   3.273   4.623   0.623
 1753TIP3    H1 5136   3.318   4.702   0.593
 1753TIP3    H2 5137   3.329   4.588   0.692
 1754TIP3   OH2 5138   6.069   2.527   6.581
 1754TIP3    H1 5139   6.096   2.496   6.668
 1754TIP3    H2 5140   6.151   2.544   6.535
 1755TIP3   OH2 5141   0.590   8.027   5.723
 1755TIP3    H1 5142   0.686   8.032   5.723
 1755TIP3    H2 5143   0.565   8.055   5.636
 1756TIP3   OH2 5144   6.256   6.179   7.721
 1756TIP3    H1 5145   6.306   6.252   7.759
 1756TIP3    H2 5146   6.165   6.200   7.740
 1757TIP3   OH2 5147   2.685   3.641   3.690
 1757TIP3    H1 5148   2.663   3.733   3.708
 1757TIP3    H2 5149   2.725   3.643   3.602
 1758TIP3   OH2 5150   9.181   5.081   7.235
 1758TIP3    H1 5151   9.195   4.987   7.224
 1758TIP3    H2 5152   9.255   5.121   7.190
 1759TIP3   OH2 5153   0.141   5.200   0.967
 1759TIP3    H1 5154   0.228   5.209   1.005
 1759TIP3    H2 5155   0.134   5.274   0.906
 1760TIP3   OH2 5156   2.617   6.516   0.897
 1760TIP3    H1 5157   2.521   6.514   0.901
 1760TIP3    H2 5158   2.637   6.517   0.803
 1761TIP3   OH2 5159   6.681   8.538   2.073
 1761TIP3    H1 5160   6.755   8.480   2.057
 1761TIP3    H2 5161   6.607   8.496   2.030
 1762TIP3   OH2 5162   3.242   7.762   7.806
 1762TIP3    H1 5163   3.288   7.689   7.766
 1762TIP3    H2 5164   3.151   7.751   7.780
 1763TIP3   OH2 5165   3.843   5.865   3.378
 1763TIP3    H1 5166   3.801   5.951   3.366
 1763TIP3    H2 5167   3.820   5.816   3.300
 1764TIP3   OH2 5168   0.163   6.393   1.505
 1764TIP3    H1 5169   0.216   6.364   1.579
 1764TIP3    H2 5170   0.074   6.399   1.539
 1765TIP3   OH2 5171   3.703   2.354   2.623
 1765TIP3    H1 5172   3.682   2.381   2.533
 1765TIP3    H2 5173   3.620   2.321   2.657
 1766TIP3   OH2 5174   5.566   0.923   4.238
 1766TIP3    H1 5175   5.620   0.984   4.188
 1766TIP3    H2 5176   5.533   0.975   4.311
 1767TIP3   OH2 5177   8.020   5.807   5.714
 1767TIP3    H1 5178   7.979   5.889   5.743
 1767TIP3    H2 5179   7.968   5.738   5.755
 1768TIP3   OH2 5180   3.811   2.902   4.333
 1768TIP3    H1 5181   3.862   2.866   4.406
 1768TIP3    H2 5182   3.783   2.826   4.283
 1769TIP3   OH2 5183   4.081   5.803   1.962
 1769TIP3    H1 5184   4.135   5.840   1.892
 1769TIP3    H2 5185   4.084   5.868   2.032
 1770TIP3   OH2 5186   0.858   8.037   5.685
 1770TIP3    H1 5187   0.896   8.099   5.748
 1770TIP3    H2 5188   0.884   7.951   5.717
 1771TIP3   OH2 5189   6.423   6.801   0.012
 1771TIP3    H1 5190   6.330   6.778   0.011
 1771TIP3    H2 5191   6.444   6.811   0.104
 1772TIP3   OH2 5192   8.200   0.080   3.317
 1772TIP3    H1 5193   8.136   0.010   3.300
 1772TIP3    H2 5194   8.151   0.161   3.302
 1773TIP3   OH2 5195   8.167   1.837   1.604
 1773TIP3    H1 5196   8.255   1.814   1.636
 1773TIP3    H2 5197   8.170   1.931   1.590
 1774TIP3   OH2 5198   2.688   4.455   2.541
 1774TIP3    H1 5199   2.684   4.362   2.563
 1774TIP3    H2 5200   2.605   4.474   2.498
 1775TIP3   OH2 5201   6.964   5.118   0.925
 1775TIP3    H1 5202   6.939   5.210   0.912
 1775TIP3    H2 5203   6.881   5.070   0.917
 1776TIP3   OH2 5204   4.950   1.076   3.844
 1776TIP3    H1 5205   4.910   0.989   3.837
 1776TIP3    H2 5206   5.008   1.070   3.920
 1777TIP3   OH2 5207   0.941   4.250   4.587
 1777TIP3    H1 5208   0.868   4.240   4.648
 1777TIP3    H2 5209   0.900   4.251   4.500
 1778TIP3   OH2 5210   1.376   4.676   2.203
 1778TIP3    H1 5211   1.423   4.618   2.143
 1778TIP3    H2 5212   1.332   4.617   2.264
 1779TIP3   OH2 5213   3.005   8.035   5.209
 1779TIP3    H1 5214   2.967   8.118   5.238
 1779TIP3    H2 5215   2.972   8.023   5.120
 1780TIP3   OH2 5216   5.843   1.974   0.034
 1780TIP3    H1 5217   5.907   1.964   0.105
 1780TIP3    H2 5218   5.829   1.885   0.002
 1781TIP3   OH2 5219   7.008   1.081   7.634
 1781TIP3    H1 5220   6.993   1.077   7.728
 1781TIP3    H2 5221   6.931   1.128   7.600
 1782TIP3   OH2 5222   6.055   1.283   0.048
 1782TIP3    H1 5223   6.077   1.204   0.097
 1782TIP3    H2 5224   5.996   1.253  -0.021
 1783TIP3   OH2 5225   3.163   0.675   2.598
 1783TIP3    H1 5226   3.183   0.691   2.690
 1783TIP3    H2 5227   3.128   0.758   2.566
 1784TIP3   OH2 5228   3.680   1.066   6.587
 1784TIP3    H1 5229   3.670   1.160   6.599
 1784TIP3    H2 5230   3.625   1.027   6.655
 1785TIP3   OH2 5231   4.720   3.193   5.576
 1785TIP3    H1 5232   4.748   3.160   5.662
 1785TIP3    H2 5233   4.800   3.225   5.535
 1786TIP3   OH2 5234   8.902   5.506   3.286
 1786TIP3    H1 5235   8.891   5.538   3.376
 1786TIP3    H2 5236   8.974   5.559   3.251
 1787TIP3   OH2 5237   4.012   2.364   6.302
 1787TIP3    H1 5238   3.932   2.338   6.255
 1787TIP3    H2 5239   3.980   2.421   6.372
 1788TIP3   OH2 5240   4.370   0.945   0.603
 1788TIP3    H1 5241   4.290   0.997   0.611
 1788TIP3    H2 5242   4.356   0.890   0.526
 1789TIP3   OH2 5243   4.265   3.328   1.877
 1789TIP3    H1 5244   4.245   3.318   1.970
 1789TIP3    H2 5245   4.342   3.385   1.875
 1790TIP3   OH2 5246   0.873   6.838   4.987
 1790TIP3    H1 5247   0.821   6.772   5.033
 1790TIP3    H2 5248   0.873   6.809   4.896
 1791TIP3   OH2 5249   3.513   6.409   3.885
 1791TIP3    H1 5250   3.515   6.488   3.939
 1791TIP3    H2 5251   3.540   6.438   3.798
 1792TIP3   OH2 5252   0.145   4.307   2.978
 1792TIP3    H1 5253   0.135   4.352   2.894
 1792TIP3    H2 5254   0.238   4.288   2.984
 1793TIP3   OH2 5255   8.339   1.853   6.545
 1793TIP3    H1 5256   8.265   1.796   6.523
 1793TIP3    H2 5257   8.405   1.833   6.478
 1794TIP3   OH2 5258   4.155   4.930   3.378
 1794TIP3    H1 5259   4.245   4.961   3.386
 1794TIP3    H2 5260   4.154   4.847   3.426
 1795TIP3   OH2 5261   4.544   6.323   7.156
 1795TIP3    H1 5262   4.509   6.356   7.073
 1795TIP3    H2 5263   4.498   6.240   7.169
 1796TIP3   OH2 5264   8.807   0.241   0.986
 1796TIP3    H1 5265   8.889   0.239   1.034
 1796TIP3    H2 5266   8.740   0.224   1.053
 1797TIP3   OH2 5267   0.546   0.818   2.749
 1797TIP3    H1 5268   0.576   0.840   2.661
 1797TIP3    H2 5269   0.535   0.903   2.792
 1798TIP3   OH2 5270   2.259   0.681   2.243
 1798TIP3    H1 5271   2.234   0.639   2.161
 1798TIP3    H2 5272   2.296   0.765   2.217
 1799TIP3   OH2 5273   2.121   3.890   4.438
 1799TIP3    H1 5274   2.124   3.861   4.347
 1799TIP3    H2 5275   2.138   3.811   4.489
 1800TIP3   OH2 5276   7.016   4.305   5.667
 1800TIP3    H1 5277   7.097   4.355   5.657
 1800TIP3    H2 5278   6.986   4.290   5.578
 1801TIP3   OH2 5279   8.284   8.639   2.077
 1801TIP3    H1 5280   8.281   8.703   2.148
 1801TIP3    H2 5281   8.198   8.599   2.077
 1802TIP3   OH2 5282   1.644   5.665   6.344
 1802TIP3    H1 5283   1.603   5.614   6.414
 1802TIP3    H2 5284   1.582   5.660   6.271
 1803TIP3   OH2 5285   1.934   0.250   6.884
 1803TIP3    H1 5286   1.951   0.204   6.801
 1803TIP3    H2 5287   1.863   0.200   6.924
 1804TIP3   OH2 5288   0.670   6.194   2.375
 1804TIP3    H1 5289   0.757   6.161   2.399
 1804TIP3    H2 5290   0.681   6.229   2.287
 1805TIP3   OH2 5291   8.631   3.812   4.405
 1805TIP3    H1 5292   8.590   3.728   4.386
 1805TIP3    H2 5293   8.568   3.877   4.374
 1806TIP3   OH2 5294   0.718   5.990   6.720
 1806TIP3    H1 5295   0.686   5.932   6.789
 1806TIP3    H2 5296   0.648   6.053   6.707
 1807TIP3   OH2 5297   6.694   8.702   1.483
 1807TIP3    H1 5298   6.701   8.733   1.393
 1807TIP3    H2 5299   6.757   8.755   1.532
 1808TIP3   OH2 5300   6.011   0.919   2.297
 1808TIP3    H1 5301   6.031   0.886   2.209
 1808TIP3    H2 5302   6.022   0.844   2.355
 1809TIP3   OH2 5303   0.513   8.146   6.198
 1809TIP3    H1 5304   0.576   8.085   6.160
 1809TIP3    H2 5305   0.467   8.095   6.265
 1810TIP3   OH2 5306   2.722   6.262   0.971
 1810TIP3    H1 5307   2.812   6.293   0.983
 1810TIP3    H2 5308   2.671   6.342   0.958
 1811TIP3   OH2 5309   9.426   0.990   0.166
 1811TIP3    H1 5310   9.386   0.945   0.092
 1811TIP3    H2 5311   9.479   1.059   0.127
 1812TIP3   OH2 5312   2.204   0.278   6.115
 1812TIP3    H1 5313   2.283   0.282   6.061
 1812TIP3    H2 5314   2.165   0.365   6.108
 1813TIP3   OH2 5315   5.975   6.004   6.602
 1813TIP3    H1 5316   6.052   6.024   6.655
 1813TIP3    H2 5317   5.955   6.085   6.557
 1814TIP3   OH2 5318   1.898   0.334   1.380
 1814TIP3    H1 5319   1.840   0.304   1.310
 1814TIP3    H2 5320   1.927   0.254   1.423
 1815TIP3   OH2 5321   0.700   7.274   4.720
 1815TIP3    H1 5322   0.614   7.233   4.709
 1815TIP3    H2 5323   0.759   7.200   4.738
 1816TIP3   OH2 5324   3.066   2.819   5.151
 1816TIP3    H1 5325   3.133   2.887   5.161
 1816TIP3    H2 5326   2.985   2.861   5.179
 1817TIP3   OH2 5327   5.837   2.428   6.957
 1817TIP3    H1 5328   5.849   2.414   6.863
 1817TIP3    H2 5329   5.772   2.364   6.984
 1818TIP3   OH2 5330   9.203   7.470   3.981
 1818TIP3    H1 5331   9.178   7.562   3.973
 1818TIP3    H2 5332   9.262   7.455   3.908
 1819TIP3   OH2 5333   5.390   1.968   1.999
 1819TIP3    H1 5334   5.438   1.886   1.993
 1819TIP3    H2 5335   5.447   2.032   1.956
 1820TIP3   OH2 5336   3.018   8.729   6.450
 1820TIP3    H1 5337   2.983   8.772   6.372
 1820TIP3    H2 5338   2.941   8.713   6.505
 1821TIP3   OH2 5339   3.948   6.917   4.912
 1821TIP3    H1 5340   3.959   6.937   4.820
 1821TIP3    H2 5341   4.029   6.873   4.938
 1822TIP3   OH2 5342   0.386   1.238   0.584
 1822TIP3    H1 5343   0.439   1.317   0.589
 1822TIP3    H2 5344   0.304   1.267   0.543
 1823TIP3   OH2 5345   1.433   1.686   4.940
 1823TIP3    H1 5346   1.471   1.721   5.020
 1823TIP3    H2 5347   1.507   1.680   4.879
 1824TIP3   OH2 5348   3.729   3.944   0.750
 1824TIP3    H1 5349   3.695   3.941   0.840
 1824TIP3    H2 5350   3.699   3.863   0.710
 1825TIP3   OH2 5351   1.307   3.653   0.372
 1825TIP3    H1 5352   1.303   3.735   0.421
 1825TIP3    H2 5353   1.335   3.587   0.437
 1826TIP3   OH2 5354   8.815   2.794   5.054
 1826TIP3    H1 5355   8.746   2.858   5.040
 1826TIP3    H2 5356   8.772   2.709   5.043
 1827TIP3   OH2 5357   9.116   3.190   7.228
 1827TIP3    H1 5358   9.070   3.112   7.259
 1827TIP3    H2 5359   9.199   3.157   7.194
 1828TIP3   OH2 5360   0.506   4.060   2.763
 1828TIP3    H1 5361   0.584   4.116   2.758
 1828TIP3    H2 5362   0.530   3.981   2.715
 1829TIP3   OH2 5363   9.553   3.864   1.732
 1829TIP3    H1 5364   9.607   3.942   1.716
 1829TIP3    H2 5365   9.611   3.791   1.713
 1830TIP3   OH2 5366   9.108   0.231   2.318
 1830TIP3    H1 5367   9.201   0.215   2.330
 1830TIP3    H2 5368   9.071   0.146   2.296
 1831TIP3   OH2 5369   4.272   7.115   5.367
 1831TIP3    H1 5370   4.237   7.167   5.441
 1831TIP3    H2 5371   4.298   7.032   5.407
 1832TIP3   OH2 5372   0.371   2.960   4.891
 1832TIP3    H1 5373   0.363   3.044   4.936
 1832TIP3    H2 5374   0.294   2.955   4.835
 1833TIP3   OH2 5375   8.028   2.487   1.482
 1833TIP3    H1 5376   8.058   2.567   1.441
 1833TIP3    H2 5377   7.962   2.451   1.423
 1834TIP3   OH2 5378   6.818   5.144   2.973
 1834TIP3    H1 5379   6.908   5.148   3.006
 1834TIP3    H2 5380   6.828   5.115   2.882
 1835TIP3   OH2 5381   8.129   0.295   4.417
 1835TIP3    H1 5382   8.037   0.269   4.414
 1835TIP3    H2 5383   8.130   0.378   4.465
 1836TIP3   OH2 5384   0.348   4.011   4.241
 1836TIP3    H1 5385   0.374   3.930   4.197
 1836TIP3    H2 5386   0.262   4.032   4.204
 1837TIP3   OH2 5387   6.521   0.668   2.592
 1837TIP3    H1 5388   6.526   0.721   2.513
 1837TIP3    H2 5389   6.504   0.730   2.663
 1838TIP3   OH2 5390   6.316   3.982   0.676
 1838TIP3    H1 5391   6.385   4.048   0.671
 1838TIP3    H2 5392   6.308   3.949   0.587
 1839TIP3   OH2 5393   9.183   1.550   1.495
 1839TIP3    H1 5394   9.229   1.494   1.558
 1839TIP3    H2 5395   9.186   1.638   1.535
 1840TIP3   OH2 5396   0.267   7.862   1.276
 1840TIP3    H1 5397   0.293   7.777   1.242
 1840TIP3    H2 5398   0.348   7.913   1.279
 1841TIP3   OH2 5399   5.660   5.990   1.811
 1841TIP3    H1 5400   5.599   5.964   1.741
 1841TIP3    H2 5401   5.609   5.980   1.891
 1842TIP3   OH2 5402   3.463   7.493   4.049
 1842TIP3    H1 5403   3.469   7.580   4.088
 1842TIP3    H2 5404   3.543   7.485   3.996
 1843TIP3   OH2 5405   4.750   7.593   1.708
 1843TIP3    H1 5406   4.839   7.611   1.738
 1843TIP3    H2 5407   4.754   7.606   1.613
 1844TIP3   OH2 5408   1.272   8.870   5.737
 1844TIP3    H1 5409   1.361   8.877   5.703
 1844TIP3    H2 5410   1.270   8.929   5.811
 1845TIP3   OH2 5411   1.506   5.611   0.782
 1845TIP3    H1 5412   1.543   5.633   0.697
 1845TIP3    H2 5413   1.580   5.576   0.832
 1846TIP3   OH2 5414   5.479   4.701   6.275
 1846TIP3    H1 5415   5.421   4.721   6.349
 1846TIP3    H2 5416   5.567   4.712   6.310
 1847TIP3   OH2 5417   2.325   8.415   3.977
 1847TIP3    H1 5418   2.339   8.495   3.926
 1847TIP3    H2 5419   2.268   8.361   3.921
 1848TIP3   OH2 5420   5.711   0.892   7.400
 1848TIP3    H1 5421   5.668   0.925   7.321
 1848TIP3    H2 5422   5.746   0.971   7.442
 1849TIP3   OH2 5423   8.138   1.301   5.587
 1849TIP3    H1 5424   8.085   1.347   5.522
 1849TIP3    H2 5425   8.173   1.226   5.540
 1850TIP3   OH2 5426   2.355   0.607   4.925
 1850TIP3    H1 5427   2.350   0.625   5.019
 1850TIP3    H2 5428   2.287   0.541   4.910
 1851TIP3   OH2 5429   1.743   6.508   4.393
 1851TIP3    H1 5430   1.651   6.507   4.366
 1851TIP3    H2 5431   1.739   6.512   4.488
 1852TIP3   OH2 5432   8.928   2.895   6.392
 1852TIP3    H1 5433   8.898   2.898   6.301
 1852TIP3    H2 5434   9.022   2.912   6.387
 1853TIP3   OH2 5435   3.160   4.042   6.921
 1853TIP3    H1 5436   3.174   3.981   6.993
 1853TIP3    H2 5437   3.065   4.054   6.919
 1854TIP3   OH2 5438   1.297   7.037   2.952
 1854TIP3    H1 5439   1.210   7.072   2.932
 1854TIP3    H2 5440   1.299   6.953   2.908
 1855TIP3   OH2 5441   4.319   6.215   3.725
 1855TIP3    H1 5442   4.281   6.134   3.691
 1855TIP3    H2 5443   4.407   6.189   3.753
 1856TIP3   OH2 5444   8.487   7.678   3.115
 1856TIP3    H1 5445   8.577   7.693   3.145
 1856TIP3    H2 5446   8.495   7.615   3.044
 1857TIP3   OH2 5447   7.666   8.077   1.329
 1857TIP3    H1 5448   7.646   8.041   1.415
 1857TIP3    H2 5449   7.727   8.014   1.290
 1858TIP3   OH2 5450   2.890   0.867   2.823
 1858TIP3    H1 5451   2.909   0.961   2.822
 1858TIP3    H2 5452   2.976   0.825   2.812
 1859TIP3   OH2 5453   1.210   0.499   2.283
 1859TIP3    H1 5454   1.251   0.483   2.368
 1859TIP3    H2 5455   1.159   0.579   2.295
 1860TIP3   OH2 5456   7.689   6.921   6.542
 1860TIP3    H1 5457   7.677   6.829   6.566
 1860TIP3    H2 5458   7.748   6.956   6.610
 1861TIP3   OH2 5459   5.248   0.155   0.914
 1861TIP3    H1 5460   5.177   0.219   0.903
 1861TIP3    H2 5461   5.204   0.072   0.928
 1862TIP3   OH2 5462   8.557   4.868   6.190
 1862TIP3    H1 5463   8.591   4.958   6.190
 1862TIP3    H2 5464   8.471   4.876   6.149
 1863TIP3   OH2 5465   7.534   8.344   6.262
 1863TIP3    H1 5466   7.488   8.349   6.178
 1863TIP3    H2 5467   7.568   8.432   6.277
 1864TIP3   OH2 5468   8.991   3.889   0.213
 1864TIP3    H1 5469   8.965   3.807   0.171
 1864TIP3    H2 5470   9.057   3.926   0.155
 1865TIP3   OH2 5471   6.531   4.809   3.267
 1865TIP3    H1 5472   6.568   4.889   3.231
 1865TIP3    H2 5473   6.580   4.739   3.224
 1866TIP3   OH2 5474   1.490   0.607   3.026
 1866TIP3    H1 5475   1.533   0.684   3.064
 1866TIP3    H2 5476   1.557   0.569   2.969
 1867TIP3   OH2 5477   5.620   8.085   4.973
 1867TIP3    H1 5478   5.667   8.162   4.940
 1867TIP3    H2 5479   5.673   8.011   4.945
 1868TIP3   OH2 5480   4.428   4.447   6.874
 1868TIP3    H1 5481   4.503   4.501   6.898
 1868TIP3    H2 5482   4.463   4.382   6.813
 1869TIP3   OH2 5483   5.960   4.461   2.887
 1869TIP3    H1 5484   5.945   4.383   2.941
 1869TIP3    H2 5485   5.923   4.533   2.938
 1870TIP3   OH2 5486   3.502   5.553   3.787
 1870TIP3    H1 5487   3.491   5.577   3.695
 1870TIP3    H2 5488   3.596   5.536   3.796
 1871TIP3   OH2 5489   5.220   7.737   2.062
 1871TIP3    H1 5490   5.294   7.690   2.100
 1871TIP3    H2 5491   5.224   7.824   2.100
 1872TIP3   OH2 5492   8.935   3.649   7.265
 1872TIP3    H1 5493   8.961   3.561   7.238
 1872TIP3    H2 5494   8.939   3.701   7.185
 1873TIP3   OH2 5495   5.882   2.636   6.078
 1873TIP3    H1 5496   5.802   2.631   6.026
 1873TIP3    H2 5497   5.949   2.595   6.024
 1874TIP3   OH2 5498   9.422   7.656   6.638
 1874TIP3    H1 5499   9.372   7.678   6.559
 1874TIP3    H2 5500   9.357   7.654   6.708
 1875TIP3   OH2 5501   0.545   1.459   7.204
 1875TIP3    H1 5502   0.497   1.509   7.270
 1875TIP3    H2 5503   0.483   1.450   7.132
 1876TIP3   OH2 5504   8.845   0.084   6.392
 1876TIP3    H1 5505   8.855   0.174   6.360
 1876TIP3    H2 5506   8.862   0.090   6.486
 1877TIP3   OH2 5507   7.352   4.680   3.686
 1877TIP3    H1 5508   7.407   4.627   3.628
 1877TIP3    H2 5509   7.287   4.719   3.627
 1878TIP3   OH2 5510   2.003   6.213   2.751
 1878TIP3    H1 5511   1.987   6.242   2.841
 1878TIP3    H2 5512   2.076   6.267   2.721
 1879TIP3   OH2 5513   9.554   6.025   4.409
 1879TIP3    H1 5514   9.537   5.932   4.418
 1879TIP3    H2 5515   9.592   6.034   4.322
 1880TIP3   OH2 5516   2.295   0.634   5.466
 1880TIP3    H1 5517   2.320   0.616   5.556
 1880TIP3    H2 5518   2.239   0.560   5.441
 1881TIP3   OH2 5519   3.517   7.991   2.353
 1881TIP3    H1 5520   3.428   7.960   2.341
 1881TIP3    H2 5521   3.549   7.944   2.430
 1882TIP3   OH2 5522   1.454   1.810   1.501
 1882TIP3    H1 5523   1.382   1.867   1.530
 1882TIP3    H2 5524   1.415   1.752   1.437
 1883TIP3   OH2 5525   5.479   8.941   7.308
 1883TIP3    H1 5526   5.467   8.875   7.377
 1883TIP3    H2 5527   5.572   8.963   7.311
 1884TIP3   OH2 5528   0.079   6.939   1.129
 1884TIP3    H1 5529  -0.014   6.917   1.138
 1884TIP3    H2 5530   0.113   6.875   1.067
 1885TIP3   OH2 5531   2.317   6.549   7.393
 1885TIP3    H1 5532   2.272   6.629   7.368
 1885TIP3    H2 5533   2.356   6.517   7.312
 1886TIP3   OH2 5534   6.859   0.356   1.795
 1886TIP3    H1 5535   6.841   0.362   1.889
 1886TIP3    H2 5536   6.876   0.263   1.779
 1887TIP3   OH2 5537   3.773   0.661   6.203
 1887TIP3    H1 5538   3.751   0.580   6.250
 1887TIP3    H2 5539   3.760   0.730   6.267
 1888TIP3   OH2 5540   3.824   2.541   4.479
 1888TIP3    H1 5541   3.814   2.492   4.560
 1888TIP3    H2 5542   3.873   2.619   4.505
 1889TIP3   OH2 5543   5.806   1.722   1.141
 1889TIP3    H1 5544   5.823   1.635   1.178
 1889TIP3    H2 5545   5.786   1.706   1.049
 1890TIP3   OH2 5546   0.921   7.375   6.728
 1890TIP3    H1 5547   0.863   7.361   6.653
 1890TIP3    H2 5548   0.863   7.403   6.799
 1891TIP3   OH2 5549   1.911   6.503   5.497
 1891TIP3    H1 5550   1.854   6.554   5.440
 1891TIP3    H2 5551   1.999   6.520   5.464
 1892TIP3   OH2 5552   9.362   6.218   3.344
 1892TIP3    H1 5553   9.272   6.186   3.335
 1892TIP3    H2 5554   9.383   6.205   3.436
 1893TIP3   OH2 5555   5.771   4.153   1.268
 1893TIP3    H1 5556   5.725   4.206   1.333
 1893TIP3    H2 5557   5.846   4.117   1.315
 1894TIP3   OH2 5558   0.941   0.461   1.066
 1894TIP3    H1 5559   0.941   0.369   1.042
 1894TIP3    H2 5560   0.916   0.462   1.158
 1895TIP3   OH2 5561   5.064   1.840   3.233
 1895TIP3    H1 5562   5.133   1.839   3.166
 1895TIP3    H2 5563   5.085   1.916   3.288
 1896TIP3   OH2 5564   8.751   8.496   7.534
 1896TIP3    H1 5565   8.673   8.447   7.561
 1896TIP3    H2 5566   8.774   8.548   7.610
 1897TIP3   OH2 5567   3.481   5.807   7.788
 1897TIP3    H1 5568   3.425   5.729   7.783
 1897TIP3    H2 5569   3.454   5.850   7.868
 1898TIP3   OH2 5570   3.018   3.740   2.787
 1898TIP3    H1 5571   2.964   3.790   2.725
 1898TIP3    H2 5572   3.011   3.789   2.869
 1899TIP3   OH2 5573   2.517   8.384   1.023
 1899TIP3    H1 5574   2.491   8.333   1.099
 1899TIP3    H2 5575   2.533   8.318   0.955
 1900TIP3   OH2 5576   8.862   7.751   7.176
 1900TIP3    H1 5577   8.837   7.837   7.211
 1900TIP3    H2 5578   8.956   7.744   7.195
 1901TIP3   OH2 5579   6.526   7.364   1.535
 1901TIP3    H1 5580   6.454   7.393   1.478
 1901TIP3    H2 5581   6.602   7.415   1.505
 1902TIP3   OH2 5582   1.194   0.691   6.535
 1902TIP3    H1 5583   1.212   0.706   6.442
 1902TIP3    H2 5584   1.175   0.779   6.570
 1903TIP3   OH2 5585   0.734   4.423   1.513
 1903TIP3    H1 5586   0.790   4.419   1.590
 1903TIP3    H2 5587   0.736   4.335   1.477
 1904TIP3   OH2 5588   4.789   2.155   5.221
 1904TIP3    H1 5589   4.881   2.128   5.219
 1904TIP3    H2 5590   4.766   2.167   5.129
 1905TIP3   OH2 5591   6.875   2.600   5.714
 1905TIP3    H1 5592   6.804   2.537   5.724
 1905TIP3    H2 5593   6.952   2.546   5.694
 1906TIP3   OH2 5594   5.836   6.429   5.413
 1906TIP3    H1 5595   5.766   6.378   5.373
 1906TIP3    H2 5596   5.872   6.372   5.482
 1907TIP3   OH2 5597   8.712   4.316   2.765
 1907TIP3    H1 5598   8.723   4.387   2.829
 1907TIP3    H2 5599   8.792   4.264   2.773
 1908TIP3   OH2 5600   7.469   5.698   6.415
 1908TIP3    H1 5601   7.504   5.659   6.495
 1908TIP3    H2 5602   7.466   5.627   6.352
 1909TIP3   OH2 5603   2.235   0.238   5.153
 1909TIP3    H1 5604   2.241   0.144   5.136
 1909TIP3    H2 5605   2.325   0.269   5.146
 1910TIP3   OH2 5606   4.778   2.973   0.305
 1910TIP3    H1 5607   4.809   2.934   0.387
 1910TIP3    H2 5608   4.800   3.065   0.312
 1911TIP3   OH2 5609   0.201   7.505   1.473
 1911TIP3    H1 5610   0.248   7.427   1.503
 1911TIP3    H2 5611   0.140   7.525   1.544
 1912TIP3   OH2 5612   6.936   6.554   2.680
 1912TIP3    H1 5613   7.014   6.609   2.670
 1912TIP3    H2 5614   6.896   6.585   2.762
 1913TIP3   OH2 5615   8.780   4.818   0.164
 1913TIP3    H1 5616   8.694   4.781   0.141
 1913TIP3    H2 5617   8.806   4.770   0.243
 1914TIP3   OH2 5618   3.386   1.577   2.516
 1914TIP3    H1 5619   3.463   1.535   2.479
 1914TIP3    H2 5620   3.381   1.545   2.606
 1915TIP3   OH2 5621   8.174   6.691   7.446
 1915TIP3    H1 5622   8.116   6.701   7.521
 1915TIP3    H2 5623   8.257   6.729   7.475
 1916TIP3   OH2 5624   1.801   3.521   3.697
 1916TIP3    H1 5625   1.819   3.430   3.673
 1916TIP3    H2 5626   1.887   3.562   3.699
 1917TIP3   OH2 5627   2.962   0.951   5.084
 1917TIP3    H1 5628   2.880   0.919   5.046
 1917TIP3    H2 5629   2.994   0.877   5.136
 1918TIP3   OH2 5630   1.039   2.241   6.498
 1918TIP3    H1 5631   0.972   2.280   6.554
 1918TIP3    H2 5632   1.112   2.302   6.501
 1919TIP3   OH2 5633   1.897   3.021   5.887
 1919TIP3    H1 5634   1.897   3.078   5.963
 1919TIP3    H2 5635   1.846   3.069   5.821
 1920TIP3   OH2 5636   4.578   3.273   6.663
 1920TIP3    H1 5637   4.526   3.353   6.662
 1920TIP3    H2 5638   4.520   3.206   6.625
 1921TIP3   OH2 5639   0.521   1.997   2.998
 1921TIP3    H1 5640   0.435   1.960   3.015
 1921TIP3    H2 5641   0.503   2.081   2.956
 1922TIP3   OH2 5642   6.494   8.608   4.276
 1922TIP3    H1 5643   6.437   8.569   4.210
 1922TIP3    H2 5644   6.571   8.551   4.278
 1923TIP3   OH2 5645   1.952   2.381   7.306
 1923TIP3    H1 5646   1.904   2.410   7.384
 1923TIP3    H2 5647   2.038   2.421   7.316
 1924TIP3   OH2 5648   0.030   4.486   4.303
 1924TIP3    H1 5649   0.122   4.509   4.287
 1924TIP3    H2 5650  -0.006   4.562   4.348
 1925TIP3   OH2 5651   3.334   4.582   6.393
 1925TIP3    H1 5652   3.332   4.507   6.334
 1925TIP3    H2 5653   3.255   4.631   6.373
 1926TIP3   OH2 5654   3.764   8.055   1.006
 1926TIP3    H1 5655   3.711   8.133   0.985
 1926TIP3    H2 5656   3.769   8.055   1.101
 1927TIP3   OH2 5657   0.231   4.819   4.253
 1927TIP3    H1 5658   0.261   4.728   4.247
 1927TIP3    H2 5659   0.199   4.828   4.342
 1928TIP3   OH2 5660   6.227   6.415   2.131
 1928TIP3    H1 5661   6.251   6.498   2.172
 1928TIP3    H2 5662   6.204   6.437   2.041
 1929TIP3   OH2 5663   3.298   7.232   7.093
 1929TIP3    H1 5664   3.331   7.256   7.007
 1929TIP3    H2 5665   3.203   7.232   7.083
 1930TIP3   OH2 5666   9.052   7.251   2.844
 1930TIP3    H1 5667   8.969   7.262   2.798
 1930TIP3    H2 5668   9.032   7.192   2.916
 1931TIP3   OH2 5669   1.981   6.108   6.945
 1931TIP3    H1 5670   2.068   6.135   6.914
 1931TIP3    H2 5671   1.945   6.058   6.872
 1932TIP3   OH2 5672   9.160   7.064   7.459
 1932TIP3    H1 5673   9.082   7.100   7.501
 1932TIP3    H2 5674   9.225   7.134   7.465
 1933TIP3   OH2 5675   6.251   6.293   4.392
 1933TIP3    H1 5676   6.192   6.307   4.317
 1933TIP3    H2 5677   6.273   6.200   4.387
 1934TIP3   OH2 5678   6.215   2.886   6.343
 1934TIP3    H1 5679   6.231   2.822   6.273
 1934TIP3    H2 5680   6.253   2.845   6.421
 1935TIP3   OH2 5681   1.860   0.872   1.851
 1935TIP3    H1 5682   1.890   0.960   1.829
 1935TIP3    H2 5683   1.928   0.836   1.907
 1936TIP3   OH2 5684   0.198   7.074   6.416
 1936TIP3    H1 5685   0.203   7.005   6.349
 1936TIP3    H2 5686   0.276   7.060   6.470
 1937TIP3   OH2 5687   6.430   1.269   0.857
 1937TIP3    H1 5688   6.505   1.214   0.882
 1937TIP3    H2 5689   6.453   1.356   0.889
 1938TIP3   OH2 5690   8.913   7.190   4.630
 1938TIP3    H1 5691   8.887   7.098   4.626
 1938TIP3    H2 5692   8.952   7.200   4.717
 1939TIP3   OH2 5693   5.609   3.739   7.484
 1939TIP3    H1 5694   5.579   3.702   7.402
 1939TIP3    H2 5695   5.543   3.804   7.508
 1940TIP3   OH2 5696   7.434   8.360   7.213
 1940TIP3    H1 5697   7.476   8.275   7.204
 1940TIP3    H2 5698   7.411   8.385   7.124
 1941TIP3   OH2 5699   3.730   3.769   6.281
 1941TIP3    H1 5700   3.766   3.803   6.363
 1941TIP3    H2 5701   3.672   3.839   6.250
 1942TIP3   OH2 5702   4.861   3.186   2.879
 1942TIP3    H1 5703   4.875   3.113   2.819
 1942TIP3    H2 5704   4.786   3.159   2.933
 1943TIP3   OH2 5705   6.927   6.228   1.698
 1943TIP3    H1 5706   6.861   6.296   1.714
 1943TIP3    H2 5707   6.950   6.196   1.785
 1944TIP3   OH2 5708   3.572   0.854   4.109
 1944TIP3    H1 5709   3.533   0.829   4.026
 1944TIP3    H2 5710   3.647   0.794   4.119
 1945TIP3   OH2 5711   7.254   3.859   5.588
 1945TIP3    H1 5712   7.335   3.902   5.561
 1945TIP3    H2 5713   7.210   3.922   5.644
 1946TIP3   OH2 5714   0.961   2.729   1.604
 1946TIP3    H1 5715   0.949   2.818   1.637
 1946TIP3    H2 5716   0.922   2.674   1.672
 1947TIP3   OH2 5717   7.790   8.412   3.496
 1947TIP3    H1 5718   7.818   8.393   3.407
 1947TIP3    H2 5719   7.706   8.367   3.505
 1948TIP3   OH2 5720   3.326   6.609   4.985
 1948TIP3    H1 5721   3.237   6.582   4.963
 1948TIP3    H2 5722   3.377   6.528   4.983
 1949TIP3   OH2 5723   7.971   4.786   3.117
 1949TIP3    H1 5724   8.005   4.866   3.078
 1949TIP3    H2 5725   8.029   4.717   3.086
 1950TIP3   OH2 5726   4.595   2.895   6.417
 1950TIP3    H1 5727   4.517   2.950   6.422
 1950TIP3    H2 5728   4.621   2.882   6.508
 1951TIP3   OH2 5729   2.166   5.554   5.769
 1951TIP3    H1 5730   2.136   5.599   5.848
 1951TIP3    H2 5731   2.200   5.624   5.713
 1952TIP3   OH2 5732   5.915   5.752   5.685
 1952TIP3    H1 5733   5.928   5.791   5.599
 1952TIP3    H2 5734   5.960   5.667   5.681
 1953TIP3   OH2 5735   1.893   8.141   2.378
 1953TIP3    H1 5736   1.964   8.197   2.345
 1953TIP3    H2 5737   1.923   8.052   2.359
 1954TIP3   OH2 5738   9.193   6.575   2.847
 1954TIP3    H1 5739   9.161   6.537   2.765
 1954TIP3    H2 5740   9.285   6.551   2.851
 1955TIP3   OH2 5741   1.322   5.238   6.577
 1955TIP3    H1 5742   1.413   5.223   6.552
 1955TIP3    H2 5743   1.298   5.320   6.534
 1956TIP3   OH2 5744   2.049   8.334   7.101
 1956TIP3    H1 5745   2.007   8.261   7.056
 1956TIP3    H2 5746   2.100   8.379   7.033
 1957TIP3   OH2 5747   7.992   7.224   7.709
 1957TIP3    H1 5748   8.020   7.177   7.787
 1957TIP3    H2 5749   8.074   7.251   7.667
 1958TIP3   OH2 5750   8.044   5.882   5.218
 1958TIP3    H1 5751   8.071   5.884   5.310
 1958TIP3    H2 5752   8.072   5.795   5.187
 1959TIP3   OH2 5753   6.082   3.602   3.146
 1959TIP3    H1 5754   6.040   3.560   3.071
 1959TIP3    H2 5755   6.018   3.595   3.217
 1960TIP3   OH2 5756   0.906   6.316   4.454
 1960TIP3    H1 5757   0.979   6.313   4.392
 1960TIP3    H2 5758   0.850   6.243   4.429
 1961TIP3   OH2 5759   2.820   8.188   2.291
 1961TIP3    H1 5760   2.733   8.149   2.284
 1961TIP3    H2 5761   2.859   8.175   2.204
 1962TIP3   OH2 5762   8.545   1.660   2.014
 1962TIP3    H1 5763   8.551   1.730   1.950
 1962TIP3    H2 5764   8.636   1.639   2.036
 1963TIP3   OH2 5765   8.831   5.878   6.660
 1963TIP3    H1 5766   8.745   5.880   6.702
 1963TIP3    H2 5767   8.817   5.833   6.577
 1964TIP3   OH2 5768   4.233   6.707   2.070
 1964TIP3    H1 5769   4.210   6.674   1.984
 1964TIP3    H2 5770   4.261   6.798   2.055
 1965TIP3   OH2 5771   4.406   1.170   0.397
 1965TIP3    H1 5772   4.319   1.210   0.404
 1965TIP3    H2 5773   4.389   1.075   0.397
 1966TIP3   OH2 5774   8.702   2.027   5.656
 1966TIP3    H1 5775   8.746   1.943   5.641
 1966TIP3    H2 5776   8.651   2.042   5.576
 1967TIP3   OH2 5777   2.695   7.472   3.370
 1967TIP3    H1 5778   2.710   7.515   3.454
 1967TIP3    H2 5779   2.639   7.533   3.321
 1968TIP3   OH2 5780   5.653   6.829   3.882
 1968TIP3    H1 5781   5.687   6.917   3.868
 1968TIP3    H2 5782   5.559   6.840   3.894
 1969TIP3   OH2 5783   8.980   3.405   3.152
 1969TIP3    H1 5784   8.989   3.323   3.104
 1969TIP3    H2 5785   8.901   3.445   3.116
 1970TIP3   OH2 5786   4.884   4.629   1.217
 1970TIP3    H1 5787   4.907   4.569   1.288
 1970TIP3    H2 5788   4.961   4.633   1.162
 1971TIP3   OH2 5789   3.086   6.507   5.559
 1971TIP3    H1 5790   2.992   6.506   5.541
 1971TIP3    H2 5791   3.098   6.585   5.614
 1972TIP3   OH2 5792   1.160   7.767   3.422
 1972TIP3    H1 5793   1.200   7.734   3.341
 1972TIP3    H2 5794   1.226   7.824   3.460
 1973TIP3   OH2 5795   5.178   1.382   4.655
 1973TIP3    H1 5796   5.128   1.459   4.683
 1973TIP3    H2 5797   5.231   1.412   4.581
 1974TIP3   OH2 5798   0.288   3.055   5.825
 1974TIP3    H1 5799   0.215   3.064   5.764
 1974TIP3    H2 5800   0.336   2.978   5.793
 1975TIP3   OH2 5801   8.221   6.203   3.565
 1975TIP3    H1 5802   8.200   6.231   3.476
 1975TIP3    H2 5803   8.309   6.238   3.581
 1976TIP3   OH2 5804   5.229   3.184   5.473
 1976TIP3    H1 5805   5.255   3.142   5.555
 1976TIP3    H2 5806   5.147   3.140   5.449
 1977TIP3   OH2 5807   2.127   7.633   7.495
 1977TIP3    H1 5808   2.110   7.712   7.444
 1977TIP3    H2 5809   2.173   7.575   7.435
 1978TIP3   OH2 5810   2.239   8.933   2.956
 1978TIP3    H1 5811   2.333   8.940   2.941
 1978TIP3    H2 5812   2.229   8.852   3.006
 1979TIP3   OH2 5813   5.899   0.661   5.718
 1979TIP3    H1 5814   5.869   0.751   5.702
 1979TIP3    H2 5815   5.821   0.607   5.703
 1980TIP3   OH2 5816   6.461   5.905   5.212
 1980TIP3    H1 5817   6.539   5.961   5.218
 1980TIP3    H2 5818   6.388   5.967   5.202
 1981TIP3   OH2 5819   5.118   1.088   7.556
 1981TIP3    H1 5820   5.189   1.075   7.619
 1981TIP3    H2 5821   5.123   1.181   7.533
 1982TIP3   OH2 5822   6.199   8.143   4.119
 1982TIP3    H1 5823   6.162   8.208   4.059
 1982TIP3    H2 5824   6.129   8.080   4.133
 1983TIP3   OH2 5825   0.465   3.015   6.771
 1983TIP3    H1 5826   0.532   2.993   6.836
 1983TIP3    H2 5827   0.403   2.943   6.775
 1984TIP3   OH2 5828   7.476   4.615   7.306
 1984TIP3    H1 5829   7.491   4.578   7.219
 1984TIP3    H2 5830   7.393   4.577   7.334
 1985TIP3   OH2 5831   7.585   3.093   4.423
 1985TIP3    H1 5832   7.581   3.058   4.512
 1985TIP3    H2 5833   7.590   3.016   4.367
 1986TIP3   OH2 5834   2.421   0.646   3.326
 1986TIP3    H1 5835   2.378   0.577   3.277
 1986TIP3    H2 5836   2.512   0.616   3.335
 1987TIP3   OH2 5837   1.817   2.808   4.585
 1987TIP3    H1 5838   1.729   2.846   4.593
 1987TIP3    H2 5839   1.875   2.871   4.627
 1988TIP3   OH2 5840   6.204   8.590   6.208
 1988TIP3    H1 5841   6.224   8.678   6.178
 1988TIP3    H2 5842   6.255   8.533   6.151
 1989TIP3   OH2 5843   3.554   7.271   4.932
 1989TIP3    H1 5844   3.485   7.236   4.875
 1989TIP3    H2 5845   3.630   7.282   4.875
 1990TIP3   OH2 5846   2.624   6.144   3.776
 1990TIP3    H1 5847   2.600   6.208   3.844
 1990TIP3    H2 5848   2.719   6.135   3.784
 1991TIP3   OH2 5849   4.942   8.642   1.814
 1991TIP3    H1 5850   4.995   8.719   1.833
 1991TIP3    H2 5851   4.871   8.646   1.878
 1992TIP3   OH2 5852   3.203   2.769   3.823
 1992TIP3    H1 5853   3.132   2.810   3.872
 1992TIP3    H2 5854   3.282   2.792   3.871
 1993TIP3   OH2 5855   4.482   7.091   2.030
 1993TIP3    H1 5856   4.397   7.117   1.995
 1993TIP3    H2 5857   4.469   7.090   2.125
 1994TIP3   OH2 5858   5.882   7.407   3.746
 1994TIP3    H1 5859   5.906   7.473   3.811
 1994TIP3    H2 5860   5.787   7.401   3.752
 1995TIP3   OH2 5861   8.178   4.860   5.544
 1995TIP3    H1 5862   8.262   4.895   5.514
 1995TIP3    H2 5863   8.113   4.914   5.500
 1996TIP3   OH2 5864   8.959   8.839   1.814
 1996TIP3    H1 5865   9.016   8.858   1.740
 1996TIP3    H2 5866   8.944   8.925   1.855
 1997TIP3   OH2 5867   0.874   1.523   3.805
 1997TIP3    H1 5868   0.780   1.534   3.795
 1997TIP3    H2 5869   0.886   1.428   3.817
 1998TIP3   OH2 5870   4.896   2.626   2.133
 1998TIP3    H1 5871   4.838   2.702   2.127
 1998TIP3    H2 5872   4.904   2.610   2.227
 1999TIP3   OH2 5873   4.548   5.094   0.564
 1999TIP3    H1 5874   4.471   5.133   0.607
 1999TIP3    H2 5875   4.601   5.062   0.636
 2000TIP3   OH2 5876   8.872   7.683   5.551
 2000TIP3    H1 5877   8.896   7.757   5.607
 2000TIP3    H2 5878   8.808   7.634   5.602
 2001TIP3   OH2 5879   2.831   4.501   1.593
 2001TIP3    H1 5880   2.774   4.577   1.608
 2001TIP3    H2 5881   2.771   4.430   1.570
 2002TIP3   OH2 5882   4.412   4.803   5.854
 2002TIP3    H1 5883   4.482   4.749   5.891
 2002TIP3    H2 5884   4.332   4.769   5.894
 2003TIP3   OH2 5885   7.884   7.072   6.733
 2003TIP3    H1 5886   7.968   7.069   6.686
 2003TIP3    H2 5887   7.898   7.018   6.811
 2004TIP3   OH2 5888   9.226   5.643   2.305
 2004TIP3    H1 5889   9.200   5.719   2.253
 2004TIP3    H2 5890   9.177   5.651   2.387
 2005TIP3   OH2 5891   5.072   6.492   4.129
 2005TIP3    H1 5892   5.098   6.403   4.150
 2005TIP3    H2 5893   4.976   6.489   4.124
 2006TIP3   OH2 5894   1.084   0.669   3.681
 2006TIP3    H1 5895   0.999   0.672   3.724
 2006TIP3    H2 5896   1.147   0.689   3.750
 2007TIP3   OH2 5897   2.705   2.210   1.159
 2007TIP3    H1 5898   2.619   2.240   1.128
 2007TIP3    H2 5899   2.767   2.256   1.103
 2008TIP3   OH2 5900   3.504   0.482   5.962
 2008TIP3    H1 5901   3.515   0.577   5.963
 2008TIP3    H2 5902   3.449   0.464   6.039
 2009TIP3   OH2 5903   1.015   0.280   2.790
 2009TIP3    H1 5904   0.995   0.188   2.810
 2009TIP3    H2 5905   1.059   0.313   2.869
 2010TIP3   OH2 5906   4.819   4.249   6.053
 2010TIP3    H1 5907   4.767   4.189   5.999
 2010TIP3    H2 5908   4.869   4.192   6.111
 2011TIP3   OH2 5909   5.431   8.829   6.871
 2011TIP3    H1 5910   5.366   8.880   6.823
 2011TIP3    H2 5911   5.380   8.757   6.910
 2012TIP3   OH2 5912   5.743   1.038   4.600
 2012TIP3    H1 5913   5.677   1.107   4.603
 2012TIP3    H2 5914   5.765   1.031   4.507
 2013TIP3   OH2 5915   2.179   3.212   4.002
 2013TIP3    H1 5916   2.269   3.179   4.002
 2013TIP3    H2 5917   2.155   3.218   4.095
 2014TIP3   OH2 5918   9.203   3.699   3.371
 2014TIP3    H1 5919   9.188   3.775   3.427
 2014TIP3    H2 5920   9.232   3.630   3.431
 2015TIP3   OH2 5921   4.805   1.861   3.336
 2015TIP3    H1 5922   4.890   1.856   3.291
 2015TIP3    H2 5923   4.757   1.930   3.290
 2016TIP3   OH2 5924   2.711   4.667   3.194
 2016TIP3    H1 5925   2.712   4.583   3.239
 2016TIP3    H2 5926   2.733   4.731   3.262
 2017TIP3   OH2 5927   5.216   1.791   2.137
 2017TIP3    H1 5928   5.239   1.702   2.110
 2017TIP3    H2 5929   5.247   1.847   2.065
 2018TIP3   OH2 5930   3.308   4.082   6.147
 2018TIP3    H1 5931   3.297   4.131   6.066
 2018TIP3    H2 5932   3.266   3.997   6.131
 2019TIP3   OH2 5933   5.769   0.328   4.822
 2019TIP3    H1 5934   5.713   0.266   4.869
 2019TIP3    H2 5935   5.794   0.282   4.742
 2020TIP3   OH2 5936   8.626   5.656   1.547
 2020TIP3    H1 5937   8.648   5.563   1.557
 2020TIP3    H2 5938   8.601   5.684   1.635
 2021TIP3   OH2 5939   4.826   2.879   2.758
 2021TIP3    H1 5940   4.831   2.804   2.817
 2021TIP3    H2 5941   4.733   2.903   2.759
 2022TIP3   OH2 5942   2.125   1.978   1.859
 2022TIP3    H1 5943   2.218   1.955   1.868
 2022TIP3    H2 5944   2.098   2.002   1.947
 2023TIP3   OH2 5945   2.804   4.981   4.955
 2023TIP3    H1 5946   2.835   5.057   4.905
 2023TIP3    H2 5947   2.869   4.913   4.937
 2024TIP3   OH2 5948   5.331   1.179   3.342
 2024TIP3    H1 5949   5.387   1.223   3.406
 2024TIP3    H2 5950   5.344   1.086   3.358
 2025TIP3   OH2 5951   0.283   1.422   5.488
 2025TIP3    H1 5952   0.233   1.344   5.466
 2025TIP3    H2 5953   0.288   1.472   5.406
 2026TIP3   OH2 5954   1.089   5.773   4.321
 2026TIP3    H1 5955   1.059   5.691   4.359
 2026TIP3    H2 5956   1.185   5.767   4.324
 2027TIP3   OH2 5957   0.915   0.800   6.396
 2027TIP3    H1 5958   0.912   0.773   6.487
 2027TIP3    H2 5959   0.883   0.890   6.397
 2028TIP3   OH2 5960   5.967   7.942   0.155
 2028TIP3    H1 5961   6.044   7.895   0.124
 2028TIP3    H2 5962   5.915   7.876   0.200
 2029TIP3   OH2 5963   4.948   8.028   3.285
 2029TIP3    H1 5964   4.921   7.967   3.216
 2029TIP3    H2 5965   5.042   8.043   3.268
 2030TIP3   OH2 5966   8.607   8.130   1.843
 2030TIP3    H1 5967   8.652   8.185   1.779
 2030TIP3    H2 5968   8.676   8.105   1.905
 2031TIP3   OH2 5969   9.143   2.678   0.015
 2031TIP3    H1 5970   9.140   2.599   0.068
 2031TIP3    H2 5971   9.235   2.685  -0.013
 2032TIP3   OH2 5972   4.457   4.774   2.650
 2032TIP3    H1 5973   4.533   4.744   2.700
 2032TIP3    H2 5974   4.448   4.711   2.579
 2033TIP3   OH2 5975   6.743   4.278   7.220
 2033TIP3    H1 5976   6.690   4.226   7.159
 2033TIP3    H2 5977   6.815   4.219   7.244
 2034TIP3   OH2 5978   8.070   8.058   7.528
 2034TIP3    H1 5979   8.134   8.129   7.518
 2034TIP3    H2 5980   8.110   8.000   7.593
 2035TIP3   OH2 5981   9.514   0.605   6.677
 2035TIP3    H1 5982   9.424   0.584   6.700
 2035TIP3    H2 5983   9.507   0.659   6.598
 2036TIP3   OH2 5984   6.695   4.903   1.750
 2036TIP3    H1 5985   6.768   4.958   1.777
 2036TIP3    H2 5986   6.669   4.937   1.665
 2037TIP3   OH2 5987   8.663   2.699   1.631
 2037TIP3    H1 5988   8.658   2.757   1.708
 2037TIP3    H2 5989   8.757   2.694   1.611
 2038TIP3   OH2 5990   8.615   8.736   4.368
 2038TIP3    H1 5991   8.706   8.761   4.354
 2038TIP3    H2 5992   8.591   8.686   4.290
 2039TIP3   OH2 5993   1.593   3.931   5.595
 2039TIP3    H1 5994   1.683   3.963   5.587
 2039TIP3    H2 5995   1.579   3.879   5.516
 2040TIP3   OH2 5996   4.283   4.022   2.995
 2040TIP3    H1 5997   4.363   3.999   3.043
 2040TIP3    H2 5998   4.297   4.112   2.966
 2041TIP3   OH2 5999   5.161   0.647   2.194
 2041TIP3    H1 6000   5.161   0.699   2.274
 2041TIP3    H2 6001   5.248   0.607   2.191
 2042TIP3   OH2 6002   2.293   2.789   3.431
 2042TIP3    H1 6003   2.336   2.704   3.430
 2042TIP3    H2 6004   2.200   2.769   3.434
 2043TIP3   OH2 6005   4.892   6.833   3.940
 2043TIP3    H1 6006   4.799   6.854   3.930
 2043TIP3    H2 6007   4.894   6.737   3.948
 2044TIP3   OH2 6008   4.840   6.970   0.944
 2044TIP3    H1 6009   4.854   6.998   0.854
 2044TIP3    H2 6010   4.927   6.974   0.984
 2045TIP3   OH2 6011   8.398   6.261   7.740
 2045TIP3    H1 6012   8.404   6.209   7.820
 2045TIP3    H2 6013   8.471   6.323   7.747
 2046TIP3   OH2 6014   9.158   3.533   6.920
 2046TIP3    H1 6015   9.245   3.504   6.892
 2046TIP3    H2 6016   9.098   3.466   6.887
 2047TIP3   OH2 6017   1.457   5.699   7.656
 2047TIP3    H1 6018   1.385   5.647   7.694
 2047TIP3    H2 6019   1.474   5.657   7.571
 2048TIP3   OH2 6020   1.590   5.055   7.220
 2048TIP3    H1 6021   1.670   5.046   7.168
 2048TIP3    H2 6022   1.522   5.079   7.156
 2049TIP3   OH2 6023   5.643   0.206   4.305
 2049TIP3    H1 6024   5.693   0.126   4.322
 2049TIP3    H2 6025   5.600   0.227   4.388
 2050TIP3   OH2 6026   3.505   0.699   2.768
 2050TIP3    H1 6027   3.442   0.698   2.840
 2050TIP3    H2 6028   3.468   0.760   2.704
 2051TIP3   OH2 6029   9.330   3.625   2.790
 2051TIP3    H1 6030   9.282   3.600   2.711
 2051TIP3    H2 6031   9.421   3.603   2.771
 2052TIP3   OH2 6032   7.767   8.001   4.372
 2052TIP3    H1 6033   7.679   7.962   4.371
 2052TIP3    H2 6034   7.821   7.937   4.419
 2053TIP3   OH2 6035   2.593   6.644   5.701
 2053TIP3    H1 6036   2.607   6.557   5.738
 2053TIP3    H2 6037   2.515   6.677   5.745
 2054TIP3   OH2 6038   6.745   7.174   2.453
 2054TIP3    H1 6039   6.783   7.237   2.514
 2054TIP3    H2 6040   6.763   7.211   2.366
 2055TIP3   OH2 6041   4.278   5.612   2.439
 2055TIP3    H1 6042   4.253   5.667   2.514
 2055TIP3    H2 6043   4.374   5.615   2.439
 2056TIP3   OH2 6044   3.349   4.187   2.970
 2056TIP3    H1 6045   3.379   4.221   2.886
 2056TIP3    H2 6046   3.391   4.101   2.977
 2057TIP3   OH2 6047   0.287   6.997   5.100
 2057TIP3    H1 6048   0.356   6.946   5.143
 2057TIP3    H2 6049   0.294   7.084   5.138
 2058TIP3   OH2 6050   5.312   5.288   0.933
 2058TIP3    H1 6051   5.363   5.211   0.958
 2058TIP3    H2 6052   5.321   5.349   1.006
 2059TIP3   OH2 6053   8.162   7.427   3.917
 2059TIP3    H1 6054   8.139   7.442   4.008
 2059TIP3    H2 6055   8.084   7.452   3.868
 2060TIP3   OH2 6056   7.060   7.767   7.286
 2060TIP3    H1 6057   6.988   7.706   7.273
 2060TIP3    H2 6058   7.119   7.751   7.213
 2061TIP3   OH2 6059   7.949   0.788   6.889
 2061TIP3    H1 6060   7.934   0.881   6.906
 2061TIP3    H2 6061   8.033   0.769   6.930
 2062TIP3   OH2 6062   5.498   5.921   7.236
 2062TIP3    H1 6063   5.446   5.877   7.168
 2062TIP3    H2 6064   5.501   5.859   7.308
 2063TIP3   OH2 6065   7.144   3.396   3.627
 2063TIP3    H1 6066   7.122   3.356   3.711
 2063TIP3    H2 6067   7.204   3.334   3.586
 2064TIP3   OH2 6068   7.059   8.753   7.602
 2064TIP3    H1 6069   7.095   8.807   7.672
 2064TIP3    H2 6070   6.964   8.760   7.613
 2065TIP3   OH2 6071   9.369   5.562   3.151
 2065TIP3    H1 6072   9.367   5.484   3.206
 2065TIP3    H2 6073   9.451   5.555   3.102
 2066TIP3   OH2 6074   5.853   5.323   4.921
 2066TIP3    H1 6075   5.809   5.243   4.891
 2066TIP3    H2 6076   5.944   5.312   4.895
 2067TIP3   OH2 6077   2.903   3.613   6.601
 2067TIP3    H1 6078   2.970   3.564   6.552
 2067TIP3    H2 6079   2.874   3.681   6.541
 2068TIP3   OH2 6080   1.640   6.928   3.458
 2068TIP3    H1 6081   1.545   6.929   3.451
 2068TIP3    H2 6082   1.671   6.968   3.377
 2069TIP3   OH2 6083   0.930   6.098   4.849
 2069TIP3    H1 6084   1.022   6.076   4.836
 2069TIP3    H2 6085   0.913   6.078   4.941
 2070TIP3   OH2 6086   5.373   4.005   3.387
 2070TIP3    H1 6087   5.296   3.950   3.372
 2070TIP3    H2 6088   5.427   3.992   3.309
 2071TIP3   OH2 6089   6.980   4.138   7.296
 2071TIP3    H1 6090   7.035   4.121   7.219
 2071TIP3    H2 6091   7.040   4.134   7.370
 2072TIP3   OH2 6092   2.202   5.295   3.388
 2072TIP3    H1 6093   2.148   5.336   3.455
 2072TIP3    H2 6094   2.145   5.290   3.311
 2073TIP3   OH2 6095   6.400   2.546   0.258
 2073TIP3    H1 6096   6.386   2.621   0.315
 2073TIP3    H2 6097   6.495   2.544   0.243
 2074TIP3   OH2 6098   2.893   8.419   1.435
 2074TIP3    H1 6099   2.944   8.460   1.505
 2074TIP3    H2 6100   2.892   8.484   1.365
 2075TIP3   OH2 6101   7.934   6.255   5.842
 2075TIP3    H1 6102   7.993   6.181   5.832
 2075TIP3    H2 6103   7.862   6.221   5.896
 2076TIP3   OH2 6104   1.521   8.792   0.140
 2076TIP3    H1 6105   1.532   8.711   0.191
 2076TIP3    H2 6106   1.429   8.816   0.154
 2077TIP3   OH2 6107   1.780   1.776   7.115
 2077TIP3    H1 6108   1.813   1.857   7.154
 2077TIP3    H2 6109   1.846   1.710   7.139
 2078TIP3   OH2 6110   2.485   2.301   1.059
 2078TIP3    H1 6111   2.431   2.360   1.111
 2078TIP3    H2 6112   2.428   2.227   1.039
 2079TIP3   OH2 6113   0.290   5.844   1.744
 2079TIP3    H1 6114   0.195   5.842   1.757
 2079TIP3    H2 6115   0.316   5.933   1.768
 2080TIP3   OH2 6116   8.459   0.009   3.364
 2080TIP3    H1 6117   8.445  -0.085   3.359
 2080TIP3    H2 6118   8.371   0.047   3.359
 2081TIP3   OH2 6119   4.438   2.150   1.794
 2081TIP3    H1 6120   4.365   2.178   1.739
 2081TIP3    H2 6121   4.463   2.065   1.759
 2082TIP3   OH2 6122   8.515   6.558   3.733
 2082TIP3    H1 6123   8.517   6.542   3.827
 2082TIP3    H2 6124   8.471   6.643   3.724
 2083TIP3   OH2 6125   7.786   2.739   1.287
 2083TIP3    H1 6126   7.735   2.712   1.211
 2083TIP3    H2 6127   7.768   2.832   1.296
 2084TIP3   OH2 6128   1.807   0.064   0.601
 2084TIP3    H1 6129   1.856   0.008   0.541
 2084TIP3    H2 6130   1.865   0.075   0.676
 2085TIP3   OH2 6131   2.862   4.505   6.757
 2085TIP3    H1 6132   2.773   4.538   6.766
 2085TIP3    H2 6133   2.895   4.500   6.847
 2086TIP3   OH2 6134   3.999   7.309   2.049
 2086TIP3    H1 6135   4.084   7.354   2.050
 2086TIP3    H2 6136   3.935   7.380   2.037
 2087TIP3   OH2 6137   1.122   6.859   4.752
 2087TIP3    H1 6138   1.141   6.941   4.798
 2087TIP3    H2 6139   1.125   6.883   4.659
 2088TIP3   OH2 6140   3.688   7.052   3.113
 2088TIP3    H1 6141   3.653   7.091   3.193
 2088TIP3    H2 6142   3.613   7.050   3.053
 2089TIP3   OH2 6143   1.638   1.218   0.780
 2089TIP3    H1 6144   1.677   1.208   0.693
 2089TIP3    H2 6145   1.614   1.129   0.806
 2090TIP3   OH2 6146   6.847   0.012   2.160
 2090TIP3    H1 6147   6.817   0.026   2.250
 2090TIP3    H2 6148   6.771   0.031   2.106
 2091TIP3   OH2 6149   5.883   8.049   0.601
 2091TIP3    H1 6150   5.957   7.990   0.585
 2091TIP3    H2 6151   5.846   8.065   0.514
 2092TIP3   OH2 6152   1.026   4.326   2.835
 2092TIP3    H1 6153   1.116   4.309   2.863
 2092TIP3    H2 6154   0.988   4.240   2.821
 2093TIP3   OH2 6155   0.041   1.247   7.124
 2093TIP3    H1 6156   0.098   1.177   7.156
 2093TIP3    H2 6157  -0.047   1.209   7.125
 2094TIP3   OH2 6158   4.307   2.172   1.237
 2094TIP3    H1 6159   4.387   2.145   1.192
 2094TIP3    H2 6160   4.236   2.135   1.183
 2095TIP3   OH2 6161   5.291   1.525   2.876
 2095TIP3    H1 6162   5.233   1.601   2.875
 2095TIP3    H2 6163   5.234   1.452   2.901
 2096TIP3   OH2 6164   5.461   1.578   3.323
 2096TIP3    H1 6165   5.503   1.664   3.316
 2096TIP3    H2 6166   5.530   1.516   3.300
 2097TIP3   OH2 6167   4.486   4.099   3.850
 2097TIP3    H1 6168   4.449   4.010   3.852
 2097TIP3    H2 6169   4.419   4.151   3.805
 2098TIP3   OH2 6170   1.076   8.534   4.157
 2098TIP3    H1 6171   1.147   8.474   4.176
 2098TIP3    H2 6172   0.997   8.480   4.155
 2099TIP3   OH2 6173   5.127   6.876   3.780
 2099TIP3    H1 6174   5.116   6.965   3.746
 2099TIP3    H2 6175   5.046   6.859   3.828
 2100TIP3   OH2 6176   7.958   0.493   7.679
 2100TIP3    H1 6177   7.876   0.516   7.635
 2100TIP3    H2 6178   8.018   0.565   7.659
 2101TIP3   OH2 6179   2.862   8.218   6.643
 2101TIP3    H1 6180   2.913   8.271   6.703
 2101TIP3    H2 6181   2.886   8.250   6.556
 2102TIP3   OH2 6182   4.353   5.984   6.595
 2102TIP3    H1 6183   4.348   5.967   6.689
 2102TIP3    H2 6184   4.434   6.033   6.584
 2103TIP3   OH2 6185   2.961   0.702   6.210
 2103TIP3    H1 6186   2.993   0.677   6.296
 2103TIP3    H2 6187   2.873   0.663   6.205
 2104TIP3   OH2 6188   8.389   4.978   5.981
 2104TIP3    H1 6189   8.468   5.027   5.957
 2104TIP3    H2 6190   8.322   5.045   5.991
 2105TIP3   OH2 6191   1.364   1.846   7.579
 2105TIP3    H1 6192   1.389   1.754   7.575
 2105TIP3    H2 6193   1.348   1.871   7.487
 2106TIP3   OH2 6194   4.681   7.861   5.780
 2106TIP3    H1 6195   4.637   7.925   5.724
 2106TIP3    H2 6196   4.624   7.784   5.779
 2107TIP3   OH2 6197   6.724   4.055   2.750
 2107TIP3    H1 6198   6.718   3.964   2.722
 2107TIP3    H2 6199   6.780   4.096   2.684
 2108TIP3   OH2 6200   1.740   0.021   2.398
 2108TIP3    H1 6201   1.674  -0.026   2.449
 2108TIP3    H2 6202   1.696   0.101   2.368
 2109TIP3   OH2 6203   5.495   5.527   0.682
 2109TIP3    H1 6204   5.511   5.432   0.683
 2109TIP3    H2 6205   5.499   5.553   0.774
 2110TIP3   OH2 6206   4.393   0.059   6.527
 2110TIP3    H1 6207   4.356   0.029   6.445
 2110TIP3    H2 6208   4.351   0.006   6.594
 2111TIP3   OH2 6209   3.726   5.930   7.318
 2111TIP3    H1 6210   3.780   5.851   7.327
 2111TIP3    H2 6211   3.686   5.922   7.232
 2112TIP3   OH2 6212   7.415   7.929   2.106
 2112TIP3    H1 6213   7.511   7.928   2.111
 2112TIP3    H2 6214   7.387   7.951   2.195
 2113TIP3   OH2 6215   4.703   3.299   3.458
 2113TIP3    H1 6216   4.735   3.388   3.446
 2113TIP3    H2 6217   4.735   3.274   3.545
 2114TIP3   OH2 6218   2.501   1.420   1.515
 2114TIP3    H1 6219   2.536   1.380   1.595
 2114TIP3    H2 6220   2.484   1.347   1.456
 2115TIP3   OH2 6221   6.408   4.339   1.453
 2115TIP3    H1 6222   6.341   4.286   1.410
 2115TIP3    H2 6223   6.484   4.282   1.459
 2116TIP3   OH2 6224   2.953   2.687   3.002
 2116TIP3    H1 6225   2.889   2.736   2.950
 2116TIP3    H2 6226   3.033   2.740   2.997
 2117TIP3   OH2 6227   3.780   1.832   1.509
 2117TIP3    H1 6228   3.851   1.780   1.546
 2117TIP3    H2 6229   3.783   1.915   1.557
 2118TIP3   OH2 6230   1.118   2.351   4.564
 2118TIP3    H1 6231   1.155   2.418   4.621
 2118TIP3    H2 6232   1.056   2.304   4.619
 2119TIP3   OH2 6233   1.111   0.248   3.331
 2119TIP3    H1 6234   1.045   0.289   3.275
 2119TIP3    H2 6235   1.146   0.177   3.278
 2120TIP3   OH2 6236   4.637   3.076   4.700
 2120TIP3    H1 6237   4.725   3.098   4.669
 2120TIP3    H2 6238   4.607   3.156   4.744
 2121TIP3   OH2 6239   2.867   8.798   6.229
 2121TIP3    H1 6240   2.878   8.766   6.139
 2121TIP3    H2 6241   2.800   8.867   6.222
 2122TIP3   OH2 6242   5.294   4.782   4.525
 2122TIP3    H1 6243   5.222   4.729   4.490
 2122TIP3    H2 6244   5.313   4.742   4.610
 2123TIP3   OH2 6245   8.606   0.272   0.163
 2123TIP3    H1 6246   8.624   0.220   0.241
 2123TIP3    H2 6247   8.541   0.336   0.191
 2124TIP3   OH2 6248   3.486   0.991   4.986
 2124TIP3    H1 6249   3.484   1.062   4.922
 2124TIP3    H2 6250   3.529   1.029   5.063
 2125TIP3   OH2 6251   6.216   1.871   7.645
 2125TIP3    H1 6252   6.128   1.909   7.642
 2125TIP3    H2 6253   6.268   1.935   7.694
 2126TIP3   OH2 6254   2.518   3.963   1.110
 2126TIP3    H1 6255   2.525   4.038   1.169
 2126TIP3    H2 6256   2.502   3.888   1.168
 2127TIP3   OH2 6257   8.352   9.004   5.196
 2127TIP3    H1 6258   8.440   8.993   5.160
 2127TIP3    H2 6259   8.304   9.053   5.128
 2128TIP3   OH2 6260   6.891   3.777   5.496
 2128TIP3    H1 6261   6.936   3.811   5.573
 2128TIP3    H2 6262   6.904   3.845   5.429
 2129TIP3   OH2 6263   1.014   8.288   7.074
 2129TIP3    H1 6264   1.087   8.349   7.073
 2129TIP3    H2 6265   0.936   8.343   7.062
 2130TIP3   OH2 6266   4.208   7.613   3.440
 2130TIP3    H1 6267   4.170   7.526   3.427
 2130TIP3    H2 6268   4.234   7.641   3.352
 2131TIP3   OH2 6269   6.598   5.045   6.940
 2131TIP3    H1 6270   6.582   5.109   7.010
 2131TIP3    H2 6271   6.517   4.994   6.935
 2132TIP3   OH2 6272   3.202   2.280   0.123
 2132TIP3    H1 6273   3.264   2.218   0.084
 2132TIP3    H2 6274   3.156   2.317   0.048
 2133TIP3   OH2 6275   1.696   5.392   4.992
 2133TIP3    H1 6276   1.785   5.385   4.956
 2133TIP3    H2 6277   1.652   5.453   4.933
 2134TIP3   OH2 6278   6.840   6.269   5.403
 2134TIP3    H1 6279   6.750   6.237   5.412
 2134TIP3    H2 6280   6.842   6.347   5.458
 2135TIP3   OH2 6281   2.131   0.368   5.522
 2135TIP3    H1 6282   2.065   0.416   5.573
 2135TIP3    H2 6283   2.183   0.322   5.588
 2136TIP3   OH2 6284   0.484   4.642   0.393
 2136TIP3    H1 6285   0.483   4.583   0.468
 2136TIP3    H2 6286   0.576   4.668   0.385
 2137TIP3   OH2 6287   6.230   1.414   4.125
 2137TIP3    H1 6288   6.239   1.356   4.049
 2137TIP3    H2 6289   6.281   1.372   4.193
 2138TIP3   OH2 6290   0.420   8.579   3.398
 2138TIP3    H1 6291   0.373   8.617   3.323
 2138TIP3    H2 6292   0.379   8.619   3.475
 2139TIP3   OH2 6293   7.094   6.991   7.680
 2139TIP3    H1 6294   7.159   7.059   7.700
 2139TIP3    H2 6295   7.012   7.039   7.668
 2140TIP3   OH2 6296   4.377   8.607   4.962
 2140TIP3    H1 6297   4.342   8.595   5.051
 2140TIP3    H2 6298   4.471   8.590   4.972
 2141TIP3   OH2 6299   7.084   6.333   0.582
 2141TIP3    H1 6300   7.044   6.411   0.620
 2141TIP3    H2 6301   7.059   6.337   0.489
 2142TIP3   OH2 6302   4.350   6.617   0.727
 2142TIP3    H1 6303   4.374   6.668   0.805
 2142TIP3    H2 6304   4.416   6.642   0.662
 2143TIP3   OH2 6305   3.015   2.491   4.055
 2143TIP3    H1 6306   3.069   2.492   3.975
 2143TIP3    H2 6307   2.989   2.582   4.067
 2144TIP3   OH2 6308   1.040   8.935   3.041
 2144TIP3    H1 6309   1.011   8.898   3.124
 2144TIP3    H2 6310   1.136   8.934   3.046
 2145TIP3   OH2 6311   6.497   6.520   7.039
 2145TIP3    H1 6312   6.473   6.544   7.128
 2145TIP3    H2 6313   6.569   6.578   7.016
 2146TIP3   OH2 6314   6.791   1.880   1.010
 2146TIP3    H1 6315   6.711   1.867   1.062
 2146TIP3    H2 6316   6.759   1.905   0.924
 2147TIP3   OH2 6317   4.518   2.808   0.525
 2147TIP3    H1 6318   4.496   2.766   0.608
 2147TIP3    H2 6319   4.611   2.793   0.514
 2148TIP3   OH2 6320   8.541   3.285   5.888
 2148TIP3    H1 6321   8.629   3.297   5.850
 2148TIP3    H2 6322   8.488   3.352   5.846
 2149TIP3   OH2 6323   2.880   3.338   5.899
 2149TIP3    H1 6324   2.940   3.295   5.960
 2149TIP3    H2 6325   2.823   3.391   5.955
 2150TIP3   OH2 6326   8.980   0.372   6.781
 2150TIP3    H1 6327   9.065   0.353   6.741
 2150TIP3    H2 6328   8.989   0.343   6.871
 2151TIP3   OH2 6329   7.113   0.138   5.804
 2151TIP3    H1 6330   7.031   0.183   5.784
 2151TIP3    H2 6331   7.116   0.134   5.899
 2152TIP3   OH2 6332   5.233   3.990   5.341
 2152TIP3    H1 6333   5.322   3.975   5.310
 2152TIP3    H2 6334   5.233   3.961   5.432
 2153TIP3   OH2 6335   7.562   2.931   0.943
 2153TIP3    H1 6336   7.647   2.913   0.902
 2153TIP3    H2 6337   7.501   2.939   0.870
 2154TIP3   OH2 6338   9.103   8.290   1.890
 2154TIP3    H1 6339   9.154   8.268   1.812
 2154TIP3    H2 6340   9.143   8.370   1.924
 2155TIP3   OH2 6341   3.610   4.373   0.669
 2155TIP3    H1 6342   3.632   4.453   0.621
 2155TIP3    H2 6343   3.550   4.402   0.738
 2156TIP3   OH2 6344   3.539   0.460   5.432
 2156TIP3    H1 6345   3.515   0.549   5.406
 2156TIP3    H2 6346   3.498   0.449   5.518
 2157TIP3   OH2 6347   9.092   4.322   7.797
 2157TIP3    H1 6348   9.041   4.279   7.729
 2157TIP3    H2 6349   9.133   4.250   7.845
 2158TIP3   OH2 6350   3.297   3.162   1.480
 2158TIP3    H1 6351   3.346   3.080   1.469
 2158TIP3    H2 6352   3.359   3.221   1.523
 2159TIP3   OH2 6353   6.689   1.024   1.898
 2159TIP3    H1 6354   6.695   1.068   1.983
 2159TIP3    H2 6355   6.773   0.979   1.888
 2160TIP3   OH2 6356   2.948   8.890   1.859
 2160TIP3    H1 6357   2.881   8.871   1.793
 2160TIP3    H2 6358   3.017   8.936   1.810
 2161TIP3   OH2 6359   1.969   6.985   1.246
 2161TIP3    H1 6360   2.031   6.999   1.174
 2161TIP3    H2 6361   1.928   6.901   1.227
 2162TIP3   OH2 6362   7.990   7.761   0.239
 2162TIP3    H1 6363   7.955   7.838   0.195
 2162TIP3    H2 6364   8.069   7.791   0.282
 2163TIP3   OH2 6365   4.725   7.932   5.448
 2163TIP3    H1 6366   4.730   7.928   5.353
 2163TIP3    H2 6367   4.782   7.862   5.478
 2164TIP3   OH2 6368   2.271   7.144   1.333
 2164TIP3    H1 6369   2.199   7.205   1.317
 2164TIP3    H2 6370   2.231   7.075   1.386
 2165TIP3   OH2 6371   7.910   5.132   0.485
 2165TIP3    H1 6372   7.933   5.054   0.435
 2165TIP3    H2 6373   7.891   5.100   0.573
 2166TIP3   OH2 6374   6.633   8.372   1.820
 2166TIP3    H1 6375   6.625   8.392   1.727
 2166TIP3    H2 6376   6.726   8.386   1.840
 2167TIP3   OH2 6377   2.075   6.971   1.491
 2167TIP3    H1 6378   2.142   6.902   1.494
 2167TIP3    H2 6379   2.027   6.955   1.410
 2168TIP3   OH2 6380   1.473   3.258   7.061
 2168TIP3    H1 6381   1.562   3.253   7.096
 2168TIP3    H2 6382   1.459   3.351   7.043
 2169TIP3   OH2 6383   6.174   6.672   2.240
 2169TIP3    H1 6384   6.138   6.759   2.253
 2169TIP3    H2 6385   6.102   6.621   2.203
 2170TIP3   OH2 6386   9.113   1.038   1.957
 2170TIP3    H1 6387   9.021   1.058   1.970
 2170TIP3    H2 6388   9.115   0.978   1.883
 2171TIP3   OH2 6389   2.305   4.096   5.108
 2171TIP3    H1 6390   2.275   4.181   5.074
 2171TIP3    H2 6391   2.246   4.077   5.180
 2172TIP3   OH2 6392   1.314   1.821   2.965
 2172TIP3    H1 6393   1.247   1.754   2.967
 2172TIP3    H2 6394   1.397   1.774   2.975
 2173TIP3   OH2 6395   9.229   2.655   2.716
 2173TIP3    H1 6396   9.317   2.621   2.731
 2173TIP3    H2 6397   9.196   2.603   2.642
 2174TIP3   OH2 6398   6.452   1.292   0.593
 2174TIP3    H1 6399   6.435   1.386   0.591
 2174TIP3    H2 6400   6.450   1.270   0.687
 2175TIP3   OH2 6401   5.877   5.239   7.291
 2175TIP3    H1 6402   5.870   5.198   7.377
 2175TIP3    H2 6403   5.790   5.276   7.274
 2176TIP3   OH2 6404   2.501   4.543   5.892
 2176TIP3    H1 6405   2.495   4.628   5.847
 2176TIP3    H2 6406   2.446   4.554   5.970
 2177TIP3   OH2 6407   0.529   0.954   4.934
 2177TIP3    H1 6408   0.443   0.992   4.951
 2177TIP3    H2 6409   0.562   0.932   5.021
 2178TIP3   OH2 6410   0.304   1.999   2.041
 2178TIP3    H1 6411   0.285   1.967   1.953
 2178TIP3    H2 6412   0.286   2.093   2.037
 2179TIP3   OH2 6413   0.029   6.902   6.764
 2179TIP3    H1 6414   0.012   6.956   6.687
 2179TIP3    H2 6415   0.005   6.813   6.737
 2180TIP3   OH2 6416   4.552   6.811   4.340
 2180TIP3    H1 6417   4.555   6.829   4.434
 2180TIP3    H2 6418   4.460   6.793   4.321
 2181TIP3   OH2 6419   0.948   8.536   0.160
 2181TIP3    H1 6420   1.034   8.572   0.140
 2181TIP3    H2 6421   0.920   8.581   0.239
 2182TIP3   OH2 6422   1.339   0.719   3.388
 2182TIP3    H1 6423   1.375   0.639   3.350
 2182TIP3    H2 6424   1.247   0.698   3.405
 2183TIP3   OH2 6425   2.808   5.158   2.585
 2183TIP3    H1 6426   2.714   5.160   2.568
 2183TIP3    H2 6427   2.816   5.114   2.670
 2184TIP3   OH2 6428   3.111   7.397   6.263
 2184TIP3    H1 6429   3.038   7.347   6.299
 2184TIP3    H2 6430   3.091   7.488   6.287
 2185TIP3   OH2 6431   6.934   8.174   3.871
 2185TIP3    H1 6432   6.955   8.098   3.818
 2185TIP3    H2 6433   6.973   8.156   3.956
 2186TIP3   OH2 6434   3.942   8.190   5.236
 2186TIP3    H1 6435   4.037   8.197   5.248
 2186TIP3    H2 6436   3.916   8.119   5.296
 2187TIP3   OH2 6437   7.217   1.831   6.038
 2187TIP3    H1 6438   7.133   1.834   5.991
 2187TIP3    H2 6439   7.273   1.777   5.982
 2188TIP3   OH2 6440   2.211   7.296   4.368
 2188TIP3    H1 6441   2.244   7.295   4.278
 2188TIP3    H2 6442   2.289   7.285   4.423
 2189TIP3   OH2 6443   5.027   2.014   2.943
 2189TIP3    H1 6444   5.078   1.950   2.894
 2189TIP3    H2 6445   5.088   2.085   2.961
 2190TIP3   OH2 6446   6.090   2.459   5.262
 2190TIP3    H1 6447   6.144   2.409   5.202
 2190TIP3    H2 6448   6.095   2.411   5.345
 2191TIP3   OH2 6449   1.673   1.563   7.623
 2191TIP3    H1 6450   1.641   1.524   7.542
 2191TIP3    H2 6451   1.690   1.487   7.680
 2192TIP3   OH2 6452   5.256   2.784   0.726
 2192TIP3    H1 6453   5.210   2.734   0.793
 2192TIP3    H2 6454   5.192   2.850   0.698
 2193TIP3   OH2 6455   3.071   4.804   3.464
 2193TIP3    H1 6456   3.017   4.858   3.406
 2193TIP3    H2 6457   3.013   4.734   3.492
 2194TIP3   OH2 6458   4.824   5.575   4.359
 2194TIP3    H1 6459   4.814   5.583   4.264
 2194TIP3    H2 6460   4.890   5.641   4.381
 2195TIP3   OH2 6461   1.657   7.905   6.595
 2195TIP3    H1 6462   1.743   7.927   6.558
 2195TIP3    H2 6463   1.608   7.867   6.522
 2196TIP3   OH2 6464   2.155   9.020   2.109
 2196TIP3    H1 6465   2.246   8.992   2.105
 2196TIP3    H2 6466   2.119   8.973   2.184
 2197TIP3   OH2 6467   3.326   1.320   0.868
 2197TIP3    H1 6468   3.403   1.364   0.905
 2197TIP3    H2 6469   3.261   1.390   0.858
 2198TIP3   OH2 6470   4.916   1.563   3.363
 2198TIP3    H1 6471   4.999   1.603   3.389
 2198TIP3    H2 6472   4.938   1.474   3.338
 2199TIP3   OH2 6473   0.754   0.902   6.806
 2199TIP3    H1 6474   0.678   0.869   6.854
 2199TIP3    H2 6475   0.720   0.974   6.753
 2200TIP3   OH2 6476   3.068   0.111   7.668
 2200TIP3    H1 6477   3.153   0.075   7.693
 2200TIP3    H2 6478   3.084   0.157   7.586
 2201TIP3   OH2 6479   5.726   7.962   5.773
 2201TIP3    H1 6480   5.726   7.942   5.679
 2201TIP3    H2 6481   5.656   8.027   5.784
 2202TIP3   OH2 6482   9.521   5.861   1.643
 2202TIP3    H1 6483   9.561   5.781   1.609
 2202TIP3    H2 6484   9.558   5.931   1.590
 2203TIP3   OH2 6485   6.535   5.629   5.153
 2203TIP3    H1 6486   6.444   5.600   5.164
 2203TIP3    H2 6487   6.548   5.695   5.221
 2204TIP3   OH2 6488   9.554   2.539   5.124
 2204TIP3    H1 6489   9.583   2.533   5.215
 2204TIP3    H2 6490   9.459   2.550   5.130
 2205TIP3   OH2 6491   7.824   2.507   2.829
 2205TIP3    H1 6492   7.767   2.577   2.798
 2205TIP3    H2 6493   7.826   2.443   2.757
 2206TIP3   OH2 6494   0.438   5.293   0.775
 2206TIP3    H1 6495   0.371   5.241   0.730
 2206TIP3    H2 6496   0.413   5.288   0.868
 2207TIP3   OH2 6497   2.428   2.555   3.733
 2207TIP3    H1 6498   2.461   2.469   3.757
 2207TIP3    H2 6499   2.454   2.612   3.806
 2208TIP3   OH2 6500   2.211   4.262   4.482
 2208TIP3    H1 6501   2.129   4.298   4.447
 2208TIP3    H2 6502   2.182   4.192   4.541
 2209TIP3   OH2 6503   2.063   8.449   6.843
 2209TIP3    H1 6504   2.106   8.521   6.796
 2209TIP3    H2 6505   2.041   8.386   6.775
 2210TIP3   OH2 6506   7.563   3.530   7.118
 2210TIP3    H1 6507   7.501   3.459   7.133
 2210TIP3    H2 6508   7.646   3.497   7.152
 2211TIP3   OH2 6509   4.697   0.627   0.858
 2211TIP3    H1 6510   4.735   0.682   0.789
 2211TIP3    H2 6511   4.718   0.673   0.939
 2212TIP3   OH2 6512   4.380   5.841   5.463
 2212TIP3    H1 6513   4.426   5.923   5.481
 2212TIP3    H2 6514   4.446   5.785   5.422
 2213TIP3   OH2 6515   3.400   6.133   6.965
 2213TIP3    H1 6516   3.429   6.215   6.924
 2213TIP3    H2 6517   3.472   6.108   7.023
 2214TIP3   OH2 6518   1.725   0.455   3.593
 2214TIP3    H1 6519   1.662   0.508   3.643
 2214TIP3    H2 6520   1.691   0.366   3.599
 2215TIP3   OH2 6521   1.797   6.838   0.900
 2215TIP3    H1 6522   1.827   6.922   0.935
 2215TIP3    H2 6523   1.848   6.826   0.820
 2216TIP3   OH2 6524   6.667   3.129   1.983
 2216TIP3    H1 6525   6.686   3.140   2.076
 2216TIP3    H2 6526   6.574   3.106   1.980
 2217TIP3   OH2 6527   4.559   1.637   6.392
 2217TIP3    H1 6528   4.627   1.677   6.447
 2217TIP3    H2 6529   4.536   1.556   6.438
 2218TIP3   OH2 6530   1.251   6.935   6.269
 2218TIP3    H1 6531   1.253   6.854   6.217
 2218TIP3    H2 6532   1.281   7.003   6.209
 2219TIP3   OH2 6533   2.779   8.108   3.446
 2219TIP3    H1 6534   2.736   8.139   3.366
 2219TIP3    H2 6535   2.866   8.147   3.443
 2220TIP3   OH2 6536   3.526   0.134   2.874
 2220TIP3    H1 6537   3.478   0.213   2.899
 2220TIP3    H2 6538   3.594   0.164   2.814
 2221TIP3   OH2 6539   0.224   3.185   7.274
 2221TIP3    H1 6540   0.136   3.161   7.301
 2221TIP3    H2 6541   0.280   3.157   7.347
 2222TIP3   OH2 6542   8.332   7.434   5.062
 2222TIP3    H1 6543   8.382   7.512   5.087
 2222TIP3    H2 6544   8.259   7.432   5.125
 2223TIP3   OH2 6545   8.935   5.216   5.922
 2223TIP3    H1 6546   8.948   5.130   5.961
 2223TIP3    H2 6547   9.009   5.268   5.952
 2224TIP3   OH2 6548   1.879   7.546   3.647
 2224TIP3    H1 6549   1.859   7.456   3.671
 2224TIP3    H2 6550   1.971   7.558   3.674
 2225TIP3   OH2 6551   1.247   3.035   0.712
 2225TIP3    H1 6552   1.211   3.123   0.702
 2225TIP3    H2 6553   1.175   2.977   0.688
 2226TIP3   OH2 6554   6.823   8.420   3.852
 2226TIP3    H1 6555   6.766   8.395   3.924
 2226TIP3    H2 6556   6.863   8.338   3.823
 2227TIP3   OH2 6557   7.912   4.565   2.842
 2227TIP3    H1 6558   7.891   4.635   2.780
 2227TIP3    H2 6559   7.989   4.598   2.889
 2228TIP3   OH2 6560   2.258   0.053   0.192
 2228TIP3    H1 6561   2.260   0.060   0.097
 2228TIP3    H2 6562   2.172   0.087   0.217
 2229TIP3   OH2 6563   4.968   2.732   5.482
 2229TIP3    H1 6564   4.875   2.720   5.466
 2229TIP3    H2 6565   5.007   2.736   5.395
 2230TIP3   OH2 6566   9.309   7.898   3.764
 2230TIP3    H1 6567   9.344   7.831   3.824
 2230TIP3    H2 6568   9.242   7.851   3.713
 2231TIP3   OH2 6569   8.017   8.513   2.057
 2231TIP3    H1 6570   8.000   8.483   2.146
 2231TIP3    H2 6571   7.963   8.591   2.047
 2232TIP3   OH2 6572   4.775   6.002   1.943
 2232TIP3    H1 6573   4.722   6.053   1.882
 2232TIP3    H2 6574   4.795   5.921   1.896
 2233TIP3   OH2 6575   0.054   0.104   2.195
 2233TIP3    H1 6576   0.099   0.023   2.216
 2233TIP3    H2 6577   0.104   0.172   2.238
 2234TIP3   OH2 6578   6.804   8.881   5.057
 2234TIP3    H1 6579   6.711   8.899   5.041
 2234TIP3    H2 6580   6.850   8.952   5.012
 2235TIP3   OH2 6581   1.004   5.305   6.658
 2235TIP3    H1 6582   1.076   5.325   6.717
 2235TIP3    H2 6583   0.936   5.266   6.714
 2236TIP3   OH2 6584   2.759   8.445   6.008
 2236TIP3    H1 6585   2.774   8.490   6.091
 2236TIP3    H2 6586   2.672   8.408   6.015
 2237TIP3   OH2 6587   4.734   2.142   2.455
 2237TIP3    H1 6588   4.772   2.132   2.542
 2237TIP3    H2 6589   4.640   2.136   2.469
 2238TIP3   OH2 6590   5.568   6.556   0.103
 2238TIP3    H1 6591   5.596   6.549   0.194
 2238TIP3    H2 6592   5.621   6.627   0.067
 2239TIP3   OH2 6593   6.920   1.507   6.015
 2239TIP3    H1 6594   6.905   1.600   5.999
 2239TIP3    H2 6595   7.015   1.497   6.012
 2240TIP3   OH2 6596   0.977   6.763   0.609
 2240TIP3    H1 6597   0.936   6.804   0.685
 2240TIP3    H2 6598   0.990   6.672   0.636
 2241TIP3   OH2 6599   4.508   8.073   2.981
 2241TIP3    H1 6600   4.539   8.092   2.893
 2241TIP3    H2 6601   4.417   8.101   2.982
 2242TIP3   OH2 6602   0.623   7.864   1.455
 2242TIP3    H1 6603   0.687   7.928   1.486
 2242TIP3    H2 6604   0.585   7.904   1.376
 2243TIP3   OH2 6605   6.464   1.990   5.544
 2243TIP3    H1 6606   6.471   1.899   5.513
 2243TIP3    H2 6607   6.512   2.041   5.479
 2244TIP3   OH2 6608   2.984   8.693   3.594
 2244TIP3    H1 6609   3.022   8.670   3.509
 2244TIP3    H2 6610   2.926   8.767   3.575
 2245TIP3   OH2 6611   0.525   4.176   4.563
 2245TIP3    H1 6612   0.539   4.108   4.497
 2245TIP3    H2 6613   0.438   4.158   4.598
 2246TIP3   OH2 6614   5.896   4.612   1.531
 2246TIP3    H1 6615   5.807   4.607   1.566
 2246TIP3    H2 6616   5.906   4.533   1.479
 2247TIP3   OH2 6617   0.918   7.050   2.033
 2247TIP3    H1 6618   0.984   7.119   2.034
 2247TIP3    H2 6619   0.967   6.969   2.016
 2248TIP3   OH2 6620   4.113   3.492   0.291
 2248TIP3    H1 6621   4.080   3.459   0.374
 2248TIP3    H2 6622   4.184   3.431   0.267
 2249TIP3   OH2 6623   4.629   8.874   4.908
 2249TIP3    H1 6624   4.631   8.836   4.996
 2249TIP3    H2 6625   4.548   8.839   4.869
 2250TIP3   OH2 6626   7.095   7.452   0.928
 2250TIP3    H1 6627   7.115   7.490   1.014
 2250TIP3    H2 6628   7.027   7.387   0.946
 2251TIP3   OH2 6629   9.091   7.464   1.976
 2251TIP3    H1 6630   9.081   7.371   1.996
 2251TIP3    H2 6631   9.169   7.491   2.026
 2252TIP3   OH2 6632   7.680   3.660   6.747
 2252TIP3    H1 6633   7.663   3.705   6.664
 2252TIP3    H2 6634   7.739   3.719   6.795
 2253TIP3   OH2 6635   0.823   0.504   6.878
 2253TIP3    H1 6636   0.752   0.443   6.896
 2253TIP3    H2 6637   0.878   0.503   6.956
 2254TIP3   OH2 6638   8.285   4.949   6.257
 2254TIP3    H1 6639   8.194   4.978   6.254
 2254TIP3    H2 6640   8.336   5.024   6.224
 2255TIP3   OH2 6641   2.779   3.628   0.298
 2255TIP3    H1 6642   2.770   3.634   0.203
 2255TIP3    H2 6643   2.782   3.719   0.328
 2256TIP3   OH2 6644   7.955   8.154   0.248
 2256TIP3    H1 6645   7.896   8.212   0.294
 2256TIP3    H2 6646   7.899   8.088   0.207
 2257TIP3   OH2 6647   3.112   8.548   5.480
 2257TIP3    H1 6648   3.085   8.617   5.541
 2257TIP3    H2 6649   3.123   8.593   5.397
 2258TIP3   OH2 6650   4.476   6.390   6.901
 2258TIP3    H1 6651   4.412   6.446   6.857
 2258TIP3    H2 6652   4.500   6.326   6.834
 2259TIP3   OH2 6653   2.678   1.457   5.389
 2259TIP3    H1 6654   2.715   1.374   5.419
 2259TIP3    H2 6655   2.743   1.491   5.327
 2260TIP3   OH2 6656   6.861   5.973   1.410
 2260TIP3    H1 6657   6.823   5.956   1.497
 2260TIP3    H2 6658   6.920   6.047   1.424
 2261TIP3   OH2 6659   2.773   4.486   3.764
 2261TIP3    H1 6660   2.834   4.412   3.773
 2261TIP3    H2 6661   2.729   4.491   3.849
 2262TIP3   OH2 6662   8.769   3.913   6.362
 2262TIP3    H1 6663   8.804   3.950   6.281
 2262TIP3    H2 6664   8.846   3.905   6.420
 2263TIP3   OH2 6665   5.146   6.386   5.316
 2263TIP3    H1 6666   5.231   6.428   5.302
 2263TIP3    H2 6667   5.131   6.394   5.410
 2264TIP3   OH2 6668   5.437   3.825   4.305
 2264TIP3    H1 6669   5.423   3.920   4.313
 2264TIP3    H2 6670   5.526   3.811   4.337
 2265TIP3   OH2 6671   9.512   5.932   0.568
 2265TIP3    H1 6672   9.426   5.911   0.605
 2265TIP3    H2 6673   9.558   5.848   0.565
 2266TIP3   OH2 6674   1.531   1.993   3.553
 2266TIP3    H1 6675   1.535   2.063   3.618
 2266TIP3    H2 6676   1.619   1.990   3.515
 2267TIP3   OH2 6677   7.494   7.791   3.242
 2267TIP3    H1 6678   7.504   7.698   3.222
 2267TIP3    H2 6679   7.536   7.836   3.169
 2268TIP3   OH2 6680   8.416   3.920   3.286
 2268TIP3    H1 6681   8.323   3.901   3.272
 2268TIP3    H2 6682   8.462   3.859   3.228
 2269TIP3   OH2 6683   1.039   1.229   4.345
 2269TIP3    H1 6684   0.958   1.182   4.328
 2269TIP3    H2 6685   1.079   1.182   4.418
 2270TIP3   OH2 6686   0.499   0.096   5.952
 2270TIP3    H1 6687   0.527   0.040   6.024
 2270TIP3    H2 6688   0.550   0.176   5.962
 2271TIP3   OH2 6689   0.626   2.055   7.368
 2271TIP3    H1 6690   0.631   1.984   7.305
 2271TIP3    H2 6691   0.659   2.132   7.320
 2272TIP3   OH2 6692   6.223   4.009   2.234
 2272TIP3    H1 6693   6.177   3.943   2.286
 2272TIP3    H2 6694   6.298   4.033   2.288
 2273TIP3   OH2 6695   5.785   5.389   5.292
 2273TIP3    H1 6696   5.751   5.449   5.359
 2273TIP3    H2 6697   5.718   5.389   5.224
 2274TIP3   OH2 6698   0.713   1.211   5.901
 2274TIP3    H1 6699   0.744   1.300   5.917
 2274TIP3    H2 6700   0.651   1.195   5.971
 2275TIP3   OH2 6701   0.058   1.823   3.838
 2275TIP3    H1 6702   0.087   1.871   3.915
 2275TIP3    H2 6703   0.089   1.876   3.764
 2276TIP3   OH2 6704   8.805   0.373   3.802
 2276TIP3    H1 6705   8.869   0.345   3.736
 2276TIP3    H2 6706   8.750   0.436   3.757
 2277TIP3   OH2 6707   5.188   2.344   0.530
 2277TIP3    H1 6708   5.201   2.418   0.470
 2277TIP3    H2 6709   5.277   2.317   0.554
 2278TIP3   OH2 6710   6.945   4.405   2.088
 2278TIP3    H1 6711   6.888   4.466   2.042
 2278TIP3    H2 6712   6.920   4.412   2.180
 2279TIP3   OH2 6713   9.191   6.365   2.168
 2279TIP3    H1 6714   9.149   6.315   2.097
 2279TIP3    H2 6715   9.135   6.441   2.179
 2280TIP3   OH2 6716   8.481   7.390   6.893
 2280TIP3    H1 6717   8.498   7.473   6.848
 2280TIP3    H2 6718   8.406   7.353   6.846
 2281TIP3   OH2 6719   1.013   1.372   4.970
 2281TIP3    H1 6720   0.944   1.438   4.959
 2281TIP3    H2 6721   1.093   1.417   4.946
 2282TIP3   OH2 6722   5.625   7.061   7.218
 2282TIP3    H1 6723   5.590   7.139   7.262
 2282TIP3    H2 6724   5.568   6.990   7.246
 2283TIP3   OH2 6725   8.605   5.232   0.089
 2283TIP3    H1 6726   8.662   5.292   0.041
 2283TIP3    H2 6727   8.559   5.288   0.151
 2284TIP3   OH2 6728   5.087   3.438   3.335
 2284TIP3    H1 6729   5.048   3.481   3.259
 2284TIP3    H2 6730   5.104   3.510   3.396
 2285TIP3   OH2 6731   4.260   0.623   1.804
 2285TIP3    H1 6732   4.205   0.549   1.777
 2285TIP3    H2 6733   4.208   0.666   1.872
 2286TIP3   OH2 6734   3.315   5.828   3.627
 2286TIP3    H1 6735   3.267   5.771   3.687
 2286TIP3    H2 6736   3.360   5.768   3.568
 2287TIP3   OH2 6737   0.648   3.379   3.425
 2287TIP3    H1 6738   0.696   3.300   3.451
 2287TIP3    H2 6739   0.686   3.404   3.341
 2288TIP3   OH2 6740   5.471   0.398   3.620
 2288TIP3    H1 6741   5.430   0.378   3.536
 2288TIP3    H2 6742   5.402   0.384   3.684
 2289TIP3   OH2 6743   6.322   0.614   1.519
 2289TIP3    H1 6744   6.408   0.601   1.561
 2289TIP3    H2 6745   6.268   0.652   1.588
 2290TIP3   OH2 6746   7.725   4.443   5.553
 2290TIP3    H1 6747   7.701   4.507   5.619
 2290TIP3    H2 6748   7.774   4.492   5.487
 2291TIP3   OH2 6749   8.915   1.484   2.546
 2291TIP3    H1 6750   8.940   1.543   2.617
 2291TIP3    H2 6751   8.940   1.397   2.578
 2292TIP3   OH2 6752   8.813   6.748   4.922
 2292TIP3    H1 6753   8.903   6.717   4.936
 2292TIP3    H2 6754   8.759   6.688   4.975
 2293TIP3   OH2 6755   5.845   4.289   5.116
 2293TIP3    H1 6756   5.823   4.267   5.207
 2293TIP3    H2 6757   5.767   4.264   5.066
 2294TIP3   OH2 6758   2.754   7.083   0.537
 2294TIP3    H1 6759   2.715   7.160   0.495
 2294TIP3    H2 6760   2.679   7.029   0.562
 2295TIP3   OH2 6761   3.442   1.207   4.838
 2295TIP3    H1 6762   3.361   1.257   4.844
 2295TIP3    H2 6763   3.511   1.270   4.858
 2296TIP3   OH2 6764   2.786   4.279   1.284
 2296TIP3    H1 6765   2.781   4.193   1.243
 2296TIP3    H2 6766   2.751   4.266   1.372
 2297TIP3   OH2 6767   1.803   0.537   0.519
 2297TIP3    H1 6768   1.753   0.601   0.571
 2297TIP3    H2 6769   1.760   0.453   0.537
 2298TIP3   OH2 6770   8.337   6.723   1.402
 2298TIP3    H1 6771   8.271   6.776   1.447
 2298TIP3    H2 6772   8.362   6.656   1.466
 2299TIP3   OH2 6773   1.290   1.684   1.302
 2299TIP3    H1 6774   1.255   1.629   1.232
 2299TIP3    H2 6775   1.231   1.760   1.305
 2300TIP3   OH2 6776   8.242   3.306   5.089
 2300TIP3    H1 6777   8.270   3.347   5.170
 2300TIP3    H2 6778   8.153   3.275   5.106
 2301TIP3   OH2 6779   2.520   6.943   0.562
 2301TIP3    H1 6780   2.428   6.967   0.566
 2301TIP3    H2 6781   2.523   6.866   0.505
 2302TIP3   OH2 6782   7.249   2.148   4.322
 2302TIP3    H1 6783   7.289   2.106   4.246
 2302TIP3    H2 6784   7.158   2.162   4.297
 2303TIP3   OH2 6785   0.454   7.326   6.102
 2303TIP3    H1 6786   0.378   7.292   6.148
 2303TIP3    H2 6787   0.419   7.387   6.038
 2304TIP3   OH2 6788   7.716   1.621   3.472
 2304TIP3    H1 6789   7.767   1.560   3.418
 2304TIP3    H2 6790   7.625   1.594   3.459
 2305TIP3   OH2 6791   1.591   7.132   2.061
 2305TIP3    H1 6792   1.667   7.082   2.033
 2305TIP3    H2 6793   1.551   7.079   2.130
 2306TIP3   OH2 6794   9.062   2.941   5.727
 2306TIP3    H1 6795   9.032   2.874   5.789
 2306TIP3    H2 6796   8.981   2.976   5.690
 2307TIP3   OH2 6797   6.311   2.736   5.332
 2307TIP3    H1 6798   6.339   2.663   5.277
 2307TIP3    H2 6799   6.300   2.809   5.270
 2308TIP3   OH2 6800   9.393   4.700   4.222
 2308TIP3    H1 6801   9.412   4.687   4.315
 2308TIP3    H2 6802   9.400   4.794   4.209
 2309TIP3   OH2 6803   1.411   6.524   1.789
 2309TIP3    H1 6804   1.429   6.608   1.831
 2309TIP3    H2 6805   1.409   6.461   1.861
 2310TIP3   OH2 6806   6.755   3.733   4.179
 2310TIP3    H1 6807   6.843   3.762   4.203
 2310TIP3    H2 6808   6.766   3.641   4.155
 2311TIP3   OH2 6809   0.584   0.680   4.135
 2311TIP3    H1 6810   0.571   0.598   4.183
 2311TIP3    H2 6811   0.495   0.706   4.109
 2312TIP3   OH2 6812   0.292   1.576   2.367
 2312TIP3    H1 6813   0.262   1.651   2.316
 2312TIP3    H2 6814   0.356   1.532   2.311
 2313TIP3   OH2 6815   2.259   4.911   2.238
 2313TIP3    H1 6816   2.324   4.868   2.183
 2313TIP3    H2 6817   2.244   4.850   2.310
 2314TIP3   OH2 6818   8.800   5.861   7.046
 2314TIP3    H1 6819   8.864   5.905   6.989
 2314TIP3    H2 6820   8.800   5.770   7.016
 2315TIP3   OH2 6821   3.407   7.580   0.054
 2315TIP3    H1 6822   3.346   7.509   0.074
 2315TIP3    H2 6823   3.365   7.658   0.090
 2316TIP3   OH2 6824   7.292   7.056   4.082
 2316TIP3    H1 6825   7.237   6.984   4.049
 2316TIP3    H2 6826   7.278   7.055   4.176
 2317TIP3   OH2 6827   3.453   7.435   2.013
 2317TIP3    H1 6828   3.368   7.473   1.990
 2317TIP3    H2 6829   3.440   7.396   2.100
 2318TIP3   OH2 6830   3.915   6.584   3.350
 2318TIP3    H1 6831   3.854   6.623   3.288
 2318TIP3    H2 6832   3.898   6.490   3.345
 2319TIP3   OH2 6833   1.793   6.237   3.766
 2319TIP3    H1 6834   1.777   6.268   3.856
 2319TIP3    H2 6835   1.776   6.314   3.712
 2320TIP3   OH2 6836   2.248   1.452   5.410
 2320TIP3    H1 6837   2.308   1.406   5.469
 2320TIP3    H2 6838   2.234   1.537   5.451
 2321TIP3   OH2 6839   8.337   5.621   0.324
 2321TIP3    H1 6840   8.292   5.627   0.407
 2321TIP3    H2 6841   8.274   5.653   0.259
 2322TIP3   OH2 6842   7.126   2.669   7.406
 2322TIP3    H1 6843   7.090   2.730   7.470
 2322TIP3    H2 6844   7.212   2.705   7.385
 2323TIP3   OH2 6845   6.031   5.439   7.637
 2323TIP3    H1 6846   6.044   5.500   7.710
 2323TIP3    H2 6847   5.975   5.371   7.674
 2324TIP3   OH2 6848   2.016   7.485   0.601
 2324TIP3    H1 6849   2.050   7.478   0.691
 2324TIP3    H2 6850   1.923   7.464   0.609
 2325TIP3   OH2 6851   3.657   0.971   7.040
 2325TIP3    H1 6852   3.691   1.031   6.975
 2325TIP3    H2 6853   3.697   0.887   7.018
 2326TIP3   OH2 6854   7.147   3.466   2.903
 2326TIP3    H1 6855   7.066   3.511   2.925
 2326TIP3    H2 6856   7.214   3.510   2.956
 2327TIP3   OH2 6857   1.164   3.837   4.213
 2327TIP3    H1 6858   1.086   3.792   4.246
 2327TIP3    H2 6859   1.230   3.768   4.206
 2328TIP3   OH2 6860   2.863   0.793   1.434
 2328TIP3    H1 6861   2.925   0.779   1.363
 2328TIP3    H2 6862   2.915   0.781   1.514
 2329TIP3   OH2 6863   7.570   1.707   4.577
 2329TIP3    H1 6864   7.474   1.710   4.576
 2329TIP3    H2 6865   7.596   1.734   4.489
 2330TIP3   OH2 6866   4.257   5.240   7.641
 2330TIP3    H1 6867   4.208   5.166   7.676
 2330TIP3    H2 6868   4.347   5.225   7.671
 2331TIP3   OH2 6869   1.270   4.254   5.867
 2331TIP3    H1 6870   1.206   4.294   5.808
 2331TIP3    H2 6871   1.274   4.163   5.838
 2332TIP3   OH2 6872   1.754   0.667   7.125
 2332TIP3    H1 6873   1.686   0.600   7.131
 2332TIP3    H2 6874   1.769   0.696   7.215
 2333TIP3   OH2 6875   6.890   2.919   1.922
 2333TIP3    H1 6876   6.862   2.909   1.831
 2333TIP3    H2 6877   6.819   2.969   1.963
 2334TIP3   OH2 6878   0.967   5.875   6.817
 2334TIP3    H1 6879   1.060   5.870   6.795
 2334TIP3    H2 6880   0.934   5.952   6.770
 2335TIP3   OH2 6881   2.342   4.592   6.098
 2335TIP3    H1 6882   2.327   4.537   6.175
 2335TIP3    H2 6883   2.269   4.654   6.099
 2336TIP3   OH2 6884   7.228   1.078   1.739
 2336TIP3    H1 6885   7.153   1.089   1.680
 2336TIP3    H2 6886   7.192   1.033   1.816
 2337TIP3   OH2 6887   2.530   2.604   3.470
 2337TIP3    H1 6888   2.476   2.575   3.543
 2337TIP3    H2 6889   2.620   2.583   3.496
 2338TIP3   OH2 6890   4.645   0.174   4.936
 2338TIP3    H1 6891   4.626   0.215   4.852
 2338TIP3    H2 6892   4.673   0.246   4.993
 2339TIP3   OH2 6893   2.881   6.395   6.389
 2339TIP3    H1 6894   2.852   6.309   6.418
 2339TIP3    H2 6895   2.922   6.434   6.467
 2340TIP3   OH2 6896   4.773   5.765   1.789
 2340TIP3    H1 6897   4.846   5.760   1.727
 2340TIP3    H2 6898   4.760   5.674   1.818
 2341TIP3   OH2 6899   6.136   3.211   3.848
 2341TIP3    H1 6900   6.113   3.129   3.805
 2341TIP3    H2 6901   6.103   3.279   3.789
 2342TIP3   OH2 6902   6.799   7.938   6.838
 2342TIP3    H1 6903   6.856   8.011   6.814
 2342TIP3    H2 6904   6.762   7.964   6.923
 2343TIP3   OH2 6905   8.408   2.395   1.056
 2343TIP3    H1 6906   8.481   2.454   1.075
 2343TIP3    H2 6907   8.447   2.308   1.058
 2344TIP3   OH2 6908   5.078   5.543   0.991
 2344TIP3    H1 6909   5.114   5.598   0.922
 2344TIP3    H2 6910   5.155   5.511   1.038
 2345TIP3   OH2 6911   3.287   1.593   7.678
 2345TIP3    H1 6912   3.206   1.604   7.727
 2345TIP3    H2 6913   3.288   1.500   7.654
 2346TIP3   OH2 6914   8.949   0.866   3.677
 2346TIP3    H1 6915   8.882   0.845   3.742
 2346TIP3    H2 6916   8.914   0.830   3.595
 2347TIP3   OH2 6917   6.502   4.788   1.902
 2347TIP3    H1 6918   6.580   4.821   1.857
 2347TIP3    H2 6919   6.500   4.836   1.985
 2348TIP3   OH2 6920   9.148   6.167   5.317
 2348TIP3    H1 6921   9.157   6.261   5.299
 2348TIP3    H2 6922   9.080   6.138   5.256
 2349TIP3   OH2 6923   9.367   6.018   6.757
 2349TIP3    H1 6924   9.296   5.955   6.740
 2349TIP3    H2 6925   9.322   6.097   6.788
 2350TIP3   OH2 6926   8.218   4.292   0.546
 2350TIP3    H1 6927   8.192   4.383   0.532
 2350TIP3    H2 6928   8.314   4.293   0.543
 2351TIP3   OH2 6929   2.476   1.355   1.066
 2351TIP3    H1 6930   2.555   1.386   1.021
 2351TIP3    H2 6931   2.420   1.322   0.996
 2352TIP3   OH2 6932   6.852   3.989   6.925
 2352TIP3    H1 6933   6.906   3.935   6.983
 2352TIP3    H2 6934   6.818   3.928   6.860
 2353TIP3   OH2 6935   7.946   4.198   4.921
 2353TIP3    H1 6936   8.040   4.203   4.903
 2353TIP3    H2 6937   7.940   4.202   5.016
 2354TIP3   OH2 6938   6.675   7.067   6.470
 2354TIP3    H1 6939   6.626   7.064   6.387
 2354TIP3    H2 6940   6.611   7.040   6.536
 2355TIP3   OH2 6941   0.215   6.678   5.624
 2355TIP3    H1 6942   0.144   6.729   5.663
 2355TIP3    H2 6943   0.273   6.657   5.697
 2356TIP3   OH2 6944   4.554   3.969   0.781
 2356TIP3    H1 6945   4.604   4.021   0.844
 2356TIP3    H2 6946   4.467   4.009   0.781
 2357TIP3   OH2 6947   0.258   6.285   0.655
 2357TIP3    H1 6948   0.231   6.196   0.676
 2357TIP3    H2 6949   0.340   6.274   0.606
 2358TIP3   OH2 6950   6.314   6.261   1.180
 2358TIP3    H1 6951   6.359   6.342   1.204
 2358TIP3    H2 6952   6.236   6.289   1.133
 2359TIP3   OH2 6953   1.432   4.675   0.656
 2359TIP3    H1 6954   1.459   4.742   0.718
 2359TIP3    H2 6955   1.498   4.677   0.587
 2360TIP3   OH2 6956   9.321   0.439   4.484
 2360TIP3    H1 6957   9.402   0.440   4.434
 2360TIP3    H2 6958   9.260   0.492   4.432
 2361TIP3   OH2 6959   8.121   3.177   5.791
 2361TIP3    H1 6960   8.214   3.162   5.772
 2361TIP3    H2 6961   8.084   3.089   5.800
 2362TIP3   OH2 6962   4.970   1.354   3.906
 2362TIP3    H1 6963   5.048   1.383   3.954
 2362TIP3    H2 6964   4.998   1.354   3.814
 2363TIP3   OH2 6965   8.510   0.007   2.698
 2363TIP3    H1 6966   8.442  -0.015   2.761
 2363TIP3    H2 6967   8.540  -0.077   2.664
 2364TIP3   OH2 6968   5.486   6.119   7.032
 2364TIP3    H1 6969   5.403   6.166   7.024
 2364TIP3    H2 6970   5.475   6.065   7.111
 2365TIP3   OH2 6971   8.712   0.428   2.681
 2365TIP3    H1 6972   8.807   0.432   2.668
 2365TIP3    H2 6973   8.699   0.457   2.772
 2366TIP3   OH2 6974   6.987   7.247   7.029
 2366TIP3    H1 6975   6.898   7.270   7.001
 2366TIP3    H2 6976   7.021   7.328   7.067
 2367TIP3   OH2 6977   1.531   1.621   7.135
 2367TIP3    H1 6978   1.456   1.653   7.085
 2367TIP3    H2 6979   1.607   1.651   7.086
 2368TIP3   OH2 6980   1.264   6.311   2.646
 2368TIP3    H1 6981   1.289   6.314   2.554
 2368TIP3    H2 6982   1.271   6.218   2.669
 2369TIP3   OH2 6983   4.352   2.096   6.801
 2369TIP3    H1 6984   4.294   2.049   6.741
 2369TIP3    H2 6985   4.317   2.076   6.888
 2370TIP3   OH2 6986   4.547   7.197   1.602
 2370TIP3    H1 6987   4.589   7.272   1.644
 2370TIP3    H2 6988   4.495   7.234   1.531
 2371TIP3   OH2 6989   3.855   0.700   2.221
 2371TIP3    H1 6990   3.810   0.620   2.192
 2371TIP3    H2 6991   3.863   0.689   2.316
 2372TIP3   OH2 6992   2.939   2.865   0.287
 2372TIP3    H1 6993   2.969   2.935   0.345
 2372TIP3    H2 6994   2.906   2.797   0.346
 2373TIP3   OH2 6995   7.083   0.541   4.893
 2373TIP3    H1 6996   7.059   0.577   4.978
 2373TIP3    H2 6997   7.093   0.447   4.909
 2374TIP3   OH2 6998   0.584   3.054   2.960
 2374TIP3    H1 6999   0.657   2.992   2.971
 2374TIP3    H2 7000   0.599   3.093   2.874
 2375TIP3   OH2 7001   5.912   7.117   3.184
 2375TIP3    H1 7002   5.855   7.060   3.236
 2375TIP3    H2 7003   5.920   7.196   3.236
 2376TIP3   OH2 7004   4.074   3.284   7.409
 2376TIP3    H1 7005   4.124   3.349   7.361
 2376TIP3    H2 7006   3.993   3.275   7.359
 2377TIP3   OH2 7007   4.856   2.051   4.184
 2377TIP3    H1 7008   4.857   1.973   4.239
 2377TIP3    H2 7009   4.803   2.114   4.232
 2378TIP3   OH2 7010   2.317   6.668   6.554
 2378TIP3    H1 7011   2.353   6.744   6.601
 2378TIP3    H2 7012   2.323   6.692   6.462
 2379TIP3   OH2 7013   0.374   0.317   1.172
 2379TIP3    H1 7014   0.310   0.389   1.176
 2379TIP3    H2 7015   0.458   0.361   1.160
 2380TIP3   OH2 7016   8.203   5.577   3.762
 2380TIP3    H1 7017   8.212   5.494   3.809
 2380TIP3    H2 7018   8.225   5.644   3.827
 2381TIP3   OH2 7019   1.022   6.856   6.858
 2381TIP3    H1 7020   0.930   6.881   6.872
 2381TIP3    H2 7021   1.054   6.918   6.793
 2382TIP3   OH2 7022   1.948   4.793   0.628
 2382TIP3    H1 7023   1.960   4.781   0.722
 2382TIP3    H2 7024   1.854   4.782   0.614
 2383TIP3   OH2 7025   8.871   0.584   6.649
 2383TIP3    H1 7026   8.800   0.603   6.710
 2383TIP3    H2 7027   8.920   0.513   6.691
 2384TIP3   OH2 7028   4.087   5.465   7.640
 2384TIP3    H1 7029   4.098   5.514   7.721
 2384TIP3    H2 7030   4.143   5.388   7.651
 2385TIP3   OH2 7031   3.535   6.947   3.935
 2385TIP3    H1 7032   3.528   6.959   4.029
 2385TIP3    H2 7033   3.445   6.931   3.906
 2386TIP3   OH2 7034   0.532   1.994   1.409
 2386TIP3    H1 7035   0.585   1.982   1.488
 2386TIP3    H2 7036   0.481   2.073   1.426
 2387TIP3   OH2 7037   5.959   2.983   6.924
 2387TIP3    H1 7038   5.897   2.934   6.871
 2387TIP3    H2 7039   5.997   2.918   6.983
 2388TIP3   OH2 7040   7.639   6.600   3.650
 2388TIP3    H1 7041   7.578   6.554   3.592
 2388TIP3    H2 7042   7.720   6.550   3.644
 2389TIP3   OH2 7043   4.659   1.147   3.695
 2389TIP3    H1 7044   4.621   1.233   3.715
 2389TIP3    H2 7045   4.751   1.166   3.675
 2390TIP3   OH2 7046   3.505   2.865   3.098
 2390TIP3    H1 7047   3.452   2.935   3.061
 2390TIP3    H2 7048   3.493   2.874   3.193
 2391TIP3   OH2 7049   3.207   0.450   7.542
 2391TIP3    H1 7050   3.295   0.428   7.572
 2391TIP3    H2 7051   3.178   0.374   7.492
 2392TIP3   OH2 7052   2.964   7.427   7.572
 2392TIP3    H1 7053   3.041   7.442   7.517
 2392TIP3    H2 7054   2.991   7.358   7.632
 2393TIP3   OH2 7055   0.071   2.607   6.458
 2393TIP3    H1 7056   0.006   2.656   6.409
 2393TIP3    H2 7057   0.021   2.539   6.503
 2394TIP3   OH2 7058   7.780   1.007   7.474
 2394TIP3    H1 7059   7.745   0.974   7.556
 2394TIP3    H2 7060   7.710   0.995   7.410
 2395TIP3   OH2 7061   1.868   4.214   7.233
 2395TIP3    H1 7062   1.774   4.205   7.216
 2395TIP3    H2 7063   1.897   4.125   7.253
 2396TIP3   OH2 7064   6.629   4.634   7.072
 2396TIP3    H1 7065   6.723   4.634   7.059
 2396TIP3    H2 7066   6.617   4.603   7.162
 2397TIP3   OH2 7067   6.882   2.020   7.488
 2397TIP3    H1 7068   6.926   1.938   7.465
 2397TIP3    H2 7069   6.916   2.042   7.575
 2398TIP3   OH2 7070   7.478   2.381   2.755
 2398TIP3    H1 7071   7.391   2.383   2.795
 2398TIP3    H2 7072   7.533   2.339   2.821
 2399TIP3   OH2 7073   3.494   5.678   3.182
 2399TIP3    H1 7074   3.408   5.711   3.157
 2399TIP3    H2 7075   3.486   5.583   3.176
 2400TIP3   OH2 7076   6.170   0.241   2.355
 2400TIP3    H1 7077   6.180   0.147   2.367
 2400TIP3    H2 7078   6.221   0.261   2.276
 2401TIP3   OH2 7079   7.169   1.792   0.482
 2401TIP3    H1 7080   7.078   1.787   0.511
 2401TIP3    H2 7081   7.183   1.884   0.460
 2402TIP3   OH2 7082   4.184   1.615   6.560
 2402TIP3    H1 7083   4.159   1.524   6.546
 2402TIP3    H2 7084   4.122   1.666   6.508
 2403TIP3   OH2 7085   3.317   2.743   7.596
 2403TIP3    H1 7086   3.269   2.698   7.526
 2403TIP3    H2 7087   3.348   2.672   7.653
 2404TIP3   OH2 7088   9.290   4.053   3.045
 2404TIP3    H1 7089   9.252   4.054   3.133
 2404TIP3    H2 7090   9.273   3.964   3.013
 2405TIP3   OH2 7091   7.421   7.626   4.980
 2405TIP3    H1 7092   7.485   7.557   4.961
 2405TIP3    H2 7093   7.466   7.682   5.044
 2406TIP3   OH2 7094   1.048   1.792   4.612
 2406TIP3    H1 7095   1.026   1.705   4.579
 2406TIP3    H2 7096   1.068   1.779   4.704
 2407TIP3   OH2 7097   5.367   1.928   6.882
 2407TIP3    H1 7098   5.375   1.850   6.827
 2407TIP3    H2 7099   5.426   1.992   6.841
 2408TIP3   OH2 7100   6.894   1.740   3.055
 2408TIP3    H1 7101   6.931   1.763   3.141
 2408TIP3    H2 7102   6.802   1.768   3.061
 2409TIP3   OH2 7103   0.250   5.488   1.240
 2409TIP3    H1 7104   0.275   5.548   1.170
 2409TIP3    H2 7105   0.270   5.536   1.320
 2410TIP3   OH2 7106   6.222   4.824   0.315
 2410TIP3    H1 7107   6.182   4.769   0.382
 2410TIP3    H2 7108   6.149   4.867   0.271
 2411TIP3   OH2 7109   8.776   4.005   5.399
 2411TIP3    H1 7110   8.715   4.002   5.326
 2411TIP3    H2 7111   8.849   3.950   5.372
 2412TIP3   OH2 7112   1.936   5.980   5.560
 2412TIP3    H1 7113   1.926   5.903   5.505
 2412TIP3    H2 7114   1.947   6.052   5.498
 2413TIP3   OH2 7115   6.938   7.572   0.429
 2413TIP3    H1 7116   6.913   7.661   0.408
 2413TIP3    H2 7117   7.014   7.581   0.487
 2414TIP3   OH2 7118   6.703   5.504   3.993
 2414TIP3    H1 7119   6.711   5.556   3.914
 2414TIP3    H2 7120   6.622   5.454   3.981
 2415TIP3   OH2 7121   4.877   4.501   3.925
 2415TIP3    H1 7122   4.805   4.448   3.890
 2415TIP3    H2 7123   4.944   4.497   3.856
 2416TIP3   OH2 7124   4.418   4.707   0.972
 2416TIP3    H1 7125   4.328   4.731   0.997
 2416TIP3    H2 7126   4.468   4.711   1.053
 2417TIP3   OH2 7127   7.764   1.148   5.106
 2417TIP3    H1 7128   7.724   1.076   5.154
 2417TIP3    H2 7129   7.845   1.112   5.070
 2418TIP3   OH2 7130   7.236   2.816   6.059
 2418TIP3    H1 7131   7.288   2.887   6.097
 2418TIP3    H2 7132   7.297   2.742   6.052
 2419TIP3   OH2 7133   7.144   2.387   4.510
 2419TIP3    H1 7134   7.183   2.463   4.468
 2419TIP3    H2 7135   7.081   2.354   4.446
 2420TIP3   OH2 7136   2.960   0.081   3.900
 2420TIP3    H1 7137   2.955  -0.006   3.939
 2420TIP3    H2 7138   2.893   0.131   3.947
 2421TIP3   OH2 7139   6.026   3.630   3.904
 2421TIP3    H1 7140   6.027   3.723   3.883
 2421TIP3    H2 7141   6.118   3.603   3.896
 2422TIP3   OH2 7142   1.157   3.124   1.123
 2422TIP3    H1 7143   1.229   3.063   1.107
 2422TIP3    H2 7144   1.122   3.143   1.036
 2423TIP3   OH2 7145   0.416   2.050   5.394
 2423TIP3    H1 7146   0.436   2.047   5.301
 2423TIP3    H2 7147   0.497   2.022   5.437
 2424TIP3   OH2 7148   0.097   1.899   1.165
 2424TIP3    H1 7149   0.042   1.843   1.220
 2424TIP3    H2 7150   0.061   1.887   1.077
 2425TIP3   OH2 7151   7.482   1.112   4.612
 2425TIP3    H1 7152   7.414   1.172   4.582
 2425TIP3    H2 7153   7.444   1.025   4.601
 2426TIP3   OH2 7154   2.521   2.465   1.824
 2426TIP3    H1 7155   2.429   2.489   1.811
 2426TIP3    H2 7156   2.570   2.528   1.770
 2427TIP3   OH2 7157   8.153   2.386   5.247
 2427TIP3    H1 7158   8.128   2.445   5.318
 2427TIP3    H2 7159   8.170   2.302   5.291
 2428TIP3   OH2 7160   0.869   3.168   0.653
 2428TIP3    H1 7161   0.863   3.091   0.597
 2428TIP3    H2 7162   0.889   3.240   0.593
 2429TIP3   OH2 7163   4.772   4.211   6.832
 2429TIP3    H1 7164   4.772   4.305   6.846
 2429TIP3    H2 7165   4.740   4.173   6.914
 2430TIP3   OH2 7166   3.113   1.413   1.099
 2430TIP3    H1 7167   3.047   1.475   1.131
 2430TIP3    H2 7168   3.154   1.457   1.025
 2431TIP3   OH2 7169   0.496   0.421   4.204
 2431TIP3    H1 7170   0.530   0.336   4.175
 2431TIP3    H2 7171   0.404   0.420   4.177
 2432TIP3   OH2 7172   6.091   8.340   7.201
 2432TIP3    H1 7173   6.093   8.266   7.262
 2432TIP3    H2 7174   6.143   8.310   7.126
 2433TIP3   OH2 7175   3.974   3.805   4.841
 2433TIP3    H1 7176   4.046   3.799   4.904
 2433TIP3    H2 7177   3.896   3.817   4.894
 2434TIP3   OH2 7178   1.087   2.994   5.048
 2434TIP3    H1 7179   1.132   3.077   5.061
 2434TIP3    H2 7180   1.144   2.929   5.089
 2435TIP3   OH2 7181   8.256   6.385   1.817
 2435TIP3    H1 7182   8.196   6.361   1.746
 2435TIP3    H2 7183   8.231   6.327   1.889
 2436TIP3   OH2 7184   2.181   5.047   7.431
 2436TIP3    H1 7185   2.128   5.026   7.507
 2436TIP3    H2 7186   2.255   4.986   7.436
 2437TIP3   OH2 7187   5.774   7.889   4.311
 2437TIP3    H1 7188   5.683   7.900   4.339
 2437TIP3    H2 7189   5.813   7.976   4.321
 2438TIP3   OH2 7190   2.414   1.277   7.529
 2438TIP3    H1 7191   2.394   1.358   7.575
 2438TIP3    H2 7192   2.509   1.279   7.517
 2439TIP3   OH2 7193   0.870   4.217   2.431
 2439TIP3    H1 7194   0.957   4.198   2.396
 2439TIP3    H2 7195   0.820   4.137   2.416
 2440TIP3   OH2 7196   5.400   5.437   7.173
 2440TIP3    H1 7197   5.403   5.360   7.116
 2440TIP3    H2 7198   5.458   5.500   7.130
 2441TIP3   OH2 7199   4.979   6.058   4.241
 2441TIP3    H1 7200   4.984   6.023   4.152
 2441TIP3    H2 7201   5.056   6.114   4.249
 2442TIP3   OH2 7202   2.914   2.706   0.986
 2442TIP3    H1 7203   2.993   2.743   0.948
 2442TIP3    H2 7204   2.924   2.612   0.978
 2443TIP3   OH2 7205   2.451   1.284   6.938
 2443TIP3    H1 7206   2.466   1.220   7.008
 2443TIP3    H2 7207   2.408   1.358   6.982
 2444TIP3   OH2 7208   1.197   3.228   6.787
 2444TIP3    H1 7209   1.140   3.196   6.716
 2444TIP3    H2 7210   1.257   3.289   6.743
 2445TIP3   OH2 7211   9.219   1.056   5.533
 2445TIP3    H1 7212   9.202   1.097   5.617
 2445TIP3    H2 7213   9.267   0.976   5.554
 2446TIP3   OH2 7214   2.892   4.545   6.054
 2446TIP3    H1 7215   2.870   4.501   5.972
 2446TIP3    H2 7216   2.986   4.528   6.066
 2447TIP3   OH2 7217   4.926   1.073   1.033
 2447TIP3    H1 7218   4.910   1.095   1.125
 2447TIP3    H2 7219   4.876   0.992   1.020
 2448TIP3   OH2 7220   8.123   5.114   3.102
 2448TIP3    H1 7221   8.114   5.099   3.008
 2448TIP3    H2 7222   8.042   5.158   3.128
 2449TIP3   OH2 7223   8.315   0.493   3.393
 2449TIP3    H1 7224   8.268   0.576   3.383
 2449TIP3    H2 7225   8.408   0.518   3.388
 2450TIP3   OH2 7226   4.195   5.003   6.070
 2450TIP3    H1 7227   4.130   4.984   6.138
 2450TIP3    H2 7228   4.154   4.973   5.988
 2451TIP3   OH2 7229   7.779   5.563   7.265
 2451TIP3    H1 7230   7.842   5.628   7.295
 2451TIP3    H2 7231   7.790   5.489   7.325
 2452TIP3   OH2 7232   6.700   2.861   2.240
 2452TIP3    H1 7233   6.690   2.767   2.256
 2452TIP3    H2 7234   6.793   2.879   2.257
 2453TIP3   OH2 7235   7.344   5.676   1.888
 2453TIP3    H1 7236   7.419   5.716   1.845
 2453TIP3    H2 7237   7.276   5.673   1.820
 2454TIP3   OH2 7238   9.280   3.709   6.007
 2454TIP3    H1 7239   9.334   3.760   5.946
 2454TIP3    H2 7240   9.323   3.624   6.011
 2455TIP3   OH2 7241   9.474   3.740   7.321
 2455TIP3    H1 7242   9.472   3.670   7.256
 2455TIP3    H2 7243   9.443   3.818   7.273
 2456TIP3   OH2 7244   0.619   4.630   7.119
 2456TIP3    H1 7245   0.661   4.545   7.131
 2456TIP3    H2 7246   0.688   4.693   7.139
 2457TIP3   OH2 7247   0.104   3.754   4.274
 2457TIP3    H1 7248   0.127   3.755   4.367
 2457TIP3    H2 7249   0.165   3.691   4.235
 2458TIP3   OH2 7250   7.776   0.083   5.747
 2458TIP3    H1 7251   7.763   0.104   5.655
 2458TIP3    H2 7252   7.796  -0.010   5.748
 2459TIP3   OH2 7253   5.889   5.261   0.709
 2459TIP3    H1 7254   5.830   5.247   0.784
 2459TIP3    H2 7255   5.966   5.207   0.729
 2460TIP3   OH2 7256   4.767   1.698   1.759
 2460TIP3    H1 7257   4.750   1.610   1.792
 2460TIP3    H2 7258   4.842   1.728   1.810
 2461TIP3   OH2 7259   5.707   4.112   1.828
 2461TIP3    H1 7260   5.770   4.144   1.892
 2461TIP3    H2 7261   5.622   4.124   1.871
 2462TIP3   OH2 7262   6.449   0.113   6.055
 2462TIP3    H1 7263   6.527   0.086   6.104
 2462TIP3    H2 7264   6.376   0.072   6.102
 2463TIP3   OH2 7265   5.171   0.277   1.185
 2463TIP3    H1 7266   5.086   0.297   1.224
 2463TIP3    H2 7267   5.167   0.315   1.097
 2464TIP3   OH2 7268   1.080   3.989   5.860
 2464TIP3    H1 7269   1.152   4.015   5.803
 2464TIP3    H2 7270   1.042   3.912   5.818
 2465TIP3   OH2 7271   0.113   3.937   7.620
 2465TIP3    H1 7272   0.044   4.004   7.614
 2465TIP3    H2 7273   0.186   3.973   7.570
 2466TIP3   OH2 7274   8.537   3.943   5.898
 2466TIP3    H1 7275   8.489   3.860   5.900
 2466TIP3    H2 7276   8.470   4.010   5.883
 2467TIP3   OH2 7277   8.207   0.693   5.371
 2467TIP3    H1 7278   8.245   0.623   5.423
 2467TIP3    H2 7279   8.283   0.743   5.340
 2468TIP3   OH2 7280   6.852   3.921   3.949
 2468TIP3    H1 7281   6.827   3.952   3.861
 2468TIP3    H2 7282   6.769   3.917   3.997
 2469TIP3   OH2 7283   5.163   1.669   2.583
 2469TIP3    H1 7284   5.184   1.582   2.549
 2469TIP3    H2 7285   5.119   1.713   2.511
 2470TIP3   OH2 7286   9.298   7.170   5.390
 2470TIP3    H1 7287   9.301   7.075   5.380
 2470TIP3    H2 7288   9.303   7.205   5.301
 2471TIP3   OH2 7289   8.699   0.098   3.844
 2471TIP3    H1 7290   8.679   0.026   3.785
 2471TIP3    H2 7291   8.737   0.165   3.788
 2472TIP3   OH2 7292   9.297   0.873   6.069
 2472TIP3    H1 7293   9.222   0.831   6.111
 2472TIP3    H2 7294   9.365   0.806   6.070
 2473TIP3   OH2 7295   3.603   3.800   5.258
 2473TIP3    H1 7296   3.571   3.839   5.339
 2473TIP3    H2 7297   3.527   3.752   5.223
 2474TIP3   OH2 7298   1.684   4.510   6.836
 2474TIP3    H1 7299   1.647   4.492   6.922
 2474TIP3    H2 7300   1.619   4.477   6.774
 2475TIP3   OH2 7301   7.166   3.978   3.225
 2475TIP3    H1 7302   7.218   3.899   3.213
 2475TIP3    H2 7303   7.231   4.048   3.235
 2476TIP3   OH2 7304   3.823   7.588   4.873
 2476TIP3    H1 7305   3.884   7.523   4.906
 2476TIP3    H2 7306   3.877   7.666   4.857
 2477TIP3   OH2 7307   5.488   5.258   3.462
 2477TIP3    H1 7308   5.493   5.252   3.366
 2477TIP3    H2 7309   5.548   5.329   3.485
 2478TIP3   OH2 7310   2.513   7.085   7.574
 2478TIP3    H1 7311   2.483   7.077   7.664
 2478TIP3    H2 7312   2.558   7.169   7.571
 2479TIP3   OH2 7313   9.420   3.155   4.201
 2479TIP3    H1 7314   9.408   3.171   4.108
 2479TIP3    H2 7315   9.445   3.063   4.207
 2480TIP3   OH2 7316   5.021   5.712   7.413
 2480TIP3    H1 7317   5.083   5.688   7.345
 2480TIP3    H2 7318   4.948   5.753   7.367
 2481TIP3   OH2 7319   3.775   4.558   7.639
 2481TIP3    H1 7320   3.829   4.521   7.568
 2481TIP3    H2 7321   3.695   4.506   7.637
 2482TIP3   OH2 7322   8.450   6.053   0.051
 2482TIP3    H1 7323   8.465   6.144   0.027
 2482TIP3    H2 7324   8.371   6.054   0.105
 2483TIP3   OH2 7325   4.988   7.433   5.458
 2483TIP3    H1 7326   4.999   7.447   5.552
 2483TIP3    H2 7327   4.960   7.342   5.450
 2484TIP3   OH2 7328   0.628   4.736   6.044
 2484TIP3    H1 7329   0.534   4.751   6.055
 2484TIP3    H2 7330   0.659   4.714   6.132
 2485TIP3   OH2 7331   2.873   8.371   0.124
 2485TIP3    H1 7332   2.924   8.312   0.068
 2485TIP3    H2 7333   2.831   8.314   0.188
 2486TIP3   OH2 7334   5.076   2.070   5.429
 2486TIP3    H1 7335   5.147   2.093   5.488
 2486TIP3    H2 7336   5.048   2.153   5.391
 2487TIP3   OH2 7337   4.012   0.911   1.768
 2487TIP3    H1 7338   3.973   0.872   1.846
 2487TIP3    H2 7339   4.102   0.878   1.767
 2488TIP3   OH2 7340   4.875   7.177   5.507
 2488TIP3    H1 7341   4.845   7.187   5.597
 2488TIP3    H2 7342   4.957   7.128   5.514
 2489TIP3   OH2 7343   5.064   7.918   6.250
 2489TIP3    H1 7344   5.152   7.950   6.272
 2489TIP3    H2 7345   5.012   7.998   6.239
 2490TIP3   OH2 7346   2.640   5.341   0.983
 2490TIP3    H1 7347   2.660   5.265   0.928
 2490TIP3    H2 7348   2.605   5.302   1.064
 2491TIP3   OH2 7349   7.106   0.890   2.199
 2491TIP3    H1 7350   7.185   0.942   2.210
 2491TIP3    H2 7351   7.067   0.885   2.286
 2492TIP3   OH2 7352   5.528   2.486   4.817
 2492TIP3    H1 7353   5.586   2.528   4.880
 2492TIP3    H2 7354   5.496   2.408   4.862
 2493TIP3   OH2 7355   0.507   6.723   1.221
 2493TIP3    H1 7356   0.450   6.705   1.146
 2493TIP3    H2 7357   0.507   6.641   1.271
 2494TIP3   OH2 7358   4.796   4.970   4.651
 2494TIP3    H1 7359   4.730   5.038   4.661
 2494TIP3    H2 7360   4.790   4.944   4.559
 2495TIP3   OH2 7361   7.305   4.053   3.686
 2495TIP3    H1 7362   7.275   4.143   3.694
 2495TIP3    H2 7363   7.242   4.002   3.737
 2496TIP3   OH2 7364   3.063   5.609   0.625
 2496TIP3    H1 7365   3.112   5.629   0.545
 2496TIP3    H2 7366   2.978   5.579   0.592
 2497TIP3   OH2 7367   0.034   8.561   6.304
 2497TIP3    H1 7368  -0.039   8.503   6.281
 2497TIP3    H2 7369   0.088   8.509   6.365
 2498TIP3   OH2 7370   1.692   2.486   1.908
 2498TIP3    H1 7371   1.782   2.497   1.876
 2498TIP3    H2 7372   1.638   2.526   1.841
 2499TIP3   OH2 7373   2.171   3.307   1.012
 2499TIP3    H1 7374   2.130   3.233   1.056
 2499TIP3    H2 7375   2.249   3.271   0.970
 2500TIP3   OH2 7376   0.648   2.340   7.355
 2500TIP3    H1 7377   0.735   2.326   7.318
 2500TIP3    H2 7378   0.659   2.410   7.418
 2501TIP3   OH2 7379   9.106   4.772   5.041
 2501TIP3    H1 7380   9.065   4.807   5.120
 2501TIP3    H2 7381   9.126   4.681   5.062
 2502TIP3   OH2 7382   6.648   6.121   5.156
 2502TIP3    H1 7383   6.612   6.186   5.217
 2502TIP3    H2 7384   6.642   6.163   5.070
 2503TIP3   OH2 7385   3.644   3.529   3.684
 2503TIP3    H1 7386   3.722   3.558   3.636
 2503TIP3    H2 7387   3.676   3.460   3.742
 2504TIP3   OH2 7388   7.557   5.909   2.965
 2504TIP3    H1 7389   7.523   5.974   3.026
 2504TIP3    H2 7390   7.546   5.950   2.879
 2505TIP3   OH2 7391   9.239   8.010   2.994
 2505TIP3    H1 7392   9.201   8.018   3.082
 2505TIP3    H2 7393   9.179   8.057   2.937
 2506TIP3   OH2 7394   0.357   4.061   3.375
 2506TIP3    H1 7395   0.405   3.994   3.422
 2506TIP3    H2 7396   0.276   4.018   3.346
 2507TIP3   OH2 7397   7.943   7.547   1.470
 2507TIP3    H1 7398   7.931   7.461   1.430
 2507TIP3    H2 7399   7.932   7.609   1.398
 2508TIP3   OH2 7400   8.255   8.813   5.412
 2508TIP3    H1 7401   8.174   8.864   5.420
 2508TIP3    H2 7402   8.318   8.875   5.376
 2509TIP3   OH2 7403   6.322   1.423   7.170
 2509TIP3    H1 7404   6.329   1.458   7.081
 2509TIP3    H2 7405   6.228   1.422   7.188
 2510TIP3   OH2 7406   8.036   3.766   1.043
 2510TIP3    H1 7407   8.097   3.839   1.028
 2510TIP3    H2 7408   7.950   3.802   1.020
 2511TIP3   OH2 7409   1.375   2.377   1.294
 2511TIP3    H1 7410   1.303   2.315   1.282
 2511TIP3    H2 7411   1.422   2.375   1.210
 2512TIP3   OH2 7412   5.643   2.423   0.640
 2512TIP3    H1 7413   5.602   2.505   0.668
 2512TIP3    H2 7414   5.576   2.380   0.587
 2513TIP3   OH2 7415   1.589   2.288   2.984
 2513TIP3    H1 7416   1.542   2.299   2.901
 2513TIP3    H2 7417   1.644   2.366   2.990
 2514TIP3   OH2 7418   3.905   0.592   3.594
 2514TIP3    H1 7419   3.955   0.553   3.666
 2514TIP3    H2 7420   3.848   0.522   3.563
 2515TIP3   OH2 7421   7.892   2.770   3.356
 2515TIP3    H1 7422   7.985   2.761   3.337
 2515TIP3    H2 7423   7.886   2.768   3.452
 2516TIP3   OH2 7424   0.351   1.773   4.044
 2516TIP3    H1 7425   0.293   1.718   3.992
 2516TIP3    H2 7426   0.404   1.819   3.979
 2517TIP3   OH2 7427   9.255   6.120   4.786
 2517TIP3    H1 7428   9.308   6.141   4.709
 2517TIP3    H2 7429   9.264   6.196   4.843
 2518TIP3   OH2 7430   8.775   4.075   0.106
 2518TIP3    H1 7431   8.867   4.054   0.122
 2518TIP3    H2 7432   8.726   4.010   0.157
 2519TIP3   OH2 7433   3.851   2.930   1.529
 2519TIP3    H1 7434   3.910   3.004   1.517
 2519TIP3    H2 7435   3.766   2.962   1.496
 2520TIP3   OH2 7436   5.430   1.680   1.275
 2520TIP3    H1 7437   5.455   1.595   1.311
 2520TIP3    H2 7438   5.436   1.668   1.180
 2521TIP3   OH2 7439   4.268   2.574   7.443
 2521TIP3    H1 7440   4.351   2.621   7.443
 2521TIP3    H2 7441   4.253   2.553   7.351
 2522TIP3   OH2 7442   0.170   5.487   4.944
 2522TIP3    H1 7443   0.262   5.466   4.956
 2522TIP3    H2 7444   0.157   5.567   4.996
 2523TIP3   OH2 7445   4.500   5.269   3.098
 2523TIP3    H1 7446   4.590   5.290   3.126
 2523TIP3    H2 7447   4.512   5.215   3.020
 2524TIP3   OH2 7448   7.739   6.387   6.138
 2524TIP3    H1 7449   7.683   6.380   6.216
 2524TIP3    H2 7450   7.702   6.325   6.076
 2525TIP3   OH2 7451   5.884   7.710   5.375
 2525TIP3    H1 7452   5.802   7.677   5.338
 2525TIP3    H2 7453   5.886   7.802   5.351
 2526TIP3   OH2 7454   3.728   1.093   3.593
 2526TIP3    H1 7455   3.634   1.073   3.594
 2526TIP3    H2 7456   3.734   1.181   3.630
 2527TIP3   OH2 7457   2.957   7.502   3.717
 2527TIP3    H1 7458   3.010   7.573   3.753
 2527TIP3    H2 7459   2.943   7.443   3.791
 2528TIP3   OH2 7460   9.483   6.589   3.480
 2528TIP3    H1 7461   9.538   6.584   3.559
 2528TIP3    H2 7462   9.396   6.561   3.510
 2529TIP3   OH2 7463   8.942   3.064   6.972
 2529TIP3    H1 7464   8.997   3.028   7.043
 2529TIP3    H2 7465   8.869   3.004   6.965
 2530TIP3   OH2 7466   8.765   0.993   4.115
 2530TIP3    H1 7467   8.669   0.987   4.111
 2530TIP3    H2 7468   8.783   1.087   4.105
 2531TIP3   OH2 7469   1.861   6.646   6.516
 2531TIP3    H1 7470   1.827   6.671   6.430
 2531TIP3    H2 7471   1.823   6.711   6.576
 2532TIP3   OH2 7472   3.239   3.647   3.687
 2532TIP3    H1 7473   3.318   3.701   3.694
 2532TIP3    H2 7474   3.193   3.682   3.610
 2533TIP3   OH2 7475   0.761   1.860   6.919
 2533TIP3    H1 7476   0.854   1.850   6.937
 2533TIP3    H2 7477   0.719   1.785   6.962
 2534TIP3   OH2 7478   9.159   4.506   3.885
 2534TIP3    H1 7479   9.233   4.506   3.825
 2534TIP3    H2 7480   9.084   4.529   3.831
 2535TIP3   OH2 7481   2.901   7.664   6.607
 2535TIP3    H1 7482   2.834   7.619   6.556
 2535TIP3    H2 7483   2.893   7.756   6.582
 2536TIP3   OH2 7484   8.853   7.682   3.510
 2536TIP3    H1 7485   8.941   7.673   3.474
 2536TIP3    H2 7486   8.835   7.597   3.551
 2537TIP3   OH2 7487   4.411   0.705   0.844
 2537TIP3    H1 7488   4.504   0.682   0.849
 2537TIP3    H2 7489   4.409   0.784   0.790
 2538TIP3   OH2 7490   6.545   7.796   3.872
 2538TIP3    H1 7491   6.572   7.704   3.875
 2538TIP3    H2 7492   6.450   7.793   3.873
 2539TIP3   OH2 7493   7.987   7.157   2.359
 2539TIP3    H1 7494   7.935   7.093   2.310
 2539TIP3    H2 7495   8.034   7.206   2.291
 2540TIP3   OH2 7496   3.010   1.144   2.012
 2540TIP3    H1 7497   3.105   1.138   2.016
 2540TIP3    H2 7498   2.992   1.179   1.925
 2541TIP3   OH2 7499   2.490   7.778   4.719
 2541TIP3    H1 7500   2.510   7.684   4.725
 2541TIP3    H2 7501   2.406   7.782   4.673
 2542TIP3   OH2 7502   5.903   1.592   0.903
 2542TIP3    H1 7503   5.955   1.525   0.858
 2542TIP3    H2 7504   5.881   1.553   0.987
 2543TIP3   OH2 7505   5.986   7.139   3.731
 2543TIP3    H1 7506   6.059   7.123   3.671
 2543TIP3    H2 7507   5.969   7.233   3.723
 2544TIP3   OH2 7508   6.603   3.481   6.573
 2544TIP3    H1 7509   6.585   3.390   6.550
 2544TIP3    H2 7510   6.683   3.477   6.626
 2545TIP3   OH2 7511   2.330   6.092   4.028
 2545TIP3    H1 7512   2.251   6.038   4.036
 2545TIP3    H2 7513   2.400   6.036   4.061
 2546TIP3   OH2 7514   5.426   5.209   5.310
 2546TIP3    H1 7515   5.479   5.264   5.252
 2546TIP3    H2 7516   5.462   5.223   5.397
 2547TIP3   OH2 7517   2.916   2.946   4.563
 2547TIP3    H1 7518   2.827   2.948   4.599
 2547TIP3    H2 7519   2.921   2.864   4.516
 2548TIP3   OH2 7520   8.465   6.869   0.267
 2548TIP3    H1 7521   8.434   6.783   0.237
 2548TIP3    H2 7522   8.421   6.882   0.351
 2549TIP3   OH2 7523   2.035   2.039   6.060
 2549TIP3    H1 7524   2.109   2.047   5.999
 2549TIP3    H2 7525   1.961   2.015   6.005
 2550TIP3   OH2 7526   2.463   1.704   3.753
 2550TIP3    H1 7527   2.547   1.665   3.730
 2550TIP3    H2 7528   2.485   1.788   3.793
 2551TIP3   OH2 7529   4.864   5.821   7.230
 2551TIP3    H1 7530   4.870   5.791   7.139
 2551TIP3    H2 7531   4.770   5.827   7.247
 2552TIP3   OH2 7532   2.812   1.193   7.670
 2552TIP3    H1 7533   2.746   1.126   7.652
 2552TIP3    H2 7534   2.812   1.248   7.591
 2553TIP3   OH2 7535   3.214   4.588   2.850
 2553TIP3    H1 7536   3.224   4.683   2.861
 2553TIP3    H2 7537   3.297   4.561   2.809
 2554TIP3   OH2 7538   5.644   7.934   2.812
 2554TIP3    H1 7539   5.668   7.846   2.783
 2554TIP3    H2 7540   5.557   7.948   2.774
 2555TIP3   OH2 7541   4.482   2.576   7.239
 2555TIP3    H1 7542   4.492   2.594   7.145
 2555TIP3    H2 7543   4.471   2.663   7.278
 2556TIP3   OH2 7544   1.268   3.659   2.542
 2556TIP3    H1 7545   1.193   3.709   2.576
 2556TIP3    H2 7546   1.228   3.588   2.491
 2557TIP3   OH2 7547   3.226   0.028   7.300
 2557TIP3    H1 7548   3.250  -0.015   7.218
 2557TIP3    H2 7549   3.293  -0.000   7.362
 2558TIP3   OH2 7550   1.130   8.553   3.860
 2558TIP3    H1 7551   1.154   8.469   3.899
 2558TIP3    H2 7552   1.196   8.615   3.892
 2559TIP3   OH2 7553   7.709   2.882   5.153
 2559TIP3    H1 7554   7.799   2.896   5.183
 2559TIP3    H2 7555   7.708   2.792   5.120
 2560TIP3   OH2 7556   5.053   2.623   7.800
 2560TIP3    H1 7557   4.976   2.636   7.745
 2560TIP3    H2 7558   5.042   2.684   7.873
 2561TIP3   OH2 7559   8.548   0.758   6.391
 2561TIP3    H1 7560   8.468   0.790   6.349
 2561TIP3    H2 7561   8.566   0.675   6.349
 2562TIP3   OH2 7562   2.869   1.255   5.478
 2562TIP3    H1 7563   2.908   1.209   5.404
 2562TIP3    H2 7564   2.895   1.203   5.554
 2563TIP3   OH2 7565   8.226   3.373   3.374
 2563TIP3    H1 7566   8.279   3.388   3.453
 2563TIP3    H2 7567   8.269   3.426   3.307
 2564TIP3   OH2 7568   7.145   1.517   0.296
 2564TIP3    H1 7569   7.103   1.460   0.360
 2564TIP3    H2 7570   7.148   1.603   0.339
 2565TIP3   OH2 7571   5.584   2.714   0.206
 2565TIP3    H1 7572   5.656   2.776   0.208
 2565TIP3    H2 7573   5.515   2.758   0.155
 2566TIP3   OH2 7574   6.464   1.189   3.472
 2566TIP3    H1 7575   6.498   1.278   3.458
 2566TIP3    H2 7576   6.523   1.151   3.537
 2567TIP3   OH2 7577   8.142   8.437   7.764
 2567TIP3    H1 7578   8.112   8.526   7.747
 2567TIP3    H2 7579   8.111   8.386   7.689
 2568TIP3   OH2 7580   7.262   1.629   2.229
 2568TIP3    H1 7581   7.303   1.709   2.195
 2568TIP3    H2 7582   7.172   1.655   2.250
 2569TIP3   OH2 7583   3.332   8.018   5.622
 2569TIP3    H1 7584   3.276   7.943   5.640
 2569TIP3    H2 7585   3.272   8.086   5.591
 2570TIP3   OH2 7586   2.014   6.373   6.113
 2570TIP3    H1 7587   1.942   6.434   6.128
 2570TIP3    H2 7588   2.027   6.331   6.198
 2571TIP3   OH2 7589   8.314   6.319   0.296
 2571TIP3    H1 7590   8.241   6.324   0.358
 2571TIP3    H2 7591   8.373   6.253   0.332
 2572TIP3   OH2 7592   3.752   2.774   2.820
 2572TIP3    H1 7593   3.718   2.857   2.787
 2572TIP3    H2 7594   3.684   2.710   2.801
 2573TIP3   OH2 7595   6.085   2.341   3.819
 2573TIP3    H1 7596   6.014   2.371   3.876
 2573TIP3    H2 7597   6.144   2.294   3.877
 2574TIP3   OH2 7598   2.663   6.476   3.630
 2574TIP3    H1 7599   2.740   6.532   3.628
 2574TIP3    H2 7600   2.652   6.453   3.722
 2575TIP3   OH2 7601   3.586   3.998   2.643
 2575TIP3    H1 7602   3.585   3.994   2.547
 2575TIP3    H2 7603   3.616   3.912   2.670
 2576TIP3   OH2 7604   3.881   2.298   5.591
 2576TIP3    H1 7605   3.907   2.235   5.659
 2576TIP3    H2 7606   3.878   2.382   5.636
 2577TIP3   OH2 7607   8.181   0.483   5.977
 2577TIP3    H1 7608   8.257   0.508   6.030
 2577TIP3    H2 7609   8.112   0.542   6.004
 2578TIP3   OH2 7610   1.095   2.615   3.530
 2578TIP3    H1 7611   1.049   2.538   3.496
 2578TIP3    H2 7612   1.032   2.686   3.519
 2579TIP3   OH2 7613   8.652   5.149   3.146
 2579TIP3    H1 7614   8.711   5.206   3.096
 2579TIP3    H2 7615   8.577   5.204   3.166
 2580TIP3   OH2 7616   3.886   8.054   1.504
 2580TIP3    H1 7617   3.874   8.089   1.593
 2580TIP3    H2 7618   3.890   7.959   1.516
 2581TIP3   OH2 7619   5.367   3.540   1.473
 2581TIP3    H1 7620   5.298   3.516   1.535
 2581TIP3    H2 7621   5.448   3.508   1.513
 2582TIP3   OH2 7622   5.947   0.911   3.642
 2582TIP3    H1 7623   5.904   0.996   3.648
 2582TIP3    H2 7624   5.981   0.895   3.731
 2583TIP3   OH2 7625   9.231   0.878   7.446
 2583TIP3    H1 7626   9.235   0.874   7.542
 2583TIP3    H2 7627   9.313   0.919   7.420
 2584TIP3   OH2 7628   0.961   6.161   3.608
 2584TIP3    H1 7629   0.985   6.073   3.638
 2584TIP3    H2 7630   0.867   6.156   3.591
 2585TIP3   OH2 7631   6.847   1.925   0.689
 2585TIP3    H1 7632   6.887   1.867   0.625
 2585TIP3    H2 7633   6.915   1.942   0.754
 2586TIP3   OH2 7634   1.210   8.692   7.072
 2586TIP3    H1 7635   1.302   8.720   7.076
 2586TIP3    H2 7636   1.213   8.598   7.089
 2587TIP3   OH2 7637   6.882   2.494   3.677
 2587TIP3    H1 7638   6.839   2.546   3.609
 2587TIP3    H2 7639   6.810   2.462   3.733
 2588TIP3   OH2 7640   7.838   7.145   0.425
 2588TIP3    H1 7641   7.881   7.209   0.368
 2588TIP3    H2 7642   7.756   7.186   0.450
 2589TIP3   OH2 7643   2.599   7.158   5.094
 2589TIP3    H1 7644   2.558   7.088   5.044
 2589TIP3    H2 7645   2.526   7.204   5.136
 2590TIP3   OH2 7646   4.436   5.628   7.139
 2590TIP3    H1 7647   4.482   5.613   7.222
 2590TIP3    H2 7648   4.448   5.547   7.090
 2591TIP3   OH2 7649   8.241   6.635   0.537
 2591TIP3    H1 7650   8.290   6.715   0.552
 2591TIP3    H2 7651   8.240   6.624   0.442
 2592TIP3   OH2 7652   5.325   4.057   0.698
 2592TIP3    H1 7653   5.374   4.134   0.725
 2592TIP3    H2 7654   5.374   3.983   0.735
 2593TIP3   OH2 7655   8.064   5.723   1.490
 2593TIP3    H1 7656   7.985   5.685   1.529
 2593TIP3    H2 7657   8.136   5.668   1.522
 2594TIP3   OH2 7658   3.024   4.404   3.398
 2594TIP3    H1 7659   2.999   4.457   3.473
 2594TIP3    H2 7660   3.063   4.325   3.436
 2595TIP3   OH2 7661   4.961   7.403   1.993
 2595TIP3    H1 7662   4.973   7.442   1.906
 2595TIP3    H2 7663   4.877   7.358   1.987
 2596TIP3   OH2 7664   4.725   1.916   6.104
 2596TIP3    H1 7665   4.710   1.824   6.082
 2596TIP3    H2 7666   4.640   1.947   6.136
 2597TIP3   OH2 7667   7.757   7.936   3.628
 2597TIP3    H1 7668   7.751   8.025   3.662
 2597TIP3    H2 7669   7.673   7.921   3.584
 2598TIP3   OH2 7670   5.022   1.719   7.636
 2598TIP3    H1 7671   5.082   1.773   7.688
 2598TIP3    H2 7672   5.065   1.709   7.551
 2599TIP3   OH2 7673   0.954   6.790   6.169
 2599TIP3    H1 7674   1.007   6.791   6.089
 2599TIP3    H2 7675   0.980   6.710   6.214
 2600TIP3   OH2 7676   7.468   5.164   6.134
 2600TIP3    H1 7677   7.450   5.100   6.204
 2600TIP3    H2 7678   7.492   5.244   6.180
 2601TIP3   OH2 7679   8.167   5.113   3.546
 2601TIP3    H1 7680   8.208   5.200   3.543
 2601TIP3    H2 7681   8.208   5.065   3.475
 2602TIP3   OH2 7682   9.398   2.489   0.826
 2602TIP3    H1 7683   9.414   2.554   0.895
 2602TIP3    H2 7684   9.371   2.410   0.874
 2603TIP3   OH2 7685   3.863   3.635   3.520
 2603TIP3    H1 7686   3.846   3.729   3.509
 2603TIP3    H2 7687   3.809   3.594   3.452
 2604TIP3   OH2 7688   1.934   3.177   2.312
 2604TIP3    H1 7689   1.930   3.095   2.263
 2604TIP3    H2 7690   1.915   3.152   2.402
 2605TIP3   OH2 7691   0.203   8.369   5.047
 2605TIP3    H1 7692   0.160   8.452   5.067
 2605TIP3    H2 7693   0.154   8.305   5.099
 2606TIP3   OH2 7694   2.719   4.415   2.240
 2606TIP3    H1 7695   2.646   4.477   2.242
 2606TIP3    H2 7696   2.783   4.456   2.182
 2607TIP3   OH2 7697   1.785   1.408   3.421
 2607TIP3    H1 7698   1.830   1.379   3.500
 2607TIP3    H2 7699   1.774   1.329   3.369
 2608TIP3   OH2 7700   5.586   8.481   6.726
 2608TIP3    H1 7701   5.554   8.570   6.713
 2608TIP3    H2 7702   5.563   8.460   6.817
 2609TIP3   OH2 7703   9.204   7.191   5.113
 2609TIP3    H1 7704   9.131   7.144   5.154
 2609TIP3    H2 7705   9.179   7.284   5.119
 2610TIP3   OH2 7706   6.931   0.666   4.716
 2610TIP3    H1 7707   6.990   0.634   4.784
 2610TIP3    H2 7708   6.845   0.631   4.740
 2611TIP3   OH2 7709   1.012   8.871   0.908
 2611TIP3    H1 7710   0.976   8.848   0.993
 2611TIP3    H2 7711   1.017   8.966   0.909
 2612TIP3   OH2 7712   5.764   1.110   3.124
 2612TIP3    H1 7713   5.725   1.168   3.058
 2612TIP3    H2 7714   5.858   1.118   3.109
 2613TIP3   OH2 7715   2.615   5.534   3.639
 2613TIP3    H1 7716   2.603   5.518   3.732
 2613TIP3    H2 7717   2.664   5.616   3.635
 2614TIP3   OH2 7718   2.079   4.702   7.722
 2614TIP3    H1 7719   2.132   4.699   7.801
 2614TIP3    H2 7720   2.090   4.791   7.689
 2615TIP3   OH2 7721   4.772   6.705   2.528
 2615TIP3    H1 7722   4.773   6.666   2.615
 2615TIP3    H2 7723   4.735   6.793   2.541
 2616TIP3   OH2 7724   8.405   0.504   0.223
 2616TIP3    H1 7725   8.355   0.543   0.151
 2616TIP3    H2 7726   8.339   0.456   0.274
 2617TIP3   OH2 7727   9.162   7.902   6.855
 2617TIP3    H1 7728   9.192   7.913   6.945
 2617TIP3    H2 7729   9.212   7.966   6.805
 2618TIP3   OH2 7730   6.179   8.387   7.682
 2618TIP3    H1 7731   6.140   8.313   7.636
 2618TIP3    H2 7732   6.104   8.438   7.715
 2619TIP3   OH2 7733   0.956   6.174   5.570
 2619TIP3    H1 7734   1.050   6.157   5.564
 2619TIP3    H2 7735   0.949   6.267   5.590
 2620TIP3   OH2 7736   6.183   1.922   1.395
 2620TIP3    H1 7737   6.197   1.865   1.319
 2620TIP3    H2 7738   6.158   1.863   1.466
 2621TIP3   OH2 7739   4.253   6.870   4.965
 2621TIP3    H1 7740   4.211   6.825   5.038
 2621TIP3    H2 7741   4.347   6.866   4.986
 2622TIP3   OH2 7742   9.285   8.956   3.186
 2622TIP3    H1 7743   9.372   8.964   3.147
 2622TIP3    H2 7744   9.253   8.870   3.159
 2623TIP3   OH2 7745   2.828   5.298   3.058
 2623TIP3    H1 7746   2.778   5.272   3.135
 2623TIP3    H2 7747   2.767   5.288   2.985
 2624TIP3   OH2 7748   0.081   6.949   1.760
 2624TIP3    H1 7749   0.090   6.858   1.787
 2624TIP3    H2 7750   0.078   6.998   1.842
 2625TIP3   OH2 7751   0.487   0.107   4.432
 2625TIP3    H1 7752   0.557   0.123   4.368
 2625TIP3    H2 7753   0.521   0.143   4.514
 2626TIP3   OH2 7754   8.872   1.823   5.642
 2626TIP3    H1 7755   8.842   1.768   5.715
 2626TIP3    H2 7756   8.902   1.760   5.576
 2627TIP3   OH2 7757   1.068   6.187   5.247
 2627TIP3    H1 7758   1.112   6.187   5.332
 2627TIP3    H2 7759   1.033   6.099   5.237
 2628TIP3   OH2 7760   3.114   8.125   3.990
 2628TIP3    H1 7761   3.160   8.042   4.004
 2628TIP3    H2 7762   3.047   8.127   4.059
 2629TIP3   OH2 7763   3.082   5.633   5.495
 2629TIP3    H1 7764   3.164   5.645   5.542
 2629TIP3    H2 7765   3.050   5.722   5.478
 2630TIP3   OH2 7766   6.644   4.560   5.053
 2630TIP3    H1 7767   6.583   4.560   5.127
 2630TIP3    H2 7768   6.699   4.637   5.069
 2631TIP3   OH2 7769   0.242   4.769   6.478
 2631TIP3    H1 7770   0.222   4.727   6.394
 2631TIP3    H2 7771   0.165   4.822   6.498
 2632TIP3   OH2 7772   9.394   4.101   4.549
 2632TIP3    H1 7773   9.474   4.109   4.498
 2632TIP3    H2 7774   9.351   4.186   4.540
 2633TIP3   OH2 7775   0.447   3.327   0.092
 2633TIP3    H1 7776   0.370   3.369   0.055
 2633TIP3    H2 7777   0.521   3.374   0.054
 2634TIP3   OH2 7778   5.672   5.987   2.537
 2634TIP3    H1 7779   5.739   5.927   2.568
 2634TIP3    H2 7780   5.596   5.971   2.594
 2635TIP3   OH2 7781   5.225   2.439   6.412
 2635TIP3    H1 7782   5.188   2.498   6.478
 2635TIP3    H2 7783   5.200   2.351   6.442
 2636TIP3   OH2 7784   1.425   3.395   1.892
 2636TIP3    H1 7785   1.399   3.335   1.962
 2636TIP3    H2 7786   1.374   3.368   1.816
 2637TIP3   OH2 7787   6.274   2.958   4.118
 2637TIP3    H1 7788   6.181   2.944   4.133
 2637TIP3    H2 7789   6.293   2.910   4.037
 2638TIP3   OH2 7790   9.164   1.169   5.784
 2638TIP3    H1 7791   9.240   1.228   5.786
 2638TIP3    H2 7792   9.114   1.193   5.862
 2639TIP3   OH2 7793   0.639   3.663   3.475
 2639TIP3    H1 7794   0.723   3.660   3.521
 2639TIP3    H2 7795   0.638   3.582   3.423
 2640TIP3   OH2 7796   2.155   1.053   2.666
 2640TIP3    H1 7797   2.154   1.023   2.575
 2640TIP3    H2 7798   2.065   1.041   2.697
 2641TIP3   OH2 7799   7.493   3.967   5.056
 2641TIP3    H1 7800   7.415   4.021   5.071
 2641TIP3    H2 7801   7.560   4.030   5.027
 2642TIP3   OH2 7802   6.726   7.552   5.290
 2642TIP3    H1 7803   6.694   7.640   5.272
 2642TIP3    H2 7804   6.705   7.502   5.211
 2643TIP3   OH2 7805   8.881   0.488   7.400
 2643TIP3    H1 7806   8.968   0.475   7.437
 2643TIP3    H2 7807   8.894   0.546   7.326
 2644TIP3   OH2 7808   3.863   1.317   4.436
 2644TIP3    H1 7809   3.885   1.404   4.401
 2644TIP3    H2 7810   3.778   1.329   4.478
 2645TIP3   OH2 7811   3.931   7.659   2.782
 2645TIP3    H1 7812   3.884   7.741   2.764
 2645TIP3    H2 7813   3.952   7.663   2.875
 2646TIP3   OH2 7814   8.119   5.596   2.018
 2646TIP3    H1 7815   8.034   5.594   2.061
 2646TIP3    H2 7816   8.181   5.609   2.090
 2647TIP3   OH2 7817   4.144   8.285   0.097
 2647TIP3    H1 7818   4.183   8.272   0.010
 2647TIP3    H2 7819   4.062   8.332   0.080
 2648TIP3   OH2 7820   2.655   3.559   3.259
 2648TIP3    H1 7821   2.700   3.542   3.176
 2648TIP3    H2 7822   2.601   3.482   3.274
 2649TIP3   OH2 7823   5.471   8.115   5.504
 2649TIP3    H1 7824   5.556   8.072   5.497
 2649TIP3    H2 7825   5.451   8.143   5.415
 2650TIP3   OH2 7826   2.774   4.639   4.747
 2650TIP3    H1 7827   2.816   4.576   4.688
 2650TIP3    H2 7828   2.683   4.610   4.752
 2651TIP3   OH2 7829   4.943   0.948   6.726
 2651TIP3    H1 7830   4.938   0.862   6.684
 2651TIP3    H2 7831   4.956   1.009   6.653
 2652TIP3   OH2 7832   1.499   7.886   5.098
 2652TIP3    H1 7833   1.588   7.855   5.111
 2652TIP3    H2 7834   1.474   7.851   5.012
 2653TIP3   OH2 7835   6.340   6.972   2.381
 2653TIP3    H1 7836   6.393   7.051   2.391
 2653TIP3    H2 7837   6.393   6.914   2.326
 2654TIP3   OH2 7838   7.674   2.212   7.177
 2654TIP3    H1 7839   7.736   2.151   7.136
 2654TIP3    H2 7840   7.591   2.164   7.177
 2655TIP3   OH2 7841   7.664   3.813   1.503
 2655TIP3    H1 7842   7.605   3.887   1.491
 2655TIP3    H2 7843   7.748   3.852   1.528
 2656TIP3   OH2 7844   2.446   1.521   2.915
 2656TIP3    H1 7845   2.385   1.474   2.858
 2656TIP3    H2 7846   2.494   1.578   2.856
 2657TIP3   OH2 7847   8.623   1.885   6.988
 2657TIP3    H1 7848   8.578   1.896   6.904
 2657TIP3    H2 7849   8.687   1.957   6.991
 2658TIP3   OH2 7850   1.634   3.633   5.560
 2658TIP3    H1 7851   1.707   3.604   5.616
 2658TIP3    H2 7852   1.616   3.558   5.503
 2659TIP3   OH2 7853   8.353   8.332   4.064
 2659TIP3    H1 7854   8.378   8.413   4.109
 2659TIP3    H2 7855   8.336   8.359   3.974
 2660TIP3   OH2 7856   3.931   0.456   0.922
 2660TIP3    H1 7857   3.888   0.463   0.837
 2660TIP3    H2 7858   4.011   0.507   0.912
 2661TIP3   OH2 7859   8.583   0.149   1.385
 2661TIP3    H1 7860   8.597   0.094   1.307
 2661TIP3    H2 7861   8.649   0.218   1.377
 2662TIP3   OH2 7862   9.420   8.331   4.749
 2662TIP3    H1 7863   9.491   8.366   4.804
 2662TIP3    H2 7864   9.340   8.349   4.800
 2663TIP3   OH2 7865   2.887   2.788   1.269
 2663TIP3    H1 7866   2.911   2.777   1.177
 2663TIP3    H2 7867   2.932   2.868   1.296
 2664TIP3   OH2 7868   4.860   6.268   0.520
 2664TIP3    H1 7869   4.906   6.350   0.540
 2664TIP3    H2 7870   4.785   6.268   0.579
 2665TIP3   OH2 7871   2.064   7.099   2.856
 2665TIP3    H1 7872   2.105   7.082   2.771
 2665TIP3    H2 7873   2.062   7.013   2.899
 2666TIP3   OH2 7874   8.444   2.314   5.398
 2666TIP3    H1 7875   8.350   2.303   5.411
 2666TIP3    H2 7876   8.481   2.227   5.416
 2667TIP3   OH2 7877   5.892   1.439   2.823
 2667TIP3    H1 7878   5.931   1.507   2.878
 2667TIP3    H2 7879   5.955   1.367   2.826
 2668TIP3   OH2 7880   3.903   0.390   5.240
 2668TIP3    H1 7881   3.959   0.454   5.285
 2668TIP3    H2 7882   3.878   0.433   5.159
 2669TIP3   OH2 7883   5.418   1.552   4.756
 2669TIP3    H1 7884   5.430   1.483   4.692
 2669TIP3    H2 7885   5.421   1.508   4.841
 2670TIP3   OH2 7886   1.302   0.033   5.273
 2670TIP3    H1 7887   1.304   0.110   5.329
 2670TIP3    H2 7888   1.221  -0.012   5.298
 2671TIP3   OH2 7889   2.496   5.475   1.574
 2671TIP3    H1 7890   2.548   5.555   1.583
 2671TIP3    H2 7891   2.560   5.406   1.560
 2672TIP3   OH2 7892   0.413   3.138   7.456
 2672TIP3    H1 7893   0.474   3.211   7.466
 2672TIP3    H2 7894   0.468   3.064   7.430
 2673TIP3   OH2 7895   1.625   5.387   7.212
 2673TIP3    H1 7896   1.715   5.361   7.229
 2673TIP3    H2 7897   1.577   5.365   7.292
 2674TIP3   OH2 7898   7.098   3.453   6.993
 2674TIP3    H1 7899   7.127   3.512   7.063
 2674TIP3    H2 7900   7.095   3.508   6.915
 2675TIP3   OH2 7901   2.498   2.989   1.587
 2675TIP3    H1 7902   2.458   3.070   1.556
 2675TIP3    H2 7903   2.575   3.018   1.637
 2676TIP3   OH2 7904   2.807   1.530   7.641
 2676TIP3    H1 7905   2.716   1.521   7.613
 2676TIP3    H2 7906   2.817   1.623   7.663
 2677TIP3   OH2 7907   5.842   3.614   3.576
 2677TIP3    H1 7908   5.798   3.660   3.648
 2677TIP3    H2 7909   5.874   3.684   3.519
 2678TIP3   OH2 7910   0.567   0.621   3.828
 2678TIP3    H1 7911   0.605   0.690   3.882
 2678TIP3    H2 7912   0.474   0.623   3.851
 2679TIP3   OH2 7913   1.351   4.833   7.253
 2679TIP3    H1 7914   1.349   4.921   7.215
 2679TIP3    H2 7915   1.280   4.833   7.317
 2680TIP3   OH2 7916   6.054   3.480   3.492
 2680TIP3    H1 7917   6.114   3.476   3.567
 2680TIP3    H2 7918   5.981   3.534   3.524
 2681TIP3   OH2 7919   3.099   6.410   0.213
 2681TIP3    H1 7920   3.144   6.349   0.156
 2681TIP3    H2 7921   3.162   6.430   0.282
 2682TIP3   OH2 7922   9.233   6.624   6.586
 2682TIP3    H1 7923   9.229   6.539   6.543
 2682TIP3    H2 7924   9.189   6.684   6.526
 2683TIP3   OH2 7925   9.179   8.562   7.073
 2683TIP3    H1 7926   9.152   8.559   7.165
 2683TIP3    H2 7927   9.209   8.652   7.060
 2684TIP3   OH2 7928   1.308   0.956   3.085
 2684TIP3    H1 7929   1.340   0.986   3.000
 2684TIP3    H2 7930   1.227   0.910   3.065
 2685TIP3   OH2 7931   7.954   7.405   4.871
 2685TIP3    H1 7932   8.018   7.449   4.814
 2685TIP3    H2 7933   7.982   7.429   4.960
 2686TIP3   OH2 7934   6.781   4.869   2.211
 2686TIP3    H1 7935   6.865   4.877   2.165
 2686TIP3    H2 7936   6.804   4.844   2.300
 2687TIP3   OH2 7937   4.722   3.639   6.738
 2687TIP3    H1 7938   4.785   3.660   6.668
 2687TIP3    H2 7939   4.649   3.597   6.692
 2688TIP3   OH2 7940   3.209   2.595   5.281
 2688TIP3    H1 7941   3.154   2.656   5.233
 2688TIP3    H2 7942   3.158   2.514   5.284
 2689TIP3   OH2 7943   9.240   1.664   2.552
 2689TIP3    H1 7944   9.215   1.673   2.460
 2689TIP3    H2 7945   9.290   1.583   2.556
 2690TIP3   OH2 7946   3.250   1.330   7.570
 2690TIP3    H1 7947   3.337   1.330   7.531
 2690TIP3    H2 7948   3.190   1.317   7.496
 2691TIP3   OH2 7949   6.238   7.316   3.918
 2691TIP3    H1 7950   6.298   7.306   3.992
 2691TIP3    H2 7951   6.288   7.283   3.843
 2692TIP3   OH2 7952   4.486   7.743   3.261
 2692TIP3    H1 7953   4.479   7.722   3.354
 2692TIP3    H2 7954   4.481   7.839   3.258
 2693TIP3   OH2 7955   3.981   6.807   2.178
 2693TIP3    H1 7956   3.990   6.885   2.234
 2693TIP3    H2 7957   4.070   6.791   2.145
 2694TIP3   OH2 7958   2.252   5.148   6.213
 2694TIP3    H1 7959   2.201   5.230   6.212
 2694TIP3    H2 7960   2.312   5.156   6.139
 2695TIP3   OH2 7961   8.799   6.715   4.539
 2695TIP3    H1 7962   8.800   6.632   4.490
 2695TIP3    H2 7963   8.871   6.706   4.601
 2696TIP3   OH2 7964   3.570   8.268   6.974
 2696TIP3    H1 7965   3.640   8.204   6.990
 2696TIP3    H2 7966   3.499   8.241   7.034
 2697TIP3   OH2 7967   6.079   1.252   2.730
 2697TIP3    H1 7968   6.066   1.200   2.651
 2697TIP3    H2 7969   6.163   1.296   2.717
 2698TIP3   OH2 7970   2.825   8.507   0.726
 2698TIP3    H1 7971   2.888   8.489   0.657
 2698TIP3    H2 7972   2.879   8.516   0.805
 2699TIP3   OH2 7973   8.779   7.096   0.296
 2699TIP3    H1 7974   8.772   7.175   0.243
 2699TIP3    H2 7975   8.849   7.045   0.255
 2700TIP3   OH2 7976   1.657   8.609   4.355
 2700TIP3    H1 7977   1.730   8.667   4.374
 2700TIP3    H2 7978   1.675   8.576   4.267
 2701TIP3   OH2 7979   1.932   8.954   0.699
 2701TIP3    H1 7980   1.924   9.037   0.653
 2701TIP3    H2 7981   1.868   8.897   0.657
 2702TIP3   OH2 7982   7.685   4.745   1.029
 2702TIP3    H1 7983   7.690   4.657   0.992
 2702TIP3    H2 7984   7.759   4.751   1.089
 2703TIP3   OH2 7985   2.814   6.737   4.876
 2703TIP3    H1 7986   2.744   6.681   4.909
 2703TIP3    H2 7987   2.779   6.773   4.794
 2704TIP3   OH2 7988   4.611   8.617   1.480
 2704TIP3    H1 7989   4.527   8.663   1.482
 2704TIP3    H2 7990   4.644   8.632   1.392
 2705TIP3   OH2 7991   5.712   1.943   4.316
 2705TIP3    H1 7992   5.744   1.871   4.371
 2705TIP3    H2 7993   5.631   1.971   4.357
 2706TIP3   OH2 7994   2.137   2.937   2.646
 2706TIP3    H1 7995   2.183   3.006   2.693
 2706TIP3    H2 7996   2.052   2.975   2.625
 2707TIP3   OH2 7997   3.317   0.182   4.117
 2707TIP3    H1 7998   3.330   0.090   4.140
 2707TIP3    H2 7999   3.318   0.184   4.021
 2708TIP3   OH2 8000   0.353   3.550   5.044
 2708TIP3    H1 8001   0.365   3.541   5.139
 2708TIP3    H2 8002   0.263   3.580   5.034
 2709TIP3   OH2 8003   0.510   1.306   3.264
 2709TIP3    H1 8004   0.479   1.295   3.354
 2709TIP3    H2 8005   0.566   1.383   3.268
 2710TIP3   OH2 8006   8.969   1.029   4.816
 2710TIP3    H1 8007   9.014   1.090   4.874
 2710TIP3    H2 8008   8.877   1.035   4.842
 2711TIP3   OH2 8009   9.070   1.980   6.401
 2711TIP3    H1 8010   9.078   2.065   6.445
 2711TIP3    H2 8011   9.148   1.932   6.430
 2712TIP3   OH2 8012   8.772   4.067   7.285
 2712TIP3    H1 8013   8.709   4.054   7.356
 2712TIP3    H2 8014   8.741   4.145   7.239
 2713TIP3   OH2 8015   3.066   2.365   5.259
 2713TIP3    H1 8016   3.092   2.315   5.336
 2713TIP3    H2 8017   3.071   2.302   5.187
 2714TIP3   OH2 8018   2.754   5.964   1.414
 2714TIP3    H1 8019   2.836   5.998   1.380
 2714TIP3    H2 8020   2.755   5.988   1.507
 2715TIP3   OH2 8021   7.148   7.163   2.808
 2715TIP3    H1 8022   7.114   7.223   2.742
 2715TIP3    H2 8023   7.112   7.077   2.783
 2716TIP3   OH2 8024   1.800   6.633   4.066
 2716TIP3    H1 8025   1.803   6.651   3.972
 2716TIP3    H2 8026   1.777   6.716   4.106
 2717TIP3   OH2 8027   0.834   0.563   7.365
 2717TIP3    H1 8028   0.796   0.617   7.296
 2717TIP3    H2 8029   0.836   0.619   7.442
 2718TIP3   OH2 8030   3.393   1.080   3.848
 2718TIP3    H1 8031   3.412   0.986   3.856
 2718TIP3    H2 8032   3.312   1.092   3.897
 2719TIP3   OH2 8033   2.448   4.973   3.977
 2719TIP3    H1 8034   2.470   5.031   3.904
 2719TIP3    H2 8035   2.480   4.887   3.951
 2720TIP3   OH2 8036   6.659   1.578   7.010
 2720TIP3    H1 8037   6.673   1.484   7.021
 2720TIP3    H2 8038   6.743   1.612   6.980
 2721TIP3   OH2 8039   6.589   1.075   4.573
 2721TIP3    H1 8040   6.497   1.100   4.574
 2721TIP3    H2 8041   6.591   0.991   4.620
 2722TIP3   OH2 8042   0.184   1.879   5.387
 2722TIP3    H1 8043   0.280   1.883   5.387
 2722TIP3    H2 8044   0.162   1.835   5.469
 2723TIP3   OH2 8045   1.532   7.587   0.862
 2723TIP3    H1 8046   1.511   7.643   0.787
 2723TIP3    H2 8047   1.476   7.510   0.851
 2724TIP3   OH2 8048   8.860   5.045   6.152
 2724TIP3    H1 8049   8.906   4.973   6.195
 2724TIP3    H2 8050   8.787   5.065   6.211
 2725TIP3   OH2 8051   1.800   4.750   6.753
 2725TIP3    H1 8052   1.836   4.747   6.841
 2725TIP3    H2 8053   1.760   4.664   6.741
 2726TIP3   OH2 8054   1.870   5.345   7.302
 2726TIP3    H1 8055   1.855   5.275   7.366
 2726TIP3    H2 8056   1.921   5.410   7.350
 2727TIP3   OH2 8057   6.841   0.742   3.268
 2727TIP3    H1 8058   6.936   0.742   3.279
 2727TIP3    H2 8059   6.821   0.654   3.237
 2728TIP3   OH2 8060   4.237   6.978   1.694
 2728TIP3    H1 8061   4.251   6.898   1.643
 2728TIP3    H2 8062   4.324   7.001   1.727
 2729TIP3   OH2 8063   2.371   2.315   6.751
 2729TIP3    H1 8064   2.347   2.377   6.681
 2729TIP3    H2 8065   2.302   2.249   6.749
 2730TIP3   OH2 8066   7.532   4.113   6.110
 2730TIP3    H1 8067   7.447   4.107   6.067
 2730TIP3    H2 8068   7.517   4.166   6.188
 2731TIP3   OH2 8069   3.490   3.256   2.467
 2731TIP3    H1 8070   3.466   3.245   2.374
 2731TIP3    H2 8071   3.519   3.347   2.473
 2732TIP3   OH2 8072   4.713   3.025   1.286
 2732TIP3    H1 8073   4.666   3.086   1.229
 2732TIP3    H2 8074   4.661   3.022   1.366
 2733TIP3   OH2 8075   6.194   2.249   4.274
 2733TIP3    H1 8076   6.244   2.167   4.276
 2733TIP3    H2 8077   6.139   2.242   4.195
 2734TIP3   OH2 8078   1.439   2.962   2.006
 2734TIP3    H1 8079   1.518   3.011   2.030
 2734TIP3    H2 8080   1.471   2.897   1.942
 2735TIP3   OH2 8081   2.845   3.144   6.892
 2735TIP3    H1 8082   2.824   3.062   6.937
 2735TIP3    H2 8083   2.932   3.167   6.925
 2736TIP3   OH2 8084   5.456   2.451   6.018
 2736TIP3    H1 8085   5.454   2.416   5.929
 2736TIP3    H2 8086   5.441   2.374   6.074
 2737TIP3   OH2 8087   2.599   2.529   0.563
 2737TIP3    H1 8088   2.584   2.492   0.650
 2737TIP3    H2 8089   2.529   2.492   0.509
 2738TIP3   OH2 8090   4.345   5.986   6.874
 2738TIP3    H1 8091   4.402   5.909   6.876
 2738TIP3    H2 8092   4.317   5.996   6.965
 2739TIP3   OH2 8093   2.361   0.260   7.430
 2739TIP3    H1 8094   2.308   0.339   7.428
 2739TIP3    H2 8095   2.427   0.274   7.362
 2740TIP3   OH2 8096   5.326   7.449   1.329
 2740TIP3    H1 8097   5.259   7.435   1.263
 2740TIP3    H2 8098   5.301   7.531   1.372
 2741TIP3   OH2 8099   0.940   7.028   0.123
 2741TIP3    H1 8100   1.013   6.967   0.124
 2741TIP3    H2 8101   0.904   7.024   0.212
 2742TIP3   OH2 8102   8.905   7.370   5.613
 2742TIP3    H1 8103   8.865   7.291   5.575
 2742TIP3    H2 8104   8.889   7.438   5.549
 2743TIP3   OH2 8105   3.475   1.436   4.117
 2743TIP3    H1 8106   3.394   1.407   4.074
 2743TIP3    H2 8107   3.539   1.439   4.046
 2744TIP3   OH2 8108   2.837   0.842   0.811
 2744TIP3    H1 8109   2.899   0.843   0.738
 2744TIP3    H2 8110   2.860   0.765   0.862
 2745TIP3   OH2 8111   1.243   8.527   6.344
 2745TIP3    H1 8112   1.281   8.440   6.328
 2745TIP3    H2 8113   1.177   8.513   6.412
 2746TIP3   OH2 8114   0.667   6.558   2.682
 2746TIP3    H1 8115   0.591   6.567   2.625
 2746TIP3    H2 8116   0.633   6.569   2.771
 2747TIP3   OH2 8117   6.845   7.167   1.636
 2747TIP3    H1 8118   6.918   7.139   1.580
 2747TIP3    H2 8119   6.887   7.214   1.708
 2748TIP3   OH2 8120   8.486   2.235   4.573
 2748TIP3    H1 8121   8.568   2.243   4.622
 2748TIP3    H2 8122   8.448   2.322   4.576
 2749TIP3   OH2 8123   6.621   8.557   0.836
 2749TIP3    H1 8124   6.687   8.528   0.899
 2749TIP3    H2 8125   6.667   8.620   0.781
 2750TIP3   OH2 8126   4.506   7.618   7.294
 2750TIP3    H1 8127   4.475   7.531   7.319
 2750TIP3    H2 8128   4.552   7.604   7.211
 2751TIP3   OH2 8129   6.865   4.742   4.793
 2751TIP3    H1 8130   6.946   4.792   4.788
 2751TIP3    H2 8131   6.862   4.709   4.883
 2752TIP3   OH2 8132   1.936   5.659   6.732
 2752TIP3    H1 8133   2.006   5.724   6.720
 2752TIP3    H2 8134   1.982   5.580   6.761
 2753TIP3   OH2 8135   7.090   1.514   1.007
 2753TIP3    H1 8136   7.050   1.574   1.070
 2753TIP3    H2 8137   7.184   1.533   1.013
 2754TIP3   OH2 8138   2.762   8.494   6.295
 2754TIP3    H1 8139   2.669   8.482   6.314
 2754TIP3    H2 8140   2.789   8.568   6.349
 2755TIP3   OH2 8141   3.831   2.678   5.708
 2755TIP3    H1 8142   3.785   2.745   5.759
 2755TIP3    H2 8143   3.924   2.695   5.724
 2756TIP3   OH2 8144   7.531   7.153   1.820
 2756TIP3    H1 8145   7.496   7.242   1.827
 2756TIP3    H2 8146   7.454   7.097   1.816
 2757TIP3   OH2 8147   2.149   1.726   6.982
 2757TIP3    H1 8148   2.224   1.734   6.923
 2757TIP3    H2 8149   2.178   1.765   7.064
 2758TIP3   OH2 8150   5.151   1.730   1.643
 2758TIP3    H1 8151   5.128   1.640   1.666
 2758TIP3    H2 8152   5.069   1.770   1.615
 2759TIP3   OH2 8153   8.204   2.068   5.046
 2759TIP3    H1 8154   8.143   1.997   5.026
 2759TIP3    H2 8155   8.174   2.141   4.992
 2760TIP3   OH2 8156   7.722   7.940   0.538
 2760TIP3    H1 8157   7.699   7.941   0.445
 2760TIP3    H2 8158   7.815   7.964   0.540
 2761TIP3   OH2 8159   8.155   8.671   0.640
 2761TIP3    H1 8160   8.249   8.655   0.648
 2761TIP3    H2 8161   8.116   8.584   0.634
 2762TIP3   OH2 8162   3.858   5.348   3.635
 2762TIP3    H1 8163   3.875   5.255   3.648
 2762TIP3    H2 8164   3.865   5.386   3.723
 2763TIP3   OH2 8165   1.275   1.273   0.156
 2763TIP3    H1 8166   1.273   1.233   0.243
 2763TIP3    H2 8167   1.197   1.329   0.152
 2764TIP3   OH2 8168   1.005   8.970   6.356
 2764TIP3    H1 8169   1.004   8.958   6.261
 2764TIP3    H2 8170   0.955   8.896   6.389
 2765TIP3   OH2 8171   7.617   6.640   4.864
 2765TIP3    H1 8172   7.650   6.715   4.913
 2765TIP3    H2 8173   7.646   6.563   4.913
 2766TIP3   OH2 8174   1.217   2.152   1.262
 2766TIP3    H1 8175   1.228   2.131   1.169
 2766TIP3    H2 8176   1.123   2.153   1.276
 2767TIP3   OH2 8177   9.074   1.635   3.782
 2767TIP3    H1 8178   9.165   1.649   3.755
 2767TIP3    H2 8179   9.070   1.672   3.870
 2768TIP3   OH2 8180   6.299   7.892   2.783
 2768TIP3    H1 8181   6.280   7.970   2.834
 2768TIP3    H2 8182   6.393   7.878   2.794
 2769TIP3   OH2 8183   8.981   2.874   4.840
 2769TIP3    H1 8184   9.034   2.950   4.863
 2769TIP3    H2 8185   8.929   2.856   4.918
 2770TIP3   OH2 8186   7.308   8.311   0.945
 2770TIP3    H1 8187   7.373   8.255   0.989
 2770TIP3    H2 8188   7.235   8.252   0.925
 2771TIP3   OH2 8189   3.310   6.991   0.860
 2771TIP3    H1 8190   3.404   7.002   0.867
 2771TIP3    H2 8191   3.282   7.063   0.803
 2772TIP3   OH2 8192   2.243   3.036   1.845
 2772TIP3    H1 8193   2.192   3.069   1.771
 2772TIP3    H2 8194   2.297   3.110   1.871
 2773TIP3   OH2 8195   7.810   2.202   1.899
 2773TIP3    H1 8196   7.797   2.280   1.845
 2773TIP3    H2 8197   7.889   2.220   1.950
 2774TIP3   OH2 8198   8.687   3.376   1.991
 2774TIP3    H1 8199   8.733   3.345   2.069
 2774TIP3    H2 8200   8.722   3.463   1.975
 2775TIP3   OH2 8201   3.170   8.413   7.633
 2775TIP3    H1 8202   3.179   8.444   7.724
 2775TIP3    H2 8203   3.227   8.337   7.628
 2776TIP3   OH2 8204   2.220   5.960   2.622
 2776TIP3    H1 8205   2.295   5.902   2.634
 2776TIP3    H2 8206   2.247   6.042   2.662
 2777TIP3   OH2 8207   9.231   6.649   1.593
 2777TIP3    H1 8208   9.238   6.727   1.538
 2777TIP3    H2 8209   9.297   6.661   1.661
 2778TIP3   OH2 8210   1.215   4.334   6.396
 2778TIP3    H1 8211   1.284   4.329   6.330
 2778TIP3    H2 8212   1.137   4.362   6.347
 2779TIP3   OH2 8213   1.340   5.977   5.275
 2779TIP3    H1 8214   1.377   5.894   5.243
 2779TIP3    H2 8215   1.277   5.950   5.342
 2780TIP3   OH2 8216   1.291   4.175   4.691
 2780TIP3    H1 8217   1.274   4.239   4.760
 2780TIP3    H2 8218   1.369   4.207   4.647
 2781TIP3   OH2 8219   8.900   7.392   7.538
 2781TIP3    H1 8220   8.982   7.442   7.535
 2781TIP3    H2 8221   8.918   7.320   7.597
 2782TIP3   OH2 8222   1.774   7.929   4.561
 2782TIP3    H1 8223   1.814   7.984   4.494
 2782TIP3    H2 8224   1.718   7.988   4.611
 2783TIP3   OH2 8225   5.224   1.501   3.479
 2783TIP3    H1 8226   5.292   1.514   3.545
 2783TIP3    H2 8227   5.264   1.532   3.397
 2784TIP3   OH2 8228   0.707   8.338   2.431
 2784TIP3    H1 8229   0.762   8.294   2.365
 2784TIP3    H2 8230   0.675   8.416   2.386
 2785TIP3   OH2 8231   4.414   7.047   0.821
 2785TIP3    H1 8232   4.347   7.108   0.852
 2785TIP3    H2 8233   4.432   7.075   0.731
 2786TIP3   OH2 8234   3.544   3.180   3.227
 2786TIP3    H1 8235   3.548   3.209   3.319
 2786TIP3    H2 8236   3.477   3.237   3.188
 2787TIP3   OH2 8237   5.884   2.533   1.696
 2787TIP3    H1 8238   5.897   2.623   1.668
 2787TIP3    H2 8239   5.959   2.513   1.752
 2788TIP3   OH2 8240   2.737   4.436   3.318
 2788TIP3    H1 8241   2.826   4.442   3.354
 2788TIP3    H2 8242   2.735   4.352   3.273
 2789TIP3   OH2 8243   1.432   2.849   7.182
 2789TIP3    H1 8244   1.393   2.861   7.269
 2789TIP3    H2 8245   1.512   2.902   7.183
 2790TIP3   OH2 8246   2.756   0.829   4.041
 2790TIP3    H1 8247   2.780   0.916   4.074
 2790TIP3    H2 8248   2.760   0.772   4.118
 2791TIP3   OH2 8249   4.367   5.230   5.268
 2791TIP3    H1 8250   4.355   5.322   5.292
 2791TIP3    H2 8251   4.386   5.187   5.351
 2792TIP3   OH2 8252   8.770   7.341   6.950
 2792TIP3    H1 8253   8.675   7.348   6.952
 2792TIP3    H2 8254   8.788   7.248   6.934
 2793TIP3   OH2 8255   6.531   6.001   2.657
 2793TIP3    H1 8256   6.483   5.937   2.709
 2793TIP3    H2 8257   6.551   6.072   2.719
 2794TIP3   OH2 8258   2.784   4.783   6.106
 2794TIP3    H1 8259   2.809   4.691   6.104
 2794TIP3    H2 8260   2.798   4.814   6.017
 2795TIP3   OH2 8261   4.344   9.019   6.619
 2795TIP3    H1 8262   4.410   9.086   6.601
 2795TIP3    H2 8263   4.287   9.019   6.542
 2796TIP3   OH2 8264   1.924   6.136   6.326
 2796TIP3    H1 8265   1.841   6.175   6.353
 2796TIP3    H2 8266   1.908   6.042   6.326
 2797TIP3   OH2 8267   8.464   8.787   0.020
 2797TIP3    H1 8268   8.549   8.787  -0.025
 2797TIP3    H2 8269   8.412   8.852  -0.027
 2798TIP3   OH2 8270   3.860   6.036   4.717
 2798TIP3    H1 8271   3.903   6.088   4.648
 2798TIP3    H2 8272   3.915   5.958   4.725
 2799TIP3   OH2 8273   4.823   4.178   2.146
 2799TIP3    H1 8274   4.763   4.130   2.089
 2799TIP3    H2 8275   4.908   4.172   2.103
 2800TIP3   OH2 8276   3.967   3.318   5.940
 2800TIP3    H1 8277   4.052   3.354   5.966
 2800TIP3    H2 8278   3.915   3.395   5.915
 2801TIP3   OH2 8279   3.614   6.438   5.323
 2801TIP3    H1 8280   3.522   6.464   5.320
 2801TIP3    H2 8281   3.650   6.467   5.239
 2802TIP3   OH2 8282   5.890   6.589   4.398
 2802TIP3    H1 8283   5.983   6.607   4.410
 2802TIP3    H2 8284   5.886   6.501   4.361
 2803TIP3   OH2 8285   7.150   0.757   1.783
 2803TIP3    H1 8286   7.165   0.665   1.806
 2803TIP3    H2 8287   7.079   0.784   1.840
 2804TIP3   OH2 8288   7.788   6.756   1.325
 2804TIP3    H1 8289   7.754   6.784   1.240
 2804TIP3    H2 8290   7.835   6.675   1.308
 2805TIP3   OH2 8291   2.167   8.339   4.407
 2805TIP3    H1 8292   2.116   8.406   4.361
 2805TIP3    H2 8293   2.216   8.295   4.337
 2806TIP3   OH2 8294   0.650   2.634   0.034
 2806TIP3    H1 8295   0.693   2.655  -0.048
 2806TIP3    H2 8296   0.557   2.652   0.019
 2807TIP3   OH2 8297   1.462   2.172   0.175
 2807TIP3    H1 8298   1.434   2.234   0.243
 2807TIP3    H2 8299   1.557   2.183   0.171
 2808TIP3   OH2 8300   7.681   7.512   2.571
 2808TIP3    H1 8301   7.634   7.434   2.541
 2808TIP3    H2 8302   7.740   7.533   2.499
 2809TIP3   OH2 8303   2.193   0.393   4.879
 2809TIP3    H1 8304   2.107   0.423   4.908
 2809TIP3    H2 8305   2.210   0.315   4.932
 2810TIP3   OH2 8306   9.373   0.112   0.603
 2810TIP3    H1 8307   9.379   0.029   0.555
 2810TIP3    H2 8308   9.370   0.087   0.695
 2811TIP3   OH2 8309   0.885   8.628   6.708
 2811TIP3    H1 8310   0.978   8.610   6.698
 2811TIP3    H2 8311   0.842   8.553   6.667
 2812TIP3   OH2 8312   1.716   7.544   5.803
 2812TIP3    H1 8313   1.783   7.517   5.866
 2812TIP3    H2 8314   1.641   7.487   5.821
 2813TIP3   OH2 8315   0.352   8.639   4.229
 2813TIP3    H1 8316   0.352   8.703   4.157
 2813TIP3    H2 8317   0.270   8.591   4.218
 2814TIP3   OH2 8318   7.558   3.251   2.537
 2814TIP3    H1 8319   7.463   3.248   2.548
 2814TIP3    H2 8320   7.587   3.320   2.597
 2815TIP3   OH2 8321   7.698   2.957   3.580
 2815TIP3    H1 8322   7.621   3.012   3.594
 2815TIP3    H2 8323   7.756   3.010   3.525
 2816TIP3   OH2 8324   3.945   1.639   0.405
 2816TIP3    H1 8325   4.000   1.585   0.462
 2816TIP3    H2 8326   3.975   1.617   0.316
 2817TIP3   OH2 8327   4.535   0.225   6.382
 2817TIP3    H1 8328   4.456   0.184   6.418
 2817TIP3    H2 8329   4.603   0.159   6.392
 2818TIP3   OH2 8330   7.499   0.340   3.451
 2818TIP3    H1 8331   7.519   0.428   3.484
 2818TIP3    H2 8332   7.491   0.351   3.356
 2819TIP3   OH2 8333   2.105   7.531   6.289
 2819TIP3    H1 8334   2.162   7.561   6.218
 2819TIP3    H2 8335   2.104   7.603   6.351
 2820TIP3   OH2 8336   9.385   5.180   5.666
 2820TIP3    H1 8337   9.416   5.170   5.756
 2820TIP3    H2 8338   9.446   5.243   5.626
 2821TIP3   OH2 8339   6.975   7.383   4.941
 2821TIP3    H1 8340   7.008   7.393   4.852
 2821TIP3    H2 8341   7.051   7.400   4.997
 2822TIP3   OH2 8342   5.658   1.527   3.627
 2822TIP3    H1 8343   5.732   1.483   3.670
 2822TIP3    H2 8344   5.698   1.585   3.563
 2823TIP3   OH2 8345   2.006   5.414   4.164
 2823TIP3    H1 8346   1.913   5.432   4.151
 2823TIP3    H2 8347   2.009   5.320   4.182
 2824TIP3   OH2 8348   5.700   4.134   5.923
 2824TIP3    H1 8349   5.682   4.185   6.001
 2824TIP3    H2 8350   5.764   4.186   5.874
 2825TIP3   OH2 8351   8.864   4.533   1.258
 2825TIP3    H1 8352   8.891   4.452   1.214
 2825TIP3    H2 8353   8.795   4.569   1.201
 2826TIP3   OH2 8354   5.701   2.049   6.296
 2826TIP3    H1 8355   5.681   1.977   6.236
 2826TIP3    H2 8356   5.741   2.006   6.372
 2827TIP3   OH2 8357   6.355   3.262   3.659
 2827TIP3    H1 8358   6.318   3.341   3.622
 2827TIP3    H2 8359   6.409   3.292   3.732
 2828TIP3   OH2 8360   0.782   3.565   0.591
 2828TIP3    H1 8361   0.703   3.534   0.547
 2828TIP3    H2 8362   0.828   3.617   0.525
 2829TIP3   OH2 8363   0.412   6.538   5.176
 2829TIP3    H1 8364   0.399   6.621   5.131
 2829TIP3    H2 8365   0.355   6.542   5.252
 2830TIP3   OH2 8366   8.495   4.631   0.388
 2830TIP3    H1 8367   8.477   4.707   0.443
 2830TIP3    H2 8368   8.518   4.668   0.303
 2831TIP3   OH2 8369   8.427   3.225   1.117
 2831TIP3    H1 8370   8.388   3.291   1.175
 2831TIP3    H2 8371   8.379   3.234   1.035
 2832TIP3   OH2 8372   0.130   4.939   2.199
 2832TIP3    H1 8373   0.111   4.860   2.148
 2832TIP3    H2 8374   0.168   5.000   2.135
 2833TIP3   OH2 8375   7.850   6.963   4.563
 2833TIP3    H1 8376   7.798   7.022   4.508
 2833TIP3    H2 8377   7.865   7.012   4.643
 2834TIP3   OH2 8378   3.206   3.989   4.127
 2834TIP3    H1 8379   3.183   3.901   4.158
 2834TIP3    H2 8380   3.136   4.045   4.161
 2835TIP3   OH2 8381   2.098   1.969   5.256
 2835TIP3    H1 8382   2.046   1.892   5.280
 2835TIP3    H2 8383   2.188   1.945   5.278
 2836TIP3   OH2 8384   7.345   1.984   2.569
 2836TIP3    H1 8385   7.408   2.049   2.598
 2836TIP3    H2 8386   7.260   2.023   2.589
 2837TIP3   OH2 8387   8.940   1.908   3.715
 2837TIP3    H1 8388   8.966   1.851   3.787
 2837TIP3    H2 8389   8.950   1.854   3.636
 2838TIP3   OH2 8390   9.057   2.335   4.949
 2838TIP3    H1 8391   9.018   2.381   5.024
 2838TIP3    H2 8392   9.060   2.401   4.879
 2839TIP3   OH2 8393   1.397   7.707   4.280
 2839TIP3    H1 8394   1.486   7.737   4.263
 2839TIP3    H2 8395   1.394   7.690   4.374
 2840TIP3   OH2 8396   4.803   5.069   1.351
 2840TIP3    H1 8397   4.823   5.140   1.290
 2840TIP3    H2 8398   4.714   5.042   1.328
 2841TIP3   OH2 8399   1.901   3.252   1.365
 2841TIP3    H1 8400   1.817   3.289   1.392
 2841TIP3    H2 8401   1.906   3.168   1.411
 2842TIP3   OH2 8402   4.360   2.331   7.746
 2842TIP3    H1 8403   4.300   2.274   7.795
 2842TIP3    H2 8404   4.415   2.371   7.813
 2843TIP3   OH2 8405   2.989   2.395   2.334
 2843TIP3    H1 8406   3.016   2.303   2.337
 2843TIP3    H2 8407   2.943   2.404   2.251
 2844TIP3   OH2 8408   3.060   4.786   7.499
 2844TIP3    H1 8409   3.028   4.829   7.579
 2844TIP3    H2 8410   2.982   4.775   7.444
 2845TIP3   OH2 8411   4.722   7.210   3.917
 2845TIP3    H1 8412   4.776   7.288   3.929
 2845TIP3    H2 8413   4.733   7.160   3.998
 2846TIP3   OH2 8414   7.314   4.905   1.669
 2846TIP3    H1 8415   7.315   4.996   1.640
 2846TIP3    H2 8416   7.386   4.898   1.731
 2847TIP3   OH2 8417   4.901   4.508   3.185
 2847TIP3    H1 8418   4.867   4.427   3.223
 2847TIP3    H2 8419   4.842   4.577   3.216
 2848TIP3   OH2 8420   9.260   3.762   1.009
 2848TIP3    H1 8421   9.340   3.716   1.035
 2848TIP3    H2 8422   9.264   3.764   0.913
 2849TIP3   OH2 8423   2.449   3.591   2.220
 2849TIP3    H1 8424   2.530   3.541   2.234
 2849TIP3    H2 8425   2.477   3.682   2.223
 2850TIP3   OH2 8426   7.748   8.800   2.757
 2850TIP3    H1 8427   7.829   8.834   2.794
 2850TIP3    H2 8428   7.741   8.711   2.792
 2851TIP3   OH2 8429   4.075   2.211   1.973
 2851TIP3    H1 8430   4.055   2.255   2.055
 2851TIP3    H2 8431   4.168   2.229   1.957
 2852TIP3   OH2 8432   0.249   7.739   2.909
 2852TIP3    H1 8433   0.324   7.790   2.938
 2852TIP3    H2 8434   0.225   7.777   2.825
 2853TIP3   OH2 8435   4.032   4.943   0.098
 2853TIP3    H1 8436   3.957   4.916   0.152
 2853TIP3    H2 8437   4.107   4.900   0.138
 2854TIP3   OH2 8438   0.798   7.110   0.938
 2854TIP3    H1 8439   0.734   7.052   0.979
 2854TIP3    H2 8440   0.883   7.070   0.958
 2855TIP3   OH2 8441   6.717   1.036   3.054
 2855TIP3    H1 8442   6.657   1.109   3.038
 2855TIP3    H2 8443   6.710   1.019   3.147
 2856TIP3   OH2 8444   3.942   5.202   0.076
 2856TIP3    H1 8445   4.007   5.243   0.018
 2856TIP3    H2 8446   3.976   5.114   0.090
 2857TIP3   OH2 8447   5.255   2.548   0.351
 2857TIP3    H1 8448   5.283   2.537   0.261
 2857TIP3    H2 8449   5.244   2.642   0.363
 2858TIP3   OH2 8450   1.300   5.892   2.932
 2858TIP3    H1 8451   1.300   5.931   2.844
 2858TIP3    H2 8452   1.369   5.826   2.929
 2859TIP3   OH2 8453   2.990   7.957   7.568
 2859TIP3    H1 8454   3.023   7.903   7.496
 2859TIP3    H2 8455   3.007   8.047   7.540
 2860TIP3   OH2 8456   6.895   2.114   0.293
 2860TIP3    H1 8457   6.944   2.142   0.371
 2860TIP3    H2 8458   6.963   2.094   0.228
 2861TIP3   OH2 8459   0.557   4.355   7.582
 2861TIP3    H1 8460   0.635   4.361   7.637
 2861TIP3    H2 8461   0.590   4.327   7.496
 2862TIP3   OH2 8462   7.041   5.558   4.271
 2862TIP3    H1 8463   7.107   5.520   4.329
 2862TIP3    H2 8464   6.966   5.499   4.277
 2863TIP3   OH2 8465   3.368   6.494   6.020
 2863TIP3    H1 8466   3.355   6.527   6.109
 2863TIP3    H2 8467   3.317   6.554   5.965
 2864TIP3   OH2 8468   0.928   6.004   4.328
 2864TIP3    H1 8469   0.976   5.921   4.331
 2864TIP3    H2 8470   0.935   6.033   4.236
 2865TIP3   OH2 8471   0.143   2.226   0.909
 2865TIP3    H1 8472   0.128   2.298   0.847
 2865TIP3    H2 8473   0.080   2.158   0.882
 2866TIP3   OH2 8474   2.915   2.045   2.739
 2866TIP3    H1 8475   2.961   2.129   2.740
 2866TIP3    H2 8476   2.926   2.011   2.828
 2867TIP3   OH2 8477   3.203   5.625   3.770
 2867TIP3    H1 8478   3.231   5.536   3.748
 2867TIP3    H2 8479   3.247   5.645   3.852
 2868TIP3   OH2 8480   3.055   2.251   2.817
 2868TIP3    H1 8481   3.097   2.312   2.757
 2868TIP3    H2 8482   3.041   2.302   2.897
 2869TIP3   OH2 8483   5.258   5.009   3.412
 2869TIP3    H1 8484   5.216   4.938   3.462
 2869TIP3    H2 8485   5.221   5.000   3.324
 2870TIP3   OH2 8486   0.298   5.830   6.620
 2870TIP3    H1 8487   0.300   5.742   6.657
 2870TIP3    H2 8488   0.369   5.831   6.556
 2871TIP3   OH2 8489   2.974   7.781   3.784
 2871TIP3    H1 8490   3.053   7.745   3.744
 2871TIP3    H2 8491   2.933   7.833   3.715
 2872TIP3   OH2 8492   8.344   7.733   7.102
 2872TIP3    H1 8493   8.275   7.669   7.118
 2872TIP3    H2 8494   8.419   7.682   7.072
 2873TIP3   OH2 8495   6.000   7.381   2.657
 2873TIP3    H1 8496   6.008   7.476   2.661
 2873TIP3    H2 8497   6.044   7.350   2.736
 2874TIP3   OH2 8498   8.682   3.448   7.364
 2874TIP3    H1 8499   8.757   3.456   7.305
 2874TIP3    H2 8500   8.633   3.372   7.332
 2875TIP3   OH2 8501   7.723   4.413   1.822
 2875TIP3    H1 8502   7.640   4.369   1.840
 2875TIP3    H2 8503   7.782   4.343   1.793
 2876TIP3   OH2 8504   3.201   7.977   4.399
 2876TIP3    H1 8505   3.278   7.968   4.343
 2876TIP3    H2 8506   3.231   7.951   4.486
 2877TIP3   OH2 8507   8.969   7.716   4.985
 2877TIP3    H1 8508   9.006   7.739   5.070
 2877TIP3    H2 8509   8.882   7.681   5.007
 2878TIP3   OH2 8510   7.508   0.501   1.794
 2878TIP3    H1 8511   7.416   0.524   1.807
 2878TIP3    H2 8512   7.556   0.574   1.833
 2879TIP3   OH2 8513   1.778   6.464   4.666
 2879TIP3    H1 8514   1.752   6.471   4.758
 2879TIP3    H2 8515   1.851   6.401   4.667
 2880TIP3   OH2 8516   6.164   7.497   1.675
 2880TIP3    H1 8517   6.173   7.417   1.728
 2880TIP3    H2 8518   6.207   7.565   1.728
 2881TIP3   OH2 8519   0.262   0.750   6.306
 2881TIP3    H1 8520   0.336   0.718   6.254
 2881TIP3    H2 8521   0.186   0.707   6.269
 2882TIP3   OH2 8522   5.015   5.312   3.395
 2882TIP3    H1 8523   5.024   5.285   3.486
 2882TIP3    H2 8524   5.084   5.265   3.349
 2883TIP3   OH2 8525   8.481   5.339   7.201
 2883TIP3    H1 8526   8.564   5.317   7.242
 2883TIP3    H2 8527   8.465   5.268   7.139
 2884TIP3   OH2 8528   2.623   1.195   4.282
 2884TIP3    H1 8529   2.687   1.186   4.211
 2884TIP3    H2 8530   2.656   1.137   4.351
 2885TIP3   OH2 8531   4.976   6.375   1.908
 2885TIP3    H1 8532   4.883   6.357   1.920
 2885TIP3    H2 8533   4.998   6.436   1.979
 2886TIP3   OH2 8534   5.185   1.226   1.490
 2886TIP3    H1 8535   5.172   1.142   1.534
 2886TIP3    H2 8536   5.239   1.205   1.414
 2887TIP3   OH2 8537   7.645   5.005   5.149
 2887TIP3    H1 8538   7.714   5.053   5.103
 2887TIP3    H2 8539   7.597   4.960   5.080
 2888TIP3   OH2 8540   7.161   7.906   6.704
 2888TIP3    H1 8541   7.182   7.813   6.700
 2888TIP3    H2 8542   7.079   7.910   6.754
 2889TIP3   OH2 8543   7.505   0.664   7.120
 2889TIP3    H1 8544   7.550   0.693   7.041
 2889TIP3    H2 8545   7.469   0.578   7.097
 2890TIP3   OH2 8546   8.700   2.439   5.378
 2890TIP3    H1 8547   8.709   2.386   5.298
 2890TIP3    H2 8548   8.606   2.444   5.393
 2891TIP3   OH2 8549   6.914   1.553   1.950
 2891TIP3    H1 8550   6.959   1.637   1.955
 2891TIP3    H2 8551   6.876   1.541   2.037
 2892TIP3   OH2 8552   6.703   4.865   6.730
 2892TIP3    H1 8553   6.785   4.910   6.709
 2892TIP3    H2 8554   6.643   4.936   6.755
 2893TIP3   OH2 8555   2.923   1.580   6.798
 2893TIP3    H1 8556   2.895   1.524   6.725
 2893TIP3    H2 8557   2.995   1.531   6.839
 2894TIP3   OH2 8558   3.232   5.808   2.302
 2894TIP3    H1 8559   3.234   5.795   2.208
 2894TIP3    H2 8560   3.301   5.872   2.319
 2895TIP3   OH2 8561   0.088   5.054   7.820
 2895TIP3    H1 8562   0.170   5.017   7.786
 2895TIP3    H2 8563   0.048   5.095   7.743
 2896TIP3   OH2 8564   2.131   6.601   5.345
 2896TIP3    H1 8565   2.225   6.587   5.332
 2896TIP3    H2 8566   2.092   6.577   5.261
 2897TIP3   OH2 8567   1.657   3.013   7.232
 2897TIP3    H1 8568   1.716   2.956   7.282
 2897TIP3    H2 8569   1.698   3.099   7.235
 2898TIP3   OH2 8570   9.527   0.712   6.406
 2898TIP3    H1 8571   9.467   0.665   6.348
 2898TIP3    H2 8572   9.534   0.800   6.367
 2899TIP3   OH2 8573   3.312   6.139   0.256
 2899TIP3    H1 8574   3.242   6.153   0.193
 2899TIP3    H2 8575   3.349   6.054   0.233
 2900TIP3   OH2 8576   8.942   2.953   7.256
 2900TIP3    H1 8577   8.938   2.886   7.324
 2900TIP3    H2 8578   9.012   2.924   7.198
 2901TIP3   OH2 8579   7.428   7.598   3.606
 2901TIP3    H1 8580   7.365   7.596   3.535
 2901TIP3    H2 8581   7.434   7.507   3.636
 2902TIP3   OH2 8582   7.770   8.614   6.745
 2902TIP3    H1 8583   7.719   8.550   6.694
 2902TIP3    H2 8584   7.831   8.652   6.682
 2903TIP3   OH2 8585   6.600   0.532   7.039
 2903TIP3    H1 8586   6.669   0.591   7.009
 2903TIP3    H2 8587   6.525   0.589   7.053
 2904TIP3   OH2 8588   8.253   0.863   1.740
 2904TIP3    H1 8589   8.320   0.816   1.789
 2904TIP3    H2 8590   8.267   0.837   1.649
 2905TIP3   OH2 8591   5.691   7.228   2.857
 2905TIP3    H1 8592   5.784   7.213   2.872
 2905TIP3    H2 8593   5.675   7.192   2.769
 2906TIP3   OH2 8594   3.795   5.495   2.835
 2906TIP3    H1 8595   3.826   5.483   2.924
 2906TIP3    H2 8596   3.756   5.582   2.834
 2907TIP3   OH2 8597   4.909   2.462   4.325
 2907TIP3    H1 8598   4.861   2.388   4.289
 2907TIP3    H2 8599   4.859   2.488   4.403
 2908TIP3   OH2 8600   1.102   1.313   3.267
 2908TIP3    H1 8601   1.023   1.361   3.289
 2908TIP3    H2 8602   1.100   1.304   3.172
 2909TIP3   OH2 8603   1.875   5.064   4.485
 2909TIP3    H1 8604   1.941   5.004   4.520
 2909TIP3    H2 8605   1.926   5.136   4.448
 2910TIP3   OH2 8606   5.295   6.524   2.975
 2910TIP3    H1 8607   5.316   6.478   2.894
 2910TIP3    H2 8608   5.220   6.476   3.011
 2911TIP3   OH2 8609   0.488   4.521   3.921
 2911TIP3    H1 8610   0.461   4.613   3.912
 2911TIP3    H2 8611   0.421   4.482   3.977
 2912TIP3   OH2 8612   6.432   2.732   1.273
 2912TIP3    H1 8613   6.449   2.773   1.188
 2912TIP3    H2 8614   6.472   2.792   1.337
 2913TIP3   OH2 8615   6.615   0.755   6.139
 2913TIP3    H1 8616   6.689   0.800   6.180
 2913TIP3    H2 8617   6.594   0.808   6.063
 2914TIP3   OH2 8618   1.628   1.831   5.386
 2914TIP3    H1 8619   1.603   1.771   5.456
 2914TIP3    H2 8620   1.680   1.899   5.429
 2915TIP3   OH2 8621   7.415   8.844   5.830
 2915TIP3    H1 8622   7.372   8.924   5.859
 2915TIP3    H2 8623   7.383   8.830   5.741
 2916TIP3   OH2 8624   0.809   1.091   0.333
 2916TIP3    H1 8625   0.799   0.996   0.341
 2916TIP3    H2 8626   0.873   1.115   0.401
 2917TIP3   OH2 8627   7.133   0.490   0.100
 2917TIP3    H1 8628   7.152   0.567   0.154
 2917TIP3    H2 8629   7.070   0.520   0.035
 2918TIP3   OH2 8630   5.217   1.211   0.711
 2918TIP3    H1 8631   5.149   1.255   0.763
 2918TIP3    H2 8632   5.267   1.161   0.775
 2919TIP3   OH2 8633   8.742   2.338   1.469
 2919TIP3    H1 8634   8.742   2.273   1.399
 2919TIP3    H2 8635   8.782   2.416   1.431
 2920TIP3   OH2 8636   3.258   3.923   1.956
 2920TIP3    H1 8637   3.304   3.976   1.891
 2920TIP3    H2 8638   3.284   3.961   2.040
 2921TIP3   OH2 8639   2.278   1.299   5.180
 2921TIP3    H1 8640   2.361   1.257   5.158
 2921TIP3    H2 8641   2.298   1.352   5.258
 2922TIP3   OH2 8642   6.379   4.400   7.265
 2922TIP3    H1 8643   6.410   4.474   7.317
 2922TIP3    H2 8644   6.380   4.433   7.175
 2923TIP3   OH2 8645   4.603   0.521   0.074
 2923TIP3    H1 8646   4.587   0.599   0.021
 2923TIP3    H2 8647   4.697   0.506   0.066
 2924TIP3   OH2 8648   2.058   8.021   0.034
 2924TIP3    H1 8649   2.069   7.927   0.047
 2924TIP3    H2 8650   2.121   8.043  -0.034
 2925TIP3   OH2 8651   4.225   5.940   3.713
 2925TIP3    H1 8652   4.192   5.910   3.628
 2925TIP3    H2 8653   4.153   5.924   3.774
 2926TIP3   OH2 8654   2.058   6.600   0.322
 2926TIP3    H1 8655   2.122   6.656   0.278
 2926TIP3    H2 8656   2.106   6.561   0.395
 2927TIP3   OH2 8657   3.419   2.049   0.655
 2927TIP3    H1 8658   3.463   2.007   0.728
 2927TIP3    H2 8659   3.432   2.143   0.669
 2928TIP3   OH2 8660   0.211   4.977   5.139
 2928TIP3    H1 8661   0.248   5.030   5.068
 2928TIP3    H2 8662   0.286   4.930   5.176
 2929TIP3   OH2 8663   6.529   1.853   4.274
 2929TIP3    H1 8664   6.545   1.785   4.209
 2929TIP3    H2 8665   6.522   1.807   4.357
 2930TIP3   OH2 8666   6.271   3.027   0.950
 2930TIP3    H1 8667   6.264   3.091   0.879
 2930TIP3    H2 8668   6.359   2.990   0.940
 2931TIP3   OH2 8669   5.412   6.527   5.331
 2931TIP3    H1 8670   5.480   6.594   5.322
 2931TIP3    H2 8671   5.440   6.473   5.404
 2932TIP3   OH2 8672   3.946   7.973   6.116
 2932TIP3    H1 8673   3.903   8.007   6.037
 2932TIP3    H2 8674   4.039   7.983   6.098
 2933TIP3   OH2 8675   1.737   0.581   1.388
 2933TIP3    H1 8676   1.797   0.621   1.452
 2933TIP3    H2 8677   1.763   0.489   1.385
 2934TIP3   OH2 8678   7.109   7.536   2.083
 2934TIP3    H1 8679   7.111   7.441   2.077
 2934TIP3    H2 8680   7.198   7.561   2.105
 2935TIP3   OH2 8681   6.544   2.949   7.651
 2935TIP3    H1 8682   6.512   3.031   7.686
 2935TIP3    H2 8683   6.527   2.885   7.720
 2936TIP3   OH2 8684   8.041   4.789   2.645
 2936TIP3    H1 8685   8.127   4.821   2.673
 2936TIP3    H2 8686   8.002   4.863   2.599
 2937TIP3   OH2 8687   5.723   3.637   2.383
 2937TIP3    H1 8688   5.792   3.626   2.448
 2937TIP3    H2 8689   5.741   3.723   2.344
 2938TIP3   OH2 8690   1.432   6.314   0.443
 2938TIP3    H1 8691   1.486   6.237   0.422
 2938TIP3    H2 8692   1.342   6.283   0.432
 2939TIP3   OH2 8693   4.187   2.869   6.292
 2939TIP3    H1 8694   4.274   2.893   6.259
 2939TIP3    H2 8695   4.201   2.786   6.337
 2940TIP3   OH2 8696   7.937   6.334   0.599
 2940TIP3    H1 8697   7.934   6.282   0.680
 2940TIP3    H2 8698   7.853   6.318   0.556
 2941TIP3   OH2 8699   6.173   6.024   0.766
 2941TIP3    H1 8700   6.193   6.115   0.789
 2941TIP3    H2 8701   6.079   6.024   0.748
 2942TIP3   OH2 8702   6.056   4.933   7.237
 2942TIP3    H1 8703   5.961   4.924   7.240
 2942TIP3    H2 8704   6.087   4.847   7.210
 2943TIP3   OH2 8705   7.994   7.024   2.681
 2943TIP3    H1 8706   8.017   6.999   2.592
 2943TIP3    H2 8707   7.899   7.040   2.678
 2944TIP3   OH2 8708   0.213   0.123   6.920
 2944TIP3    H1 8709   0.162   0.063   6.975
 2944TIP3    H2 8710   0.295   0.135   6.967
 2945TIP3   OH2 8711   0.715   6.524   4.883
 2945TIP3    H1 8712   0.774   6.456   4.852
 2945TIP3    H2 8713   0.740   6.602   4.833
 2946TIP3   OH2 8714   9.078   5.047   3.793
 2946TIP3    H1 8715   9.127   4.977   3.835
 2946TIP3    H2 8716   9.143   5.114   3.772
 2947TIP3   OH2 8717   2.574   1.863   0.143
 2947TIP3    H1 8718   2.594   1.849   0.236
 2947TIP3    H2 8719   2.658   1.851   0.099
 2948TIP3   OH2 8720   7.706   3.695   0.473
 2948TIP3    H1 8721   7.752   3.745   0.541
 2948TIP3    H2 8722   7.724   3.603   0.495
 2949TIP3   OH2 8723   3.726   0.035   1.506
 2949TIP3    H1 8724   3.784   0.102   1.471
 2949TIP3    H2 8725   3.726   0.049   1.600
 2950TIP3   OH2 8726   7.914   8.425   4.950
 2950TIP3    H1 8727   7.928   8.520   4.952
 2950TIP3    H2 8728   7.926   8.402   4.858
 2951TIP3   OH2 8729   8.509   0.552   4.331
 2951TIP3    H1 8730   8.528   0.595   4.247
 2951TIP3    H2 8731   8.415   0.565   4.344
 2952TIP3   OH2 8732   7.741   3.332   5.485
 2952TIP3    H1 8733   7.787   3.300   5.563
 2952TIP3    H2 8734   7.665   3.274   5.476
 2953TIP3   OH2 8735   0.213   4.024   2.085
 2953TIP3    H1 8736   0.229   3.980   2.168
 2953TIP3    H2 8737   0.295   4.070   2.065
 2954TIP3   OH2 8738   4.026   6.363   3.067
 2954TIP3    H1 8739   3.954   6.372   3.005
 2954TIP3    H2 8740   4.102   6.398   3.020
 2955TIP3   OH2 8741   5.154   2.683   0.056
 2955TIP3    H1 8742   5.159   2.734   0.136
 2955TIP3    H2 8743   5.204   2.733  -0.008
 2956TIP3   OH2 8744   4.460   0.436   3.471
 2956TIP3    H1 8745   4.497   0.370   3.412
 2956TIP3    H2 8746   4.487   0.520   3.434
 2957TIP3   OH2 8747   2.218   2.547   1.877
 2957TIP3    H1 8748   2.219   2.489   1.801
 2957TIP3    H2 8749   2.239   2.633   1.842
 2958TIP3   OH2 8750   0.769   3.697   2.496
 2958TIP3    H1 8751   0.841   3.739   2.449
 2958TIP3    H2 8752   0.690   3.725   2.449
 2959TIP3   OH2 8753   7.528   0.857   1.520
 2959TIP3    H1 8754   7.584   0.787   1.554
 2959TIP3    H2 8755   7.498   0.903   1.599
 2960TIP3   OH2 8756   2.037   0.510   7.636
 2960TIP3    H1 8757   2.105   0.502   7.569
 2960TIP3    H2 8758   2.068   0.579   7.694
 2961TIP3   OH2 8759   8.154   3.069   4.217
 2961TIP3    H1 8760   8.060   3.057   4.228
 2961TIP3    H2 8761   8.178   3.134   4.283
 2962TIP3   OH2 8762   6.948   2.037   5.480
 2962TIP3    H1 8763   7.016   2.005   5.540
 2962TIP3    H2 8764   6.868   2.037   5.533
 2963TIP3   OH2 8765   3.467   7.763   6.206
 2963TIP3    H1 8766   3.537   7.697   6.212
 2963TIP3    H2 8767   3.443   7.763   6.113
 2964TIP3   OH2 8768   9.178   1.027   6.925
 2964TIP3    H1 8769   9.144   0.944   6.893
 2964TIP3    H2 8770   9.104   1.067   6.972
 2965TIP3   OH2 8771   0.402   0.562   7.513
 2965TIP3    H1 8772   0.318   0.519   7.528
 2965TIP3    H2 8773   0.455   0.540   7.589
 2966TIP3   OH2 8774   0.431   1.135   1.253
 2966TIP3    H1 8775   0.367   1.200   1.224
 2966TIP3    H2 8776   0.397   1.105   1.337
 2967TIP3   OH2 8777   5.052   1.430   6.783
 2967TIP3    H1 8778   5.032   1.364   6.849
 2967TIP3    H2 8779   5.146   1.446   6.792
 2968TIP3   OH2 8780   3.218   6.859   7.333
 2968TIP3    H1 8781   3.161   6.783   7.346
 2968TIP3    H2 8782   3.215   6.907   7.416
 2969TIP3   OH2 8783   3.744   4.700   6.396
 2969TIP3    H1 8784   3.749   4.761   6.322
 2969TIP3    H2 8785   3.664   4.726   6.443
 2970TIP3   OH2 8786   1.689   8.307   7.531
 2970TIP3    H1 8787   1.756   8.281   7.468
 2970TIP3    H2 8788   1.614   8.251   7.511
 2971TIP3   OH2 8789   2.615   3.656   7.224
 2971TIP3    H1 8790   2.589   3.580   7.172
 2971TIP3    H2 8791   2.569   3.644   7.308
 2972TIP3   OH2 8792   6.509   6.500   0.234
 2972TIP3    H1 8793   6.506   6.407   0.210
 2972TIP3    H2 8794   6.482   6.546   0.154
 2973TIP3   OH2 8795   7.128   1.313   7.043
 2973TIP3    H1 8796   7.157   1.238   7.094
 2973TIP3    H2 8797   7.045   1.339   7.082
 2974TIP3   OH2 8798   2.792   1.935   2.236
 2974TIP3    H1 8799   2.717   1.911   2.181
 2974TIP3    H2 8800   2.769   2.020   2.272
 2975TIP3   OH2 8801   5.360   7.931   1.347
 2975TIP3    H1 8802   5.425   7.941   1.417
 2975TIP3    H2 8803   5.335   7.839   1.352
 2976TIP3   OH2 8804   9.106   6.746   2.495
 2976TIP3    H1 8805   9.067   6.671   2.539
 2976TIP3    H2 8806   9.119   6.811   2.565
 2977TIP3   OH2 8807   8.568   0.417   7.093
 2977TIP3    H1 8808   8.598   0.417   7.184
 2977TIP3    H2 8809   8.483   0.461   7.095
 2978TIP3   OH2 8810   3.737   0.273   4.128
 2978TIP3    H1 8811   3.789   0.286   4.048
 2978TIP3    H2 8812   3.671   0.342   4.126
 2979TIP3   OH2 8813   5.935   6.412   0.371
 2979TIP3    H1 8814   6.009   6.463   0.340
 2979TIP3    H2 8815   5.929   6.338   0.311
 2980TIP3   OH2 8816   3.856   5.915   4.165
 2980TIP3    H1 8817   3.798   5.972   4.217
 2980TIP3    H2 8818   3.885   5.848   4.226
 2981TIP3   OH2 8819   6.497   7.380   0.864
 2981TIP3    H1 8820   6.502   7.427   0.780
 2981TIP3    H2 8821   6.435   7.432   0.916
 2982TIP3   OH2 8822   6.573   7.553   1.211
 2982TIP3    H1 8823   6.571   7.611   1.134
 2982TIP3    H2 8824   6.481   7.536   1.230
 2983TIP3   OH2 8825   6.560   4.983   4.309
 2983TIP3    H1 8826   6.632   5.042   4.333
 2983TIP3    H2 8827   6.532   5.014   4.223
 2984TIP3   OH2 8828   8.856   4.554   5.957
 2984TIP3    H1 8829   8.887   4.605   5.882
 2984TIP3    H2 8830   8.770   4.590   5.977
 2985TIP3   OH2 8831   9.178   5.125   1.886
 2985TIP3    H1 8832   9.115   5.053   1.895
 2985TIP3    H2 8833   9.263   5.082   1.876
 2986TIP3   OH2 8834   6.975   7.518   6.876
 2986TIP3    H1 8835   6.978   7.553   6.787
 2986TIP3    H2 8836   6.896   7.556   6.914
 2987TIP3   OH2 8837   5.809   6.856   1.695
 2987TIP3    H1 8838   5.793   6.948   1.675
 2987TIP3    H2 8839   5.875   6.828   1.632
 2988TIP3   OH2 8840   9.286   1.122   2.333
 2988TIP3    H1 8841   9.257   1.042   2.377
 2988TIP3    H2 8842   9.366   1.097   2.287
 2989TIP3   OH2 8843   0.093   4.987   4.059
 2989TIP3    H1 8844   0.143   4.924   4.110
 2989TIP3    H2 8845   0.157   5.026   4.000
 2990TIP3   OH2 8846   2.009   0.129   6.334
 2990TIP3    H1 8847   1.918   0.155   6.347
 2990TIP3    H2 8848   2.006   0.034   6.326
 2991TIP3   OH2 8849   8.468   7.073   5.733
 2991TIP3    H1 8850   8.493   7.064   5.641
 2991TIP3    H2 8851   8.494   6.990   5.773
 2992TIP3   OH2 8852   4.830   8.541   2.427
 2992TIP3    H1 8853   4.919   8.510   2.443
 2992TIP3    H2 8854   4.810   8.597   2.502
 2993TIP3   OH2 8855   0.359   8.199   4.296
 2993TIP3    H1 8856   0.323   8.122   4.251
 2993TIP3    H2 8857   0.330   8.273   4.243
 2994TIP3   OH2 8858   4.817   7.652   3.813
 2994TIP3    H1 8859   4.728   7.668   3.846
 2994TIP3    H2 8860   4.861   7.736   3.820
 2995TIP3   OH2 8861   0.777   7.860   7.349
 2995TIP3    H1 8862   0.757   7.932   7.289
 2995TIP3    H2 8863   0.725   7.879   7.427
 2996TIP3   OH2 8864   9.064   0.325   7.086
 2996TIP3    H1 8865   8.970   0.306   7.087
 2996TIP3    H2 8866   9.100   0.270   7.155
 2997TIP3   OH2 8867   7.038   6.996   5.965
 2997TIP3    H1 8868   7.060   7.028   5.878
 2997TIP3    H2 8869   6.945   7.016   5.976
 2998TIP3   OH2 8870   0.236   1.913   1.595
 2998TIP3    H1 8871   0.219   1.954   1.510
 2998TIP3    H2 8872   0.149   1.886   1.625
 2999TIP3   OH2 8873   6.441   6.932   5.632
 2999TIP3    H1 8874   6.377   6.959   5.699
 2999TIP3    H2 8875   6.480   7.014   5.602
 3000TIP3   OH2 8876   4.646   7.317   1.169
 3000TIP3    H1 8877   4.620   7.225   1.159
 3000TIP3    H2 8878   4.639   7.353   1.080
 3001TIP3   OH2 8879   4.622   5.800   1.438
 3001TIP3    H1 8880   4.698   5.758   1.398
 3001TIP3    H2 8881   4.658   5.878   1.480
 3002TIP3   OH2 8882   5.940   0.808   4.196
 3002TIP3    H1 8883   6.000   0.880   4.178
 3002TIP3    H2 8884   5.979   0.733   4.151
 3003TIP3   OH2 8885   0.037   7.567   4.938
 3003TIP3    H1 8886   0.079   7.593   4.855
 3003TIP3    H2 8887  -0.005   7.484   4.918
 3004TIP3   OH2 8888   4.720   7.931   6.920
 3004TIP3    H1 8889   4.775   8.003   6.952
 3004TIP3    H2 8890   4.770   7.894   6.848
 3005TIP3   OH2 8891   5.022   1.889   6.217
 3005TIP3    H1 8892   4.974   1.817   6.257
 3005TIP3    H2 8893   5.070   1.930   6.290
 3006TIP3   OH2 8894   6.234   4.251   3.584
 3006TIP3    H1 8895   6.214   4.186   3.517
 3006TIP3    H2 8896   6.320   4.285   3.560
 3007TIP3   OH2 8897   8.193   6.949   1.032
 3007TIP3    H1 8898   8.200   6.873   0.974
 3007TIP3    H2 8899   8.105   6.983   1.016
 3008TIP3   OH2 8900   4.768   6.738   1.811
 3008TIP3    H1 8901   4.718   6.788   1.877
 3008TIP3    H2 8902   4.793   6.804   1.746
 3009TIP3   OH2 8903   0.173   6.704   0.985
 3009TIP3    H1 8904   0.217   6.748   0.912
 3009TIP3    H2 8905   0.192   6.611   0.972
 3010TIP3   OH2 8906   6.966   7.899   2.672
 3010TIP3    H1 8907   7.021   7.977   2.664
 3010TIP3    H2 8908   6.979   7.852   2.590
 3011TIP3   OH2 8909   7.497   1.106   3.601
 3011TIP3    H1 8910   7.494   1.107   3.506
 3011TIP3    H2 8911   7.489   1.199   3.626
 3012TIP3   OH2 8912   2.680   8.998   4.914
 3012TIP3    H1 8913   2.766   9.030   4.943
 3012TIP3    H2 8914   2.676   8.908   4.946
 3013TIP3   OH2 8915   3.902   0.485   6.378
 3013TIP3    H1 8916   3.823   0.442   6.346
 3013TIP3    H2 8917   3.971   0.420   6.368
 3014TIP3   OH2 8918   2.486   4.183   3.736
 3014TIP3    H1 8919   2.393   4.162   3.728
 3014TIP3    H2 8920   2.501   4.250   3.670
 3015TIP3   OH2 8921   0.168   6.751   2.517
 3015TIP3    H1 8922   0.173   6.846   2.519
 3015TIP3    H2 8923   0.184   6.723   2.607
 3016TIP3   OH2 8924   9.013   1.286   4.618
 3016TIP3    H1 8925   9.064   1.208   4.639
 3016TIP3    H2 8926   8.933   1.278   4.671
 3017TIP3   OH2 8927   7.138   5.487   4.840
 3017TIP3    H1 8928   7.130   5.443   4.924
 3017TIP3    H2 8929   7.168   5.419   4.780
 3018TIP3   OH2 8930   7.535   4.416   6.397
 3018TIP3    H1 8931   7.532   4.487   6.460
 3018TIP3    H2 8932   7.507   4.455   6.314
 3019TIP3   OH2 8933   5.957   2.430   7.211
 3019TIP3    H1 8934   6.021   2.501   7.215
 3019TIP3    H2 8935   5.922   2.435   7.122
 3020TIP3   OH2 8936   2.787   3.049   1.651
 3020TIP3    H1 8937   2.856   3.096   1.604
 3020TIP3    H2 8938   2.781   2.964   1.607
 3021TIP3   OH2 8939   0.561   3.893   7.611
 3021TIP3    H1 8940   0.592   3.803   7.616
 3021TIP3    H2 8941   0.636   3.943   7.578
 3022TIP3   OH2 8942   2.103   7.647   1.934
 3022TIP3    H1 8943   2.073   7.623   2.021
 3022TIP3    H2 8944   2.164   7.577   1.909
 3023TIP3   OH2 8945   8.124   5.815   3.923
 3023TIP3    H1 8946   8.160   5.885   3.868
 3023TIP3    H2 8947   8.036   5.799   3.887
 3024TIP3   OH2 8948   7.025   0.874   4.250
 3024TIP3    H1 8949   7.109   0.920   4.243
 3024TIP3    H2 8950   7.014   0.860   4.344
 3025TIP3   OH2 8951   4.886   2.170   6.199
 3025TIP3    H1 8952   4.795   2.183   6.173
 3025TIP3    H2 8953   4.882   2.112   6.274
 3026TIP3   OH2 8954   4.771   7.657   5.042
 3026TIP3    H1 8955   4.837   7.620   4.983
 3026TIP3    H2 8956   4.808   7.644   5.130
 3027TIP3   OH2 8957   8.166   5.510   0.489
 3027TIP3    H1 8958   8.194   5.452   0.418
 3027TIP3    H2 8959   8.074   5.487   0.503
 3028TIP3   OH2 8960   5.943   8.692   0.306
 3028TIP3    H1 8961   5.947   8.672   0.399
 3028TIP3    H2 8962   6.035   8.694   0.277
 3029TIP3   OH2 8963   4.671   2.910   6.694
 3029TIP3    H1 8964   4.727   2.834   6.709
 3029TIP3    H2 8965   4.725   2.970   6.642
 3030TIP3   OH2 8966   6.814   6.371   7.004
 3030TIP3    H1 8967   6.795   6.279   6.989
 3030TIP3    H2 8968   6.904   6.372   7.035
 3031TIP3   OH2 8969   6.536   0.439   0.512
 3031TIP3    H1 8970   6.545   0.350   0.478
 3031TIP3    H2 8971   6.482   0.484   0.447
 3032TIP3   OH2 8972   6.626   3.719   3.603
 3032TIP3    H1 8973   6.610   3.685   3.691
 3032TIP3    H2 8974   6.718   3.746   3.604
 3033TIP3   OH2 8975   6.529   3.208   0.210
 3033TIP3    H1 8976   6.450   3.160   0.231
 3033TIP3    H2 8977   6.584   3.200   0.288
 3034TIP3   OH2 8978   9.128   1.678   3.275
 3034TIP3    H1 8979   9.126   1.582   3.276
 3034TIP3    H2 8980   9.099   1.702   3.187
 3035TIP3   OH2 8981   0.659   7.509   3.749
 3035TIP3    H1 8982   0.610   7.540   3.825
 3035TIP3    H2 8983   0.681   7.419   3.770
 3036TIP3   OH2 8984   7.046   7.319   0.348
 3036TIP3    H1 8985   7.048   7.315   0.252
 3036TIP3    H2 8986   7.011   7.406   0.367
 3037TIP3   OH2 8987   4.990   1.403   4.287
 3037TIP3    H1 8988   4.960   1.426   4.375
 3037TIP3    H2 8989   4.972   1.481   4.234
 3038TIP3   OH2 8990   3.325   6.394   1.155
 3038TIP3    H1 8991   3.344   6.310   1.113
 3038TIP3    H2 8992   3.409   6.421   1.193
 3039TIP3   OH2 8993   5.006   7.377   2.387
 3039TIP3    H1 8994   5.082   7.319   2.377
 3039TIP3    H2 8995   4.933   7.326   2.352
 3040TIP3   OH2 8996   5.654   0.542   2.363
 3040TIP3    H1 8997   5.697   0.512   2.443
 3040TIP3    H2 8998   5.686   0.631   2.351
 3041TIP3   OH2 8999   7.075   3.900   0.502
 3041TIP3    H1 9000   6.998   3.844   0.504
 3041TIP3    H2 9001   7.137   3.858   0.562
 3042TIP3   OH2 9002   0.258   7.211   2.819
 3042TIP3    H1 9003   0.287   7.302   2.812
 3042TIP3    H2 9004   0.263   7.177   2.730
 3043TIP3   OH2 9005   3.396   5.346   0.503
 3043TIP3    H1 9006   3.431   5.433   0.518
 3043TIP3    H2 9007   3.463   5.287   0.539
 3044TIP3   OH2 9008   2.454   2.948   6.834
 3044TIP3    H1 9009   2.506   2.867   6.833
 3044TIP3    H2 9010   2.389   2.935   6.764
 3045TIP3   OH2 9011   0.958   4.681   6.177
 3045TIP3    H1 9012   0.899   4.679   6.253
 3045TIP3    H2 9013   0.943   4.597   6.134
 3046TIP3   OH2 9014   0.590   2.711   3.258
 3046TIP3    H1 9015   0.567   2.620   3.277
 3046TIP3    H2 9016   0.681   2.706   3.227
 3047TIP3   OH2 9017   6.811   1.316   2.348
 3047TIP3    H1 9018   6.887   1.299   2.293
 3047TIP3    H2 9019   6.842   1.299   2.437
 3048TIP3   OH2 9020   8.288   1.546   2.967
 3048TIP3    H1 9021   8.222   1.614   2.960
 3048TIP3    H2 9022   8.372   1.592   2.968
 3049TIP3   OH2 9023   3.009   8.602   1.615
 3049TIP3    H1 9024   3.028   8.594   1.709
 3049TIP3    H2 9025   2.934   8.661   1.611
 3050TIP3   OH2 9026   8.695   8.227   0.144
 3050TIP3    H1 9027   8.672   8.293   0.209
 3050TIP3    H2 9028   8.641   8.151   0.167
 3051TIP3   OH2 9029   8.728   8.386   2.026
 3051TIP3    H1 9030   8.638   8.391   1.993
 3051TIP3    H2 9031   8.783   8.388   1.947
 3052TIP3   OH2 9032   1.785   5.208   6.024
 3052TIP3    H1 9033   1.841   5.285   6.030
 3052TIP3    H2 9034   1.818   5.161   5.948
 3053TIP3   OH2 9035   0.343   5.341   4.499
 3053TIP3    H1 9036   0.269   5.338   4.560
 3053TIP3    H2 9037   0.342   5.256   4.456
 3054TIP3   OH2 9038   3.333   4.961   6.292
 3054TIP3    H1 9039   3.334   4.913   6.375
 3054TIP3    H2 9040   3.324   4.893   6.226
 3055TIP3   OH2 9041   5.355   5.795   1.445
 3055TIP3    H1 9042   5.432   5.764   1.398
 3055TIP3    H2 9043   5.369   5.769   1.536
 3056TIP3   OH2 9044   3.319   4.901   3.876
 3056TIP3    H1 9045   3.249   4.911   3.941
 3056TIP3    H2 9046   3.282   4.934   3.795
 3057TIP3   OH2 9047   9.216   3.007   3.265
 3057TIP3    H1 9048   9.172   2.965   3.339
 3057TIP3    H2 9049   9.300   3.037   3.301
 3058TIP3   OH2 9050   5.355   6.125   5.130
 3058TIP3    H1 9051   5.364   6.172   5.213
 3058TIP3    H2 9052   5.284   6.063   5.144
 3059TIP3   OH2 9053   3.887   1.450   7.506
 3059TIP3    H1 9054   3.967   1.462   7.455
 3059TIP3    H2 9055   3.868   1.536   7.542
 3060TIP3   OH2 9056   7.006   5.884   6.178
 3060TIP3    H1 9057   7.012   5.788   6.183
 3060TIP3    H2 9058   7.059   5.915   6.252
 3061TIP3   OH2 9059   5.799   4.612   4.619
 3061TIP3    H1 9060   5.767   4.644   4.534
 3061TIP3    H2 9061   5.796   4.517   4.611
 3062TIP3   OH2 9062   5.781   4.877   7.190
 3062TIP3    H1 9063   5.731   4.938   7.244
 3062TIP3    H2 9064   5.780   4.917   7.103
 3063TIP3   OH2 9065   8.696   7.633   3.839
 3063TIP3    H1 9066   8.609   7.597   3.855
 3063TIP3    H2 9067   8.713   7.614   3.747
 3064TIP3   OH2 9068   4.858   3.550   3.525
 3064TIP3    H1 9069   4.866   3.473   3.582
 3064TIP3    H2 9070   4.947   3.570   3.499
 3065TIP3   OH2 9071   0.282   8.823   0.683
 3065TIP3    H1 9072   0.315   8.735   0.699
 3065TIP3    H2 9073   0.355   8.869   0.641
 3066TIP3   OH2 9074   8.907   6.119   3.804
 3066TIP3    H1 9075   8.942   6.207   3.796
 3066TIP3    H2 9076   8.984   6.063   3.817
 3067TIP3   OH2 9077   8.146   2.776   1.598
 3067TIP3    H1 9078   8.142   2.768   1.503
 3067TIP3    H2 9079   8.068   2.731   1.630
 3068TIP3   OH2 9080   6.744   3.592   5.845
 3068TIP3    H1 9081   6.816   3.574   5.907
 3068TIP3    H2 9082   6.755   3.527   5.776
 3069TIP3   OH2 9083   5.077   6.572   0.963
 3069TIP3    H1 9084   5.130   6.495   0.943
 3069TIP3    H2 9085   5.112   6.640   0.906
 3070TIP3   OH2 9086   0.332   2.275   2.105
 3070TIP3    H1 9087   0.392   2.254   2.177
 3070TIP3    H2 9088   0.387   2.319   2.040
 3071TIP3   OH2 9089   4.233   1.501   0.950
 3071TIP3    H1 9090   4.147   1.536   0.927
 3071TIP3    H2 9091   4.264   1.459   0.870
 3072TIP3   OH2 9092   4.686   4.519   6.621
 3072TIP3    H1 9093   4.667   4.598   6.570
 3072TIP3    H2 9094   4.770   4.537   6.663
 3073TIP3   OH2 9095   1.126   7.359   5.770
 3073TIP3    H1 9096   1.171   7.276   5.789
 3073TIP3    H2 9097   1.108   7.396   5.856
 3074TIP3   OH2 9098   7.726   2.504   6.972
 3074TIP3    H1 9099   7.780   2.562   7.026
 3074TIP3    H2 9100   7.651   2.482   7.027
 3075TIP3   OH2 9101   0.028   4.760   7.814
 3075TIP3    H1 9102  -0.027   4.785   7.740
 3075TIP3    H2 9103  -0.006   4.810   7.888
 3076TIP3   OH2 9104   3.043   3.575   4.334
 3076TIP3    H1 9105   3.113   3.555   4.396
 3076TIP3    H2 9106   3.015   3.489   4.301
 3077TIP3   OH2 9107   2.662   2.406   4.421
 3077TIP3    H1 9108   2.578   2.376   4.455
 3077TIP3    H2 9109   2.687   2.341   4.355
 3078TIP3   OH2 9110   9.548   5.408   4.201
 3078TIP3    H1 9111   9.608   5.333   4.204
 3078TIP3    H2 9112   9.600   5.482   4.232
 3079TIP3   OH2 9113   1.462   0.739   4.138
 3079TIP3    H1 9114   1.471   0.742   4.043
 3079TIP3    H2 9115   1.421   0.822   4.161
 3080TIP3   OH2 9116   5.791   6.907   2.841
 3080TIP3    H1 9117   5.769   6.837   2.779
 3080TIP3    H2 9118   5.833   6.861   2.914
 3081TIP3   OH2 9119   1.154   2.146   0.472
 3081TIP3    H1 9120   1.081   2.137   0.410
 3081TIP3    H2 9121   1.222   2.088   0.437
 3082TIP3   OH2 9122   5.287   2.424   0.072
 3082TIP3    H1 9123   5.357   2.413   0.007
 3082TIP3    H2 9124   5.240   2.502   0.043
 3083TIP3   OH2 9125   8.685   7.833   2.869
 3083TIP3    H1 9126   8.660   7.749   2.831
 3083TIP3    H2 9127   8.780   7.825   2.884
 3084TIP3   OH2 9128   8.457   4.765   5.258
 3084TIP3    H1 9129   8.524   4.802   5.315
 3084TIP3    H2 9130   8.474   4.804   5.172
 3085TIP3   OH2 9131   7.008   7.069   1.435
 3085TIP3    H1 9132   7.035   6.978   1.428
 3085TIP3    H2 9133   6.947   7.082   1.362
 3086TIP3   OH2 9134   1.223   1.132   3.776
 3086TIP3    H1 9135   1.261   1.153   3.691
 3086TIP3    H2 9136   1.129   1.124   3.760
 3087TIP3   OH2 9137   2.346   7.841   6.717
 3087TIP3    H1 9138   2.357   7.891   6.798
 3087TIP3    H2 9139   2.434   7.810   6.696
 3088TIP3   OH2 9140   2.607   5.349   1.287
 3088TIP3    H1 9141   2.672   5.374   1.353
 3088TIP3    H2 9142   2.524   5.345   1.336
 3089TIP3   OH2 9143   7.074   5.305   6.208
 3089TIP3    H1 9144   7.114   5.323   6.123
 3089TIP3    H2 9145   7.147   5.275   6.263
 3090TIP3   OH2 9146   4.976   1.580   6.073
 3090TIP3    H1 9147   4.903   1.542   6.122
 3090TIP3    H2 9148   5.045   1.590   6.138
 3091TIP3   OH2 9149   1.525   8.422   3.738
 3091TIP3    H1 9150   1.470   8.376   3.801
 3091TIP3    H2 9151   1.586   8.354   3.707
 3092TIP3   OH2 9152   7.114   2.383   0.716
 3092TIP3    H1 9153   7.076   2.433   0.644
 3092TIP3    H2 9154   7.039   2.348   0.764
 3093TIP3   OH2 9155   3.962   0.140   2.868
 3093TIP3    H1 9156   3.970   0.045   2.855
 3093TIP3    H2 9157   3.965   0.151   2.963
 3094TIP3   OH2 9158   3.697   6.485   6.198
 3094TIP3    H1 9159   3.744   6.402   6.209
 3094TIP3    H2 9160   3.638   6.489   6.274
 3095TIP3   OH2 9161   8.054   8.176   4.994
 3095TIP3    H1 9162   8.049   8.266   4.961
 3095TIP3    H2 9163   8.031   8.183   5.087
 3096TIP3   OH2 9164   5.864   1.702   1.776
 3096TIP3    H1 9165   5.805   1.749   1.835
 3096TIP3    H2 9166   5.952   1.727   1.805
 3097TIP3   OH2 9167   5.269   5.746   2.162
 3097TIP3    H1 9168   5.218   5.680   2.209
 3097TIP3    H2 9169   5.215   5.824   2.163
 3098TIP3   OH2 9170   0.827   5.362   1.563
 3098TIP3    H1 9171   0.807   5.452   1.589
 3098TIP3    H2 9172   0.758   5.338   1.501
 3099TIP3   OH2 9173   6.029   6.527   7.378
 3099TIP3    H1 9174   6.038   6.460   7.446
 3099TIP3    H2 9175   5.957   6.496   7.323
 3100TIP3   OH2 9176   8.063   8.798   2.856
 3100TIP3    H1 9177   8.109   8.871   2.897
 3100TIP3    H2 9178   8.122   8.724   2.866
 3101TIP3   OH2 9179   1.086   1.742   3.151
 3101TIP3    H1 9180   0.991   1.754   3.149
 3101TIP3    H2 9181   1.100   1.656   3.110
 3102TIP3   OH2 9182   1.179   6.431   2.226
 3102TIP3    H1 9183   1.162   6.356   2.283
 3102TIP3    H2 9184   1.092   6.458   2.195
 3103TIP3   OH2 9185   3.010   2.063   1.318
 3103TIP3    H1 9186   2.960   2.014   1.252
 3103TIP3    H2 9187   2.998   2.155   1.294
 3104TIP3   OH2 9188   3.456   1.437   5.587
 3104TIP3    H1 9189   3.453   1.485   5.505
 3104TIP3    H2 9190   3.366   1.403   5.598
 3105TIP3   OH2 9191   0.309   1.257   2.798
 3105TIP3    H1 9192   0.284   1.319   2.729
 3105TIP3    H2 9193   0.305   1.308   2.879
 3106TIP3   OH2 9194   8.725   1.095   4.571
 3106TIP3    H1 9195   8.656   1.132   4.516
 3106TIP3    H2 9196   8.764   1.026   4.517
 3107TIP3   OH2 9197   0.425   5.151   6.031
 3107TIP3    H1 9198   0.413   5.078   5.971
 3107TIP3    H2 9199   0.483   5.118   6.099
 3108TIP3   OH2 9200   5.847   4.025   4.464
 3108TIP3    H1 9201   5.847   3.956   4.398
 3108TIP3    H2 9202   5.804   3.985   4.540
 3109TIP3   OH2 9203   7.911   3.353   6.204
 3109TIP3    H1 9204   7.827   3.315   6.179
 3109TIP3    H2 9205   7.898   3.448   6.197
 3110TIP3   OH2 9206   9.389   7.284   3.827
 3110TIP3    H1 9207   9.407   7.376   3.807
 3110TIP3    H2 9208   9.465   7.255   3.876
 3111TIP3   OH2 9209   0.954   2.899   7.415
 3111TIP3    H1 9210   0.929   2.811   7.445
 3111TIP3    H2 9211   0.982   2.945   7.494
 3112TIP3   OH2 9212   0.073   3.666   1.955
 3112TIP3    H1 9213   0.158   3.698   1.926
 3112TIP3    H2 9214   0.087   3.639   2.046
 3113TIP3   OH2 9215   6.573   4.694   0.142
 3113TIP3    H1 9216   6.508   4.628   0.165
 3113TIP3    H2 9217   6.572   4.755   0.216
 3114TIP3   OH2 9218   4.136   5.372   6.359
 3114TIP3    H1 9219   4.183   5.417   6.430
 3114TIP3    H2 9220   4.055   5.342   6.400
 3115TIP3   OH2 9221   2.428   0.370   6.872
 3115TIP3    H1 9222   2.515   0.341   6.900
 3115TIP3    H2 9223   2.416   0.331   6.786
 3116TIP3   OH2 9224   8.233   1.123   7.718
 3116TIP3    H1 9225   8.315   1.136   7.766
 3116TIP3    H2 9226   8.200   1.038   7.749
 3117TIP3   OH2 9227   8.194   4.948   1.863
 3117TIP3    H1 9228   8.255   4.986   1.800
 3117TIP3    H2 9229   8.176   5.018   1.925
 3118TIP3   OH2 9230   8.443   5.241   4.177
 3118TIP3    H1 9231   8.403   5.154   4.171
 3118TIP3    H2 9232   8.530   5.231   4.138
 3119TIP3   OH2 9233   0.816   6.175   5.825
 3119TIP3    H1 9234   0.795   6.250   5.768
 3119TIP3    H2 9235   0.892   6.203   5.875
 3120TIP3   OH2 9236   3.432   3.074   2.705
 3120TIP3    H1 9237   3.471   3.153   2.667
 3120TIP3    H2 9238   3.504   3.011   2.708
 3121TIP3   OH2 9239   9.571   8.276   0.768
 3121TIP3    H1 9240   9.552   8.343   0.702
 3121TIP3    H2 9241   9.501   8.286   0.832
 3122TIP3   OH2 9242   1.980   7.838   2.878
 3122TIP3    H1 9243   1.945   7.927   2.869
 3122TIP3    H2 9244   1.902   7.782   2.885
 3123TIP3   OH2 9245   9.285   3.993   4.251
 3123TIP3    H1 9246   9.207   3.975   4.304
 3123TIP3    H2 9247   9.341   3.916   4.264
 3124TIP3   OH2 9248   3.640   6.240   1.316
 3124TIP3    H1 9249   3.725   6.208   1.345
 3124TIP3    H2 9250   3.660   6.307   1.250
 3125TIP3   OH2 9251   5.610   6.979   5.191
 3125TIP3    H1 9252   5.688   6.987   5.136
 3125TIP3    H2 9253   5.618   7.051   5.253
 3126TIP3   OH2 9254   5.449   2.702   3.715
 3126TIP3    H1 9255   5.425   2.671   3.802
 3126TIP3    H2 9256   5.397   2.782   3.703
 3127TIP3   OH2 9257   4.055   5.823   3.539
 3127TIP3    H1 9258   4.080   5.731   3.533
 3127TIP3    H2 9259   3.977   5.831   3.485
 3128TIP3   OH2 9260   1.297   0.286   1.187
 3128TIP3    H1 9261   1.318   0.352   1.253
 3128TIP3    H2 9262   1.369   0.292   1.124
 3129TIP3   OH2 9263   5.434   7.980   0.812
 3129TIP3    H1 9264   5.406   7.889   0.819
 3129TIP3    H2 9265   5.525   7.981   0.842
 3130TIP3   OH2 9266   9.096   4.311   1.904
 3130TIP3    H1 9267   9.128   4.228   1.939
 3130TIP3    H2 9268   9.152   4.329   1.829
 3131TIP3   OH2 9269   8.340   0.224   3.776
 3131TIP3    H1 9270   8.352   0.146   3.723
 3131TIP3    H2 9271   8.355   0.196   3.866
 3132TIP3   OH2 9272   4.426   6.868   2.441
 3132TIP3    H1 9273   4.386   6.877   2.527
 3132TIP3    H2 9274   4.520   6.876   2.458
 3133TIP3   OH2 9275   1.719   3.496   2.517
 3133TIP3    H1 9276   1.705   3.419   2.461
 3133TIP3    H2 9277   1.675   3.474   2.599
 3134TIP3   OH2 9278   3.600   0.438   2.827
 3134TIP3    H1 9279   3.620   0.529   2.804
 3134TIP3    H2 9280   3.545   0.407   2.755
 3135TIP3   OH2 9281   9.433   2.195   7.545
 3135TIP3    H1 9282   9.402   2.121   7.597
 3135TIP3    H2 9283   9.358   2.218   7.489
 3136TIP3   OH2 9284   9.349   4.770   1.585
 3136TIP3    H1 9285   9.403   4.842   1.617
 3136TIP3    H2 9286   9.399   4.691   1.605
 3137TIP3   OH2 9287   0.046   3.124   0.801
 3137TIP3    H1 9288   0.010   3.084   0.721
 3137TIP3    H2 9289   0.140   3.126   0.786
 3138TIP3   OH2 9290   2.462   4.466   4.184
 3138TIP3    H1 9291   2.434   4.437   4.098
 3138TIP3    H2 9292   2.474   4.385   4.234
 3139TIP3   OH2 9293   4.017   2.106   3.261
 3139TIP3    H1 9294   3.931   2.143   3.281
 3139TIP3    H2 9295   4.071   2.129   3.336
 3140TIP3   OH2 9296   3.447   2.535   7.774
 3140TIP3    H1 9297   3.496   2.499   7.700
 3140TIP3    H2 9298   3.421   2.458   7.825
 3141TIP3   OH2 9299   3.599   2.007   5.187
 3141TIP3    H1 9300   3.633   2.018   5.098
 3141TIP3    H2 9301   3.665   2.048   5.243
 3142TIP3   OH2 9302   4.424   7.105   2.310
 3142TIP3    H1 9303   4.432   7.017   2.348
 3142TIP3    H2 9304   4.330   7.123   2.312
 3143TIP3   OH2 9305   7.797   8.856   4.076
 3143TIP3    H1 9306   7.733   8.918   4.109
 3143TIP3    H2 9307   7.868   8.858   4.140
 3144TIP3   OH2 9308   4.456   5.539   5.939
 3144TIP3    H1 9309   4.453   5.503   6.027
 3144TIP3    H2 9310   4.378   5.593   5.932
 3145TIP3   OH2 9311   9.521   1.549   6.727
 3145TIP3    H1 9312   9.556   1.465   6.757
 3145TIP3    H2 9313   9.449   1.526   6.669
 3146TIP3   OH2 9314   2.876   4.599   0.403
 3146TIP3    H1 9315   2.919   4.679   0.372
 3146TIP3    H2 9316   2.948   4.544   0.434
 3147TIP3   OH2 9317   6.757   4.357   4.557
 3147TIP3    H1 9318   6.719   4.273   4.581
 3147TIP3    H2 9319   6.751   4.360   4.461
 3148TIP3   OH2 9320   3.078   8.657   5.201
 3148TIP3    H1 9321   3.077   8.743   5.159
 3148TIP3    H2 9322   3.147   8.609   5.156
 3149TIP3   OH2 9323   1.824   2.136   1.551
 3149TIP3    H1 9324   1.849   2.227   1.533
 3149TIP3    H2 9325   1.779   2.107   1.471
 3150TIP3   OH2 9326   4.614   8.954   1.127
 3150TIP3    H1 9327   4.561   8.966   1.048
 3150TIP3    H2 9328   4.702   8.978   1.100
 3151TIP3   OH2 9329   9.480   1.191   2.686
 3151TIP3    H1 9330   9.555   1.176   2.628
 3151TIP3    H2 9331   9.504   1.269   2.736
 3152TIP3   OH2 9332   3.709   8.103   3.199
 3152TIP3    H1 9333   3.677   8.017   3.228
 3152TIP3    H2 9334   3.641   8.134   3.139
 3153TIP3   OH2 9335   4.630   7.371   0.512
 3153TIP3    H1 9336   4.702   7.354   0.450
 3153TIP3    H2 9337   4.668   7.429   0.577
 3154TIP3   OH2 9338   0.576   5.306   2.533
 3154TIP3    H1 9339   0.625   5.388   2.530
 3154TIP3    H2 9340   0.563   5.282   2.441
 3155TIP3   OH2 9341   3.211   0.495   5.871
 3155TIP3    H1 9342   3.134   0.543   5.900
 3155TIP3    H2 9343   3.284   0.555   5.888
 3156TIP3   OH2 9344   4.638   8.442   7.198
 3156TIP3    H1 9345   4.708   8.437   7.264
 3156TIP3    H2 9346   4.567   8.388   7.234
 3157TIP3   OH2 9347   4.135   1.759   7.089
 3157TIP3    H1 9348   4.142   1.703   7.011
 3157TIP3    H2 9349   4.057   1.812   7.074
 3158TIP3   OH2 9350   6.172   1.197   0.885
 3158TIP3    H1 9351   6.201   1.109   0.911
 3158TIP3    H2 9352   6.249   1.236   0.844
 3159TIP3   OH2 9353   1.216   8.817   2.084
 3159TIP3    H1 9354   1.280   8.830   2.154
 3159TIP3    H2 9355   1.212   8.723   2.073
 3160TIP3   OH2 9356   9.284   0.782   5.614
 3160TIP3    H1 9357   9.271   0.720   5.542
 3160TIP3    H2 9358   9.254   0.736   5.692
 3161TIP3   OH2 9359   0.699   0.257   0.963
 3161TIP3    H1 9360   0.694   0.243   1.058
 3161TIP3    H2 9361   0.739   0.176   0.930
 3162TIP3   OH2 9362   9.154   0.609   4.188
 3162TIP3    H1 9363   9.083   0.656   4.145
 3162TIP3    H2 9364   9.216   0.677   4.215
 3163TIP3   OH2 9365   7.227   0.250   3.380
 3163TIP3    H1 9366   7.215   0.156   3.391
 3163TIP3    H2 9367   7.322   0.263   3.383
 3164TIP3   OH2 9368   6.981   8.226   5.713
 3164TIP3    H1 9369   7.067   8.230   5.671
 3164TIP3    H2 9370   6.953   8.136   5.699
 3165TIP3   OH2 9371   9.428   0.074   6.878
 3165TIP3    H1 9372   9.515   0.079   6.918
 3165TIP3    H2 9373   9.402  -0.017   6.891
 3166TIP3   OH2 9374   3.086   3.401   1.958
 3166TIP3    H1 9375   3.157   3.432   2.013
 3166TIP3    H2 9376   3.085   3.461   1.883
 3167TIP3   OH2 9377   1.514   0.025   3.696
 3167TIP3    H1 9378   1.419   0.015   3.694
 3167TIP3    H2 9379   1.545  -0.052   3.744
 3168TIP3   OH2 9380   4.015   2.959   5.330
 3168TIP3    H1 9381   3.941   3.017   5.317
 3168TIP3    H2 9382   4.018   2.945   5.425
 3169TIP3   OH2 9383   5.205   7.585   2.399
 3169TIP3    H1 9384   5.267   7.521   2.434
 3169TIP3    H2 9385   5.134   7.531   2.363
 3170TIP3   OH2 9386   7.304   6.757   4.255
 3170TIP3    H1 9387   7.288   6.846   4.285
 3170TIP3    H2 9388   7.323   6.766   4.161
 3171TIP3   OH2 9389   9.022   5.434   3.801
 3171TIP3    H1 9390   9.084   5.364   3.785
 3171TIP3    H2 9391   9.023   5.445   3.896
 3172TIP3   OH2 9392   6.963   6.859   0.200
 3172TIP3    H1 9393   6.935   6.888   0.114
 3172TIP3    H2 9394   7.059   6.851   0.193
 3173TIP3   OH2 9395   8.406   6.214   0.990
 3173TIP3    H1 9396   8.374   6.270   1.061
 3173TIP3    H2 9397   8.487   6.177   1.024
 3174TIP3   OH2 9398   7.000   8.059   0.614
 3174TIP3    H1 9399   6.965   8.146   0.632
 3174TIP3    H2 9400   6.922   8.003   0.608
 3175TIP3   OH2 9401   8.221   6.374   4.559
 3175TIP3    H1 9402   8.225   6.468   4.575
 3175TIP3    H2 9403   8.255   6.335   4.639
 3176TIP3   OH2 9404   5.749   0.976   6.924
 3176TIP3    H1 9405   5.798   1.046   6.881
 3176TIP3    H2 9406   5.669   0.967   6.873
 3177TIP3   OH2 9407   5.064   5.461   0.089
 3177TIP3    H1 9408   4.979   5.475   0.130
 3177TIP3    H2 9409   5.122   5.437   0.161
 3178TIP3   OH2 9410   0.874   0.583   2.995
 3178TIP3    H1 9411   0.964   0.574   3.026
 3178TIP3    H2 9412   0.858   0.678   2.992
 3179TIP3   OH2 9413   1.817   1.607   1.442
 3179TIP3    H1 9414   1.755   1.627   1.513
 3179TIP3    H2 9415   1.780   1.530   1.399
 3180TIP3   OH2 9416   6.468   2.776   0.735
 3180TIP3    H1 9417   6.481   2.786   0.829
 3180TIP3    H2 9418   6.395   2.715   0.727
 3181TIP3   OH2 9419   0.177   0.515   1.174
 3181TIP3    H1 9420   0.085   0.528   1.154
 3181TIP3    H2 9421   0.212   0.603   1.184
 3182TIP3   OH2 9422   5.444   3.720   5.312
 3182TIP3    H1 9423   5.500   3.775   5.257
 3182TIP3    H2 9424   5.366   3.705   5.257
 3183TIP3   OH2 9425   2.945   5.841   3.161
 3183TIP3    H1 9426   2.997   5.762   3.143
 3183TIP3    H2 9427   3.006   5.913   3.153
 3184TIP3   OH2 9428   4.733   1.699   0.718
 3184TIP3    H1 9429   4.647   1.735   0.696
 3184TIP3    H2 9430   4.795   1.755   0.671
 3185TIP3   OH2 9431   1.815   3.152   5.214
 3185TIP3    H1 9432   1.733   3.137   5.261
 3185TIP3    H2 9433   1.813   3.244   5.190
 3186TIP3   OH2 9434   5.520   3.924   5.113
 3186TIP3    H1 9435   5.518   3.985   5.187
 3186TIP3    H2 9436   5.438   3.940   5.066
 3187TIP3   OH2 9437   9.412   0.422   0.212
 3187TIP3    H1 9438   9.320   0.413   0.236
 3187TIP3    H2 9439   9.455   0.452   0.292
 3188TIP3   OH2 9440   3.669   4.918   2.804
 3188TIP3    H1 9441   3.763   4.914   2.819
 3188TIP3    H2 9442   3.654   4.860   2.730
 3189TIP3   OH2 9443   1.175   2.930   6.011
 3189TIP3    H1 9444   1.242   2.866   5.986
 3189TIP3    H2 9445   1.119   2.883   6.072
 3190TIP3   OH2 9446   6.917   0.254   3.325
 3190TIP3    H1 9447   6.918   0.219   3.236
 3190TIP3    H2 9448   7.008   0.279   3.342
 3191TIP3   OH2 9449   6.434   8.101   7.142
 3191TIP3    H1 9450   6.380   8.105   7.221
 3191TIP3    H2 9451   6.421   8.012   7.109
 3192TIP3   OH2 9452   0.507   0.912   0.189
 3192TIP3    H1 9453   0.435   0.927   0.127
 3192TIP3    H2 9454   0.513   0.992   0.240
 3193TIP3   OH2 9455   0.259   1.346   1.944
 3193TIP3    H1 9456   0.212   1.423   1.977
 3193TIP3    H2 9457   0.268   1.362   1.850
 3194TIP3   OH2 9458   5.524   1.408   1.202
 3194TIP3    H1 9459   5.552   1.428   1.292
 3194TIP3    H2 9460   5.571   1.329   1.179
 3195TIP3   OH2 9461   8.769   7.732   0.256
 3195TIP3    H1 9462   8.825   7.671   0.208
 3195TIP3    H2 9463   8.812   7.817   0.246
 3196TIP3   OH2 9464   0.677   3.736   0.145
 3196TIP3    H1 9465   0.694   3.791   0.068
 3196TIP3    H2 9466   0.755   3.747   0.199
 3197TIP3   OH2 9467   6.390   1.471   3.826
 3197TIP3    H1 9468   6.299   1.490   3.803
 3197TIP3    H2 9469   6.390   1.378   3.850
 3198TIP3   OH2 9470   7.597   6.106   1.040
 3198TIP3    H1 9471   7.529   6.117   0.973
 3198TIP3    H2 9472   7.563   6.152   1.116
 3199TIP3   OH2 9473   0.766   3.190   4.996
 3199TIP3    H1 9474   0.685   3.241   4.995
 3199TIP3    H2 9475   0.767   3.148   5.082
 3200TIP3   OH2 9476   1.030   1.761   3.764
 3200TIP3    H1 9477   1.004   1.832   3.706
 3200TIP3    H2 9478   0.956   1.700   3.763
 3201TIP3   OH2 9479   7.718   0.325   5.268
 3201TIP3    H1 9480   7.780   0.260   5.303
 3201TIP3    H2 9481   7.750   0.344   5.180
 3202TIP3   OH2 9482   6.521   4.083   4.406
 3202TIP3    H1 9483   6.591   4.043   4.355
 3202TIP3    H2 9484   6.531   4.047   4.494
 3203TIP3   OH2 9485   8.416   4.767   2.669
 3203TIP3    H1 9486   8.397   4.676   2.694
 3203TIP3    H2 9487   8.433   4.763   2.575
 3204TIP3   OH2 9488   1.897   3.659   5.708
 3204TIP3    H1 9489   1.963   3.712   5.752
 3204TIP3    H2 9490   1.878   3.707   5.627
 3205TIP3   OH2 9491   7.338   2.813   7.360
 3205TIP3    H1 9492   7.403   2.743   7.358
 3205TIP3    H2 9493   7.371   2.879   7.298
 3206TIP3   OH2 9494   4.295   6.537   3.067
 3206TIP3    H1 9495   4.361   6.605   3.053
 3206TIP3    H2 9496   4.234   6.575   3.131
 3207TIP3   OH2 9497   0.541   7.104   7.390
 3207TIP3    H1 9498   0.591   7.050   7.452
 3207TIP3    H2 9499   0.602   7.119   7.317
 3208TIP3   OH2 9500   6.617   0.897   5.890
 3208TIP3    H1 9501   6.691   0.902   5.831
 3208TIP3    H2 9502   6.540   0.903   5.833
 3209TIP3   OH2 9503   2.068   5.213   4.771
 3209TIP3    H1 9504   2.005   5.280   4.744
 3209TIP3    H2 9505   2.065   5.148   4.701
 3210TIP3   OH2 9506   7.493   0.929   1.260
 3210TIP3    H1 9507   7.530   0.937   1.348
 3210TIP3    H2 9508   7.416   0.986   1.261
 3211TIP3   OH2 9509   8.549   2.634   7.621
 3211TIP3    H1 9510   8.637   2.601   7.639
 3211TIP3    H2 9511   8.521   2.587   7.543
 3212TIP3   OH2 9512   8.996   5.213   2.107
 3212TIP3    H1 9513   9.061   5.283   2.109
 3212TIP3    H2 9514   9.045   5.136   2.078
 3213TIP3   OH2 9515   8.807   3.336   2.863
 3213TIP3    H1 9516   8.766   3.401   2.920
 3213TIP3    H2 9517   8.895   3.370   2.847
 3214TIP3   OH2 9518   1.031   8.635   0.762
 3214TIP3    H1 9519   0.976   8.568   0.801
 3214TIP3    H2 9520   1.031   8.706   0.826
 3215TIP3   OH2 9521   6.681   2.648   7.430
 3215TIP3    H1 9522   6.710   2.584   7.365
 3215TIP3    H2 9523   6.761   2.697   7.452
 3216TIP3   OH2 9524   0.029   4.295   1.611
 3216TIP3    H1 9525   0.009   4.389   1.616
 3216TIP3    H2 9526   0.119   4.291   1.581
 3217TIP3   OH2 9527   7.316   6.610   3.730
 3217TIP3    H1 9528   7.316   6.534   3.788
 3217TIP3    H2 9529   7.339   6.575   3.644
 3218TIP3   OH2 9530   4.991   8.101   2.778
 3218TIP3    H1 9531   5.083   8.097   2.802
 3218TIP3    H2 9532   4.945   8.120   2.859
 3219TIP3   OH2 9533   1.648   5.187   1.770
 3219TIP3    H1 9534   1.607   5.205   1.855
 3219TIP3    H2 9535   1.697   5.106   1.784
 3220TIP3   OH2 9536   3.447   0.252   1.182
 3220TIP3    H1 9537   3.499   0.299   1.117
 3220TIP3    H2 9538   3.368   0.305   1.191
 3221TIP3   OH2 9539   6.872   5.471   1.825
 3221TIP3    H1 9540   6.962   5.459   1.797
 3221TIP3    H2 9541   6.878   5.491   1.919
 3222TIP3   OH2 9542   5.152   8.332   1.335
 3222TIP3    H1 9543   5.134   8.261   1.396
 3222TIP3    H2 9544   5.246   8.350   1.346
 3223TIP3   OH2 9545   0.395   5.437   7.243
 3223TIP3    H1 9546   0.385   5.516   7.190
 3223TIP3    H2 9547   0.327   5.444   7.310
 3224TIP3   OH2 9548   6.443   8.519   1.561
 3224TIP3    H1 9549   6.485   8.470   1.491
 3224TIP3    H2 9550   6.378   8.459   1.597
 3225TIP3   OH2 9551   5.445   7.004   0.320
 3225TIP3    H1 9552   5.462   7.088   0.362
 3225TIP3    H2 9553   5.523   6.987   0.267
 3226TIP3   OH2 9554   3.955   7.084   1.688
 3226TIP3    H1 9555   4.040   7.047   1.663
 3226TIP3    H2 9556   3.910   7.013   1.734
 3227TIP3   OH2 9557   4.682   3.177   1.942
 3227TIP3    H1 9558   4.693   3.269   1.917
 3227TIP3    H2 9559   4.764   3.135   1.915
 3228TIP3   OH2 9560   7.344   7.678   0.704
 3228TIP3    H1 9561   7.286   7.714   0.772
 3228TIP3    H2 9562   7.394   7.753   0.673
 3229TIP3   OH2 9563   4.656   2.501   4.592
 3229TIP3    H1 9564   4.583   2.440   4.593
 3229TIP3    H2 9565   4.733   2.447   4.610
 3230TIP3   OH2 9566   2.257   1.686   5.547
 3230TIP3    H1 9567   2.262   1.685   5.643
 3230TIP3    H2 9568   2.173   1.729   5.528
 3231TIP3   OH2 9569   1.542   7.488   2.637
 3231TIP3    H1 9570   1.475   7.543   2.677
 3231TIP3    H2 9571   1.501   7.402   2.628
 3232TIP3   OH2 9572   6.758   0.527   0.628
 3232TIP3    H1 9573   6.752   0.473   0.708
 3232TIP3    H2 9574   6.682   0.500   0.576
 3233TIP3   OH2 9575   1.430   3.637   4.759
 3233TIP3    H1 9576   1.426   3.599   4.671
 3233TIP3    H2 9577   1.430   3.731   4.745
 3234TIP3   OH2 9578   7.773   1.892   5.185
 3234TIP3    H1 9579   7.698   1.946   5.162
 3234TIP3    H2 9580   7.749   1.804   5.158
 3235TIP3   OH2 9581   3.090   1.487   1.675
 3235TIP3    H1 9582   3.068   1.448   1.591
 3235TIP3    H2 9583   3.177   1.453   1.695
 3236TIP3   OH2 9584   5.436   8.748   5.428
 3236TIP3    H1 9585   5.395   8.663   5.446
 3236TIP3    H2 9586   5.510   8.752   5.489
 3237TIP3   OH2 9587   8.171   0.684   6.976
 3237TIP3    H1 9588   8.224   0.764   6.978
 3237TIP3    H2 9589   8.229   0.618   6.938
 3238TIP3   OH2 9590   7.036   4.437   7.757
 3238TIP3    H1 9591   6.990   4.396   7.683
 3238TIP3    H2 9592   7.120   4.392   7.761
 3239TIP3   OH2 9593   8.027   5.265   4.032
 3239TIP3    H1 9594   8.036   5.219   4.115
 3239TIP3    H2 9595   8.027   5.196   3.966
 3240TIP3   OH2 9596   0.873   2.310   7.200
 3240TIP3    H1 9597   0.911   2.364   7.130
 3240TIP3    H2 9598   0.852   2.227   7.157
 3241TIP3   OH2 9599   5.812   7.149   1.941
 3241TIP3    H1 9600   5.761   7.216   1.988
 3241TIP3    H2 9601   5.817   7.076   2.003
 3242TIP3   OH2 9602   7.255   1.529   6.546
 3242TIP3    H1 9603   7.232   1.620   6.564
 3242TIP3    H2 9604   7.276   1.492   6.632
 3243TIP3   OH2 9605   1.373   7.882   6.194
 3243TIP3    H1 9606   1.405   7.841   6.274
 3243TIP3    H2 9607   1.357   7.809   6.134
 3244TIP3   OH2 9608   6.972   0.640   2.173
 3244TIP3    H1 9609   7.020   0.558   2.184
 3244TIP3    H2 9610   7.040   0.707   2.165
 3245TIP3   OH2 9611   5.235   6.036   5.829
 3245TIP3    H1 9612   5.327   6.008   5.827
 3245TIP3    H2 9613   5.219   6.058   5.921
 3246TIP3   OH2 9614   1.618   3.927   0.046
 3246TIP3    H1 9615   1.644   3.890   0.130
 3246TIP3    H2 9616   1.620   3.853  -0.015
 3247TIP3   OH2 9617   7.642   7.160   5.743
 3247TIP3    H1 9618   7.704   7.089   5.761
 3247TIP3    H2 9619   7.697   7.239   5.736
 3248TIP3   OH2 9620   5.094   4.975   3.183
 3248TIP3    H1 9621   5.008   4.946   3.153
 3248TIP3    H2 9622   5.153   4.954   3.111
 3249TIP3   OH2 9623   5.127   3.008   2.306
 3249TIP3    H1 9624   5.208   3.057   2.324
 3249TIP3    H2 9625   5.127   2.937   2.370
 3250TIP3   OH2 9626   0.332   8.632   5.519
 3250TIP3    H1 9627   0.370   8.664   5.600
 3250TIP3    H2 9628   0.238   8.630   5.535
 3251TIP3   OH2 9629   3.353   8.523   1.886
 3251TIP3    H1 9630   3.264   8.549   1.862
 3251TIP3    H2 9631   3.403   8.533   1.805
 3252TIP3   OH2 9632   4.183   4.289   6.209
 3252TIP3    H1 9633   4.178   4.199   6.241
 3252TIP3    H2 9634   4.093   4.312   6.185
 3253TIP3   OH2 9635   7.761   5.254   7.712
 3253TIP3    H1 9636   7.819   5.324   7.681
 3253TIP3    H2 9637   7.720   5.220   7.633
 3254TIP3   OH2 9638   3.817   0.390   3.318
 3254TIP3    H1 9639   3.744   0.376   3.257
 3254TIP3    H2 9640   3.781   0.368   3.403
 3255TIP3   OH2 9641   7.085   0.028   2.519
 3255TIP3    H1 9642   7.092   0.000   2.610
 3255TIP3    H2 9643   6.993   0.055   2.509
 3256TIP3   OH2 9644   4.091   2.411   6.050
 3256TIP3    H1 9645   4.085   2.393   6.144
 3256TIP3    H2 9646   4.178   2.450   6.038
 3257TIP3   OH2 9647   3.223   2.295   6.259
 3257TIP3    H1 9648   3.167   2.342   6.197
 3257TIP3    H2 9649   3.249   2.361   6.323
 3258TIP3   OH2 9650   8.544   4.331   7.012
 3258TIP3    H1 9651   8.575   4.335   6.921
 3258TIP3    H2 9652   8.519   4.421   7.033
 3259TIP3   OH2 9653   0.300   0.497   3.711
 3259TIP3    H1 9654   0.331   0.426   3.656
 3259TIP3    H2 9655   0.304   0.575   3.655
 3260TIP3   OH2 9656   2.855   8.556   3.777
 3260TIP3    H1 9657   2.763   8.570   3.759
 3260TIP3    H2 9658   2.901   8.610   3.713
 3261TIP3   OH2 9659   9.035   7.435   3.714
 3261TIP3    H1 9660   8.996   7.508   3.761
 3261TIP3    H2 9661   9.081   7.385   3.781
 3262TIP3   OH2 9662   2.269   7.080   6.237
 3262TIP3    H1 9663   2.296   6.994   6.205
 3262TIP3    H2 9664   2.219   7.062   6.317
 3263TIP3   OH2 9665   3.079   6.161   2.585
 3263TIP3    H1 9666   3.021   6.163   2.661
 3263TIP3    H2 9667   3.021   6.166   2.509
 3264TIP3   OH2 9668   0.851   7.307   5.133
 3264TIP3    H1 9669   0.833   7.239   5.068
 3264TIP3    H2 9670   0.818   7.271   5.215
 3265TIP3   OH2 9671   7.495   4.497   4.606
 3265TIP3    H1 9672   7.575   4.452   4.580
 3265TIP3    H2 9673   7.440   4.427   4.642
 3266TIP3   OH2 9674   5.909   4.276   4.408
 3266TIP3    H1 9675   5.857   4.319   4.475
 3266TIP3    H2 9676   5.888   4.183   4.418
 3267TIP3   OH2 9677   6.454   1.729   5.462
 3267TIP3    H1 9678   6.446   1.721   5.367
 3267TIP3    H2 9679   6.510   1.656   5.487
 3268TIP3   OH2 9680   0.731   5.159   5.908
 3268TIP3    H1 9681   0.812   5.176   5.957
 3268TIP3    H2 9682   0.662   5.196   5.963
 3269TIP3   OH2 9683   5.690   6.164   3.232
 3269TIP3    H1 9684   5.777   6.170   3.193
 3269TIP3    H2 9685   5.631   6.155   3.157
 3270TIP3   OH2 9686   5.771   5.349   6.031
 3270TIP3    H1 9687   5.711   5.331   5.958
 3270TIP3    H2 9688   5.761   5.442   6.048
 3271TIP3   OH2 9689   0.290   2.964   6.286
 3271TIP3    H1 9690   0.223   2.935   6.225
 3271TIP3    H2 9691   0.354   3.011   6.232
 3272TIP3   OH2 9692   2.894   0.214   2.290
 3272TIP3    H1 9693   2.841   0.280   2.247
 3272TIP3    H2 9694   2.849   0.131   2.270
 3273TIP3   OH2 9695   2.897   8.110   0.223
 3273TIP3    H1 9696   2.960   8.156   0.278
 3273TIP3    H2 9697   2.947   8.039   0.182
 3274TIP3   OH2 9698   9.481   0.664   3.341
 3274TIP3    H1 9699   9.435   0.736   3.297
 3274TIP3    H2 9700   9.431   0.650   3.421
 3275TIP3   OH2 9701   3.622   2.334   1.247
 3275TIP3    H1 9702   3.601   2.351   1.156
 3275TIP3    H2 9703   3.685   2.262   1.245
 3276TIP3   OH2 9704   8.240   2.120   0.633
 3276TIP3    H1 9705   8.203   2.185   0.693
 3276TIP3    H2 9706   8.334   2.123   0.650
 3277TIP3   OH2 9707   1.311   7.516   1.649
 3277TIP3    H1 9708   1.394   7.557   1.625
 3277TIP3    H2 9709   1.296   7.543   1.740
 3278TIP3   OH2 9710   4.478   5.355   0.863
 3278TIP3    H1 9711   4.504   5.285   0.923
 3278TIP3    H2 9712   4.420   5.313   0.800
 3279TIP3   OH2 9713   1.854   3.957   7.639
 3279TIP3    H1 9714   1.765   3.986   7.616
 3279TIP3    H2 9715   1.896   4.034   7.676
 3280TIP3   OH2 9716   5.945   0.402   1.606
 3280TIP3    H1 9717   5.897   0.425   1.526
 3280TIP3    H2 9718   6.002   0.330   1.580
 3281TIP3   OH2 9719   0.179   2.631   4.410
 3281TIP3    H1 9720   0.157   2.669   4.325
 3281TIP3    H2 9721   0.165   2.537   4.399
 3282TIP3   OH2 9722   7.273   2.946   1.727
 3282TIP3    H1 9723   7.325   3.010   1.774
 3282TIP3    H2 9724   7.198   2.995   1.694
 3283TIP3   OH2 9725   1.514   3.549   2.275
 3283TIP3    H1 9726   1.594   3.524   2.228
 3283TIP3    H2 9727   1.545   3.573   2.363
 3284TIP3   OH2 9728   5.602   8.320   5.642
 3284TIP3    H1 9729   5.643   8.346   5.560
 3284TIP3    H2 9730   5.550   8.243   5.619
 3285TIP3   OH2 9731   8.253   7.915   4.694
 3285TIP3    H1 9732   8.248   7.872   4.608
 3285TIP3    H2 9733   8.284   7.847   4.753
 3286TIP3   OH2 9734   0.194   0.536   4.328
 3286TIP3    H1 9735   0.099   0.522   4.332
 3286TIP3    H2 9736   0.225   0.513   4.415
 3287TIP3   OH2 9737   9.335   5.208   5.104
 3287TIP3    H1 9738   9.393   5.181   5.175
 3287TIP3    H2 9739   9.372   5.289   5.071
 3288TIP3   OH2 9740   7.400   2.625   5.756
 3288TIP3    H1 9741   7.463   2.600   5.823
 3288TIP3    H2 9742   7.450   2.621   5.674
 3289TIP3   OH2 9743   5.171   5.919   2.828
 3289TIP3    H1 9744   5.125   6.000   2.851
 3289TIP3    H2 9745   5.151   5.907   2.735
 3290TIP3   OH2 9746   5.300   5.932   0.039
 3290TIP3    H1 9747   5.257   5.847   0.039
 3290TIP3    H2 9748   5.256   5.981   0.108
 3291TIP3   OH2 9749   0.301   4.681   4.002
 3291TIP3    H1 9750   0.211   4.683   3.972
 3291TIP3    H2 9751   0.301   4.734   4.082
 3292TIP3   OH2 9752   6.546   6.267   4.943
 3292TIP3    H1 9753   6.563   6.260   4.849
 3292TIP3    H2 9754   6.568   6.358   4.964
 3293TIP3   OH2 9755   6.994   0.766   2.597
 3293TIP3    H1 9756   7.046   0.814   2.662
 3293TIP3    H2 9757   6.945   0.834   2.550
 3294TIP3   OH2 9758   5.156   4.126   1.060
 3294TIP3    H1 9759   5.114   4.051   1.018
 3294TIP3    H2 9760   5.087   4.191   1.069
 3295TIP3   OH2 9761   3.069   0.593   2.327
 3295TIP3    H1 9762   3.016   0.523   2.288
 3295TIP3    H2 9763   3.058   0.583   2.421
 3296TIP3   OH2 9764   9.277   1.571   4.414
 3296TIP3    H1 9765   9.226   1.581   4.334
 3296TIP3    H2 9766   9.214   1.587   4.485
 3297TIP3   OH2 9767   2.757   1.221   5.011
 3297TIP3    H1 9768   2.771   1.279   4.936
 3297TIP3    H2 9769   2.844   1.187   5.031
 3298TIP3   OH2 9770   2.107   7.722   0.459
 3298TIP3    H1 9771   2.168   7.697   0.389
 3298TIP3    H2 9772   2.088   7.639   0.503
 3299TIP3   OH2 9773   3.009   5.172   6.330
 3299TIP3    H1 9774   3.020   5.190   6.236
 3299TIP3    H2 9775   2.979   5.081   6.333
 3300TIP3   OH2 9776   4.420   3.259   3.460
 3300TIP3    H1 9777   4.515   3.264   3.456
 3300TIP3    H2 9778   4.399   3.266   3.553
 3301TIP3   OH2 9779   6.825   4.165   3.016
 3301TIP3    H1 9780   6.817   4.071   3.007
 3301TIP3    H2 9781   6.832   4.198   2.927
 3302TIP3   OH2 9782   6.897   2.882   5.708
 3302TIP3    H1 9783   6.952   2.910   5.781
 3302TIP3    H2 9784   6.888   2.787   5.721
 3303TIP3   OH2 9785   4.238   7.666   3.116
 3303TIP3    H1 9786   4.192   7.747   3.096
 3303TIP3    H2 9787   4.331   7.692   3.119
 3304TIP3   OH2 9788   0.483   1.219   6.467
 3304TIP3    H1 9789   0.508   1.310   6.483
 3304TIP3    H2 9790   0.390   1.217   6.489
 3305TIP3   OH2 9791   7.471   7.725   2.352
 3305TIP3    H1 9792   7.447   7.633   2.340
 3305TIP3    H2 9793   7.500   7.754   2.266
 3306TIP3   OH2 9794   5.014   5.563   7.688
 3306TIP3    H1 9795   4.942   5.613   7.727
 3306TIP3    H2 9796   5.054   5.623   7.625
 3307TIP3   OH2 9797   5.832   1.988   2.464
 3307TIP3    H1 9798   5.919   1.981   2.501
 3307TIP3    H2 9799   5.833   1.929   2.388
 3308TIP3   OH2 9800   5.551   5.730   2.168
 3308TIP3    H1 9801   5.560   5.661   2.234
 3308TIP3    H2 9802   5.457   5.742   2.158
 3309TIP3   OH2 9803   8.396   5.005   5.479
 3309TIP3    H1 9804   8.383   5.052   5.562
 3309TIP3    H2 9805   8.483   5.032   5.450
 3310TIP3   OH2 9806   7.347   8.611   6.744
 3310TIP3    H1 9807   7.415   8.677   6.755
 3310TIP3    H2 9808   7.352   8.586   6.652
 3311TIP3   OH2 9809   0.949   8.058   4.420
 3311TIP3    H1 9810   0.978   8.073   4.510
 3311TIP3    H2 9811   1.003   7.985   4.389
 3312TIP3   OH2 9812   7.411   0.378   2.063
 3312TIP3    H1 9813   7.401   0.391   2.157
 3312TIP3    H2 9814   7.348   0.439   2.024
 3313TIP3   OH2 9815   7.854   2.237   4.554
 3313TIP3    H1 9816   7.841   2.321   4.597
 3313TIP3    H2 9817   7.945   2.240   4.522
 3314TIP3   OH2 9818   6.730   6.079   6.188
 3314TIP3    H1 9819   6.751   6.098   6.097
 3314TIP3    H2 9820   6.815   6.061   6.229
 3315TIP3   OH2 9821   5.220   6.969   0.151
 3315TIP3    H1 9822   5.272   6.956   0.231
 3315TIP3    H2 9823   5.173   6.886   0.139
 3316TIP3   OH2 9824   1.177   4.828   6.282
 3316TIP3    H1 9825   1.264   4.829   6.242
 3316TIP3    H2 9826   1.121   4.788   6.216
 3317TIP3   OH2 9827   0.840   2.780   5.260
 3317TIP3    H1 9828   0.817   2.868   5.290
 3317TIP3    H2 9829   0.795   2.721   5.322
 3318TIP3   OH2 9830   1.258   2.902   6.985
 3318TIP3    H1 9831   1.299   2.969   6.930
 3318TIP3    H2 9832   1.323   2.883   7.053
 3319TIP3   OH2 9833   8.820   7.903   0.554
 3319TIP3    H1 9834   8.877   7.917   0.479
 3319TIP3    H2 9835   8.781   7.817   0.539
 3320TIP3   OH2 9836   4.126   4.460   0.851
 3320TIP3    H1 9837   4.082   4.416   0.924
 3320TIP3    H2 9838   4.219   4.458   0.875
 3321TIP3   OH2 9839   1.597   8.445   1.582
 3321TIP3    H1 9840   1.582   8.458   1.488
 3321TIP3    H2 9841   1.514   8.409   1.614
 3322TIP3   OH2 9842   3.560   1.620   5.779
 3322TIP3    H1 9843   3.563   1.695   5.721
 3322TIP3    H2 9844   3.500   1.559   5.737
 3323TIP3   OH2 9845   3.499   0.005   4.409
 3323TIP3    H1 9846   3.484  -0.005   4.315
 3323TIP3    H2 9847   3.562  -0.065   4.431
 3324TIP3   OH2 9848   6.741   6.300   4.064
 3324TIP3    H1 9849   6.811   6.355   4.098
 3324TIP3    H2 9850   6.754   6.301   3.969
 3325TIP3   OH2 9851   6.370   5.969   5.884
 3325TIP3    H1 9852   6.379   6.063   5.898
 3325TIP3    H2 9853   6.310   5.941   5.954
 3326TIP3   OH2 9854   2.482   3.810   4.418
 3326TIP3    H1 9855   2.511   3.726   4.453
 3326TIP3    H2 9856   2.434   3.787   4.338
 3327TIP3   OH2 9857   1.181   4.622   0.725
 3327TIP3    H1 9858   1.267   4.664   0.718
 3327TIP3    H2 9859   1.134   4.653   0.648
 3328TIP3   OH2 9860   1.833   2.726   2.416
 3328TIP3    H1 9861   1.924   2.742   2.392
 3328TIP3    H2 9862   1.833   2.728   2.512
 3329TIP3   OH2 9863   2.128   1.534   5.063
 3329TIP3    H1 9864   2.181   1.456   5.075
 3329TIP3    H2 9865   2.161   1.574   4.983
 3330TIP3   OH2 9866   3.155   1.391   3.147
 3330TIP3    H1 9867   3.189   1.385   3.236
 3330TIP3    H2 9868   3.233   1.386   3.092
 3331TIP3   OH2 9869   7.746   0.574   0.908
 3331TIP3    H1 9870   7.787   0.644   0.959
 3331TIP3    H2 9871   7.699   0.619   0.839
 3332TIP3   OH2 9872   0.599   5.310   7.353
 3332TIP3    H1 9873   0.647   5.245   7.302
 3332TIP3    H2 9874   0.551   5.361   7.288
 3333TIP3   OH2 9875   1.269   1.594   3.524
 3333TIP3    H1 9876   1.174   1.601   3.530
 3333TIP3    H2 9877   1.285   1.549   3.441
 3334TIP3   OH2 9878   6.828   3.122   4.040
 3334TIP3    H1 9879   6.869   3.048   3.994
 3334TIP3    H2 9880   6.735   3.098   4.046
 3335TIP3   OH2 9881   1.599   7.156   4.336
 3335TIP3    H1 9882   1.512   7.128   4.307
 3335TIP3    H2 9883   1.620   7.099   4.410
 3336TIP3   OH2 9884   7.817   5.379   5.653
 3336TIP3    H1 9885   7.808   5.472   5.671
 3336TIP3    H2 9886   7.844   5.374   5.561
 3337TIP3   OH2 9887   7.336   5.335   0.902
 3337TIP3    H1 9888   7.261   5.359   0.848
 3337TIP3    H2 9889   7.409   5.332   0.840
 3338TIP3   OH2 9890   5.888   8.294   1.083
 3338TIP3    H1 9891   5.829   8.301   1.158
 3338TIP3    H2 9892   5.834   8.259   1.012
 3339TIP3   OH2 9893   7.170   8.734   7.360
 3339TIP3    H1 9894   7.134   8.645   7.352
 3339TIP3    H2 9895   7.144   8.763   7.448
 3340TIP3   OH2 9896   2.005   4.121   7.794
 3340TIP3    H1 9897   2.090   4.153   7.761
 3340TIP3    H2 9898   2.010   4.133   7.889
 3341TIP3   OH2 9899   1.664   0.917   2.152
 3341TIP3    H1 9900   1.678   0.842   2.093
 3341TIP3    H2 9901   1.604   0.974   2.103
 3342TIP3   OH2 9902   0.484   0.934   1.077
 3342TIP3    H1 9903   0.472   1.016   1.124
 3342TIP3    H2 9904   0.543   0.883   1.133
 3343TIP3   OH2 9905   6.729   5.888   0.222
 3343TIP3    H1 9906   6.784   5.812   0.239
 3343TIP3    H2 9907   6.649   5.872   0.272
 3344TIP3   OH2 9908   0.632   1.311   0.345
 3344TIP3    H1 9909   0.554   1.256   0.333
 3344TIP3    H2 9910   0.704   1.248   0.353
 3345TIP3   OH2 9911   5.619   3.312   6.902
 3345TIP3    H1 9912   5.627   3.281   6.992
 3345TIP3    H2 9913   5.619   3.407   6.909
 3346TIP3   OH2 9914   4.968   3.454   4.582
 3346TIP3    H1 9915   5.020   3.481   4.506
 3346TIP3    H2 9916   4.939   3.536   4.622
 3347TIP3   OH2 9917   3.327   4.889   4.999
 3347TIP3    H1 9918   3.384   4.941   5.055
 3347TIP3    H2 9919   3.342   4.799   5.026
 3348TIP3   OH2 9920   6.171   2.052   4.692
 3348TIP3    H1 9921   6.111   2.083   4.759
 3348TIP3    H2 9922   6.257   2.052   4.735
 3349TIP3   OH2 9923   7.641   3.981   3.074
 3349TIP3    H1 9924   7.621   3.985   2.981
 3349TIP3    H2 9925   7.720   3.928   3.080
 3350TIP3   OH2 9926   4.872   7.565   7.762
 3350TIP3    H1 9927   4.911   7.479   7.780
 3350TIP3    H2 9928   4.945   7.626   7.769
 3351TIP3   OH2 9929   5.264   8.164   4.668
 3351TIP3    H1 9930   5.341   8.216   4.692
 3351TIP3    H2 9931   5.285   8.131   4.580
 3352TIP3   OH2 9932   8.209   3.573   0.387
 3352TIP3    H1 9933   8.172   3.563   0.474
 3352TIP3    H2 9934   8.138   3.608   0.334
 3353TIP3   OH2 9935   2.866   3.074   6.640
 3353TIP3    H1 9936   2.877   3.048   6.731
 3353TIP3    H2 9937   2.829   3.162   6.644
 3354TIP3   OH2 9938   2.456   0.659   5.214
 3354TIP3    H1 9939   2.408   0.657   5.296
 3354TIP3    H2 9940   2.511   0.580   5.216
 3355TIP3   OH2 9941   4.045   2.910   2.187
 3355TIP3    H1 9942   4.087   2.995   2.191
 3355TIP3    H2 9943   4.081   2.861   2.261
 3356TIP3   OH2 9944   7.859   4.298   6.832
 3356TIP3    H1 9945   7.815   4.343   6.760
 3356TIP3    H2 9946   7.896   4.219   6.792
 3357TIP3   OH2 9947   2.884   4.641   1.346
 3357TIP3    H1 9948   2.978   4.654   1.331
 3357TIP3    H2 9949   2.880   4.571   1.411
 3358TIP3   OH2 9950   7.895   7.020   5.722
 3358TIP3    H1 9951   7.986   7.012   5.753
 3358TIP3    H2 9952   7.852   6.941   5.757
 3359TIP3   OH2 9953   1.474   1.560   6.268
 3359TIP3    H1 9954   1.467   1.553   6.363
 3359TIP3    H2 9955   1.440   1.647   6.248
 3360TIP3   OH2 9956   1.384   7.714   5.818
 3360TIP3    H1 9957   1.452   7.730   5.753
 3360TIP3    H2 9958   1.426   7.659   5.884
 3361TIP3   OH2 9959   7.731   8.071   3.281
 3361TIP3    H1 9960   7.757   7.981   3.301
 3361TIP3    H2 9961   7.651   8.085   3.331
 3362TIP3   OH2 9962   8.376   3.122   6.596
 3362TIP3    H1 9963   8.399   3.137   6.504
 3362TIP3    H2 9964   8.402   3.031   6.612
 3363TIP3   OH2 9965   0.991   1.280   1.368
 3363TIP3    H1 9966   1.036   1.197   1.353
 3363TIP3    H2 9967   0.899   1.257   1.376
 3364TIP3   OH2 9968   4.003   1.414   7.098
 3364TIP3    H1 9969   3.910   1.424   7.120
 3364TIP3    H2 9970   4.021   1.487   7.038
 3365TIP3   OH2 9971   6.062   6.637   3.215
 3365TIP3    H1 9972   6.108   6.630   3.132
 3365TIP3    H2 9973   6.032   6.547   3.233
 3366TIP3   OH2 9974   9.075   1.848   2.078
 3366TIP3    H1 9975   9.045   1.819   2.164
 3366TIP3    H2 9976   8.995   1.870   2.030
 3367TIP3   OH2 9977   7.449   2.658   3.396
 3367TIP3    H1 9978   7.504   2.724   3.354
 3367TIP3    H2 9979   7.452   2.681   3.489
 3368TIP3   OH2 9980   7.989   4.615   5.608
 3368TIP3    H1 9981   8.020   4.554   5.540
 3368TIP3    H2 9982   8.066   4.668   5.629
 3369TIP3   OH2 9983   5.668   6.094   6.864
 3369TIP3    H1 9984   5.611   6.086   6.787
 3369TIP3    H2 9985   5.609   6.112   6.936
 3370TIP3   OH2 9986   0.571   8.751   7.033
 3370TIP3    H1 9987   0.626   8.807   7.088
 3370TIP3    H2 9988   0.490   8.740   7.084
 3371TIP3   OH2 9989   4.413   8.310   4.895
 3371TIP3    H1 9990   4.410   8.241   4.961
 3371TIP3    H2 9991   4.322   8.335   4.881
 3372TIP3   OH2 9992   5.539   1.566   7.723
 3372TIP3    H1 9993   5.471   1.632   7.738
 3372TIP3    H2 9994   5.513   1.523   7.641
 3373TIP3   OH2 9995   2.557   0.165   2.775
 3373TIP3    H1 9996   2.586   0.171   2.866
 3373TIP3    H2 9997   2.499   0.089   2.774
 3374TIP3   OH2 9998   6.969   4.687   0.491
 3374TIP3    H1 9999   6.950   4.613   0.434
 3374TIP3    H210000   6.989   4.759   0.432
 3375TIP3   OH210001   6.551   6.118   2.170
 3375TIP3    H110002   6.600   6.157   2.097
 3375TIP3    H210003   6.481   6.181   2.188
 3376TIP3   OH210004   2.728   3.913   1.426
 3376TIP3    H110005   2.745   3.948   1.514
 3376TIP3    H210006   2.638   3.940   1.408
 3377TIP3   OH210007   7.098   4.299   2.470
 3377TIP3    H110008   7.054   4.215   2.483
 3377TIP3    H210009   7.042   4.362   2.516
 3378TIP3   OH210010   7.634   1.517   0.888
 3378TIP3    H110011   7.621   1.533   0.981
 3378TIP3    H210012   7.709   1.459   0.884
 3379TIP3   OH210013   8.666   8.724   4.955
 3379TIP3    H110014   8.654   8.711   4.861
 3379TIP3    H210015   8.609   8.658   4.995
 3380TIP3   OH210016   4.276   0.779   3.584
 3380TIP3    H110017   4.181   0.792   3.585
 3380TIP3    H210018   4.292   0.717   3.654
 3381TIP3   OH210019   9.339   2.039   7.770
 3381TIP3    H110020   9.370   1.956   7.805
 3381TIP3    H210021   9.245   2.026   7.757
 3382TIP3   OH210022   0.010   0.648   7.193
 3382TIP3    H110023  -0.011   0.697   7.113
 3382TIP3    H210024   0.086   0.693   7.229
 3383TIP3   OH210025   6.933   2.818   7.709
 3383TIP3    H110026   6.858   2.794   7.763
 3383TIP3    H210027   7.009   2.787   7.759
 3384TIP3   OH210028   9.524   6.792   5.433
 3384TIP3    H110029   9.440   6.826   5.404
 3384TIP3    H210030   9.585   6.813   5.362
 3385TIP3   OH210031   6.997   4.890   1.136
 3385TIP3    H110032   7.046   4.971   1.120
 3385TIP3    H210033   7.047   4.822   1.092
 3386TIP3   OH210034   4.805   8.142   4.959
 3386TIP3    H110035   4.740   8.197   4.915
 3386TIP3    H210036   4.866   8.117   4.891
 3387TIP3   OH210037   2.121   3.200   4.251
 3387TIP3    H110038   2.146   3.118   4.294
 3387TIP3    H210039   2.168   3.268   4.300
 3388TIP3   OH210040   8.870   0.144   4.911
 3388TIP3    H110041   8.816   0.220   4.889
 3388TIP3    H210042   8.929   0.134   4.836
 3389TIP3   OH210043   5.044   5.367   4.088
 3389TIP3    H110044   5.134   5.395   4.069
 3389TIP3    H210045   4.993   5.401   4.014
 3390TIP3   OH210046   4.016   7.657   6.615
 3390TIP3    H110047   3.966   7.637   6.695
 3390TIP3    H210048   3.953   7.702   6.558
 3391TIP3   OH210049   4.818   3.786   5.042
 3391TIP3    H110050   4.732   3.827   5.042
 3391TIP3    H210051   4.874   3.846   5.091
 3392TIP3   OH210052   0.716   0.432   6.281
 3392TIP3    H110053   0.721   0.374   6.357
 3392TIP3    H210054   0.671   0.509   6.313
 3393TIP3   OH210055   5.971   3.833   0.166
 3393TIP3    H110056   5.917   3.761   0.133
 3393TIP3    H210057   6.043   3.840   0.103
 3394TIP3   OH210058   9.167   8.392   4.837
 3394TIP3    H110059   9.123   8.442   4.906
 3394TIP3    H210060   9.098   8.371   4.775
 3395TIP3   OH210061   9.399   3.362   7.330
 3395TIP3    H110062   9.422   3.422   7.259
 3395TIP3    H210063   9.454   3.285   7.315
 3396TIP3   OH210064   7.758   2.878   2.499
 3396TIP3    H110065   7.726   2.818   2.431
 3396TIP3    H210066   7.746   2.830   2.580
 3397TIP3   OH210067   2.272   6.254   6.827
 3397TIP3    H110068   2.297   6.346   6.819
 3397TIP3    H210069   2.354   6.206   6.816
 3398TIP3   OH210070   8.222   2.964   7.093
 3398TIP3    H110071   8.170   2.913   7.156
 3398TIP3    H210072   8.167   3.039   7.073
 3399TIP3   OH210073   7.495   5.038   4.573
 3399TIP3    H110074   7.475   4.949   4.601
 3399TIP3    H210075   7.589   5.036   4.555
 3400TIP3   OH210076   3.068   0.319   2.460
 3400TIP3    H110077   3.006   0.279   2.400
 3400TIP3    H210078   3.013   0.365   2.524
 3401TIP3   OH210079   0.102   3.246   4.781
 3401TIP3    H110080   0.044   3.322   4.778
 3401TIP3    H210081   0.096   3.208   4.693
 3402TIP3   OH210082   7.134   5.663   2.981
 3402TIP3    H110083   7.050   5.650   3.024
 3402TIP3    H210084   7.172   5.575   2.974
 3403TIP3   OH210085   6.160   5.996   2.089
 3403TIP3    H110086   6.133   5.909   2.061
 3403TIP3    H210087   6.079   6.048   2.085
 3404TIP3   OH210088   4.295   3.033   3.846
 3404TIP3    H110089   4.217   3.079   3.875
 3404TIP3    H210090   4.275   3.004   3.758
 3405TIP3   OH210091   9.170   5.417   3.455
 3405TIP3    H110092   9.257   5.454   3.470
 3405TIP3    H210093   9.110   5.480   3.493
 3406TIP3   OH210094   9.406   4.928   0.157
 3406TIP3    H110095   9.497   4.900   0.146
 3406TIP3    H210096   9.356   4.870   0.099
 3407TIP3   OH210097   1.246   3.386   5.154
 3407TIP3    H110098   1.167   3.343   5.123
 3407TIP3    H210099   1.244   3.472   5.112
 3408TIP3   OH210100   3.108   7.671   6.198
 3408TIP3    H110101   3.128   7.725   6.274
 3408TIP3    H210102   3.152   7.715   6.125
 3409TIP3   OH210103   3.813   5.316   5.835
 3409TIP3    H110104   3.734   5.362   5.862
 3409TIP3    H210105   3.781   5.234   5.796
 3410TIP3   OH210106   7.112   1.961   1.394
 3410TIP3    H110107   7.123   2.041   1.445
 3410TIP3    H210108   7.115   1.891   1.458
 3411TIP3   OH210109   9.468   0.964   7.332
 3411TIP3    H110110   9.562   0.951   7.318
 3411TIP3    H210111   9.434   0.988   7.246
 3412TIP3   OH210112   3.587   2.500   2.420
 3412TIP3    H110113   3.525   2.571   2.406
 3412TIP3    H210114   3.594   2.457   2.334
 3413TIP3   OH210115   7.638   4.974   1.594
 3413TIP3    H110116   7.638   4.879   1.580
 3413TIP3    H210117   7.686   4.986   1.676
 3414TIP3   OH210118   1.096   3.300   3.424
 3414TIP3    H110119   1.005   3.280   3.444
 3414TIP3    H210120   1.146   3.258   3.495
 3415TIP3   OH210121   8.394   7.949   7.503
 3415TIP3    H110122   8.360   8.018   7.445
 3415TIP3    H210123   8.411   7.875   7.444
 3416TIP3   OH210124   4.947   6.982   7.510
 3416TIP3    H110125   4.950   6.903   7.565
 3416TIP3    H210126   4.993   6.957   7.430
 3417TIP3   OH210127   7.530   0.977   0.755
 3417TIP3    H110128   7.544   0.962   0.661
 3417TIP3    H210129   7.604   1.031   0.781
 3418TIP3   OH210130   0.653   6.591   5.964
 3418TIP3    H110131   0.646   6.677   6.005
 3418TIP3    H210132   0.705   6.540   6.025
 3419TIP3   OH210133   7.029   6.947   5.137
 3419TIP3    H110134   7.108   6.894   5.128
 3419TIP3    H210135   7.001   6.963   5.046
 3420TIP3   OH210136   7.234   6.079   6.941
 3420TIP3    H110137   7.315   6.115   6.904
 3420TIP3    H210138   7.265   6.018   7.009
 3421TIP3   OH210139   4.963   3.631   0.446
 3421TIP3    H110140   5.015   3.709   0.428
 3421TIP3    H210141   4.872   3.663   0.450
 3422TIP3   OH210142   1.667   4.307   0.327
 3422TIP3    H110143   1.584   4.268   0.299
 3422TIP3    H210144   1.724   4.297   0.251
 3423TIP3   OH210145   1.472   2.185   7.378
 3423TIP3    H110146   1.454   2.263   7.430
 3423TIP3    H210147   1.406   2.186   7.309
 3424TIP3   OH210148   0.114   5.696   0.012
 3424TIP3    H110149   0.087   5.607   0.034
 3424TIP3    H210150   0.053   5.724  -0.056
 3425TIP3   OH210151   4.544   6.465   5.919
 3425TIP3    H110152   4.501   6.446   5.836
 3425TIP3    H210153   4.575   6.555   5.909
 3426TIP3   OH210154   3.565   4.771   6.147
 3426TIP3    H110155   3.481   4.773   6.101
 3426TIP3    H210156   3.590   4.678   6.147
 3427TIP3   OH210157   1.521   8.431   6.777
 3427TIP3    H110158   1.533   8.351   6.828
 3427TIP3    H210159   1.459   8.406   6.708
 3428TIP3   OH210160   0.142   9.006   5.356
 3428TIP3    H110161   0.230   8.978   5.383
 3428TIP3    H210162   0.125   8.958   5.275
 3429TIP3   OH210163   5.143   6.959   6.268
 3429TIP3    H110164   5.167   7.048   6.294
 3429TIP3    H210165   5.175   6.951   6.179
 3430TIP3   OH210166   0.265   1.462   2.625
 3430TIP3    H110167   0.275   1.516   2.546
 3430TIP3    H210168   0.200   1.509   2.678
 3431TIP3   OH210169   6.049   6.260   1.040
 3431TIP3    H110170   6.073   6.174   1.006
 3431TIP3    H210171   5.953   6.259   1.041
 3432TIP3   OH210172   3.654   4.070   7.241
 3432TIP3    H110173   3.743   4.036   7.235
 3432TIP3    H210174   3.648   4.134   7.170
 3433TIP3   OH210175   0.975   2.094   6.966
 3433TIP3    H110176   0.928   2.099   6.882
 3433TIP3    H210177   1.067   2.109   6.943
 3434TIP3   OH210178   7.996   1.886   7.378
 3434TIP3    H110179   7.924   1.834   7.342
 3434TIP3    H210180   7.986   1.879   7.473
 3435TIP3   OH210181   5.441   3.379   4.481
 3435TIP3    H110182   5.489   3.307   4.523
 3435TIP3    H210183   5.404   3.429   4.554
 3436TIP3   OH210184   6.102   6.064   0.388
 3436TIP3    H110185   6.159   6.140   0.376
 3436TIP3    H210186   6.018   6.091   0.352
 3437TIP3   OH210187   1.666   7.810   2.307
 3437TIP3    H110188   1.670   7.837   2.215
 3437TIP3    H210189   1.573   7.813   2.329
 3438TIP3   OH210190   5.812   3.686   6.990
 3438TIP3    H110191   5.856   3.618   7.039
 3438TIP3    H210192   5.726   3.650   6.970
 3439TIP3   OH210193   5.627   1.878   7.662
 3439TIP3    H110194   5.532   1.871   7.665
 3439TIP3    H210195   5.656   1.801   7.614
 3440TIP3   OH210196   7.292  -0.004   3.157
 3440TIP3    H110197   7.228   0.000   3.228
 3440TIP3    H210198   7.315   0.088   3.141
 3441TIP3   OH210199   8.928   3.586   7.584
 3441TIP3    H110200   8.933   3.624   7.496
 3441TIP3    H210201   8.913   3.493   7.568
 3442TIP3   OH210202   7.588   0.601   0.459
 3442TIP3    H110203   7.535   0.530   0.423
 3442TIP3    H210204   7.573   0.675   0.400
 3443TIP3   OH210205   8.005   8.098   0.897
 3443TIP3    H110206   8.036   8.188   0.884
 3443TIP3    H210207   8.054   8.067   0.973
 3444TIP3   OH210208   7.328   4.153   0.906
 3444TIP3    H110209   7.371   4.126   0.988
 3444TIP3    H210210   7.388   4.124   0.837
 3445TIP3   OH210211   7.422   1.795   6.649
 3445TIP3    H110212   7.460   1.862   6.706
 3445TIP3    H210213   7.497   1.751   6.611
 3446TIP3   OH210214   2.148   2.384   6.034
 3446TIP3    H110215   2.114   2.328   5.965
 3446TIP3    H210216   2.083   2.454   6.043
 3447TIP3   OH210217   1.867   4.205   6.427
 3447TIP3    H110218   1.794   4.194   6.367
 3447TIP3    H210219   1.939   4.156   6.388
 3448TIP3   OH210220   6.289   4.323   0.465
 3448TIP3    H110221   6.364   4.277   0.502
 3448TIP3    H210222   6.232   4.254   0.430
 3449TIP3   OH210223   3.076   3.954   6.613
 3449TIP3    H110224   3.129   4.000   6.548
 3449TIP3    H210225   3.013   3.904   6.562
 3450TIP3   OH210226   8.171   5.323   4.691
 3450TIP3    H110227   8.165   5.318   4.596
 3450TIP3    H210228   8.250   5.272   4.713
 3451TIP3   OH210229   0.458   2.621   2.384
 3451TIP3    H110230   0.534   2.679   2.375
 3451TIP3    H210231   0.482   2.560   2.454
 3452TIP3   OH210232   3.696   4.040   0.282
 3452TIP3    H110233   3.700   3.945   0.276
 3452TIP3    H210234   3.643   4.057   0.360
 3453TIP3   OH210235   1.260   1.973   7.074
 3453TIP3    H110236   1.288   2.053   7.119
 3453TIP3    H210237   1.309   1.974   6.992
 3454TIP3   OH210238   7.073   3.652   3.715
 3454TIP3    H110239   7.104   3.572   3.674
 3454TIP3    H210240   7.153   3.697   3.743
 3455TIP3   OH210241   0.869   1.542   0.915
 3455TIP3    H110242   0.844   1.607   0.849
 3455TIP3    H210243   0.962   1.556   0.930
 3456TIP3   OH210244   2.240   7.225   2.632
 3456TIP3    H110245   2.260   7.311   2.594
 3456TIP3    H210246   2.314   7.208   2.691
 3457TIP3   OH210247   2.205   3.718   5.713
 3457TIP3    H110248   2.216   3.625   5.732
 3457TIP3    H210249   2.294   3.752   5.703
 3458TIP3   OH210250   4.984   6.306   1.182
 3458TIP3    H110251   4.947   6.382   1.136
 3458TIP3    H210252   5.040   6.264   1.116
 3459TIP3   OH210253   4.425   5.761   0.356
 3459TIP3    H110254   4.495   5.825   0.347
 3459TIP3    H210255   4.390   5.775   0.444
 3460TIP3   OH210256   8.715   5.662   4.676
 3460TIP3    H110257   8.763   5.723   4.733
 3460TIP3    H210258   8.755   5.577   4.693
 3461TIP3   OH210259   4.425   8.891   3.917
 3461TIP3    H110260   4.342   8.897   3.871
 3461TIP3    H210261   4.479   8.961   3.879
 3462TIP3   OH210262   9.475   8.816   7.695
 3462TIP3    H110263   9.518   8.901   7.685
 3462TIP3    H210264   9.540   8.753   7.664
 3463TIP3   OH210265   3.064   4.111   3.170
 3463TIP3    H110266   3.131   4.080   3.109
 3463TIP3    H210267   3.114   4.150   3.242
 3464TIP3   OH210268   7.664   4.301   3.191
 3464TIP3    H110269   7.686   4.386   3.152
 3464TIP3    H210270   7.582   4.276   3.149
 3465TIP3   OH210271   3.704   4.965   6.626
 3465TIP3    H110272   3.658   4.993   6.547
 3465TIP3    H210273   3.709   4.870   6.618
 3466TIP3   OH210274   9.246   0.833   1.830
 3466TIP3    H110275   9.244   0.747   1.787
 3466TIP3    H210276   9.337   0.862   1.822
 3467TIP3   OH210277   1.688   4.989   5.633
 3467TIP3    H110278   1.668   5.058   5.570
 3467TIP3    H210279   1.606   4.973   5.679
 3468TIP3   OH210280   9.478   5.748   4.491
 3468TIP3    H110281   9.428   5.683   4.441
 3468TIP3    H210282   9.482   5.713   4.580
 3469TIP3   OH210283   6.395   3.284   6.015
 3469TIP3    H110284   6.370   3.340   5.941
 3469TIP3    H210285   6.481   3.249   5.991
 3470TIP3   OH210286   7.770   1.063   1.667
 3470TIP3    H110287   7.806   0.982   1.703
 3470TIP3    H210288   7.680   1.066   1.700
 3471TIP3   OH210289   4.351   7.336   3.917
 3471TIP3    H110290   4.444   7.320   3.929
 3471TIP3    H210291   4.344   7.430   3.903
 3472TIP3   OH210292   1.400   6.834   5.711
 3472TIP3    H110293   1.326   6.824   5.770
 3472TIP3    H210294   1.364   6.816   5.624
 3473TIP3   OH210295   9.016   7.775   3.131
 3473TIP3    H110296   9.023   7.864   3.164
 3473TIP3    H210297   9.008   7.786   3.036
 3474TIP3   OH210298   5.708   4.840   3.633
 3474TIP3    H110299   5.679   4.929   3.612
 3474TIP3    H210300   5.647   4.783   3.586
 3475TIP3   OH210301   1.234   1.785   4.159
 3475TIP3    H110302   1.265   1.728   4.088
 3475TIP3    H210303   1.275   1.750   4.238
 3476TIP3   OH210304   5.967   1.426   6.732
 3476TIP3    H110305   6.038   1.361   6.739
 3476TIP3    H210306   6.010   1.504   6.695
 3477TIP3   OH210307   3.666   4.699   5.125
 3477TIP3    H110308   3.582   4.677   5.165
 3477TIP3    H210309   3.648   4.776   5.071
 3478TIP3   OH210310   3.807   2.286   3.428
 3478TIP3    H110311   3.832   2.216   3.488
 3478TIP3    H210312   3.740   2.336   3.474
 3479TIP3   OH210313   5.320   4.462   6.291
 3479TIP3    H110314   5.366   4.545   6.290
 3479TIP3    H210315   5.306   4.440   6.199
 3480TIP3   OH210316   7.571   6.130   1.793
 3480TIP3    H110317   7.573   6.067   1.865
 3480TIP3    H210318   7.535   6.081   1.719
 3481TIP3   OH210319   2.836   0.482   4.047
 3481TIP3    H110320   2.915   0.486   3.992
 3481TIP3    H210321   2.763   0.491   3.985
 3482TIP3   OH210322   0.716   2.170   6.400
 3482TIP3    H110323   0.737   2.102   6.335
 3482TIP3    H210324   0.641   2.135   6.447
 3483TIP3   OH210325   1.690   7.142   6.677
 3483TIP3    H110326   1.713   7.055   6.710
 3483TIP3    H210327   1.675   7.129   6.584
 3484TIP3   OH210328   7.430   2.588   2.578
 3484TIP3    H110329   7.445   2.520   2.644
 3484TIP3    H210330   7.361   2.551   2.522
 3485TIP3   OH210331   1.221   4.803   5.068
 3485TIP3    H110332   1.234   4.715   5.103
 3485TIP3    H210333   1.220   4.791   4.973
 3486TIP3   OH210334   2.394   7.802   7.231
 3486TIP3    H110335   2.343   7.860   7.175
 3486TIP3    H210336   2.367   7.825   7.320
 3487TIP3   OH210337   4.114   6.960   6.106
 3487TIP3    H110338   4.138   7.047   6.136
 3487TIP3    H210339   4.020   6.967   6.086
 3488TIP3   OH210340   3.609   3.330   5.345
 3488TIP3    H110341   3.567   3.377   5.417
 3488TIP3    H210342   3.659   3.398   5.299
 3489TIP3   OH210343   8.739   6.219   4.331
 3489TIP3    H110344   8.791   6.295   4.360
 3489TIP3    H210345   8.795   6.174   4.268
 3490TIP3   OH210346   6.886   1.031   6.749
 3490TIP3    H110347   6.914   0.968   6.816
 3490TIP3    H210348   6.946   1.105   6.759
 3491TIP3   OH210349   3.509   1.675   6.767
 3491TIP3    H110350   3.527   1.601   6.825
 3491TIP3    H210351   3.423   1.655   6.729
 3492TIP3   OH210352   4.280   2.135   0.289
 3492TIP3    H110353   4.208   2.198   0.302
 3492TIP3    H210354   4.248   2.054   0.328
 3493TIP3   OH210355   3.351   6.592   1.838
 3493TIP3    H110356   3.404   6.520   1.872
 3493TIP3    H210357   3.397   6.671   1.865
 3494TIP3   OH210358   8.784   2.464   0.378
 3494TIP3    H110359   8.783   2.413   0.298
 3494TIP3    H210360   8.877   2.474   0.399
 3495TIP3   OH210361   3.115   4.385   0.800
 3495TIP3    H110362   3.060   4.410   0.874
 3495TIP3    H210363   3.190   4.444   0.806
 3496TIP3   OH210364   2.774   3.306   6.541
 3496TIP3    H110365   2.757   3.238   6.476
 3496TIP3    H210366   2.690   3.321   6.583
 3497TIP3   OH210367   8.149   6.781   5.694
 3497TIP3    H110368   8.137   6.706   5.753
 3497TIP3    H210369   8.107   6.754   5.612
 3498TIP3   OH210370   7.882   1.401   5.148
 3498TIP3    H110371   7.938   1.420   5.073
 3498TIP3    H210372   7.850   1.312   5.133
 3499TIP3   OH210373   0.737   7.160   7.740
 3499TIP3    H110374   0.704   7.071   7.752
 3499TIP3    H210375   0.791   7.176   7.817
 3500TIP3   OH210376   3.219   0.086   6.885
 3500TIP3    H110377   3.135   0.096   6.929
 3500TIP3    H210378   3.275   0.041   6.949
 3501TIP3   OH210379   7.092   0.077   5.301
 3501TIP3    H110380   7.159   0.142   5.322
 3501TIP3    H210381   7.099   0.066   5.206
 3502TIP3   OH210382   6.885   3.159   5.337
 3502TIP3    H110383   6.933   3.238   5.362
 3502TIP3    H210384   6.916   3.139   5.249
 3503TIP3   OH210385   4.002   5.638   6.639
 3503TIP3    H110386   3.988   5.723   6.681
 3503TIP3    H210387   4.079   5.602   6.681
 3504TIP3   OH210388   4.951   6.120   2.112
 3504TIP3    H110389   4.912   6.201   2.082
 3504TIP3    H210390   4.910   6.052   2.059
 3505TIP3   OH210391   0.275   0.298   4.071
 3505TIP3    H110392   0.316   0.213   4.053
 3505TIP3    H210393   0.194   0.276   4.116
 3506TIP3   OH210394   3.309   5.021   0.444
 3506TIP3    H110395   3.293   4.973   0.525
 3506TIP3    H210396   3.317   4.953   0.377
 3507TIP3   OH210397   3.696   2.737   3.295
 3507TIP3    H110398   3.669   2.647   3.274
 3507TIP3    H210399   3.758   2.760   3.225
 3508TIP3   OH210400   5.313   7.811   5.246
 3508TIP3    H110401   5.323   7.762   5.327
 3508TIP3    H210402   5.402   7.835   5.221
 3509TIP3   OH210403   5.534   4.060   6.318
 3509TIP3    H110404   5.563   4.141   6.274
 3509TIP3    H210405   5.456   4.087   6.366
 3510TIP3   OH210406   8.788   2.517   2.200
 3510TIP3    H110407   8.868   2.522   2.252
 3510TIP3    H210408   8.810   2.561   2.118
 3511TIP3   OH210409   1.476   2.292   3.669
 3511TIP3    H110410   1.516   2.288   3.582
 3511TIP3    H210411   1.503   2.377   3.704
 3512TIP3   OH210412   9.111   8.911   4.773
 3512TIP3    H110413   9.120   8.980   4.707
 3512TIP3    H210414   9.047   8.945   4.835
 3513TIP3   OH210415   5.703   0.084   1.834
 3513TIP3    H110416   5.679   0.078   1.741
 3513TIP3    H210417   5.742   0.171   1.842
 3514TIP3   OH210418   2.266   2.435   6.519
 3514TIP3    H110419   2.304   2.517   6.485
 3514TIP3    H210420   2.173   2.443   6.501
 3515TIP3   OH210421   6.491   6.942   7.348
 3515TIP3    H110422   6.507   7.037   7.353
 3515TIP3    H210423   6.397   6.933   7.359
 3516TIP3   OH210424   3.825   4.999   1.666
 3516TIP3    H110425   3.837   5.093   1.682
 3516TIP3    H210426   3.821   4.991   1.571
 3517TIP3   OH210427   7.191   8.853   2.067
 3517TIP3    H110428   7.246   8.871   2.144
 3517TIP3    H210429   7.241   8.889   1.994
 3518TIP3   OH210430   2.204   5.304   2.304
 3518TIP3    H110431   2.245   5.382   2.267
 3518TIP3    H210432   2.242   5.297   2.392
 3519TIP3   OH210433   7.909   0.722   6.619
 3519TIP3    H110434   7.920   0.745   6.712
 3519TIP3    H210435   7.982   0.663   6.600
 3520TIP3   OH210436   6.394   3.548   0.949
 3520TIP3    H110437   6.393   3.628   0.896
 3520TIP3    H210438   6.305   3.512   0.939
 3521TIP3   OH210439   6.247   8.665   1.227
 3521TIP3    H110440   6.264   8.572   1.212
 3521TIP3    H210441   6.334   8.703   1.242
 3522TIP3   OH210442   8.077   3.319   6.445
 3522TIP3    H110443   8.030   3.389   6.400
 3522TIP3    H210444   8.031   3.239   6.421
 3523TIP3   OH210445   2.067   0.925   1.538
 3523TIP3    H110446   2.033   0.974   1.464
 3523TIP3    H210447   2.144   0.974   1.566
 3524TIP3   OH210448   3.147   8.756   7.677
 3524TIP3    H110449   3.224   8.763   7.621
 3524TIP3    H210450   3.171   8.691   7.744
 3525TIP3   OH210451   4.255   3.013   4.579
 3525TIP3    H110452   4.211   3.097   4.586
 3525TIP3    H210453   4.221   2.962   4.653
 3526TIP3   OH210454   1.635   5.380   7.685
 3526TIP3    H110455   1.668   5.291   7.695
 3526TIP3    H210456   1.595   5.381   7.598
 3527TIP3   OH210457   0.055   5.580   1.534
 3527TIP3    H110458   0.065   5.503   1.591
 3527TIP3    H210459  -0.007   5.552   1.467
 3528TIP3   OH210460   3.081   8.393   3.519
 3528TIP3    H110461   3.061   8.306   3.485
 3528TIP3    H210462   3.016   8.409   3.587
 3529TIP3   OH210463   7.144   7.189   0.585
 3529TIP3    H110464   7.121   7.218   0.497
 3529TIP3    H210465   7.129   7.265   0.640
 3530TIP3   OH210466   0.288   6.674   7.694
 3530TIP3    H110467   0.244   6.631   7.766
 3530TIP3    H210468   0.329   6.603   7.644
 3531TIP3   OH210469   8.260   1.875   5.241
 3531TIP3    H110470   8.241   1.952   5.186
 3531TIP3    H210471   8.241   1.904   5.330
 3532TIP3   OH210472   2.024   1.457   6.495
 3532TIP3    H110473   1.958   1.388   6.496
 3532TIP3    H210474   2.056   1.459   6.405
 3533TIP3   OH210475   8.665   8.871   0.901
 3533TIP3    H110476   8.709   8.940   0.853
 3533TIP3    H210477   8.607   8.917   0.962
 3534TIP3   OH210478   6.214   0.264   6.133
 3534TIP3    H110479   6.236   0.354   6.159
 3534TIP3    H210480   6.274   0.244   6.061
 3535TIP3   OH210481   6.830   5.144   4.357
 3535TIP3    H110482   6.888   5.213   4.387
 3535TIP3    H210483   6.884   5.089   4.301
 3536TIP3   OH210484   3.242   6.967   3.989
 3536TIP3    H110485   3.156   6.990   4.025
 3536TIP3    H210486   3.290   7.050   3.988
 3537TIP3   OH210487   7.044   6.216   7.089
 3537TIP3    H110488   7.087   6.258   7.164
 3537TIP3    H210489   7.110   6.157   7.053
 3538TIP3   OH210490   8.972   0.129   2.914
 3538TIP3    H110491   8.961   0.194   2.983
 3538TIP3    H210492   8.930   0.050   2.948
 3539TIP3   OH210493   1.691   6.182   6.818
 3539TIP3    H110494   1.646   6.157   6.737
 3539TIP3    H210495   1.779   6.147   6.808
 3540TIP3   OH210496   8.362   0.558   2.432
 3540TIP3    H110497   8.294   0.589   2.491
 3540TIP3    H210498   8.351   0.463   2.430
 3541TIP3   OH210499   7.967   3.854   5.486
 3541TIP3    H110500   7.904   3.789   5.516
 3541TIP3    H210501   8.025   3.867   5.561
 3542TIP3   OH210502   4.070   5.469   2.716
 3542TIP3    H110503   4.011   5.468   2.792
 3542TIP3    H210504   4.134   5.537   2.736
 3543TIP3   OH210505   9.381   2.716   3.562
 3543TIP3    H110506   9.397   2.809   3.546
 3543TIP3    H210507   9.312   2.693   3.500
 3544TIP3   OH210508   1.324   1.185   5.928
 3544TIP3    H110509   1.263   1.231   5.872
 3544TIP3    H210510   1.410   1.207   5.894
 3545TIP3   OH210511   0.928   1.501   7.360
 3545TIP3    H110512   0.873   1.444   7.307
 3545TIP3    H210513   0.867   1.557   7.407
 3546TIP3   OH210514   0.467   8.364   7.586
 3546TIP3    H110515   0.401   8.424   7.621
 3546TIP3    H210516   0.434   8.277   7.607
 3547TIP3   OH210517   9.305   3.452   4.660
 3547TIP3    H110518   9.241   3.498   4.604
 3547TIP3    H210519   9.390   3.470   4.618
 3548TIP3   OH210520   3.426   2.556   5.454
 3548TIP3    H110521   3.475   2.638   5.446
 3548TIP3    H210522   3.350   2.567   5.397
 3549TIP3   OH210523   2.236   3.524   3.012
 3549TIP3    H110524   2.254   3.451   3.071
 3549TIP3    H210525   2.183   3.585   3.064
 3550TIP3   OH210526   8.654   3.724   5.724
 3550TIP3    H110527   8.705   3.702   5.801
 3550TIP3    H210528   8.647   3.819   5.727
 3551TIP3   OH210529   5.335   5.757   6.495
 3551TIP3    H110530   5.286   5.701   6.555
 3551TIP3    H210531   5.283   5.837   6.490
 3552TIP3   OH210532   5.030   3.029   5.364
 3552TIP3    H110533   5.045   2.971   5.289
 3552TIP3    H210534   5.047   2.974   5.440
 3553TIP3   OH210535   2.028   2.567   3.375
 3553TIP3    H110536   2.020   2.653   3.416
 3553TIP3    H210537   1.943   2.551   3.335
 3554TIP3   OH210538   6.878   6.635   4.590
 3554TIP3    H110539   6.825   6.587   4.526
 3554TIP3    H210540   6.957   6.581   4.601
 3555TIP3   OH210541   0.083   7.313   5.755
 3555TIP3    H110542  -0.001   7.293   5.714
 3555TIP3    H210543   0.130   7.367   5.691
 3556TIP3   OH210544   1.197   8.968   3.618
 3556TIP3    H110545   1.285   8.978   3.654
 3556TIP3    H210546   1.201   8.887   3.567
 3557TIP3   OH210547   5.697   8.720   1.611
 3557TIP3    H110548   5.720   8.750   1.523
 3557TIP3    H210549   5.619   8.770   1.634
 3558TIP3   OH210550   3.338   5.092   6.893
 3558TIP3    H110551   3.371   5.091   6.983
 3558TIP3    H210552   3.410   5.128   6.841
 3559TIP3   OH210553   6.166   0.438   5.616
 3559TIP3    H110554   6.105   0.433   5.541
 3559TIP3    H210555   6.130   0.375   5.679
 3560TIP3   OH210556   8.938   5.322   7.540
 3560TIP3    H110557   9.026   5.345   7.511
 3560TIP3    H210558   8.929   5.229   7.517
 3561TIP3   OH210559   8.575   1.328   7.300
 3561TIP3    H110560   8.596   1.402   7.358
 3561TIP3    H210561   8.529   1.266   7.356
 3562TIP3   OH210562   5.494   3.077   2.131
 3562TIP3    H110563   5.512   3.171   2.122
 3562TIP3    H210564   5.463   3.067   2.221
 3563TIP3   OH210565   4.393   6.787   0.945
 3563TIP3    H110566   4.443   6.858   0.906
 3563TIP3    H210567   4.397   6.804   1.040
 3564TIP3   OH210568   2.823   8.768   7.708
 3564TIP3    H110569   2.759   8.830   7.744
 3564TIP3    H210570   2.906   8.814   7.712
 3565TIP3   OH210571   4.804   5.504   1.051
 3565TIP3    H110572   4.797   5.447   0.975
 3565TIP3    H210573   4.894   5.538   1.047
 3566TIP3   OH210574   7.575   6.307   4.410
 3566TIP3    H110575   7.588   6.370   4.339
 3566TIP3    H210576   7.522   6.238   4.371
 3567TIP3   OH210577   8.769   4.536   7.636
 3567TIP3    H110578   8.748   4.458   7.688
 3567TIP3    H210579   8.685   4.569   7.606
 3568TIP3   OH210580   5.584   7.715   5.929
 3568TIP3    H110581   5.658   7.703   5.869
 3568TIP3    H210582   5.583   7.809   5.946
 3569TIP3   OH210583   3.605   2.770   5.388
 3569TIP3    H110584   3.607   2.855   5.431
 3569TIP3    H210585   3.609   2.790   5.295
 3570TIP3   OH210586   8.807   8.185   3.282
 3570TIP3    H110587   8.764   8.135   3.351
 3570TIP3    H210588   8.788   8.277   3.302
 3571TIP3   OH210589   7.543   7.842   4.215
 3571TIP3    H110590   7.550   7.788   4.293
 3571TIP3    H210591   7.450   7.859   4.205
 3572TIP3   OH210592   3.378   0.930   4.717
 3572TIP3    H110593   3.345   0.973   4.795
 3572TIP3    H210594   3.464   0.969   4.701
 3573TIP3   OH210595   6.017   4.724   0.923
 3573TIP3    H110596   6.069   4.644   0.925
 3573TIP3    H210597   6.042   4.772   1.002
 3574TIP3   OH210598   6.728   2.008   2.512
 3574TIP3    H110599   6.705   2.054   2.592
 3574TIP3    H210600   6.791   2.065   2.468
 3575TIP3   OH210601   2.026   6.301   7.628
 3575TIP3    H110602   2.033   6.210   7.657
 3575TIP3    H210603   1.968   6.342   7.692
 3576TIP3   OH210604   7.465   2.986   2.452
 3576TIP3    H110605   7.502   2.984   2.540
 3576TIP3    H210606   7.451   3.080   2.435
 3577TIP3   OH210607   0.238   4.599   1.550
 3577TIP3    H110608   0.283   4.636   1.474
 3577TIP3    H210609   0.286   4.519   1.570
 3578TIP3   OH210610   2.291   7.013   0.273
 3578TIP3    H110611   2.212   7.049   0.232
 3578TIP3    H210612   2.274   7.022   0.367
 3579TIP3   OH210613   4.001   8.266   6.040
 3579TIP3    H110614   4.045   8.220   6.111
 3579TIP3    H210615   3.944   8.199   6.001
 3580TIP3   OH210616   9.563   3.313   1.038
 3580TIP3    H110617   9.576   3.245   0.973
 3580TIP3    H210618   9.482   3.288   1.083
 3581TIP3   OH210619   9.446   7.616   5.491
 3581TIP3    H110620   9.396   7.695   5.472
 3581TIP3    H210621   9.526   7.624   5.439
 3582TIP3   OH210622   6.169   8.866   7.295
 3582TIP3    H110623   6.134   8.782   7.265
 3582TIP3    H210624   6.135   8.930   7.233
 3583TIP3   OH210625   0.698   0.143   0.594
 3583TIP3    H110626   0.672   0.152   0.503
 3583TIP3    H210627   0.706   0.234   0.626
 3584TIP3   OH210628   3.615   4.445   4.275
 3584TIP3    H110629   3.653   4.367   4.314
 3584TIP3    H210630   3.593   4.501   4.349
 3585TIP3   OH210631   7.715   2.052   3.121
 3585TIP3    H110632   7.765   2.106   3.182
 3585TIP3    H210633   7.664   2.114   3.070
 3586TIP3   OH210634   4.468   6.407   1.991
 3586TIP3    H110635   4.440   6.457   1.915
 3586TIP3    H210636   4.394   6.411   2.052
 3587TIP3   OH210637   3.541   4.858   3.325
 3587TIP3    H110638   3.532   4.763   3.335
 3587TIP3    H210639   3.476   4.894   3.386
 3588TIP3   OH210640   7.852   7.878   6.765
 3588TIP3    H110641   7.824   7.787   6.756
 3588TIP3    H210642   7.910   7.894   6.691
 3589TIP3   OH210643   8.839   0.073   3.464
 3589TIP3    H110644   8.821   0.036   3.377
 3589TIP3    H210645   8.926   0.112   3.455
 3590TIP3   OH210646   2.178   2.157   4.956
 3590TIP3    H110647   2.250   2.122   4.903
 3590TIP3    H210648   2.103   2.102   4.935
 3591TIP3   OH210649   4.195   2.458   2.384
 3591TIP3    H110650   4.268   2.429   2.330
 3591TIP3    H210651   4.185   2.551   2.363
 3592TIP3   OH210652   5.344   0.468   6.655
 3592TIP3    H110653   5.294   0.477   6.736
 3592TIP3    H210654   5.428   0.432   6.683
 3593TIP3   OH210655   8.717   3.777   2.998
 3593TIP3    H110656   8.771   3.837   2.947
 3593TIP3    H210657   8.628   3.792   2.967
 3594TIP3   OH210658   8.798   0.458   4.163
 3594TIP3    H110659   8.875   0.406   4.142
 3594TIP3    H210660   8.829   0.549   4.162
 3595TIP3   OH210661   7.283   2.062   4.032
 3595TIP3    H110662   7.296   1.971   4.005
 3595TIP3    H210663   7.219   2.096   3.970
 3596TIP3   OH210664   7.905   3.317   4.028
 3596TIP3    H110665   7.863   3.234   4.052
 3596TIP3    H210666   7.841   3.384   4.050
 3597TIP3   OH210667   3.567   5.336   7.342
 3597TIP3    H110668   3.528   5.398   7.280
 3597TIP3    H210669   3.649   5.377   7.369
 3598TIP3   OH210670   9.090   3.189   2.574
 3598TIP3    H110671   9.001   3.162   2.594
 3598TIP3    H210672   9.145   3.116   2.603
 3599TIP3   OH210673   0.856   6.371   5.137
 3599TIP3    H110674   0.909   6.312   5.192
 3599TIP3    H210675   0.919   6.408   5.076
 3600TIP3   OH210676   0.565   6.660   6.648
 3600TIP3    H110677   0.561   6.635   6.556
 3600TIP3    H210678   0.641   6.612   6.683
 3601TIP3   OH210679   3.629   6.228   7.101
 3601TIP3    H110680   3.652   6.288   7.029
 3601TIP3    H210681   3.691   6.156   7.091
 3602TIP3   OH210682   6.063   1.080   0.560
 3602TIP3    H110683   6.134   1.017   0.571
 3602TIP3    H210684   6.099   1.145   0.499
 3603TIP3   OH210685   0.085   4.061   3.394
 3603TIP3    H110686   0.073   4.144   3.348
 3603TIP3    H210687   0.002   4.045   3.438
 3604TIP3   OH210688   9.383   3.865   1.498
 3604TIP3    H110689   9.443   3.856   1.572
 3604TIP3    H210690   9.354   3.776   1.480
 3605TIP3   OH210691   5.576   3.361   2.178
 3605TIP3    H110692   5.639   3.391   2.243
 3605TIP3    H210693   5.491   3.388   2.213
 3606TIP3   OH210694   5.342   7.462   7.108
 3606TIP3    H110695   5.301   7.548   7.095
 3606TIP3    H210696   5.295   7.424   7.182
 3607TIP3   OH210697   8.559   1.174   2.398
 3607TIP3    H110698   8.551   1.105   2.332
 3607TIP3    H210699   8.651   1.172   2.424
 3608TIP3   OH210700   0.801   6.359   2.956
 3608TIP3    H110701   0.778   6.344   3.048
 3608TIP3    H210702   0.753   6.439   2.933
 3609TIP3   OH210703   9.452   8.975   1.109
 3609TIP3    H110704   9.509   8.944   1.180
 3609TIP3    H210705   9.481   9.065   1.093
 3610TIP3   OH210706   8.541   1.784   6.359
 3610TIP3    H110707   8.538   1.689   6.353
 3610TIP3    H210708   8.557   1.813   6.269
 3611TIP3   OH210709   9.245   6.880   1.454
 3611TIP3    H110710   9.195   6.960   1.469
 3611TIP3    H210711   9.226   6.856   1.364
 3612TIP3   OH210712   7.551   0.429   4.258
 3612TIP3    H110713   7.590   0.342   4.252
 3612TIP3    H210714   7.618   0.489   4.226
 3613TIP3   OH210715   5.214   8.969   6.738
 3613TIP3    H110716   5.233   9.060   6.760
 3613TIP3    H210717   5.223   8.965   6.643
 3614TIP3   OH210718   2.610   6.450   3.905
 3614TIP3    H110719   2.519   6.421   3.912
 3614TIP3    H210720   2.657   6.400   3.972
 3615TIP3   OH210721   3.800   3.374   1.402
 3615TIP3    H110722   3.708   3.378   1.430
 3615TIP3    H210723   3.797   3.334   1.316
 3616TIP3   OH210724   2.361   3.335   5.192
 3616TIP3    H110725   2.352   3.384   5.274
 3616TIP3    H210726   2.361   3.243   5.219
 3617TIP3   OH210727   5.004   3.631   2.582
 3617TIP3    H110728   4.932   3.579   2.616
 3617TIP3    H210729   5.008   3.707   2.640
 3618TIP3   OH210730   5.636   5.731   5.095
 3618TIP3    H110731   5.630   5.721   5.000
 3618TIP3    H210732   5.588   5.656   5.130
 3619TIP3   OH210733   3.745   0.653   3.342
 3619TIP3    H110734   3.772   0.565   3.314
 3619TIP3    H210735   3.824   0.707   3.330
 3620TIP3   OH210736   8.223   0.965   6.630
 3620TIP3    H110737   8.200   0.985   6.721
 3620TIP3    H210738   8.148   0.997   6.579
 3621TIP3   OH210739   5.948   0.751   6.059
 3621TIP3    H110740   6.036   0.716   6.042
 3621TIP3    H210741   5.944   0.757   6.155
 3622TIP3   OH210742   4.102   6.060   3.126
 3622TIP3    H110743   4.047   6.021   3.058
 3622TIP3    H210744   4.052   6.137   3.155
 3623TIP3   OH210745   7.478   4.685   2.686
 3623TIP3    H110746   7.416   4.675   2.758
 3623TIP3    H210747   7.471   4.603   2.637
 3624TIP3   OH210748   3.791   0.842   3.758
 3624TIP3    H110749   3.764   0.899   3.686
 3624TIP3    H210750   3.716   0.785   3.774
 3625TIP3   OH210751   6.226   7.462   2.409
 3625TIP3    H110752   6.281   7.408   2.465
 3625TIP3    H210753   6.172   7.513   2.469
 3626TIP3   OH210754   2.988   6.142   4.354
 3626TIP3    H110755   2.900   6.174   4.374
 3626TIP3    H210756   2.976   6.049   4.335
 3627TIP3   OH210757   3.107   8.978   6.210
 3627TIP3    H110758   3.136   8.913   6.146
 3627TIP3    H210759   3.014   8.959   6.222
 3628TIP3   OH210760   5.163   1.872   5.705
 3628TIP3    H110761   5.191   1.962   5.686
 3628TIP3    H210762   5.112   1.880   5.786
 3629TIP3   OH210763   4.181   2.720   4.355
 3629TIP3    H110764   4.151   2.649   4.298
 3629TIP3    H210765   4.146   2.799   4.314
 3630TIP3   OH210766   3.970   4.969   1.898
 3630TIP3    H110767   4.057   4.934   1.879
 3630TIP3    H210768   3.920   4.955   1.818
 3631TIP3   OH210769   2.106   4.899   2.539
 3631TIP3    H110770   2.077   4.859   2.621
 3631TIP3    H210771   2.075   4.990   2.544
 3632TIP3   OH210772   7.324   4.826   4.380
 3632TIP3    H110773   7.338   4.821   4.474
 3632TIP3    H210774   7.406   4.794   4.342
 3633TIP3   OH210775   1.881   5.112   5.282
 3633TIP3    H110776   1.897   5.103   5.188
 3633TIP3    H210777   1.963   5.147   5.316
 3634TIP3   OH210778   8.618   4.201   4.496
 3634TIP3    H110779   8.709   4.202   4.525
 3634TIP3    H210780   8.595   4.294   4.487
 3635TIP3   OH210781   3.900   8.568   5.492
 3635TIP3    H110782   3.909   8.656   5.456
 3635TIP3    H210783   3.853   8.519   5.423
 3636TIP3   OH210784   2.329   2.369   0.456
 3636TIP3    H110785   2.256   2.372   0.518
 3636TIP3    H210786   2.338   2.276   0.435
 3637TIP3   OH210787   4.039   1.867   6.159
 3637TIP3    H110788   4.120   1.847   6.112
 3637TIP3    H210789   4.033   1.962   6.158
 3638TIP3   OH210790   2.131   6.864   2.049
 3638TIP3    H110791   2.103   6.951   2.079
 3638TIP3    H210792   2.079   6.803   2.100
 3639TIP3   OH210793   9.241   0.250   6.757
 3639TIP3    H110794   9.191   0.190   6.702
 3639TIP3    H210795   9.299   0.194   6.808
 3640TIP3   OH210796   3.002   0.954   0.326
 3640TIP3    H110797   2.995   1.026   0.389
 3640TIP3    H210798   2.947   0.884   0.362
 3641TIP3   OH210799   0.246   4.049   4.546
 3641TIP3    H110800   0.167   4.101   4.557
 3641TIP3    H210801   0.258   4.043   4.451
 3642TIP3   OH210802   7.547   3.011   2.752
 3642TIP3    H110803   7.540   3.096   2.795
 3642TIP3    H210804   7.491   2.953   2.804
 3643TIP3   OH210805   9.042   7.859   5.410
 3643TIP3    H110806   9.085   7.785   5.367
 3643TIP3    H210807   8.982   7.818   5.473
 3644TIP3   OH210808   9.247   6.071   1.412
 3644TIP3    H110809   9.319   6.132   1.425
 3644TIP3    H210810   9.192   6.112   1.345
 3645TIP3   OH210811   7.288   0.967   4.123
 3645TIP3    H110812   7.360   0.985   4.062
 3645TIP3    H210813   7.281   1.046   4.176
 3646TIP3   OH210814   3.033   5.113   3.007
 3646TIP3    H110815   2.973   5.187   2.999
 3646TIP3    H210816   3.088   5.118   2.929
 3647TIP3   OH210817   2.498   7.722   4.241
 3647TIP3    H110818   2.408   7.739   4.269
 3647TIP3    H210819   2.524   7.643   4.288
 3648TIP3   OH210820   7.058   0.945   4.678
 3648TIP3    H110821   7.087   0.943   4.587
 3648TIP3    H210822   7.006   0.866   4.688
 3649TIP3   OH210823   8.012   8.726   4.350
 3649TIP3    H110824   7.935   8.748   4.402
 3649TIP3    H210825   7.978   8.682   4.273
 3650TIP3   OH210826   1.226   5.305   1.981
 3650TIP3    H110827   1.253   5.219   2.013
 3650TIP3    H210828   1.194   5.289   1.892
 3651TIP3   OH210829   0.624   0.646   6.418
 3651TIP3    H110830   0.695   0.678   6.473
 3651TIP3    H210831   0.595   0.724   6.370
 3652TIP3   OH210832   7.997   3.090   6.906
 3652TIP3    H110833   8.047   3.118   6.829
 3652TIP3    H210834   7.920   3.147   6.907
 3653TIP3   OH210835   0.035   8.965   4.563
 3653TIP3    H110836   0.036   9.054   4.528
 3653TIP3    H210837  -0.058   8.943   4.568
 3654TIP3   OH210838   6.421   3.607   1.896
 3654TIP3    H110839   6.475   3.547   1.845
 3654TIP3    H210840   6.336   3.565   1.900
 3655TIP3   OH210841   5.495   5.744   5.824
 3655TIP3    H110842   5.427   5.724   5.888
 3655TIP3    H210843   5.501   5.840   5.825
 3656TIP3   OH210844   4.340   1.771   2.432
 3656TIP3    H110845   4.433   1.789   2.442
 3656TIP3    H210846   4.335   1.711   2.357
 3657TIP3   OH210847   0.955   7.799   5.804
 3657TIP3    H110848   1.037   7.790   5.852
 3657TIP3    H210849   0.919   7.710   5.802
 3658TIP3   OH210850   8.050   6.672   6.678
 3658TIP3    H110851   8.108   6.728   6.730
 3658TIP3    H210852   8.029   6.725   6.601
 3659TIP3   OH210853   4.465   8.517   2.618
 3659TIP3    H110854   4.456   8.558   2.532
 3659TIP3    H210855   4.389   8.549   2.668
 3660TIP3   OH210856   4.769   5.250   5.223
 3660TIP3    H110857   4.745   5.160   5.247
 3660TIP3    H210858   4.799   5.289   5.305
 3661TIP3   OH210859   5.396   8.104   2.006
 3661TIP3    H110860   5.483   8.146   2.004
 3661TIP3    H210861   5.414   8.014   2.035
 3662TIP3   OH210862   7.801   3.113   2.728
 3662TIP3    H110863   7.720   3.075   2.692
 3662TIP3    H210864   7.866   3.044   2.717
 3663TIP3   OH210865   1.691   8.424   6.259
 3663TIP3    H110866   1.721   8.334   6.251
 3663TIP3    H210867   1.728   8.468   6.182
 3664TIP3   OH210868   4.421   6.085   0.833
 3664TIP3    H110869   4.423   6.163   0.888
 3664TIP3    H210870   4.490   6.029   0.868
 3665TIP3   OH210871   7.692   4.263   7.380
 3665TIP3    H110872   7.671   4.355   7.368
 3665TIP3    H210873   7.785   4.262   7.401
 3666TIP3   OH210874   3.335   1.496   7.072
 3666TIP3    H110875   3.430   1.506   7.078
 3666TIP3    H210876   3.302   1.537   7.152
 3667TIP3   OH210877   0.786   7.298   2.280
 3667TIP3    H110878   0.856   7.353   2.314
 3667TIP3    H210879   0.790   7.218   2.333
 3668TIP3   OH210880   4.063   7.660   4.399
 3668TIP3    H110881   4.056   7.566   4.416
 3668TIP3    H210882   4.017   7.673   4.315
 3669TIP3   OH210883   3.710   1.106   1.988
 3669TIP3    H110884   3.761   1.096   1.908
 3669TIP3    H210885   3.762   1.062   2.056
 3670TIP3   OH210886   2.587   5.594   6.181
 3670TIP3    H110887   2.552   5.542   6.253
 3670TIP3    H210888   2.553   5.682   6.197
 3671TIP3   OH210889   8.671   3.989   4.654
 3671TIP3    H110890   8.748   4.037   4.682
 3671TIP3    H210891   8.625   4.049   4.595
 3672TIP3   OH210892   4.960   5.754   2.945
 3672TIP3    H110893   4.937   5.809   3.020
 3672TIP3    H210894   5.032   5.801   2.902
 3673TIP3   OH210895   7.874   0.391   1.185
 3673TIP3    H110896   7.939   0.460   1.198
 3673TIP3    H210897   7.872   0.378   1.090
 3674TIP3   OH210898   3.189   0.491   7.210
 3674TIP3    H110899   3.189   0.516   7.303
 3674TIP3    H210900   3.120   0.424   7.203
 3675TIP3   OH210901   7.810   0.070   5.481
 3675TIP3    H110902   7.901   0.081   5.453
 3675TIP3    H210903   7.798  -0.025   5.487
 3676TIP3   OH210904   9.059   3.146   3.791
 3676TIP3    H110905   9.108   3.116   3.714
 3676TIP3    H210906   9.029   3.234   3.767
 3677TIP3   OH210907   5.951   5.770   2.984
 3677TIP3    H110908   5.861   5.801   2.979
 3677TIP3    H210909   5.966   5.754   3.078
 3678TIP3   OH210910   0.802   4.353   1.902
 3678TIP3    H110911   0.820   4.419   1.835
 3678TIP3    H210912   0.842   4.388   1.982
 3679TIP3   OH210913   8.146   0.014   3.567
 3679TIP3    H110914   8.181   0.047   3.484
 3679TIP3    H210915   8.187  -0.072   3.577
 3680TIP3   OH210916   7.710   8.196   0.900
 3680TIP3    H110917   7.805   8.190   0.889
 3680TIP3    H210918   7.698   8.258   0.972
 3681TIP3   OH210919   6.033   1.047   1.726
 3681TIP3    H110920   6.035   1.053   1.630
 3681TIP3    H210921   5.986   0.965   1.744
 3682TIP3   OH210922   1.985   1.214   0.466
 3682TIP3    H110923   1.983   1.267   0.386
 3682TIP3    H210924   2.038   1.266   0.527
 3683TIP3   OH210925   7.278   8.839   4.837
 3683TIP3    H110926   7.222   8.773   4.796
 3683TIP3    H210927   7.336   8.789   4.895
 3684TIP3   OH210928   8.696   6.960   6.041
 3684TIP3    H110929   8.606   6.988   6.062
 3684TIP3    H210930   8.727   7.026   5.980
 3685TIP3   OH210931   3.108   6.948   6.865
 3685TIP3    H110932   3.058   7.029   6.875
 3685TIP3    H210933   3.142   6.930   6.953
 3686TIP3   OH210934   9.463   4.474   4.051
 3686TIP3    H110935   9.464   4.542   3.983
 3686TIP3    H210936   9.494   4.519   4.130
 3687TIP3   OH210937   3.675   5.436   1.019
 3687TIP3    H110938   3.607   5.390   1.069
 3687TIP3    H210939   3.706   5.372   0.955
 3688TIP3   OH210940   5.175   0.901   5.066
 3688TIP3    H110941   5.145   0.981   5.109
 3688TIP3    H210942   5.270   0.901   5.078
 3689TIP3   OH210943   3.898   0.132   5.594
 3689TIP3    H110944   3.954   0.210   5.603
 3689TIP3    H210945   3.827   0.160   5.536
 3690TIP3   OH210946   5.561   0.575   0.874
 3690TIP3    H110947   5.631   0.543   0.931
 3690TIP3    H210948   5.482   0.565   0.927
 3691TIP3   OH210949   0.592   7.139   2.596
 3691TIP3    H110950   0.579   7.233   2.606
 3691TIP3    H210951   0.604   7.127   2.502
 3692TIP3   OH210952   9.553   1.720   5.207
 3692TIP3    H110953   9.541   1.777   5.283
 3692TIP3    H210954   9.641   1.740   5.175
 3693TIP3   OH210955   8.237   4.776   5.825
 3693TIP3    H110956   8.186   4.810   5.751
 3693TIP3    H210957   8.317   4.828   5.825
 3694TIP3   OH210958   7.283   6.346   4.139
 3694TIP3    H110959   7.237   6.269   4.173
 3694TIP3    H210960   7.279   6.336   4.044
 3695TIP3   OH210961   8.570   6.350   4.613
 3695TIP3    H110962   8.509   6.382   4.546
 3695TIP3    H210963   8.577   6.423   4.675
 3696TIP3   OH210964   9.003   0.581   1.116
 3696TIP3    H110965   8.928   0.564   1.059
 3696TIP3    H210966   9.024   0.496   1.154
 3697TIP3   OH210967   5.607   6.105   2.258
 3697TIP3    H110968   5.612   6.090   2.164
 3697TIP3    H210969   5.661   6.036   2.297
 3698TIP3   OH210970   0.782   2.543   0.895
 3698TIP3    H110971   0.751   2.620   0.847
 3698TIP3    H210972   0.780   2.570   0.987
 3699TIP3   OH210973   3.414   0.709   3.148
 3699TIP3    H110974   3.391   0.779   3.087
 3699TIP3    H210975   3.490   0.744   3.196
 3700TIP3   OH210976   8.736   4.045   6.844
 3700TIP3    H110977   8.733   3.979   6.775
 3700TIP3    H210978   8.729   3.994   6.925
 3701TIP3   OH210979   0.108   8.590   0.831
 3701TIP3    H110980   0.103   8.585   0.735
 3701TIP3    H210981   0.083   8.680   0.852
 3702TIP3   OH210982   3.632   5.745   2.852
 3702TIP3    H110983   3.628   5.839   2.868
 3702TIP3    H210984   3.551   5.711   2.889
 3703TIP3   OH210985   7.646   3.642   3.158
 3703TIP3    H110986   7.712   3.710   3.143
 3703TIP3    H210987   7.589   3.678   3.226
 3704TIP3   OH210988   7.513   0.237   2.688
 3704TIP3    H110989   7.467   0.175   2.744
 3704TIP3    H210990   7.446   0.272   2.629
 3705TIP3   OH210991   9.015   6.819   7.689
 3705TIP3    H110992   9.106   6.826   7.662
 3705TIP3    H210993   9.017   6.826   7.785
 3706TIP3   OH210994   3.273   6.204   4.433
 3706TIP3    H110995   3.179   6.201   4.416
 3706TIP3    H210996   3.305   6.274   4.376
 3707TIP3   OH210997   4.957   7.329   2.999
 3707TIP3    H110998   5.052   7.346   2.997
 3707TIP3    H210999   4.921   7.405   3.045
 3708TIP3   OH211000   4.536   3.316   4.829
 3708TIP3    H111001   4.503   3.400   4.796
 3708TIP3    H211002   4.580   3.338   4.910
 3709TIP3   OH211003   5.640   7.614   5.313
 3709TIP3    H111004   5.602   7.561   5.243
 3709TIP3    H211005   5.581   7.689   5.321
 3710TIP3   OH211006   4.149   3.854   7.182
 3710TIP3    H111007   4.093   3.821   7.252
 3710TIP3    H211008   4.112   3.939   7.160
 3711TIP3   OH211009   0.164   1.320   6.792
 3711TIP3    H111010   0.228   1.386   6.820
 3711TIP3    H211011   0.147   1.341   6.700
 3712TIP3   OH211012   1.351   7.802   5.334
 3712TIP3    H111013   1.397   7.861   5.273
 3712TIP3    H211014   1.287   7.858   5.378
 3713TIP3   OH211015   1.394   4.665   6.836
 3713TIP3    H111016   1.450   4.635   6.764
 3713TIP3    H211017   1.455   4.680   6.908
 3714TIP3   OH211018   3.027   6.996   0.092
 3714TIP3    H111019   2.970   7.022   0.164
 3714TIP3    H211020   3.035   6.901   0.101
 3715TIP3   OH211021   8.888   4.090   2.862
 3715TIP3    H111022   8.928   4.006   2.837
 3715TIP3    H211023   8.962   4.149   2.874
 3716TIP3   OH211024   5.811   5.355   2.676
 3716TIP3    H111025   5.900   5.323   2.666
 3716TIP3    H211026   5.814   5.445   2.643
 3717TIP3   OH211027   4.957   2.612   7.296
 3717TIP3    H111028   5.023   2.601   7.228
 3717TIP3    H211029   5.006   2.601   7.378
 3718TIP3   OH211030   7.171   3.224   5.490
 3718TIP3    H111031   7.191   3.199   5.580
 3718TIP3    H211032   7.133   3.312   5.497
 3719TIP3   OH211033   5.486   3.079   7.511
 3719TIP3    H111034   5.554   3.146   7.511
 3719TIP3    H211035   5.406   3.125   7.485
 3720TIP3   OH211036   6.384   3.839   2.746
 3720TIP3    H111037   6.326   3.812   2.818
 3720TIP3    H211038   6.342   3.806   2.667
 3721TIP3   OH211039   2.980   8.584   7.515
 3721TIP3    H111040   2.977   8.670   7.556
 3721TIP3    H211041   3.044   8.535   7.566
 3722TIP3   OH211042   1.042   2.789   6.210
 3722TIP3    H111043   0.958   2.745   6.221
 3722TIP3    H211044   1.058   2.830   6.296
 3723TIP3   OH211045   6.906   4.523   3.799
 3723TIP3    H111046   6.975   4.589   3.794
 3723TIP3    H211047   6.953   4.440   3.810
 3724TIP3   OH211048   7.489   5.412   2.432
 3724TIP3    H111049   7.578   5.402   2.467
 3724TIP3    H211050   7.475   5.334   2.379
 3725TIP3   OH211051   9.387   5.576   3.567
 3725TIP3    H111052   9.346   5.633   3.633
 3725TIP3    H211053   9.455   5.630   3.527
 3726TIP3   OH211054   2.581   2.983   1.291
 3726TIP3    H111055   2.549   2.901   1.329
 3726TIP3    H211056   2.526   3.050   1.332
 3727TIP3   OH211057   4.613   7.609   4.555
 3727TIP3    H111058   4.630   7.680   4.617
 3727TIP3    H211059   4.613   7.530   4.609
 3728TIP3   OH211060   6.583   0.267   3.788
 3728TIP3    H111061   6.625   0.244   3.705
 3728TIP3    H211062   6.615   0.355   3.807
 3729TIP3   OH211063   0.364   1.261   3.764
 3729TIP3    H111064   0.338   1.352   3.774
 3729TIP3    H211065   0.314   1.214   3.830
 3730TIP3   OH211066   4.293   1.554   2.254
 3730TIP3    H111067   4.268   1.567   2.163
 3730TIP3    H211068   4.258   1.468   2.276
 3731TIP3   OH211069   8.644   5.353   2.146
 3731TIP3    H111070   8.682   5.439   2.163
 3731TIP3    H211071   8.581   5.341   2.218
 3732TIP3   OH211072   5.325   1.941   0.485
 3732TIP3    H111073   5.347   1.952   0.578
 3732TIP3    H211074   5.409   1.942   0.440
 3733TIP3   OH211075   6.226   3.003   1.413
 3733TIP3    H111076   6.217   3.047   1.329
 3733TIP3    H211077   6.319   2.978   1.418
 3734TIP3   OH211078   0.719   4.174   6.258
 3734TIP3    H111079   0.741   4.102   6.317
 3734TIP3    H211080   0.694   4.131   6.176
 3735TIP3   OH211081   1.967   0.466   7.194
 3735TIP3    H111082   2.018   0.451   7.115
 3735TIP3    H211083   1.893   0.520   7.165
 3736TIP3   OH211084   0.208   4.964   1.581
 3736TIP3    H111085   0.221   4.893   1.518
 3736TIP3    H211086   0.292   5.010   1.583
 3737TIP3   OH211087   8.467   5.380   0.253
 3737TIP3    H111088   8.444   5.466   0.287
 3737TIP3    H211089   8.413   5.370   0.175
 3738TIP3   OH211090   9.350   0.741   4.350
 3738TIP3    H111091   9.382   0.828   4.326
 3738TIP3    H211092   9.411   0.710   4.417
 3739TIP3   OH211093   7.226   1.019   3.300
 3739TIP3    H111094   7.196   1.032   3.211
 3739TIP3    H211095   7.228   1.107   3.338
 3740TIP3   OH211096   9.514   2.364   4.533
 3740TIP3    H111097   9.479   2.452   4.521
 3740TIP3    H211098   9.445   2.306   4.500
 3741TIP3   OH211099   1.009   3.709   4.645
 3741TIP3    H111100   1.032   3.799   4.667
 3741TIP3    H211101   0.919   3.715   4.612
 3742TIP3   OH211102   1.398   0.092   0.547
 3742TIP3    H111103   1.327   0.029   0.538
 3742TIP3    H211104   1.355   0.171   0.580
 3743TIP3   OH211105   8.902   3.060   1.404
 3743TIP3    H111106   8.832   3.048   1.468
 3743TIP3    H211107   8.862   3.111   1.334
 3744TIP3   OH211108   3.277   5.465   5.685
 3744TIP3    H111109   3.202   5.442   5.630
 3744TIP3    H211110   3.288   5.388   5.742
 3745TIP3   OH211111   6.500   0.815   2.905
 3745TIP3    H111112   6.489   0.854   2.819
 3745TIP3    H211113   6.423   0.842   2.954
 3746TIP3   OH211114   1.159   5.421   6.954
 3746TIP3    H111115   1.236   5.392   7.004
 3746TIP3    H211116   1.181   5.510   6.926
 3747TIP3   OH211117   4.023   1.208   4.638
 3747TIP3    H111118   4.041   1.286   4.691
 3747TIP3    H211119   3.954   1.235   4.578
 3748TIP3   OH211120   6.248   8.258   3.774
 3748TIP3    H111121   6.198   8.282   3.852
 3748TIP3    H211122   6.333   8.230   3.807
 3749TIP3   OH211123   8.013   5.323   6.755
 3749TIP3    H111124   7.948   5.392   6.761
 3749TIP3    H211125   8.032   5.299   6.846
 3750TIP3   OH211126   7.891   1.498   5.906
 3750TIP3    H111127   7.851   1.429   5.853
 3750TIP3    H211128   7.937   1.451   5.976
 3751TIP3   OH211129   4.834   3.954   4.460
 3751TIP3    H111130   4.868   3.993   4.541
 3751TIP3    H211131   4.745   3.986   4.454
 3752TIP3   OH211132   2.223   1.551   2.577
 3752TIP3    H111133   2.277   1.539   2.499
 3752TIP3    H211134   2.265   1.624   2.624
 3753TIP3   OH211135   6.763   1.341   6.160
 3753TIP3    H111136   6.793   1.257   6.126
 3753TIP3    H211137   6.822   1.406   6.121
 3754TIP3   OH211138   0.430   4.466   0.830
 3754TIP3    H111139   0.491   4.503   0.766
 3754TIP3    H211140   0.346   4.464   0.785
 3755TIP3   OH211141   1.696   6.405   6.998
 3755TIP3    H111142   1.621   6.453   6.962
 3755TIP3    H211143   1.702   6.326   6.944
 3756TIP3   OH211144   8.192   8.315   0.843
 3756TIP3    H111145   8.198   8.359   0.759
 3756TIP3    H211146   8.198   8.386   0.908
 3757TIP3   OH211147   3.166   3.121   7.305
 3757TIP3    H111148   3.078   3.085   7.300
 3757TIP3    H211149   3.156   3.203   7.353
 3758TIP3   OH211150   1.526   7.933   1.003
 3758TIP3    H111151   1.614   7.969   0.990
 3758TIP3    H211152   1.511   7.875   0.929
 3759TIP3   OH211153   9.331   2.315   1.014
 3759TIP3    H111154   9.247   2.355   1.037
 3759TIP3    H211155   9.314   2.221   1.018
 3760TIP3   OH211156   0.579   5.214   7.052
 3760TIP3    H111157   0.545   5.141   6.999
 3760TIP3    H211158   0.598   5.174   7.138
 3761TIP3   OH211159   5.779   3.352   0.055
 3761TIP3    H111160   5.836   3.410   0.106
 3761TIP3    H211161   5.692   3.364   0.095
 3762TIP3   OH211162   3.291   8.769   0.775
 3762TIP3    H111163   3.313   8.811   0.693
 3762TIP3    H211164   3.360   8.795   0.836
 3763TIP3   OH211165   4.998   4.970   3.579
 3763TIP3    H111166   5.020   4.909   3.509
 3763TIP3    H211167   4.902   4.972   3.580
 3764TIP3   OH211168   4.024   7.111   5.855
 3764TIP3    H111169   4.053   7.022   5.874
 3764TIP3    H211170   4.095   7.149   5.803
 3765TIP3   OH211171   9.136   0.208   0.644
 3765TIP3    H111172   9.215   0.164   0.611
 3765TIP3    H211173   9.080   0.137   0.674
 3766TIP3   OH211174   4.146   7.446   3.023
 3766TIP3    H111175   4.166   7.529   3.065
 3766TIP3    H211176   4.191   7.381   3.076
 3767TIP3   OH211177   2.496   2.201   3.115
 3767TIP3    H111178   2.491   2.173   3.024
 3767TIP3    H211179   2.544   2.284   3.112
 3768TIP3   OH211180   2.278   3.332   3.351
 3768TIP3    H111181   2.212   3.381   3.399
 3768TIP3    H211182   2.361   3.356   3.391
 3769TIP3   OH211183   7.571   0.957   2.067
 3769TIP3    H111184   7.507   0.891   2.040
 3769TIP3    H211185   7.603   0.925   2.152
 3770TIP3   OH211186   2.975   2.539   7.075
 3770TIP3    H111187   3.070   2.532   7.063
 3770TIP3    H211188   2.945   2.589   6.999
 3771TIP3   OH211189   8.228   4.968   7.117
 3771TIP3    H111190   8.219   4.889   7.065
 3771TIP3    H211191   8.139   4.987   7.148
 3772TIP3   OH211192   6.647   6.730   1.693
 3772TIP3    H111193   6.634   6.804   1.752
 3772TIP3    H211194   6.649   6.769   1.606
 3773TIP3   OH211195   9.104   4.726   2.348
 3773TIP3    H111196   9.031   4.762   2.298
 3773TIP3    H211197   9.063   4.667   2.410
 3774TIP3   OH211198   8.402   0.002   0.245
 3774TIP3    H111199   8.474   0.064   0.249
 3774TIP3    H211200   8.330   0.045   0.291
 3775TIP3   OH211201   1.475   4.869   0.386
 3775TIP3    H111202   1.390   4.828   0.404
 3775TIP3    H211203   1.522   4.806   0.333
 3776TIP3   OH211204   3.514   0.482   6.612
 3776TIP3    H111205   3.609   0.481   6.595
 3776TIP3    H211206   3.493   0.393   6.639
 3777TIP3   OH211207   4.083   5.123   1.462
 3777TIP3    H111208   4.017   5.053   1.459
 3777TIP3    H211209   4.032   5.204   1.459
 3778TIP3   OH211210   5.537   4.553   1.923
 3778TIP3    H111211   5.560   4.568   1.832
 3778TIP3    H211212   5.454   4.504   1.920
 3779TIP3   OH211213   2.590   6.379   5.520
 3779TIP3    H111214   2.510   6.421   5.487
 3779TIP3    H211215   2.575   6.370   5.614
 3780TIP3   OH211216   2.758   0.175   5.016
 3780TIP3    H111217   2.810   0.246   4.979
 3780TIP3    H211218   2.817   0.133   5.078
 3781TIP3   OH211219   3.482   0.166   1.448
 3781TIP3    H111220   3.557   0.108   1.439
 3781TIP3    H211221   3.459   0.192   1.359
 3782TIP3   OH211222   2.543   2.021   4.641
 3782TIP3    H111223   2.502   2.008   4.555
 3782TIP3    H211224   2.620   1.964   4.640
 3783TIP3   OH211225   5.293   1.270   0.135
 3783TIP3    H111226   5.285   1.189   0.086
 3783TIP3    H211227   5.207   1.284   0.172
 3784TIP3   OH211228   4.361   2.629   2.720
 3784TIP3    H111229   4.288   2.568   2.729
 3784TIP3    H211230   4.321   2.716   2.726
 3785TIP3   OH211231   1.143   3.101   6.499
 3785TIP3    H111232   1.095   3.023   6.472
 3785TIP3    H211233   1.118   3.168   6.436
 3786TIP3   OH211234   4.114   2.495   2.079
 3786TIP3    H111235   4.193   2.441   2.075
 3786TIP3    H211236   4.144   2.584   2.060
 3787TIP3   OH211237   8.885   4.964   3.109
 3787TIP3    H111238   8.910   4.950   3.200
 3787TIP3    H211239   8.808   5.021   3.114
 3788TIP3   OH211240   7.077   3.516   0.696
 3788TIP3    H111241   7.012   3.514   0.767
 3788TIP3    H211242   7.094   3.423   0.677
 3789TIP3   OH211243   6.226   2.175   5.325
 3789TIP3    H111244   6.193   2.174   5.415
 3789TIP3    H211245   6.260   2.087   5.311
 3790TIP3   OH211246   2.986   7.838   5.399
 3790TIP3    H111247   2.926   7.870   5.466
 3790TIP3    H211248   2.964   7.889   5.321
 3791TIP3   OH211249   0.465   0.022   4.740
 3791TIP3    H111250   0.486  -0.036   4.666
 3791TIP3    H211251   0.550   0.040   4.780
 3792TIP3   OH211252   9.162   5.284   1.235
 3792TIP3    H111253   9.169   5.238   1.151
 3792TIP3    H211254   9.076   5.324   1.233
 3793TIP3   OH211255   3.464   4.801   1.180
 3793TIP3    H111256   3.418   4.758   1.252
 3793TIP3    H211257   3.535   4.740   1.158
 3794TIP3   OH211258   0.049   5.849   1.912
 3794TIP3    H111259  -0.016   5.800   1.862
 3794TIP3    H211260   0.061   5.798   1.992
 3795TIP3   OH211261   8.831   7.531   6.642
 3795TIP3    H111262   8.841   7.626   6.645
 3795TIP3    H211263   8.845   7.509   6.550
 3796TIP3   OH211264   0.759   7.421   6.944
 3796TIP3    H111265   0.665   7.421   6.926
 3796TIP3    H211266   0.766   7.440   7.038
 3797TIP3   OH211267   4.097   1.904   3.872
 3797TIP3    H111268   4.070   1.854   3.795
 3797TIP3    H211269   4.181   1.942   3.847
 3798TIP3   OH211270   2.888   3.084   1.086
 3798TIP3    H111271   2.968   3.113   1.043
 3798TIP3    H211272   2.913   3.074   1.178
 3799TIP3   OH211273   7.124   6.961   0.719
 3799TIP3    H111274   7.142   7.047   0.682
 3799TIP3    H211275   7.205   6.936   0.763
 3800TIP3   OH211276   4.911   5.033   2.239
 3800TIP3    H111277   4.911   5.073   2.152
 3800TIP3    H211278   4.932   5.104   2.299
 3801TIP3   OH211279   8.085   5.081   3.790
 3801TIP3    H111280   8.171   5.082   3.833
 3801TIP3    H211281   8.105   5.104   3.699
 3802TIP3   OH211282   5.285   2.606   4.929
 3802TIP3    H111283   5.257   2.667   4.861
 3802TIP3    H211284   5.355   2.555   4.889
 3803TIP3   OH211285   7.608   7.108   4.774
 3803TIP3    H111286   7.697   7.137   4.755
 3803TIP3    H211287   7.610   7.084   4.867
 3804TIP3   OH211288   3.051   7.803   0.063
 3804TIP3    H111289   2.977   7.744   0.047
 3804TIP3    H211290   3.101   7.801  -0.018
 3805TIP3   OH211291   2.213   4.129   7.128
 3805TIP3    H111292   2.156   4.092   7.060
 3805TIP3    H211293   2.302   4.117   7.093
 3806TIP3   OH211294   7.428   4.250   4.220
 3806TIP3    H111295   7.397   4.185   4.284
 3806TIP3    H211296   7.383   4.225   4.139
 3807TIP3   OH211297   1.315   4.458   0.145
 3807TIP3    H111298   1.325   4.410   0.226
 3807TIP3    H211299   1.390   4.517   0.141
 3808TIP3   OH211300   9.045   8.782   0.245
 3808TIP3    H111301   8.952   8.793   0.223
 3808TIP3    H211302   9.049   8.788   0.340
 3809TIP3   OH211303   0.113   2.239   2.443
 3809TIP3    H111304   0.040   2.201   2.492
 3809TIP3    H211305   0.161   2.290   2.509
 3810TIP3   OH211306   8.526   0.270   5.960
 3810TIP3    H111307   8.482   0.195   5.921
 3810TIP3    H211308   8.464   0.343   5.949
 3811TIP3   OH211309   1.927   1.182   4.335
 3811TIP3    H111310   1.898   1.141   4.416
 3811TIP3    H211311   2.022   1.173   4.336
 3812TIP3   OH211312   8.712   7.774   4.739
 3812TIP3    H111313   8.779   7.822   4.690
 3812TIP3    H211314   8.657   7.735   4.671
 3813TIP3   OH211315   3.570   5.693   7.425
 3813TIP3    H111316   3.637   5.641   7.379
 3813TIP3    H211317   3.516   5.728   7.355
 3814TIP3   OH211318   6.417   3.810   3.434
 3814TIP3    H111319   6.343   3.819   3.494
 3814TIP3    H211320   6.491   3.789   3.490
 3815TIP3   OH211321   5.887   8.784   7.622
 3815TIP3    H111322   5.793   8.785   7.637
 3815TIP3    H211323   5.899   8.831   7.540
 3816TIP3   OH211324   6.727   7.131   3.275
 3816TIP3    H111325   6.782   7.206   3.299
 3816TIP3    H211326   6.684   7.106   3.356
 3817TIP3   OH211327   3.731   5.845   5.980
 3817TIP3    H111328   3.680   5.767   5.957
 3817TIP3    H211329   3.731   5.898   5.900
 3818TIP3   OH211330   0.564   7.511   3.278
 3818TIP3    H111331   0.565   7.443   3.210
 3818TIP3    H211332   0.620   7.580   3.243
 3819TIP3   OH211333   0.717   2.731   2.484
 3819TIP3    H111334   0.681   2.765   2.566
 3819TIP3    H211335   0.746   2.808   2.437
 3820TIP3   OH211336   2.531   6.818   2.532
 3820TIP3    H111337   2.572   6.861   2.607
 3820TIP3    H211338   2.463   6.880   2.504
 3821TIP3   OH211339   0.977   0.280   2.375
 3821TIP3    H111340   0.926   0.215   2.327
 3821TIP3    H211341   0.939   0.364   2.348
 3822TIP3   OH211342   1.701   4.414   7.107
 3822TIP3    H111343   1.771   4.467   7.145
 3822TIP3    H211344   1.744   4.336   7.074
 3823TIP3   OH211345   4.793   2.269   3.345
 3823TIP3    H111346   4.708   2.272   3.301
 3823TIP3    H211347   4.773   2.249   3.436
 3824TIP3   OH211348   7.972   8.691   0.432
 3824TIP3    H111349   8.021   8.658   0.357
 3824TIP3    H211350   8.038   8.725   0.491
 3825TIP3   OH211351   6.792   4.607   5.958
 3825TIP3    H111352   6.835   4.665   6.022
 3825TIP3    H211353   6.705   4.645   5.947
 3826TIP3   OH211354   2.354   0.779   7.479
 3826TIP3    H111355   2.397   0.809   7.560
 3826TIP3    H211356   2.403   0.822   7.409
 3827TIP3   OH211357   6.764   4.616   5.636
 3827TIP3    H111358   6.770   4.604   5.731
 3827TIP3    H211359   6.724   4.535   5.604
 3828TIP3   OH211360   8.250   3.676   5.552
 3828TIP3    H111361   8.161   3.651   5.577
 3828TIP3    H211362   8.261   3.764   5.587
 3829TIP3   OH211363   3.946   4.941   2.816
 3829TIP3    H111364   4.029   4.908   2.850
 3829TIP3    H211365   3.969   5.025   2.776
 3830TIP3   OH211366   2.548   6.657   6.024
 3830TIP3    H111367   2.533   6.605   5.945
 3830TIP3    H211368   2.580   6.594   6.089
 3831TIP3   OH211369   6.002   4.122   1.460
 3831TIP3    H111370   6.016   4.147   1.552
 3831TIP3    H211371   6.075   4.164   1.413
 3832TIP3   OH211372   2.924   0.023   3.644
 3832TIP3    H111373   2.865   0.092   3.614
 3832TIP3    H211374   2.930   0.035   3.738
 3833TIP3   OH211375   7.482   7.845   3.718
 3833TIP3    H111376   7.480   7.756   3.683
 3833TIP3    H211377   7.534   7.838   3.798
 3834TIP3   OH211378   5.483   2.921   6.759
 3834TIP3    H111379   5.498   2.851   6.695
 3834TIP3    H211380   5.571   2.943   6.790
 3835TIP3   OH211381   4.198   3.715   1.020
 3835TIP3    H111382   4.238   3.768   1.089
 3835TIP3    H211383   4.239   3.747   0.939
 3836TIP3   OH211384   5.083   5.173   2.422
 3836TIP3    H111385   5.146   5.245   2.433
 3836TIP3    H211386   5.017   5.188   2.489
 3837TIP3   OH211387   5.960   8.442   2.983
 3837TIP3    H111388   5.971   8.402   2.897
 3837TIP3    H211389   5.988   8.533   2.970
 3838TIP3   OH211390   9.568   7.635   2.066
 3838TIP3    H111391   9.646   7.662   2.018
 3838TIP3    H211392   9.507   7.708   2.055
 3839TIP3   OH211393   1.498   2.785   2.736
 3839TIP3    H111394   1.484   2.824   2.822
 3839TIP3    H211395   1.487   2.691   2.751
 3840TIP3   OH211396   6.127   6.756   6.045
 3840TIP3    H111397   6.115   6.704   6.124
 3840TIP3    H211398   6.040   6.787   6.022
 3841TIP3   OH211399   5.707   1.794   1.989
 3841TIP3    H111400   5.795   1.826   2.010
 3841TIP3    H211401   5.662   1.794   2.073
 3842TIP3   OH211402   5.824   4.140   0.359
 3842TIP3    H111403   5.787   4.129   0.446
 3842TIP3    H211404   5.814   4.233   0.339
 3843TIP3   OH211405   3.192   8.585   6.207
 3843TIP3    H111406   3.130   8.608   6.276
 3843TIP3    H211407   3.152   8.618   6.126
 3844TIP3   OH211408   6.337   2.559   3.287
 3844TIP3    H111409   6.417   2.552   3.235
 3844TIP3    H211410   6.304   2.470   3.293
 3845TIP3   OH211411   4.462   8.961   7.442
 3845TIP3    H111412   4.464   9.049   7.478
 3845TIP3    H211413   4.393   8.916   7.492
 3846TIP3   OH211414   2.086   6.752   4.158
 3846TIP3    H111415   2.097   6.801   4.076
 3846TIP3    H211416   2.097   6.817   4.226
 3847TIP3   OH211417   3.802   0.165   0.383
 3847TIP3    H111418   3.741   0.239   0.382
 3847TIP3    H211419   3.874   0.193   0.325
 3848TIP3   OH211420   1.886   5.624   1.676
 3848TIP3    H111421   1.863   5.534   1.701
 3848TIP3    H211422   1.893   5.621   1.581
 3849TIP3   OH211423   6.493   1.734   6.854
 3849TIP3    H111424   6.540   1.742   6.771
 3849TIP3    H211425   6.549   1.679   6.909
 3850TIP3   OH211426   7.549   4.033   0.800
 3850TIP3    H111427   7.497   3.956   0.776
 3850TIP3    H211428   7.636   4.014   0.764
 3851TIP3   OH211429   1.314   3.464   6.374
 3851TIP3    H111430   1.240   3.413   6.342
 3851TIP3    H211431   1.280   3.554   6.380
 3852TIP3   OH211432   5.265   4.190   7.501
 3852TIP3    H111433   5.266   4.282   7.528
 3852TIP3    H211434   5.190   4.153   7.548
 3853TIP3   OH211435   6.957   4.173   6.596
 3853TIP3    H111436   6.982   4.234   6.666
 3853TIP3    H211437   6.873   4.136   6.626
 3854TIP3   OH211438   6.495   3.575   0.433
 3854TIP3    H111439   6.557   3.534   0.373
 3854TIP3    H211440   6.514   3.668   0.429
 3855TIP3   OH211441   9.396   8.658   7.385
 3855TIP3    H111442   9.466   8.639   7.448
 3855TIP3    H211443   9.428   8.620   7.303
 3856TIP3   OH211444   5.261   1.708   5.976
 3856TIP3    H111445   5.305   1.750   6.050
 3856TIP3    H211446   5.190   1.767   5.954
 3857TIP3   OH211447   3.007   5.882   5.556
 3857TIP3    H111448   3.085   5.880   5.611
 3857TIP3    H211449   2.975   5.972   5.563
 3858TIP3   OH211450   6.074   8.545   4.694
 3858TIP3    H111451   6.014   8.539   4.620
 3858TIP3    H211452   6.161   8.537   4.654
 3859TIP3   OH211453   4.659   3.898   3.369
 3859TIP3    H111454   4.748   3.925   3.390
 3859TIP3    H211455   4.669   3.832   3.300
 3860TIP3   OH211456   7.236   7.541   2.486
 3860TIP3    H111457   7.145   7.551   2.458
 3860TIP3    H211458   7.243   7.591   2.567
 3861TIP3   OH211459   7.046   5.441   2.777
 3861TIP3    H111460   7.133   5.477   2.759
 3861TIP3    H211461   7.059   5.346   2.776
 3862TIP3   OH211462   6.987   1.808   4.237
 3862TIP3    H111463   6.926   1.817   4.163
 3862TIP3    H211464   7.068   1.848   4.206
 3863TIP3   OH211465   0.400   8.899   1.328
 3863TIP3    H111466   0.455   8.924   1.402
 3863TIP3    H211467   0.444   8.936   1.252
 3864TIP3   OH211468   9.475   5.516   6.976
 3864TIP3    H111469   9.566   5.522   6.949
 3864TIP3    H211470   9.453   5.603   7.008
 3865TIP3   OH211471   9.254   4.725   0.942
 3865TIP3    H111472   9.335   4.775   0.954
 3865TIP3    H211473   9.191   4.768   0.999
 3866TIP3   OH211474   5.285   3.867   2.342
 3866TIP3    H111475   5.198   3.827   2.347
 3866TIP3    H211476   5.343   3.803   2.383
 3867TIP3   OH211477   4.788   8.952   3.237
 3867TIP3    H111478   4.732   9.030   3.241
 3867TIP3    H211479   4.730   8.879   3.256
 3868TIP3   OH211480   2.553   8.448   1.445
 3868TIP3    H111481   2.468   8.447   1.488
 3868TIP3    H211482   2.574   8.541   1.436
 3869TIP3   OH211483   8.403   8.930   4.455
 3869TIP3    H111484   8.318   8.922   4.499
 3869TIP3    H211485   8.416   8.845   4.412
 3870TIP3   OH211486   8.539   4.406   1.943
 3870TIP3    H111487   8.582   4.491   1.932
 3870TIP3    H211488   8.538   4.368   1.856
 3871TIP3   OH211489   3.580   7.232   5.929
 3871TIP3    H111490   3.583   7.317   5.885
 3871TIP3    H211491   3.667   7.223   5.969
 3872TIP3   OH211492   2.946   6.126   1.294
 3872TIP3    H111493   2.864   6.175   1.305
 3872TIP3    H211494   2.998   6.147   1.371
 3873TIP3   OH211495   6.274   2.808   4.746
 3873TIP3    H111496   6.347   2.746   4.757
 3873TIP3    H211497   6.289   2.873   4.814
 3874TIP3   OH211498   0.625   6.913   1.517
 3874TIP3    H111499   0.602   6.896   1.608
 3874TIP3    H211500   0.611   7.007   1.506
 3875TIP3   OH211501   0.565   7.619   0.097
 3875TIP3    H111502   0.659   7.610   0.110
 3875TIP3    H211503   0.552   7.711   0.075
 3876TIP3   OH211504   5.438   0.539   4.391
 3876TIP3    H111505   5.379   0.465   4.380
 3876TIP3    H211506   5.448   0.547   4.486
 3877TIP3   OH211507   8.424   5.153   0.961
 3877TIP3    H111508   8.450   5.072   0.916
 3877TIP3    H211509   8.357   5.192   0.905
 3878TIP3   OH211510   9.134   1.829   4.293
 3878TIP3    H111511   9.109   1.916   4.263
 3878TIP3    H211512   9.184   1.792   4.220
 3879TIP3   OH211513   6.470   5.496   4.579
 3879TIP3    H111514   6.430   5.580   4.601
 3879TIP3    H211515   6.526   5.474   4.653
 3880TIP3   OH211516   1.971   2.274   6.935
 3880TIP3    H111517   2.041   2.209   6.950
 3880TIP3    H211518   2.002   2.353   6.979
 3881TIP3   OH211519   4.507   7.418   1.878
 3881TIP3    H111520   4.579   7.374   1.922
 3881TIP3    H211521   4.497   7.500   1.925
 3882TIP3   OH211522   9.183   2.130   2.692
 3882TIP3    H111523   9.100   2.131   2.645
 3882TIP3    H211524   9.223   2.046   2.669
 3883TIP3   OH211525   2.592   0.162   1.584
 3883TIP3    H111526   2.559   0.072   1.575
 3883TIP3    H211527   2.546   0.211   1.515
 3884TIP3   OH211528   6.287   8.527   3.431
 3884TIP3    H111529   6.292   8.434   3.453
 3884TIP3    H211530   6.240   8.530   3.348
 3885TIP3   OH211531   8.300   1.059   7.456
 3885TIP3    H111532   8.283   1.103   7.540
 3885TIP3    H211533   8.286   1.128   7.390
 3886TIP3   OH211534   4.386   2.301   3.414
 3886TIP3    H111535   4.376   2.333   3.504
 3886TIP3    H211536   4.318   2.346   3.365
 3887TIP3   OH211537   3.304   8.294   6.643
 3887TIP3    H111538   3.304   8.381   6.683
 3887TIP3    H211539   3.274   8.308   6.554
 3888TIP3   OH211540   5.315   8.299   3.651
 3888TIP3    H111541   5.332   8.307   3.744
 3888TIP3    H211542   5.305   8.205   3.636
 3889TIP3   OH211543   7.685   6.681   3.136
 3889TIP3    H111544   7.756   6.686   3.199
 3889TIP3    H211545   7.646   6.595   3.149
 3890TIP3   OH211546   7.894   4.319   7.650
 3890TIP3    H111547   7.918   4.264   7.576
 3890TIP3    H211548   7.875   4.257   7.721
 3891TIP3   OH211549   1.287   2.470   1.765
 3891TIP3    H111550   1.318   2.379   1.763
 3891TIP3    H211551   1.225   2.476   1.693
 3892TIP3   OH211552   8.794   1.579   6.204
 3892TIP3    H111553   8.700   1.576   6.221
 3892TIP3    H211554   8.834   1.544   6.284
 3893TIP3   OH211555   6.389   2.131   4.865
 3893TIP3    H111556   6.418   2.051   4.821
 3893TIP3    H211557   6.324   2.101   4.929
 3894TIP3   OH211558   4.582   2.558   2.032
 3894TIP3    H111559   4.553   2.571   1.941
 3894TIP3    H211560   4.592   2.464   2.041
 3895TIP3   OH211561   6.393   2.181   4.566
 3895TIP3    H111562   6.339   2.105   4.544
 3895TIP3    H211563   6.332   2.255   4.564
 3896TIP3   OH211564   3.301   0.605   3.564
 3896TIP3    H111565   3.230   0.587   3.625
 3896TIP3    H211566   3.256   0.624   3.481
 3897TIP3   OH211567   6.907   2.222   3.937
 3897TIP3    H111568   6.831   2.235   3.880
 3897TIP3    H211569   6.871   2.184   4.017
 3898TIP3   OH211570   5.880   2.766   7.472
 3898TIP3    H111571   5.956   2.785   7.418
 3898TIP3    H211572   5.814   2.732   7.411
 3899TIP3   OH211573   4.279   4.448   1.560
 3899TIP3    H111574   4.227   4.528   1.558
 3899TIP3    H211575   4.346   4.462   1.492
 3900TIP3   OH211576   1.408   2.975   6.585
 3900TIP3    H111577   1.423   3.021   6.668
 3900TIP3    H211578   1.353   3.035   6.535
 3901TIP3   OH211579   9.096   6.938   2.256
 3901TIP3    H111580   9.027   6.906   2.199
 3901TIP3    H211581   9.095   6.879   2.331
 3902TIP3   OH211582   6.651   8.428   0.569
 3902TIP3    H111583   6.611   8.407   0.653
 3902TIP3    H211584   6.639   8.523   0.559
 3903TIP3   OH211585   7.639   6.406   3.232
 3903TIP3    H111586   7.564   6.359   3.268
 3903TIP3    H211587   7.688   6.340   3.183
 3904TIP3   OH211588   5.398   2.504   6.655
 3904TIP3    H111589   5.339   2.429   6.650
 3904TIP3    H211590   5.353   2.566   6.712
 3905TIP3   OH211591   3.297   2.824   0.527
 3905TIP3    H111592   3.250   2.741   0.524
 3905TIP3    H211593   3.303   2.844   0.621
 3906TIP3   OH211594   5.916   4.522   3.336
 3906TIP3    H111595   5.945   4.608   3.305
 3906TIP3    H211596   5.823   4.533   3.355
 3907TIP3   OH211597   2.229   4.535   6.388
 3907TIP3    H111598   2.170   4.481   6.335
 3907TIP3    H211599   2.306   4.481   6.400
 3908TIP3   OH211600   6.589   3.967   5.428
 3908TIP3    H111601   6.576   3.952   5.334
 3908TIP3    H211602   6.595   3.879   5.465
 3909TIP3   OH211603   0.678   3.811   1.773
 3909TIP3    H111604   0.726   3.843   1.696
 3909TIP3    H211605   0.602   3.868   1.780
 3910TIP3   OH211606   7.924   2.680   7.652
 3910TIP3    H111607   7.840   2.635   7.653
 3910TIP3    H211608   7.978   2.629   7.593
 3911TIP3   OH211609   4.154   4.612   1.887
 3911TIP3    H111610   4.224   4.587   1.948
 3911TIP3    H211611   4.199   4.649   1.812
 3912TIP3   OH211612   2.620   7.536   1.675
 3912TIP3    H111613   2.585   7.525   1.587
 3912TIP3    H211614   2.703   7.583   1.663
 3913TIP3   OH211615   5.112   2.232   1.661
 3913TIP3    H111616   5.121   2.145   1.701
 3913TIP3    H211617   5.102   2.214   1.568
 3914TIP3   OH211618   4.973   4.667   1.625
 3914TIP3    H111619   5.009   4.716   1.552
 3914TIP3    H211620   5.041   4.604   1.649
 3915TIP3   OH211621   1.505   5.290   0.615
 3915TIP3    H111622   1.527   5.199   0.593
 3915TIP3    H211623   1.548   5.342   0.546
 3916TIP3   OH211624   7.555   6.522   6.740
 3916TIP3    H111625   7.566   6.594   6.678
 3916TIP3    H211626   7.500   6.559   6.810
 3917TIP3   OH211627   0.049   2.172   1.914
 3917TIP3    H111628   0.044   2.239   1.981
 3917TIP3    H211629   0.136   2.182   1.875
 3918TIP3   OH211630   8.459   2.750   3.728
 3918TIP3    H111631   8.418   2.668   3.757
 3918TIP3    H211632   8.462   2.742   3.632
 3919TIP3   OH211633   5.717   5.982   7.807
 3919TIP3    H111634   5.626   6.004   7.787
 3919TIP3    H211635   5.710   5.908   7.868
 3920TIP3   OH211636   5.970   8.395   0.234
 3920TIP3    H111637   6.032   8.418   0.304
 3920TIP3    H211638   5.884   8.408   0.274
 3921TIP3   OH211639   0.542   5.821   6.490
 3921TIP3    H111640   0.557   5.732   6.457
 3921TIP3    H211641   0.619   5.840   6.543
 3922TIP3   OH211642   6.241   0.549   6.194
 3922TIP3    H111643   6.288   0.620   6.239
 3922TIP3    H211644   6.221   0.585   6.108
 3923TIP3   OH211645   3.329   0.956   1.321
 3923TIP3    H111646   3.414   0.926   1.353
 3923TIP3    H211647   3.347   0.993   1.235
 3924TIP3   OH211648   2.445   8.395   6.766
 3924TIP3    H111649   2.540   8.407   6.767
 3924TIP3    H211650   2.423   8.372   6.856
 3925TIP3   OH211651   8.550   1.031   5.814
 3925TIP3    H111652   8.596   0.996   5.890
 3925TIP3    H211653   8.594   1.114   5.795
 3926TIP3   OH211654   3.736   7.326   1.422
 3926TIP3    H111655   3.697   7.239   1.435
 3926TIP3    H211656   3.825   7.308   1.393
 3927TIP3   OH211657   6.239   8.349   1.248
 3927TIP3    H111658   6.259   8.278   1.187
 3927TIP3    H211659   6.158   8.322   1.292
 3928TIP3   OH211660   5.608   6.253   0.720
 3928TIP3    H111661   5.633   6.333   0.767
 3928TIP3    H211662   5.651   6.260   0.635
 3929TIP3   OH211663   1.776   8.207   6.133
 3929TIP3    H111664   1.853   8.192   6.077
 3929TIP3    H211665   1.728   8.125   6.129
 3930TIP3   OH211666   5.836   6.268   3.908
 3930TIP3    H111667   5.829   6.264   3.813
 3930TIP3    H211668   5.746   6.286   3.938
 3931TIP3   OH211669   8.734   2.912   6.951
 3931TIP3    H111670   8.695   2.988   6.909
 3931TIP3    H211671   8.687   2.903   7.034
 3932TIP3   OH211672   8.292   4.075   5.861
 3932TIP3    H111673   8.246   4.158   5.847
 3932TIP3    H211674   8.255   4.016   5.795
 3933TIP3   OH211675   8.266   8.602   4.393
 3933TIP3    H111676   8.194   8.632   4.338
 3933TIP3    H211677   8.225   8.583   4.478
 3934TIP3   OH211678   7.855   1.010   3.131
 3934TIP3    H111679   7.821   1.098   3.148
 3934TIP3    H211680   7.840   0.963   3.212
 3935TIP3   OH211681   0.217   1.154   5.437
 3935TIP3    H111682   0.258   1.123   5.518
 3935TIP3    H211683   0.256   1.099   5.369
 3936TIP3   OH211684   8.392   6.800   3.720
 3936TIP3    H111685   8.415   6.857   3.794
 3936TIP3    H211686   8.371   6.860   3.649
 3937TIP3   OH211687   2.378   6.297   6.139
 3937TIP3    H111688   2.326   6.338   6.208
 3937TIP3    H211689   2.466   6.333   6.151
 3938TIP3   OH211690   0.797   2.654   4.224
 3938TIP3    H111691   0.834   2.570   4.254
 3938TIP3    H211692   0.736   2.629   4.154
 3939TIP3   OH211693   9.204   1.073   3.892
 3939TIP3    H111694   9.229   1.013   3.821
 3939TIP3    H211695   9.287   1.103   3.928
 3940TIP3   OH211696   6.408   1.158   1.527
 3940TIP3    H111697   6.417   1.242   1.571
 3940TIP3    H211698   6.416   1.093   1.597
 3941TIP3   OH211699   1.968   2.470   1.984
 3941TIP3    H111700   1.994   2.439   2.070
 3941TIP3    H211701   2.049   2.471   1.933
 3942TIP3   OH211702   4.870   2.465   3.650
 3942TIP3    H111703   4.840   2.379   3.678
 3942TIP3    H211704   4.957   2.474   3.689
 3943TIP3   OH211705   0.892   3.463   3.090
 3943TIP3    H111706   0.910   3.444   2.998
 3943TIP3    H211707   0.849   3.384   3.123
 3944TIP3   OH211708   6.317   7.501   1.449
 3944TIP3    H111709   6.252   7.548   1.398
 3944TIP3    H211710   6.269   7.468   1.525
 3945TIP3   OH211711   0.469   7.905   7.739
 3945TIP3    H111712   0.429   7.918   7.652
 3945TIP3    H211713   0.431   7.824   7.771
 3946TIP3   OH211714   3.926   2.751   3.910
 3946TIP3    H111715   3.998   2.755   3.973
 3946TIP3    H211716   3.945   2.822   3.848
 3947TIP3   OH211717   7.598   6.865   2.964
 3947TIP3    H111718   7.611   6.800   3.033
 3947TIP3    H211719   7.636   6.946   2.999
 3948TIP3   OH211720   3.341   6.545   7.047
 3948TIP3    H111721   3.253   6.565   7.017
 3948TIP3    H211722   3.398   6.572   6.975
 3949TIP3   OH211723   5.437   4.039   1.029
 3949TIP3    H111724   5.360   4.095   1.039
 3949TIP3    H211725   5.512   4.099   1.034
 3950TIP3   OH211726   7.694   8.964   1.762
 3950TIP3    H111727   7.757   9.026   1.799
 3950TIP3    H211728   7.706   8.970   1.667
 3951TIP3   OH211729   4.542   0.310   2.937
 3951TIP3    H111730   4.485   0.334   3.010
 3951TIP3    H211731   4.488   0.253   2.881
 3952TIP3   OH211732   1.607   3.436   0.219
 3952TIP3    H111733   1.664   3.461   0.292
 3952TIP3    H211734   1.663   3.381   0.164
 3953TIP3   OH211735   0.909   0.581   5.725
 3953TIP3    H111736   0.941   0.575   5.814
 3953TIP3    H211737   0.909   0.675   5.705
 3954TIP3   OH211738   2.347   0.913   6.573
 3954TIP3    H111739   2.320   0.852   6.505
 3954TIP3    H211740   2.305   0.881   6.652
 3955TIP3   OH211741   3.247   6.234   6.490
 3955TIP3    H111742   3.339   6.239   6.516
 3955TIP3    H211743   3.238   6.299   6.420
 3956TIP3   OH211744   1.880   6.097   3.034
 3956TIP3    H111745   1.834   6.054   2.962
 3956TIP3    H211746   1.825   6.172   3.056
 3957TIP3   OH211747   7.194   2.481   2.743
 3957TIP3    H111748   7.101   2.495   2.763
 3957TIP3    H211749   7.231   2.569   2.737
 3958TIP3   OH211750   0.248   4.333   4.087
 3958TIP3    H111751   0.165   4.362   4.123
 3958TIP3    H211752   0.227   4.304   3.998
 3959TIP3   OH211753   7.740   2.692   7.174
 3959TIP3    H111754   7.769   2.760   7.236
 3959TIP3    H211755   7.678   2.737   7.117
 3960TIP3   OH211756   8.351   8.131   4.275
 3960TIP3    H111757   8.297   8.156   4.350
 3960TIP3    H211758   8.342   8.204   4.214
 3961TIP3   OH211759   6.218   6.653   4.117
 3961TIP3    H111760   6.266   6.587   4.069
 3961TIP3    H211761   6.149   6.681   4.057
 3962TIP3   OH211762   5.141   4.589   5.739
 3962TIP3    H111763   5.080   4.551   5.676
 3962TIP3    H211764   5.088   4.648   5.792
 3963TIP3   OH211765   4.734   0.872   0.632
 3963TIP3    H111766   4.665   0.903   0.689
 3963TIP3    H211767   4.791   0.948   0.620
 3964TIP3   OH211768   5.238   1.383   4.051
 3964TIP3    H111769   5.309   1.321   4.039
 3964TIP3    H211770   5.218   1.379   4.145
 3965TIP3   OH211771   5.848   0.589   3.065
 3965TIP3    H111772   5.896   0.513   3.032
 3965TIP3    H211773   5.915   0.655   3.082
 3966TIP3   OH211774   0.466   4.968   5.321
 3966TIP3    H111775   0.465   5.061   5.346
 3966TIP3    H211776   0.546   4.957   5.271
 3967TIP3   OH211777   1.895   0.774   2.765
 3967TIP3    H111778   1.874   0.750   2.855
 3967TIP3    H211779   1.869   0.698   2.713
 3968TIP3   OH211780   2.278   5.934   7.043
 3968TIP3    H111781   2.326   6.006   7.083
 3968TIP3    H211782   2.303   5.937   6.951
 3969TIP3   OH211783   6.409   1.219   2.672
 3969TIP3    H111784   6.404   1.191   2.763
 3969TIP3    H211785   6.418   1.314   2.677
 3970TIP3   OH211786   2.651   6.459   4.514
 3970TIP3    H111787   2.598   6.455   4.435
 3970TIP3    H211788   2.588   6.449   4.586
 3971TIP3   OH211789   8.475   7.248   0.639
 3971TIP3    H111790   8.504   7.336   0.665
 3971TIP3    H211791   8.423   7.218   0.713
 3972TIP3   OH211792   6.381   7.057   6.916
 3972TIP3    H111793   6.333   6.976   6.897
 3972TIP3    H211794   6.344   7.122   6.856
 3973TIP3   OH211795   1.615   5.703   4.405
 3973TIP3    H111796   1.665   5.758   4.464
 3973TIP3    H211797   1.662   5.619   4.403
 3974TIP3   OH211798   7.861   3.897   3.555
 3974TIP3    H111799   7.952   3.925   3.551
 3974TIP3    H211800   7.820   3.936   3.478
 3975TIP3   OH211801   5.836   6.868   4.360
 3975TIP3    H111802   5.804   6.896   4.446
 3975TIP3    H211803   5.858   6.776   4.372
 3976TIP3   OH211804   0.094   6.451   4.251
 3976TIP3    H111805   0.096   6.510   4.176
 3976TIP3    H211806   0.090   6.363   4.212
 3977TIP3   OH211807   3.298   5.289   3.999
 3977TIP3    H111808   3.348   5.216   3.962
 3977TIP3    H211809   3.257   5.331   3.923
 3978TIP3   OH211810   0.977   6.587   3.585
 3978TIP3    H111811   0.897   6.633   3.558
 3978TIP3    H211812   0.973   6.504   3.539
 3979TIP3   OH211813   2.653   3.234   3.217
 3979TIP3    H111814   2.738   3.250   3.178
 3979TIP3    H211815   2.669   3.167   3.284
 3980TIP3   OH211816   4.622   5.864   3.191
 3980TIP3    H111817   4.559   5.793   3.199
 3980TIP3    H211818   4.676   5.856   3.269
 3981TIP3   OH211819   5.189   6.964   2.909
 3981TIP3    H111820   5.284   6.952   2.902
 3981TIP3    H211821   5.176   7.009   2.993
 3982TIP3   OH211822   8.710   1.633   6.844
 3982TIP3    H111823   8.730   1.677   6.926
 3982TIP3    H211824   8.680   1.702   6.786
 3983TIP3   OH211825   5.644   5.689   7.800
 3983TIP3    H111826   5.571   5.751   7.809
 3983TIP3    H211827   5.634   5.629   7.874
 3984TIP3   OH211828   4.624   1.675   5.358
 3984TIP3    H111829   4.689   1.634   5.302
 3984TIP3    H211830   4.656   1.659   5.447
 3985TIP3   OH211831   5.115   5.538   2.287
 3985TIP3    H111832   5.158   5.461   2.324
 3985TIP3    H211833   5.027   5.507   2.264
 3986TIP3   OH211834   5.276   5.144   6.025
 3986TIP3    H111835   5.195   5.094   6.016
 3986TIP3    H211836   5.335   5.105   5.960
 3987TIP3   OH211837   0.009   4.167   5.218
 3987TIP3    H111838  -0.005   4.121   5.301
 3987TIP3    H211839  -0.027   4.254   5.232
 3988TIP3   OH211840   2.356   7.279   5.199
 3988TIP3    H111841   2.289   7.319   5.144
 3988TIP3    H211842   2.358   7.332   5.278
 3989TIP3   OH211843   3.394   8.783   2.002
 3989TIP3    H111844   3.355   8.743   1.924
 3989TIP3    H211845   3.378   8.720   2.072
 3990TIP3   OH211846   6.927   8.101   5.380
 3990TIP3    H111847   6.870   8.049   5.323
 3990TIP3    H211848   6.866   8.154   5.431
 3991TIP3   OH211849   7.214   6.542   2.006
 3991TIP3    H111850   7.185   6.581   1.923
 3991TIP3    H211851   7.309   6.547   2.003
 3992TIP3   OH211852   3.112   7.285   6.656
 3992TIP3    H111853   3.038   7.256   6.709
 3992TIP3    H211854   3.153   7.353   6.709
 3993TIP3   OH211855   0.744   8.834   1.444
 3993TIP3    H111856   0.789   8.914   1.419
 3993TIP3    H211857   0.680   8.862   1.510
 3994TIP3   OH211858   1.937   1.775   2.904
 3994TIP3    H111859   1.974   1.786   2.816
 3994TIP3    H211860   1.911   1.684   2.908
 3995TIP3   OH211861   8.064   1.317   6.149
 3995TIP3    H111862   8.102   1.236   6.183
 3995TIP3    H211863   8.112   1.386   6.195
 3996TIP3   OH211864   6.305   4.849   1.320
 3996TIP3    H111865   6.227   4.833   1.269
 3996TIP3    H211866   6.309   4.944   1.329
 3997TIP3   OH211867   0.638   1.515   4.438
 3997TIP3    H111868   0.544   1.520   4.455
 3997TIP3    H211869   0.673   1.598   4.471
 3998TIP3   OH211870   5.076   0.370   0.939
 3998TIP3    H111871   5.006   0.312   0.910
 3998TIP3    H211872   5.031   0.447   0.973
 3999TIP3   OH211873   2.365   8.386   3.108
 3999TIP3    H111874   2.298   8.371   3.041
 3999TIP3    H211875   2.323   8.442   3.172
 4000TIP3   OH211876   9.289   8.173   3.553
 4000TIP3    H111877   9.204   8.130   3.544
 4000TIP3    H211878   9.316   8.192   3.463
 4001TIP3   OH211879   3.811   3.527   1.033
 4001TIP3    H111880   3.749   3.506   1.103
 4001TIP3    H211881   3.890   3.477   1.055
 4002TIP3   OH211882   2.784   1.874   4.693
 4002TIP3    H111883   2.806   1.787   4.658
 4002TIP3    H211884   2.844   1.886   4.767
 4003TIP3   OH211885   2.122   3.865   4.127
 4003TIP3    H111886   2.060   3.915   4.074
 4003TIP3    H211887   2.077   3.783   4.145
 4004TIP3   OH211888   0.044   4.904   0.894
 4004TIP3    H111889   0.049   4.999   0.907
 4004TIP3    H211890  -0.007   4.872   0.968
 4005TIP3   OH211891   4.243   6.529   7.643
 4005TIP3    H111892   4.261   6.536   7.737
 4005TIP3    H211893   4.166   6.473   7.638
 4006TIP3   OH211894   6.900   0.722   6.645
 4006TIP3    H111895   6.979   0.723   6.591
 4006TIP3    H211896   6.886   0.813   6.669
 4007TIP3   OH211897   9.340   1.776   3.662
 4007TIP3    H111898   9.434   1.760   3.663
 4007TIP3    H211899   9.329   1.862   3.703
 4008TIP3   OH211900   3.277   6.126   7.612
 4008TIP3    H111901   3.327   6.069   7.554
 4008TIP3    H211902   3.248   6.069   7.683
 4009TIP3   OH211903   7.945   5.018   2.525
 4009TIP3    H111904   7.951   4.978   2.439
 4009TIP3    H211905   7.975   5.108   2.512
 4010TIP3   OH211906   0.060   1.877   6.035
 4010TIP3    H111907   0.059   1.795   6.084
 4010TIP3    H211908   0.152   1.904   6.035
 4011TIP3   OH211909   3.894   8.161   3.416
 4011TIP3    H111910   3.955   8.089   3.398
 4011TIP3    H211911   3.818   8.143   3.361
 4012TIP3   OH211912   6.755   4.235   5.117
 4012TIP3    H111913   6.830   4.292   5.131
 4012TIP3    H211914   6.715   4.267   5.036
 4013TIP3   OH211915   9.333   4.409   6.835
 4013TIP3    H111916   9.306   4.334   6.782
 4013TIP3    H211917   9.375   4.371   6.912
 4014TIP3   OH211918   2.843   8.937   4.435
 4014TIP3    H111919   2.887   9.021   4.451
 4014TIP3    H211920   2.898   8.894   4.369
 4015TIP3   OH211921   1.091   4.021   1.367
 4015TIP3    H111922   1.015   3.980   1.325
 4015TIP3    H211923   1.059   4.045   1.454
 4016TIP3   OH211924   4.529   3.654   2.065
 4016TIP3    H111925   4.573   3.596   2.127
 4016TIP3    H211926   4.503   3.597   1.993
 4017TIP3   OH211927   8.984   6.086   2.404
 4017TIP3    H111928   8.968   6.130   2.321
 4017TIP3    H211929   9.068   6.041   2.391
 4018TIP3   OH211930   5.185   2.396   4.455
 4018TIP3    H111931   5.242   2.472   4.459
 4018TIP3    H211932   5.134   2.409   4.374
 4019TIP3   OH211933   7.737   3.758   1.903
 4019TIP3    H111934   7.696   3.844   1.895
 4019TIP3    H211935   7.687   3.714   1.971
 4020TIP3   OH211936   0.895   8.628   3.198
 4020TIP3    H111937   0.831   8.698   3.207
 4020TIP3    H211938   0.852   8.552   3.237
 4021TIP3   OH211939   5.634   4.308   2.665
 4021TIP3    H111940   5.640   4.377   2.600
 4021TIP3    H211941   5.605   4.351   2.745
 4022TIP3   OH211942   3.251   4.384   7.219
 4022TIP3    H111943   3.321   4.407   7.281
 4022TIP3    H211944   3.296   4.338   7.148
 4023TIP3   OH211945   3.765   6.998   3.419
 4023TIP3    H111946   3.716   6.976   3.498
 4023TIP3    H211947   3.708   7.059   3.372
 4024TIP3   OH211948   6.800   8.739   3.144
 4024TIP3    H111949   6.783   8.646   3.132
 4024TIP3    H211950   6.715   8.781   3.129
 4025TIP3   OH211951   8.579   7.999   4.456
 4025TIP3    H111952   8.594   8.012   4.362
 4025TIP3    H211953   8.525   8.073   4.482
 4026TIP3   OH211954   4.309   1.694   5.961
 4026TIP3    H111955   4.375   1.729   6.021
 4026TIP3    H211956   4.293   1.605   5.993
 4027TIP3   OH211957   5.057   0.402   1.692
 4027TIP3    H111958   5.094   0.453   1.620
 4027TIP3    H211959   5.009   0.331   1.649
 4028TIP3   OH211960   8.664   6.071   2.822
 4028TIP3    H111961   8.707   6.074   2.736
 4028TIP3    H211962   8.707   6.141   2.872
 4029TIP3   OH211963   0.487   4.730   3.006
 4029TIP3    H111964   0.580   4.707   3.003
 4029TIP3    H211965   0.479   4.785   3.084
 4030TIP3   OH211966   7.079   3.759   2.634
 4030TIP3    H111967   7.089   3.765   2.729
 4030TIP3    H211968   7.005   3.700   2.622
 4031TIP3   OH211969   4.337   1.537   3.393
 4031TIP3    H111970   4.429   1.545   3.419
 4031TIP3    H211971   4.289   1.538   3.476
 4032TIP3   OH211972   1.455   8.228   1.208
 4032TIP3    H111973   1.472   8.212   1.301
 4032TIP3    H211974   1.360   8.232   1.201
 4033TIP3   OH211975   5.830   5.110   7.548
 4033TIP3    H111976   5.844   5.024   7.588
 4033TIP3    H211977   5.774   5.156   7.611
 4034TIP3   OH211978   0.998   4.996   4.098
 4034TIP3    H111979   0.970   5.075   4.052
 4034TIP3    H211980   0.959   5.003   4.185
 4035TIP3   OH211981   0.216   1.739   1.843
 4035TIP3    H111982   0.296   1.726   1.894
 4035TIP3    H211983   0.246   1.766   1.757
 4036TIP3   OH211984   2.693   7.261   2.453
 4036TIP3    H111985   2.669   7.170   2.435
 4036TIP3    H211986   2.636   7.286   2.526
 4037TIP3   OH211987   1.168   4.956   2.714
 4037TIP3    H111988   1.098   4.962   2.649
 4037TIP3    H211989   1.218   4.879   2.688
 4038TIP3   OH211990   2.755   5.845   3.667
 4038TIP3    H111991   2.753   5.841   3.571
 4038TIP3    H211992   2.848   5.859   3.688
 4039TIP3   OH211993   7.550   2.818   7.026
 4039TIP3    H111994   7.493   2.741   7.025
 4039TIP3    H211995   7.547   2.852   6.937
 4040TIP3   OH211996   8.036   3.220   3.507
 4040TIP3    H111997   8.120   3.247   3.470
 4040TIP3    H211998   8.055   3.136   3.550
 4041TIP3   OH211999   7.451   8.393   1.353
 4041TIP3    H112000   7.369   8.416   1.310
 4041TIP3    H212001   7.475   8.472   1.402
 4042TIP3   OH212002   7.973   2.871   1.078
 4042TIP3    H112003   7.963   2.907   1.166
 4042TIP3    H212004   8.047   2.920   1.041
 4043TIP3   OH212005   0.746   5.833   6.256
 4043TIP3    H112006   0.815   5.895   6.280
 4043TIP3    H212007   0.794   5.756   6.224
 4044TIP3   OH212008   7.524   7.330   1.166
 4044TIP3    H112009   7.598   7.309   1.223
 4044TIP3    H212010   7.496   7.417   1.195
 4045TIP3   OH212011   3.260   1.064   2.135
 4045TIP3    H112012   3.325   1.102   2.195
 4045TIP3    H212013   3.282   0.971   2.132
 4046TIP3   OH212014   4.555   1.429   7.133
 4046TIP3    H112015   4.473   1.392   7.165
 4046TIP3    H212016   4.614   1.427   7.208
 4047TIP3   OH212017   3.168   6.742   4.607
 4047TIP3    H112018   3.160   6.755   4.512
 4047TIP3    H212019   3.177   6.647   4.618
 4048TIP3   OH212020   7.816   2.500   4.655
 4048TIP3    H112021   7.884   2.558   4.690
 4048TIP3    H212022   7.758   2.484   4.730
 4049TIP3   OH212023   2.538   2.081   3.391
 4049TIP3    H112024   2.541   2.099   3.297
 4049TIP3    H212025   2.445   2.078   3.413
 4050TIP3   OH212026   1.011   4.286   7.665
 4050TIP3    H112027   1.070   4.234   7.719
 4050TIP3    H212028   1.056   4.295   7.581
 4051TIP3   OH212029   0.306   5.650   3.477
 4051TIP3    H112030   0.225   5.640   3.426
 4051TIP3    H212031   0.373   5.608   3.423
 4052TIP3   OH212032   4.478   1.371   5.347
 4052TIP3    H112033   4.531   1.435   5.300
 4052TIP3    H212034   4.541   1.307   5.380
 4053TIP3   OH212035   9.232   9.016   6.068
 4053TIP3    H112036   9.143   9.051   6.062
 4053TIP3    H212037   9.246   8.999   6.161
 4054TIP3   OH212038   2.745   4.666   5.650
 4054TIP3    H112039   2.684   4.640   5.581
 4054TIP3    H212040   2.699   4.736   5.698
 4055TIP3   OH212041   1.483   5.646   3.217
 4055TIP3    H112042   1.465   5.555   3.191
 4055TIP3    H212043   1.497   5.692   3.135
 4056TIP3   OH212044   1.516   5.915   7.320
 4056TIP3    H112045   1.562   5.896   7.238
 4056TIP3    H212046   1.455   5.842   7.331
 4057TIP3   OH212047   5.641   0.706   1.675
 4057TIP3    H112048   5.620   0.725   1.766
 4057TIP3    H212049   5.634   0.611   1.668
 4058TIP3   OH212050   2.928   0.033   2.520
 4058TIP3    H112051   2.894   0.064   2.436
 4058TIP3    H212052   2.893   0.095   2.584
 4059TIP3   OH212053   6.965   4.247   5.407
 4059TIP3    H112054   6.930   4.313   5.347
 4059TIP3    H212055   7.058   4.244   5.387
 4060TIP3   OH212056   6.030   1.156   2.451
 4060TIP3    H112057   6.016   1.068   2.416
 4060TIP3    H212058   6.091   1.197   2.390
 4061TIP3   OH212059   3.446   8.596   6.306
 4061TIP3    H112060   3.359   8.581   6.269
 4061TIP3    H212061   3.434   8.587   6.401
 4062TIP3   OH212062   4.122   3.855   6.106
 4062TIP3    H112063   4.098   3.825   6.193
 4062TIP3    H212064   4.212   3.824   6.094
 4063TIP3   OH212065   0.441   3.581   3.954
 4063TIP3    H112066   0.502   3.575   3.880
 4063TIP3    H212067   0.483   3.529   4.023
 4064TIP3   OH212068   4.912   6.834   6.297
 4064TIP3    H112069   4.902   6.758   6.239
 4064TIP3    H212070   5.002   6.864   6.283
 4065TIP3   OH212071   5.913   1.965   2.070
 4065TIP3    H112072   5.922   2.060   2.074
 4065TIP3    H212073   5.995   1.931   2.104
 4066TIP3   OH212074   9.454   5.839   1.323
 4066TIP3    H112075   9.478   5.797   1.405
 4066TIP3    H212076   9.502   5.922   1.323
 4067TIP3   OH212077   5.870   1.742   2.350
 4067TIP3    H112078   5.910   1.725   2.436
 4067TIP3    H212079   5.876   1.658   2.304
 4068TIP3   OH212080   9.158   2.375   6.220
 4068TIP3    H112081   9.248   2.346   6.207
 4068TIP3    H212082   9.159   2.421   6.304
 4069TIP3   OH212083   4.298   0.395   6.534
 4069TIP3    H112084   4.247   0.355   6.463
 4069TIP3    H212085   4.283   0.337   6.609
 4070TIP3   OH212086   8.741   3.034   6.500
 4070TIP3    H112087   8.799   3.109   6.511
 4070TIP3    H212088   8.800   2.959   6.493
 4071TIP3   OH212089   8.133   2.905   5.578
 4071TIP3    H112090   8.205   2.919   5.517
 4071TIP3    H212091   8.162   2.831   5.632
 4072TIP3   OH212092   6.200   8.207   4.400
 4072TIP3    H112093   6.191   8.184   4.308
 4072TIP3    H212094   6.223   8.300   4.400
 4073TIP3   OH212095   7.384   0.163   1.462
 4073TIP3    H112096   7.459   0.196   1.512
 4073TIP3    H212097   7.404   0.186   1.372
 4074TIP3   OH212098   6.813   8.421   3.219
 4074TIP3    H112099   6.863   8.492   3.259
 4074TIP3    H212100   6.722   8.441   3.241
 4075TIP3   OH212101   6.956   1.758   5.395
 4075TIP3    H112102   6.908   1.835   5.426
 4075TIP3    H212103   6.923   1.743   5.307
 4076TIP3   OH212104   2.068   3.453   3.922
 4076TIP3    H112105   2.088   3.453   3.829
 4076TIP3    H212106   2.108   3.373   3.956
 4077TIP3   OH212107   8.390   1.631   2.683
 4077TIP3    H112108   8.478   1.656   2.710
 4077TIP3    H212109   8.401   1.546   2.640
 4078TIP3   OH212110   8.571   2.441   3.615
 4078TIP3    H112111   8.531   2.407   3.534
 4078TIP3    H212112   8.497   2.471   3.667
 4079TIP3   OH212113   8.250   7.533   0.521
 4079TIP3    H112114   8.202   7.610   0.551
 4079TIP3    H212115   8.324   7.526   0.582
 4080TIP3   OH212116   0.841   8.895   2.850
 4080TIP3    H112117   0.929   8.893   2.886
 4080TIP3    H212118   0.798   8.817   2.887
 4081TIP3   OH212119   1.296   5.996   6.598
 4081TIP3    H112120   1.214   6.046   6.591
 4081TIP3    H212121   1.305   5.979   6.692
 4082TIP3   OH212122   7.667   0.345   0.299
 4082TIP3    H112123   7.750   0.303   0.273
 4082TIP3    H212124   7.607   0.272   0.313
 4083TIP3   OH212125   6.376   3.473   5.340
 4083TIP3    H112126   6.383   3.563   5.310
 4083TIP3    H212127   6.358   3.422   5.261
 4084TIP3   OH212128   1.975   7.206   1.980
 4084TIP3    H112129   1.965   7.237   2.070
 4084TIP3    H212130   1.925   7.124   1.977
 4085TIP3   OH212131   6.003   1.933   0.264
 4085TIP3    H112132   6.032   1.842   0.276
 4085TIP3    H212133   6.032   1.978   0.343
 4086TIP3   OH212134   5.613   7.332   2.086
 4086TIP3    H112135   5.563   7.309   2.164
 4086TIP3    H212136   5.697   7.362   2.119
 4087TIP3   OH212137   5.749   0.330   5.201
 4087TIP3    H112138   5.773   0.421   5.184
 4087TIP3    H212139   5.665   0.336   5.248
 4088TIP3   OH212140   6.793   5.566   0.530
 4088TIP3    H112141   6.809   5.503   0.460
 4088TIP3    H212142   6.815   5.651   0.492
 4089TIP3   OH212143   4.228   5.788   5.114
 4089TIP3    H112144   4.256   5.733   5.188
 4089TIP3    H212145   4.250   5.738   5.036
 4090TIP3   OH212146   4.079   0.679   4.093
 4090TIP3    H112147   4.062   0.616   4.162
 4090TIP3    H212148   4.104   0.759   4.139
 4091TIP3   OH212149   9.299   7.208   2.712
 4091TIP3    H112150   9.213   7.232   2.745
 4091TIP3    H212151   9.356   7.207   2.789
 4092TIP3   OH212152   2.255   4.088   7.715
 4092TIP3    H112153   2.293   4.051   7.635
 4092TIP3    H212154   2.296   4.175   7.722
 4093TIP3   OH212155   1.379   2.332   2.420
 4093TIP3    H112156   1.395   2.403   2.483
 4093TIP3    H212157   1.459   2.329   2.367
 4094TIP3   OH212158   8.023   7.426   4.212
 4094TIP3    H112159   8.033   7.332   4.224
 4094TIP3    H212160   7.928   7.439   4.208
 4095TIP3   OH212161   1.577   8.545   5.101
 4095TIP3    H112162   1.649   8.508   5.051
 4095TIP3    H212163   1.499   8.502   5.066
 4096TIP3   OH212164   0.372   7.678   4.886
 4096TIP3    H112165   0.290   7.631   4.905
 4096TIP3    H212166   0.439   7.610   4.883
 4097TIP3   OH212167   0.557   0.114   2.127
 4097TIP3    H112168   0.481   0.171   2.109
 4097TIP3    H212169   0.624   0.143   2.065
 4098TIP3   OH212170   7.467   7.609   6.840
 4098TIP3    H112171   7.411   7.599   6.763
 4098TIP3    H212172   7.505   7.522   6.853
 4099TIP3   OH212173   4.199   3.414   7.618
 4099TIP3    H112174   4.136   3.383   7.553
 4099TIP3    H212175   4.274   3.356   7.609
 4100TIP3   OH212176   3.278   8.184   4.742
 4100TIP3    H112177   3.184   8.199   4.728
 4100TIP3    H212178   3.285   8.162   4.835
 4101TIP3   OH212179   3.735   7.325   1.102
 4101TIP3    H112180   3.759   7.399   1.158
 4101TIP3    H212181   3.818   7.293   1.068
 4102TIP3   OH212182   1.180   2.523   3.796
 4102TIP3    H112183   1.099   2.555   3.835
 4102TIP3    H212184   1.175   2.549   3.704
 4103TIP3   OH212185   1.540   3.105   5.938
 4103TIP3    H112186   1.496   3.027   5.905
 4103TIP3    H212187   1.591   3.074   6.013
 4104TIP3   OH212188   6.950   6.083   5.602
 4104TIP3    H112189   6.968   6.023   5.530
 4104TIP3    H212190   6.956   6.170   5.562
 4105TIP3   OH212191   2.306   8.505   7.237
 4105TIP3    H112192   2.273   8.594   7.226
 4105TIP3    H212193   2.394   8.516   7.272
 4106TIP3   OH212194   0.024   4.085   3.096
 4106TIP3    H112195   0.048   4.174   3.069
 4106TIP3    H212196  -0.071   4.082   3.087
 4107TIP3   OH212197   5.948   7.139   2.897
 4107TIP3    H112198   5.922   7.156   2.987
 4107TIP3    H212199   5.941   7.044   2.887
 4108TIP3   OH212200   0.962   4.333   6.285
 4108TIP3    H112201   0.931   4.358   6.198
 4108TIP3    H212202   0.974   4.238   6.280
 4109TIP3   OH212203   6.919   5.164   2.454
 4109TIP3    H112204   6.952   5.109   2.383
 4109TIP3    H212205   6.984   5.234   2.461
 4110TIP3   OH212206   5.554   2.600   7.751
 4110TIP3    H112207   5.484   2.567   7.807
 4110TIP3    H212208   5.519   2.681   7.713
 4111TIP3   OH212209   5.910   1.873   0.906
 4111TIP3    H112210   5.885   1.877   0.998
 4111TIP3    H212211   5.903   1.780   0.883
 4112TIP3   OH212212   5.788   7.261   2.499
 4112TIP3    H112213   5.845   7.321   2.547
 4112TIP3    H212214   5.797   7.178   2.545
 4113TIP3   OH212215   4.962   5.252   6.906
 4113TIP3    H112216   4.945   5.204   6.825
 4113TIP3    H212217   5.055   5.273   6.902
 4114TIP3   OH212218   8.282   7.408   3.025
 4114TIP3    H112219   8.261   7.322   3.063
 4114TIP3    H212220   8.238   7.471   3.082
 4115TIP3   OH212221   3.102   4.449   0.464
 4115TIP3    H112222   3.153   4.377   0.427
 4115TIP3    H212223   3.164   4.497   0.518
 4116TIP3   OH212224   2.039   2.454   5.532
 4116TIP3    H112225   2.042   2.359   5.538
 4116TIP3    H212226   2.083   2.475   5.449
 4117TIP3   OH212227   2.416   2.245   6.116
 4117TIP3    H112228   2.479   2.316   6.107
 4117TIP3    H212229   2.336   2.279   6.075
 4118TIP3   OH212230   5.451   6.514   1.805
 4118TIP3    H112231   5.438   6.516   1.900
 4118TIP3    H212232   5.540   6.548   1.792
 4119TIP3   OH212233   5.081   1.636   4.659
 4119TIP3    H112234   5.151   1.657   4.721
 4119TIP3    H212235   5.090   1.702   4.590
 4120TIP3   OH212236   2.856   0.680   4.262
 4120TIP3    H112237   2.936   0.655   4.309
 4120TIP3    H212238   2.836   0.605   4.206
 4121TIP3   OH212239   7.881   6.220   1.667
 4121TIP3    H112240   7.877   6.244   1.760
 4121TIP3    H212241   7.821   6.146   1.659
 4122TIP3   OH212242   4.864   2.400   6.717
 4122TIP3    H112243   4.908   2.332   6.665
 4122TIP3    H212244   4.865   2.365   6.806
 4123TIP3   OH212245   2.371   6.541   5.478
 4123TIP3    H112246   2.403   6.629   5.495
 4123TIP3    H212247   2.332   6.513   5.562
 4124TIP3   OH212248   2.297   5.652   0.620
 4124TIP3    H112249   2.265   5.708   0.690
 4124TIP3    H212250   2.271   5.563   0.646
 4125TIP3   OH212251   8.837   7.506   3.039
 4125TIP3    H112252   8.843   7.482   2.946
 4125TIP3    H212253   8.852   7.600   3.041
 4126TIP3   OH212254   9.491   5.450   3.906
 4126TIP3    H112255   9.549   5.432   3.980
 4126TIP3    H212256   9.549   5.484   3.838
 4127TIP3   OH212257   5.935   1.381   4.210
 4127TIP3    H112258   5.901   1.470   4.216
 4127TIP3    H212259   6.015   1.389   4.158
 4128TIP3   OH212260   5.212   5.303   6.915
 4128TIP3    H112261   5.278   5.233   6.915
 4128TIP3    H212262   5.252   5.372   6.861
 4129TIP3   OH212263   3.050   5.954   7.473
 4129TIP3    H112264   3.066   6.047   7.488
 4129TIP3    H212265   3.048   5.945   7.378
 4130TIP3   OH212266   2.914   7.137   6.162
 4130TIP3    H112267   2.902   7.187   6.243
 4130TIP3    H212268   2.944   7.051   6.191
 4131TIP3   OH212269   7.847   8.497   2.953
 4131TIP3    H112270   7.918   8.435   2.934
 4131TIP3    H212271   7.885   8.560   3.014
 4132TIP3   OH212272   7.609   5.719   2.607
 4132TIP3    H112273   7.518   5.700   2.630
 4132TIP3    H212274   7.643   5.637   2.571
 4133TIP3   OH212275   3.852   3.363   3.107
 4133TIP3    H112276   3.929   3.405   3.070
 4133TIP3    H212277   3.883   3.322   3.188
 4134TIP3   OH212278   1.834   1.123   2.427
 4134TIP3    H112279   1.786   1.153   2.350
 4134TIP3    H212280   1.912   1.178   2.430
 4135TIP3   OH212281   5.963   3.994   5.696
 4135TIP3    H112282   6.045   3.962   5.733
 4135TIP3    H212283   5.952   3.944   5.615
 4136TIP3   OH212284   4.950   8.701   4.556
 4136TIP3    H112285   4.876   8.692   4.497
 4136TIP3    H212286   4.940   8.788   4.594
 4137TIP3   OH212287   8.849   6.678   1.743
 4137TIP3    H112288   8.866   6.696   1.650
 4137TIP3    H212289   8.821   6.587   1.745
 4138TIP3   OH212290   8.997   4.325   3.160
 4138TIP3    H112291   8.911   4.339   3.201
 4138TIP3    H212292   8.977   4.308   3.067
 4139TIP3   OH212293   1.577   6.157   5.029
 4139TIP3    H112294   1.520   6.191   4.960
 4139TIP3    H212295   1.659   6.206   5.019
 4140TIP3   OH212296   4.353   7.459   0.493
 4140TIP3    H112297   4.348   7.554   0.506
 4140TIP3    H212298   4.434   7.433   0.537
 4141TIP3   OH212299   3.069   0.217   0.321
 4141TIP3    H112300   3.043   0.128   0.344
 4141TIP3    H212301   3.164   0.217   0.329
 4142TIP3   OH212302   5.031   0.708   1.495
 4142TIP3    H112303   5.109   0.762   1.486
 4142TIP3    H212304   5.003   0.720   1.585
 4143TIP3   OH212305   2.484   0.898   3.730
 4143TIP3    H112306   2.480   0.988   3.763
 4143TIP3    H212307   2.476   0.907   3.635
 4144TIP3   OH212308   0.968   8.078   0.623
 4144TIP3    H112309   1.052   8.112   0.592
 4144TIP3    H212310   0.948   8.007   0.562
 4145TIP3   OH212311   2.730   2.763   6.369
 4145TIP3    H112312   2.765   2.693   6.313
 4145TIP3    H212313   2.759   2.844   6.327
 4146TIP3   OH212314   2.878   3.385   0.354
 4146TIP3    H112315   2.845   3.475   0.354
 4146TIP3    H212316   2.935   3.380   0.431
 4147TIP3   OH212317   3.948   4.337   2.046
 4147TIP3    H112318   4.031   4.320   2.090
 4147TIP3    H212319   3.881   4.325   2.113
 4148TIP3   OH212320   1.068   3.715   7.635
 4148TIP3    H112321   1.163   3.712   7.646
 4148TIP3    H212322   1.035   3.636   7.679
 4149TIP3   OH212323   6.083   5.278   2.564
 4149TIP3    H112324   6.092   5.207   2.501
 4149TIP3    H212325   6.154   5.264   2.627
 4150TIP3   OH212326   3.939   6.692   0.997
 4150TIP3    H112327   3.979   6.699   0.910
 4150TIP3    H212328   3.995   6.632   1.045
 4151TIP3   OH212329   1.650   4.124   3.317
 4151TIP3    H112330   1.594   4.166   3.382
 4151TIP3    H212331   1.704   4.196   3.283
 4152TIP3   OH212332   3.265   8.951   0.330
 4152TIP3    H112333   3.176   8.923   0.352
 4152TIP3    H212334   3.285   8.903   0.249
 4153TIP3   OH212335   5.249   7.723   3.534
 4153TIP3    H112336   5.184   7.680   3.589
 4153TIP3    H212337   5.230   7.816   3.542
 4154TIP3   OH212338   8.329   7.544   4.507
 4154TIP3    H112339   8.296   7.588   4.429
 4154TIP3    H212340   8.400   7.599   4.538
 4155TIP3   OH212341   8.163   8.295   3.366
 4155TIP3    H112342   8.156   8.243   3.286
 4155TIP3    H212343   8.188   8.231   3.433
 4156TIP3   OH212344   0.598   4.596   1.277
 4156TIP3    H112345   0.541   4.648   1.334
 4156TIP3    H212346   0.564   4.507   1.283
 4157TIP3   OH212347   9.260   4.212   4.816
 4157TIP3    H112348   9.258   4.302   4.783
 4157TIP3    H212349   9.299   4.161   4.745
 4158TIP3   OH212350   3.858   1.117   7.281
 4158TIP3    H112351   3.816   1.177   7.219
 4158TIP3    H212352   3.837   1.154   7.367
 4159TIP3   OH212353   9.049   3.497   2.821
 4159TIP3    H112354   9.112   3.562   2.851
 4159TIP3    H212355   9.098   3.443   2.759
 4160TIP3   OH212356   9.490   2.607   4.021
 4160TIP3    H112357   9.440   2.680   4.059
 4160TIP3    H212358   9.464   2.606   3.929
 4161TIP3   OH212359   7.343   2.336   6.763
 4161TIP3    H112360   7.283   2.387   6.818
 4161TIP3    H212361   7.317   2.358   6.674
 4162TIP3   OH212362   7.709   3.121   2.356
 4162TIP3    H112363   7.685   3.181   2.426
 4162TIP3    H212364   7.736   3.041   2.402
 4163TIP3   OH212365   9.039   8.064   3.222
 4163TIP3    H112366   8.947   8.087   3.238
 4163TIP3    H212367   9.088   8.143   3.247
 4164TIP3   OH212368   0.897   1.107   0.643
 4164TIP3    H112369   0.902   1.200   0.668
 4164TIP3    H212370   0.852   1.065   0.716
 4165TIP3   OH212371   3.789   8.115   7.642
 4165TIP3    H112372   3.862   8.085   7.588
 4165TIP3    H212373   3.741   8.177   7.587
 4166TIP3   OH212374   3.253   2.270   3.371
 4166TIP3    H112375   3.251   2.355   3.327
 4166TIP3    H212376   3.181   2.274   3.434
 4167TIP3   OH212377   4.088   5.532   4.684
 4167TIP3    H112378   4.027   5.501   4.750
 4167TIP3    H212379   4.033   5.582   4.623
 4168TIP3   OH212380   6.777   7.651   6.986
 4168TIP3    H112381   6.684   7.629   6.982
 4168TIP3    H212382   6.778   7.743   7.013
 4169TIP3   OH212383   7.790   6.003   5.156
 4169TIP3    H112384   7.861   5.944   5.181
 4169TIP3    H212385   7.834   6.083   5.126
 4170TIP3   OH212386   1.194   2.464   4.329
 4170TIP3    H112387   1.260   2.531   4.345
 4170TIP3    H212388   1.193   2.411   4.409
 4171TIP3   OH212389   0.761   6.911   2.204
 4171TIP3    H112390   0.813   6.969   2.149
 4171TIP3    H212391   0.718   6.852   2.143
 4172TIP3   OH212392   0.594   5.094   4.692
 4172TIP3    H112393   0.551   5.047   4.764
 4172TIP3    H212394   0.576   5.040   4.614
 4173TIP3   OH212395   0.889   0.656   0.721
 4173TIP3    H112396   0.865   0.700   0.803
 4173TIP3    H212397   0.837   0.576   0.719
 4174TIP3   OH212398   2.135   4.065   4.662
 4174TIP3    H112399   2.133   4.000   4.592
 4174TIP3    H212400   2.147   4.014   4.742
 4175TIP3   OH212401   3.058   3.495   4.971
 4175TIP3    H112402   3.112   3.427   4.930
 4175TIP3    H212403   3.047   3.562   4.903
 4176TIP3   OH212404   4.979   4.846   0.932
 4176TIP3    H112405   4.971   4.900   1.011
 4176TIP3    H212406   5.013   4.906   0.865
 4177TIP3   OH212407   9.044   7.911   7.391
 4177TIP3    H112408   8.978   7.868   7.445
 4177TIP3    H212409   9.127   7.880   7.425
 4178TIP3   OH212410   3.709   2.402   3.056
 4178TIP3    H112411   3.765   2.420   2.980
 4178TIP3    H212412   3.624   2.439   3.033
 4179TIP3   OH212413   0.556   8.130   3.214
 4179TIP3    H112414   0.533   8.122   3.121
 4179TIP3    H212415   0.510   8.058   3.256
 4180TIP3   OH212416   8.057   3.484   3.606
 4180TIP3    H112417   8.065   3.546   3.534
 4180TIP3    H212418   8.006   3.412   3.570
 4181TIP3   OH212419   4.590   4.387   1.084
 4181TIP3    H112420   4.614   4.354   1.171
 4181TIP3    H212421   4.658   4.452   1.064
 4182TIP3   OH212422   7.766   1.549   4.686
 4182TIP3    H112423   7.751   1.463   4.647
 4182TIP3    H212424   7.710   1.608   4.636
 4183TIP3   OH212425   2.701   8.718   7.446
 4183TIP3    H112426   2.729   8.734   7.536
 4183TIP3    H212427   2.772   8.753   7.392
 4184TIP3   OH212428   7.919   7.765   1.943
 4184TIP3    H112429   7.842   7.812   1.912
 4184TIP3    H212430   7.992   7.806   1.898
 4185TIP3   OH212431   6.069   5.501   5.674
 4185TIP3    H112432   5.981   5.468   5.693
 4185TIP3    H212433   6.079   5.489   5.579
 4186TIP3   OH212434   4.597   0.926   3.853
 4186TIP3    H112435   4.649   0.918   3.933
 4186TIP3    H212436   4.622   1.010   3.816
 4187TIP3   OH212437   9.089   2.608   5.357
 4187TIP3    H112438   9.110   2.646   5.443
 4187TIP3    H212439   9.168   2.621   5.305
 4188TIP3   OH212440   0.006   8.182   0.379
 4188TIP3    H112441   0.059   8.173   0.458
 4188TIP3    H212442  -0.078   8.213   0.410
 4189TIP3   OH212443   1.287  -0.001   1.231
 4189TIP3    H112444   1.281   0.094   1.219
 4189TIP3    H212445   1.262  -0.037   1.146
 4190TIP3   OH212446   8.861   3.142   5.151
 4190TIP3    H112447   8.798   3.167   5.083
 4190TIP3    H212448   8.927   3.211   5.149
 4191TIP3   OH212449   1.019   5.175   5.933
 4191TIP3    H112450   1.021   5.210   5.844
 4191TIP3    H212451   1.033   5.081   5.922
 4192TIP3   OH212452   4.228   8.397   0.444
 4192TIP3    H112453   4.284   8.415   0.369
 4192TIP3    H212454   4.188   8.481   0.465
 4193TIP3   OH212455   7.350   5.080   7.480
 4193TIP3    H112456   7.428   5.121   7.517
 4193TIP3    H212457   7.375   5.058   7.390
 4194TIP3   OH212458   6.284   5.161   3.798
 4194TIP3    H112459   6.319   5.112   3.723
 4194TIP3    H212460   6.253   5.095   3.858
 4195TIP3   OH212461   3.688   0.207   2.671
 4195TIP3    H112462   3.771   0.254   2.679
 4195TIP3    H212463   3.651   0.239   2.588
 4196TIP3   OH212464   6.236   8.329   2.480
 4196TIP3    H112465   6.299   8.361   2.545
 4196TIP3    H212466   6.269   8.363   2.397
 4197TIP3   OH212467   1.087   6.905   5.631
 4197TIP3    H112468   1.011   6.964   5.641
 4197TIP3    H212469   1.080   6.846   5.706
 4198TIP3   OH212470   5.803   7.853   2.140
 4198TIP3    H112471   5.782   7.873   2.048
 4198TIP3    H212472   5.826   7.760   2.139
 4199TIP3   OH212473   4.280   2.325   3.042
 4199TIP3    H112474   4.186   2.330   3.029
 4199TIP3    H212475   4.295   2.238   3.079
 4200TIP3   OH212476   3.567   4.090   7.707
 4200TIP3    H112477   3.527   4.175   7.688
 4200TIP3    H212478   3.506   4.047   7.766
 4201TIP3   OH212479   2.556   5.486   0.231
 4201TIP3    H112480   2.566   5.395   0.258
 4201TIP3    H212481   2.613   5.495   0.155
 4202TIP3   OH212482   2.764   1.036   4.443
 4202TIP3    H112483   2.706   0.970   4.480
 4202TIP3    H212484   2.840   0.986   4.412
 4203TIP3   OH212485   3.433   0.683   7.348
 4203TIP3    H112486   3.518   0.711   7.314
 4203TIP3    H212487   3.370   0.716   7.284
 4204TIP3   OH212488   2.526   3.546   4.190
 4204TIP3    H112489   2.500   3.636   4.208
 4204TIP3    H212490   2.509   3.533   4.097
 4205TIP3   OH212491   5.038   4.821   0.185
 4205TIP3    H112492   5.081   4.760   0.124
 4205TIP3    H212493   5.111   4.863   0.231
 4206TIP3   OH212494   2.420   8.924   3.707
 4206TIP3    H112495   2.372   9.004   3.730
 4206TIP3    H212496   2.374   8.890   3.631
 4207TIP3   OH212497   8.472   8.278   3.446
 4207TIP3    H112498   8.528   8.311   3.516
 4207TIP3    H212499   8.414   8.216   3.489
 4208TIP3   OH212500   5.615   3.601   6.830
 4208TIP3    H112501   5.685   3.596   6.765
 4208TIP3    H212502   5.580   3.690   6.820
 4209TIP3   OH212503   8.298   4.354   1.430
 4209TIP3    H112504   8.383   4.390   1.407
 4209TIP3    H212505   8.306   4.329   1.522
 4210TIP3   OH212506   8.855   7.922   4.552
 4210TIP3    H112507   8.916   7.979   4.599
 4210TIP3    H212508   8.808   7.980   4.492
 4211TIP3   OH212509   8.625   7.680   4.236
 4211TIP3    H112510   8.657   7.753   4.183
 4211TIP3    H212511   8.704   7.637   4.268
 4212TIP3   OH212512   4.315   1.326   0.697
 4212TIP3    H112513   4.271   1.260   0.644
 4212TIP3    H212514   4.372   1.373   0.636
 4213TIP3   OH212515   1.690   0.460   2.826
 4213TIP3    H112516   1.754   0.422   2.766
 4213TIP3    H212517   1.605   0.435   2.790
 4214TIP3   OH212518   5.533   4.868   0.412
 4214TIP3    H112519   5.626   4.890   0.407
 4214TIP3    H212520   5.525   4.815   0.491
 4215TIP3   OH212521   0.315   4.322   1.557
 4215TIP3    H112522   0.357   4.339   1.473
 4215TIP3    H212523   0.388   4.308   1.618
 4216TIP3   OH212524   8.553   3.049   6.294
 4216TIP3    H112525   8.613   3.025   6.365
 4216TIP3    H212526   8.503   3.123   6.329
 4217TIP3   OH212527   4.511   0.370   7.504
 4217TIP3    H112528   4.477   0.457   7.484
 4217TIP3    H212529   4.527   0.371   7.598
 4218TIP3   OH212530   8.918   0.667   3.081
 4218TIP3    H112531   8.842   0.610   3.071
 4218TIP3    H212532   8.940   0.694   2.992
 4219TIP3   OH212533   1.521   6.485   3.550
 4219TIP3    H112534   1.461   6.418   3.516
 4219TIP3    H212535   1.464   6.550   3.591
 4220TIP3   OH212536   7.750   3.551   4.096
 4220TIP3    H112537   7.759   3.506   4.180
 4220TIP3    H212538   7.728   3.641   4.120
 4221TIP3   OH212539   4.986   3.757   4.797
 4221TIP3    H112540   5.038   3.687   4.837
 4221TIP3    H212541   4.914   3.772   4.858
 4222TIP3   OH212542   0.895   5.850   1.639
 4222TIP3    H112543   0.846   5.915   1.589
 4222TIP3    H212544   0.835   5.776   1.649
 4223TIP3   OH212545   4.332   5.073   1.559
 4223TIP3    H112546   4.246   5.104   1.530
 4223TIP3    H212547   4.360   5.137   1.624
 4224TIP3   OH212548   5.370   6.368   4.787
 4224TIP3    H112549   5.281   6.400   4.772
 4224TIP3    H212550   5.362   6.273   4.785
 4225TIP3   OH212551   9.404   5.153   7.072
 4225TIP3    H112552   9.442   5.239   7.051
 4225TIP3    H212553   9.474   5.105   7.115
 4226TIP3   OH212554   1.065   0.112   0.375
 4226TIP3    H112555   0.974   0.103   0.404
 4226TIP3    H212556   1.059   0.119   0.280
 4227TIP3   OH212557   4.543   3.181   1.097
 4227TIP3    H112558   4.517   3.236   1.171
 4227TIP3    H212559   4.587   3.241   1.037
 4228TIP3   OH212560   5.017   4.587   2.512
 4228TIP3    H112561   5.054   4.614   2.596
 4228TIP3    H212562   4.994   4.670   2.468
 4229TIP3   OH212563   7.842   1.257   4.338
 4229TIP3    H112564   7.822   1.326   4.275
 4229TIP3    H212565   7.842   1.177   4.286
 4230TIP3   OH212566   4.553   5.406   1.355
 4230TIP3    H112567   4.533   5.487   1.309
 4230TIP3    H212568   4.473   5.354   1.348
 4231TIP3   OH212569   3.315   4.234   7.000
 4231TIP3    H112570   3.247   4.172   6.973
 4231TIP3    H212571   3.329   4.289   6.923
 4232TIP3   OH212572   2.415   4.962   4.433
 4232TIP3    H112573   2.359   4.897   4.390
 4232TIP3    H212574   2.458   5.009   4.362
 4233TIP3   OH212575   2.302   1.513   7.670
 4233TIP3    H112576   2.253   1.593   7.652
 4233TIP3    H212577   2.253   1.470   7.739
 4234TIP3   OH212578   6.341   4.063   0.153
 4234TIP3    H112579   6.390   4.139   0.121
 4234TIP3    H212580   6.273   4.100   0.209
 4235TIP3   OH212581   0.688   3.977   2.393
 4235TIP3    H112582   0.697   3.962   2.299
 4235TIP3    H212583   0.602   3.940   2.414
 4236TIP3   OH212584   8.216   5.227   7.796
 4236TIP3    H112585   8.301   5.198   7.762
 4236TIP3    H212586   8.193   5.162   7.862
 4237TIP3   OH212587   0.801   4.248   4.357
 4237TIP3    H112588   0.712   4.216   4.369
 4237TIP3    H212589   0.828   4.215   4.271
 4238TIP3   OH212590   0.914   5.398   1.244
 4238TIP3    H112591   0.943   5.335   1.310
 4238TIP3    H212592   0.895   5.344   1.167
 4239TIP3   OH212593   9.351   3.203   7.041
 4239TIP3    H112594   9.318   3.159   6.963
 4239TIP3    H212595   9.382   3.288   7.009
 4240TIP3   OH212596   8.740   9.006   4.110
 4240TIP3    H112597   8.812   8.995   4.172
 4240TIP3    H212598   8.661   8.993   4.163
 4241TIP3   OH212599   8.195   1.033   2.073
 4241TIP3    H112600   8.182   0.939   2.090
 4241TIP3    H212601   8.202   1.039   1.978
 4242TIP3   OH212602   8.784   5.989   5.896
 4242TIP3    H112603   8.737   6.052   5.951
 4242TIP3    H212604   8.715   5.932   5.860
 4243TIP3   OH212605   7.866   5.645   1.798
 4243TIP3    H112606   7.907   5.584   1.859
 4243TIP3    H212607   7.858   5.596   1.716
 4244TIP3   OH212608   0.038   6.035   1.203
 4244TIP3    H112609  -0.010   6.034   1.120
 4244TIP3    H212610   0.128   6.012   1.180
 4245TIP3   OH212611   0.703   5.696   4.742
 4245TIP3    H112612   0.621   5.648   4.750
 4245TIP3    H212613   0.680   5.777   4.698
 4246TIP3   OH212614   3.939   7.868   6.947
 4246TIP3    H112615   4.021   7.820   6.939
 4246TIP3    H212616   3.961   7.958   6.923
 4247TIP3   OH212617   0.969   3.243   2.610
 4247TIP3    H112618   1.039   3.298   2.574
 4247TIP3    H212619   0.904   3.239   2.540
 4248TIP3   OH212620   6.700   8.514   2.649
 4248TIP3    H112621   6.697   8.474   2.736
 4248TIP3    H212622   6.614   8.496   2.611
 4249TIP3   OH212623   6.814   2.358   1.929
 4249TIP3    H112624   6.839   2.372   1.838
 4249TIP3    H212625   6.847   2.434   1.976
 4250TIP3   OH212626   8.631   6.761   4.112
 4250TIP3    H112627   8.565   6.762   4.181
 4250TIP3    H212628   8.661   6.852   4.106
 4251TIP3   OH212629   7.888   0.089   5.039
 4251TIP3    H112630   7.983   0.085   5.046
 4251TIP3    H212631   7.858   0.005   5.075
 4252TIP3   OH212632   5.022   3.416   5.204
 4252TIP3    H112633   4.966   3.368   5.265
 4252TIP3    H212634   4.994   3.388   5.117
 4253TIP3   OH212635   3.201   7.633   0.469
 4253TIP3    H112636   3.112   7.665   0.488
 4253TIP3    H212637   3.235   7.694   0.404
 4254TIP3   OH212638   3.273   7.094   0.618
 4254TIP3    H112639   3.259   7.164   0.554
 4254TIP3    H212640   3.187   7.054   0.629
 4255TIP3   OH212641   3.917   8.308   4.556
 4255TIP3    H112642   3.822   8.311   4.561
 4255TIP3    H212643   3.938   8.214   4.555
 4256TIP3   OH212644   8.991   7.968   3.720
 4256TIP3    H112645   8.973   7.875   3.735
 4256TIP3    H212646   9.043   7.970   3.640
 4257TIP3   OH212647   8.822   2.640   6.472
 4257TIP3    H112648   8.829   2.726   6.430
 4257TIP3    H212649   8.783   2.659   6.557
 4258TIP3   OH212650   6.836   1.061   3.805
 4258TIP3    H112651   6.883   1.103   3.878
 4258TIP3    H212652   6.891   0.987   3.781
 4259TIP3   OH212653   5.606   2.078   7.145
 4259TIP3    H112654   5.599   2.136   7.222
 4259TIP3    H212655   5.547   2.006   7.165
 4260TIP3   OH212656   1.880   7.039   7.813
 4260TIP3    H112657   1.832   7.060   7.733
 4260TIP3    H212658   1.914   6.951   7.797
 4261TIP3   OH212659   2.927   2.423   5.668
 4261TIP3    H112660   2.969   2.408   5.583
 4261TIP3    H212661   2.903   2.516   5.667
 4262TIP3   OH212662   3.271   8.943   4.025
 4262TIP3    H112663   3.240   9.018   3.973
 4262TIP3    H212664   3.211   8.872   4.003
 4263TIP3   OH212665   7.799   4.262   6.363
 4263TIP3    H112666   7.760   4.174   6.365
 4263TIP3    H212667   7.743   4.312   6.303
 4264TIP3   OH212668   4.482   3.787   5.018
 4264TIP3    H112669   4.482   3.833   4.935
 4264TIP3    H212670   4.393   3.795   5.051
 4265TIP3   OH212671   9.492   8.627   5.079
 4265TIP3    H112672   9.467   8.666   5.163
 4265TIP3    H212673   9.441   8.676   5.014
 4266TIP3   OH212674   4.785   0.035   6.055
 4266TIP3    H112675   4.824   0.064   5.972
 4266TIP3    H212676   4.745   0.114   6.091
 4267TIP3   OH212677   5.838   4.897   7.684
 4267TIP3    H112678   5.908   4.833   7.697
 4267TIP3    H212679   5.782   4.887   7.761
 4268TIP3   OH212680   8.175   3.244   1.282
 4268TIP3    H112681   8.114   3.317   1.285
 4268TIP3    H212682   8.236   3.260   1.354
 4269TIP3   OH212683   8.922   2.680   4.639
 4269TIP3    H112684   8.878   2.605   4.679
 4269TIP3    H212685   8.955   2.731   4.713
 4270TIP3   OH212686   3.845   5.144   7.685
 4270TIP3    H112687   3.837   5.066   7.630
 4270TIP3    H212688   3.761   5.189   7.676
 4271TIP3   OH212689   6.968   3.425   5.401
 4271TIP3    H112690   6.896   3.482   5.376
 4271TIP3    H212691   6.977   3.439   5.496
 4272TIP3   OH212692   5.730   6.703   6.670
 4272TIP3    H112693   5.801   6.765   6.657
 4272TIP3    H212694   5.703   6.715   6.761
 4273TIP3   OH212695   4.541   7.173   5.715
 4273TIP3    H112696   4.571   7.152   5.804
 4273TIP3    H212697   4.472   7.110   5.697
 4274TIP3   OH212698   3.053   1.673   0.662
 4274TIP3    H112699   2.998   1.750   0.672
 4274TIP3    H212700   3.009   1.619   0.597
 4275TIP3   OH212701   8.953   3.673   5.473
 4275TIP3    H112702   8.858   3.674   5.465
 4275TIP3    H212703   8.970   3.693   5.565
 4276TIP3   OH212704   9.521   5.052   7.436
 4276TIP3    H112705   9.523   4.979   7.374
 4276TIP3    H212706   9.509   5.130   7.381
 4277TIP3   OH212707   1.807   7.797   0.732
 4277TIP3    H112708   1.767   7.730   0.677
 4277TIP3    H212709   1.888   7.820   0.685
 4278TIP3   OH212710   8.954   2.492   2.489
 4278TIP3    H112711   9.032   2.438   2.473
 4278TIP3    H212712   8.901   2.440   2.550
 4279TIP3   OH212713   5.087   4.672   7.114
 4279TIP3    H112714   5.018   4.661   7.180
 4279TIP3    H212715   5.158   4.715   7.161
 4280TIP3   OH212716   4.954   5.426   2.098
 4280TIP3    H112717   5.017   5.464   2.037
 4280TIP3    H212718   4.880   5.401   2.044
 4281TIP3   OH212719   2.794   7.858   3.141
 4281TIP3    H112720   2.757   7.909   3.213
 4281TIP3    H212721   2.724   7.797   3.117
 4282TIP3   OH212722   0.019   0.217   1.221
 4282TIP3    H112723   0.064   0.135   1.238
 4282TIP3    H212724  -0.025   0.203   1.137
 4283TIP3   OH212725   2.343   5.520   3.387
 4283TIP3    H112726   2.307   5.431   3.381
 4283TIP3    H212727   2.437   5.508   3.392
 4284TIP3   OH212728   6.293   4.420   3.990
 4284TIP3    H112729   6.236   4.377   3.926
 4284TIP3    H212730   6.334   4.492   3.942
 4285TIP3   OH212731   3.965   3.993   0.410
 4285TIP3    H112732   3.963   3.904   0.374
 4285TIP3    H212733   3.894   3.994   0.474
 4286TIP3   OH212734   3.184   5.302   1.070
 4286TIP3    H112735   3.099   5.337   1.096
 4286TIP3    H212736   3.191   5.321   0.977
 4287TIP3   OH212737   7.715   5.213   0.313
 4287TIP3    H112738   7.747   5.189   0.225
 4287TIP3    H212739   7.784   5.183   0.372
 4288TIP3   OH212740   1.934   9.005   6.843
 4288TIP3    H112741   1.956   8.922   6.800
 4288TIP3    H212742   1.959   9.072   6.780
 4289TIP3   OH212743   9.012   0.734   1.385
 4289TIP3    H112744   8.988   0.747   1.476
 4289TIP3    H212745   9.070   0.658   1.386
 4290TIP3   OH212746   6.962   1.731   6.646
 4290TIP3    H112747   6.888   1.784   6.616
 4290TIP3    H212748   6.955   1.649   6.597
 4291TIP3   OH212749   6.497   0.950   2.651
 4291TIP3    H112750   6.469   1.041   2.663
 4291TIP3    H212751   6.438   0.915   2.585
 4292TIP3   OH212752   4.881   3.305   5.006
 4292TIP3    H112753   4.806   3.364   5.009
 4292TIP3    H212754   4.844   3.217   5.014
 4293TIP3   OH212755   7.447   2.004   6.823
 4293TIP3    H112756   7.464   2.047   6.906
 4293TIP3    H212757   7.393   2.066   6.774
 4294TIP3   OH212758   9.476   6.701   5.185
 4294TIP3    H112759   9.403   6.744   5.141
 4294TIP3    H212760   9.435   6.646   5.252
 4295TIP3   OH212761   4.952   3.158   2.193
 4295TIP3    H112762   4.905   3.122   2.117
 4295TIP3    H212763   5.010   3.087   2.220
 4296TIP3   OH212764   3.360   3.065   2.962
 4296TIP3    H112765   3.339   3.157   2.978
 4296TIP3    H212766   3.383   3.061   2.869
 4297TIP3   OH212767   6.809   6.952   3.095
 4297TIP3    H112768   6.842   7.003   3.021
 4297TIP3    H212769   6.784   7.017   3.160
 4298TIP3   OH212770   7.684   3.150   5.241
 4298TIP3    H112771   7.629   3.125   5.315
 4298TIP3    H212772   7.681   3.074   5.183
 4299TIP3   OH212773   4.326   2.679   0.384
 4299TIP3    H112774   4.396   2.735   0.417
 4299TIP3    H212775   4.332   2.687   0.288
 4300TIP3   OH212776   2.119   2.615   4.682
 4300TIP3    H112777   2.204   2.580   4.655
 4300TIP3    H212778   2.083   2.548   4.740
 4301TIP3   OH212779   3.720   8.583   3.425
 4301TIP3    H112780   3.772   8.509   3.394
 4301TIP3    H212781   3.784   8.641   3.466
 4302TIP3   OH212782   8.769   7.162   3.531
 4302TIP3    H112783   8.774   7.072   3.501
 4302TIP3    H212784   8.856   7.198   3.511
 4303TIP3   OH212785   4.475   1.497   1.080
 4303TIP3    H112786   4.391   1.534   1.052
 4303TIP3    H212787   4.490   1.424   1.020
 4304TIP3   OH212788   6.754   5.485   4.268
 4304TIP3    H112789   6.700   5.411   4.297
 4304TIP3    H212790   6.732   5.495   4.176
 4305TIP3   OH212791   2.598   2.996   3.466
 4305TIP3    H112792   2.686   2.986   3.430
 4305TIP3    H212793   2.604   2.959   3.554
 4306TIP3   OH212794   2.713   2.011   1.417
 4306TIP3    H112795   2.797   2.057   1.410
 4306TIP3    H212796   2.656   2.056   1.354
 4307TIP3   OH212797   4.911   6.209   3.871
 4307TIP3    H112798   4.912   6.231   3.778
 4307TIP3    H212799   4.946   6.120   3.875
 4308TIP3   OH212800   7.200   9.011   1.573
 4308TIP3    H112801   7.267   8.969   1.627
 4308TIP3    H212802   7.213   9.104   1.586
 4309TIP3   OH212803   7.234   1.276   3.396
 4309TIP3    H112804   7.324   1.304   3.417
 4309TIP3    H212805   7.184   1.298   3.475
 4310TIP3   OH212806   4.118   8.807   0.146
 4310TIP3    H112807   4.211   8.810   0.121
 4310TIP3    H212808   4.073   8.781   0.066
 4311TIP3   OH212809   7.681   7.108   2.297
 4311TIP3    H112810   7.709   7.028   2.253
 4311TIP3    H212811   7.677   7.086   2.390
 4312TIP3   OH212812   1.328   1.468   6.935
 4312TIP3    H112813   1.277   1.449   7.014
 4312TIP3    H212814   1.362   1.383   6.907
 4313TIP3   OH212815   4.175   6.808   6.665
 4313TIP3    H112816   4.195   6.865   6.590
 4313TIP3    H212817   4.260   6.779   6.697
 4314TIP3   OH212818   0.363   4.807   6.102
 4314TIP3    H112819   0.295   4.866   6.136
 4314TIP3    H212820   0.325   4.720   6.110
 4315TIP3   OH212821   2.489   8.833   0.852
 4315TIP3    H112822   2.554   8.778   0.808
 4315TIP3    H212823   2.405   8.794   0.830
 4316TIP3   OH212824   8.556   3.687   2.654
 4316TIP3    H112825   8.607   3.768   2.650
 4316TIP3    H212826   8.585   3.636   2.578
 4317TIP3   OH212827   8.726   2.134   6.407
 4317TIP3    H112828   8.809   2.176   6.432
 4317TIP3    H212829   8.739   2.042   6.428
 4318TIP3   OH212830   7.915   4.720   4.551
 4318TIP3    H112831   7.945   4.638   4.590
 4318TIP3    H212832   7.977   4.786   4.583
 4319TIP3   OH212833   6.145   2.152   0.143
 4319TIP3    H112834   6.208   2.140   0.214
 4319TIP3    H212835   6.093   2.072   0.142
 4320TIP3   OH212836   4.310   8.828   5.462
 4320TIP3    H112837   4.309   8.732   5.460
 4320TIP3    H212838   4.314   8.850   5.555
 4321TIP3   OH212839   8.106   5.535   0.833
 4321TIP3    H112840   8.015   5.508   0.842
 4321TIP3    H212841   8.155   5.454   0.822
 4322TIP3   OH212842   0.062   4.503   0.467
 4322TIP3    H112843   0.111   4.541   0.394
 4322TIP3    H212844   0.019   4.426   0.430
 4323TIP3   OH212845   5.382   4.649   0.251
 4323TIP3    H112846   5.409   4.576   0.307
 4323TIP3    H212847   5.295   4.623   0.219
 4324TIP3   OH212848   0.114   8.762   6.522
 4324TIP3    H112849   0.145   8.842   6.564
 4324TIP3    H212850   0.019   8.766   6.532
 4325TIP3   OH212851   7.956   3.549   6.933
 4325TIP3    H112852   8.043   3.589   6.928
 4325TIP3    H212853   7.905   3.596   6.867
 4326TIP3   OH212854   7.139   4.050   5.704
 4326TIP3    H112855   7.171   4.056   5.794
 4326TIP3    H212856   7.081   4.125   5.694
 4327TIP3   OH212857   0.383   7.479   6.556
 4327TIP3    H112858   0.351   7.496   6.467
 4327TIP3    H212859   0.470   7.441   6.544
 4328TIP3   OH212860   9.370   0.164   4.526
 4328TIP3    H112861   9.278   0.145   4.508
 4328TIP3    H212862   9.380   0.256   4.502
 4329TIP3   OH212863   6.199   4.195   1.310
 4329TIP3    H112864   6.244   4.117   1.343
 4329TIP3    H212865   6.191   4.179   1.216
 4330TIP3   OH212866   4.593   1.413   3.685
 4330TIP3    H112867   4.596   1.388   3.593
 4330TIP3    H212868   4.508   1.458   3.695
 4331TIP3   OH212869   3.983   2.787   4.536
 4331TIP3    H112870   4.069   2.786   4.495
 4331TIP3    H212871   3.984   2.865   4.592
 4332TIP3   OH212872   1.888   8.067   3.600
 4332TIP3    H112873   1.836   8.146   3.592
 4332TIP3    H212874   1.871   8.035   3.688
 4333TIP3   OH212875   6.966   8.359   5.134
 4333TIP3    H112876   6.966   8.447   5.097
 4333TIP3    H212877   6.891   8.358   5.193
 4334TIP3   OH212878   3.286   8.861   2.383
 4334TIP3    H112879   3.361   8.829   2.333
 4334TIP3    H212880   3.259   8.785   2.436
 4335TIP3   OH212881   6.195   3.778   3.687
 4335TIP3    H112882   6.230   3.861   3.718
 4335TIP3    H212883   6.138   3.801   3.614
 4336TIP3   OH212884   5.487   0.466   4.674
 4336TIP3    H112885   5.402   0.481   4.716
 4336TIP3    H212886   5.551   0.501   4.736
 4337TIP3   OH212887   3.806   6.595   2.087
 4337TIP3    H112888   3.851   6.567   2.007
 4337TIP3    H212889   3.865   6.659   2.127
 4338TIP3   OH212890   0.751   5.048   0.431
 4338TIP3    H112891   0.830   5.088   0.468
 4338TIP3    H212892   0.744   5.087   0.344
 4339TIP3   OH212893   3.280   0.244   0.926
 4339TIP3    H112894   3.356   0.303   0.928
 4339TIP3    H212895   3.318   0.156   0.919
 4340TIP3   OH212896   9.022   2.313   2.030
 4340TIP3    H112897   9.036   2.407   2.046
 4340TIP3    H212898   8.930   2.306   2.006
 4341TIP3   OH212899   8.225   3.818   0.731
 4341TIP3    H112900   8.192   3.893   0.681
 4341TIP3    H212901   8.248   3.753   0.664
 4342TIP3   OH212902   8.053   1.070   2.289
 4342TIP3    H112903   8.081   1.003   2.352
 4342TIP3    H212904   8.102   1.049   2.209
 4343TIP3   OH212905   4.839   0.821   5.298
 4343TIP3    H112906   4.916   0.776   5.331
 4343TIP3    H212907   4.848   0.818   5.203
 4344TIP3   OH212908   4.731   7.940   3.623
 4344TIP3    H112909   4.769   7.968   3.706
 4344TIP3    H212910   4.788   7.869   3.593
 4345TIP3   OH212911   5.341   0.105   7.034
 4345TIP3    H112912   5.417   0.047   7.025
 4345TIP3    H212913   5.289   0.090   6.956
 4346TIP3   OH212914   1.072   2.427   6.988
 4346TIP3    H112915   1.139   2.359   6.982
 4346TIP3    H212916   1.119   2.505   7.018
 4347TIP3   OH212917   8.839   7.409   3.287
 4347TIP3    H112918   8.930   7.386   3.306
 4347TIP3    H212919   8.843   7.452   3.201
 4348TIP3   OH212920   2.066   4.573   4.619
 4348TIP3    H112921   2.154   4.593   4.587
 4348TIP3    H212922   2.032   4.509   4.556
 4349TIP3   OH212923   3.991   6.217   1.008
 4349TIP3    H112924   3.920   6.153   1.015
 4349TIP3    H212925   3.966   6.274   0.935
 4350TIP3   OH212926   2.558   4.445   6.977
 4350TIP3    H112927   2.592   4.365   6.937
 4350TIP3    H212928   2.488   4.414   7.035
 4351TIP3   OH212929   8.957   3.557   0.960
 4351TIP3    H112930   8.959   3.652   0.970
 4351TIP3    H212931   8.915   3.526   1.040
 4352TIP3   OH212932   7.971   0.779   3.377
 4352TIP3    H112933   7.893   0.829   3.400
 4352TIP3    H212934   7.938   0.691   3.358
 4353TIP3   OH212935   3.988   2.324   1.733
 4353TIP3    H112936   4.045   2.308   1.809
 4353TIP3    H212937   3.947   2.240   1.716
 4354TIP3   OH212938   3.406   1.267   6.052
 4354TIP3    H112939   3.424   1.174   6.065
 4354TIP3    H212940   3.432   1.283   5.961
 4355TIP3   OH212941   2.974   2.664   6.834
 4355TIP3    H112942   2.948   2.630   6.748
 4355TIP3    H212943   3.055   2.617   6.854
 4356TIP3   OH212944   1.498   8.202   6.953
 4356TIP3    H112945   1.543   8.123   6.923
 4356TIP3    H212946   1.558   8.241   7.017
 4357TIP3   OH212947   5.926   0.876   0.097
 4357TIP3    H112948   5.935   0.813   0.026
 4357TIP3    H212949   5.832   0.895   0.100
 4358TIP3   OH212950   5.164   2.163   2.047
 4358TIP3    H112951   5.248   2.175   2.092
 4358TIP3    H212952   5.186   2.113   1.969
 4359TIP3   OH212953   3.678   1.116   2.505
 4359TIP3    H112954   3.698   1.202   2.543
 4359TIP3    H212955   3.645   1.136   2.417
 4360TIP3   OH212956   1.196   6.710   4.971
 4360TIP3    H112957   1.125   6.649   4.952
 4360TIP3    H212958   1.193   6.773   4.899
 4361TIP3   OH212959   6.024   3.679   6.767
 4361TIP3    H112960   5.932   3.703   6.783
 4361TIP3    H212961   6.060   3.666   6.855
 4362TIP3   OH212962   3.464   0.870   7.574
 4362TIP3    H112963   3.534   0.836   7.518
 4362TIP3    H212964   3.511   0.921   7.641
 4363TIP3   OH212965   3.662   4.553   0.206
 4363TIP3    H112966   3.651   4.458   0.214
 4363TIP3    H212967   3.739   4.563   0.149
 4364TIP3   OH212968   4.006   2.543   0.898
 4364TIP3    H112969   3.992   2.493   0.978
 4364TIP3    H212970   4.083   2.504   0.858
 4365TIP3   OH212971   9.091   7.639   4.751
 4365TIP3    H112972   9.035   7.680   4.818
 4365TIP3    H212973   9.172   7.617   4.798
 4366TIP3   OH212974   3.640   7.083   1.489
 4366TIP3    H112975   3.694   7.036   1.552
 4366TIP3    H212976   3.550   7.071   1.521
 4367TIP3   OH212977   7.932   1.270   2.799
 4367TIP3    H112978   8.005   1.211   2.780
 4367TIP3    H212979   7.970   1.358   2.792
 4368TIP3   OH212980   1.360   0.572   4.648
 4368TIP3    H112981   1.437   0.533   4.689
 4368TIP3    H212982   1.331   0.506   4.584
 4369TIP3   OH212983   2.804   8.323   1.924
 4369TIP3    H112984   2.811   8.317   1.829
 4369TIP3    H212985   2.891   8.300   1.956
 4370TIP3   OH212986   9.298   2.631   3.278
 4370TIP3    H112987   9.331   2.659   3.192
 4370TIP3    H212988   9.316   2.537   3.281
 4371TIP3   OH212989   7.316   2.669   2.118
 4371TIP3    H112990   7.275   2.755   2.117
 4371TIP3    H212991   7.297   2.634   2.205
 4372TIP3   OH212992   8.452   5.761   0.950
 4372TIP3    H112993   8.402   5.738   1.028
 4372TIP3    H212994   8.458   5.680   0.900
 4373TIP3   OH212995   1.734   8.994   7.735
 4373TIP3    H112996   1.674   9.065   7.758
 4373TIP3    H212997   1.677   8.926   7.697
 4374TIP3   OH212998   2.856   5.716   1.995
 4374TIP3    H112999   2.885   5.773   2.066
 4374TIP3    H213000   2.936   5.679   1.959
 4375TIP3   OH213001   0.492   5.452   4.278
 4375TIP3    H113002   0.499   5.394   4.202
 4375TIP3    H213003   0.486   5.393   4.353
 4376TIP3   OH213004   6.013   8.599   5.875
 4376TIP3    H113005   6.027   8.515   5.919
 4376TIP3    H213006   6.097   8.644   5.881
 4377TIP3   OH213007   3.633   8.514   3.905
 4377TIP3    H113008   3.572   8.490   3.975
 4377TIP3    H213009   3.694   8.575   3.946
 4378TIP3   OH213010   9.128   5.252   2.990
 4378TIP3    H113011   9.136   5.218   3.079
 4378TIP3    H213012   9.088   5.180   2.940
 4379TIP3   OH213013   3.076   8.140   3.483
 4379TIP3    H113014   3.141   8.182   3.426
 4379TIP3    H213015   3.073   8.049   3.454
 4380TIP3   OH213016   8.385   1.560   5.482
 4380TIP3    H113017   8.298   1.573   5.520
 4380TIP3    H213018   8.427   1.645   5.488
 4381TIP3   OH213019   7.626   2.898   0.420
 4381TIP3    H113020   7.715   2.900   0.385
 4381TIP3    H213021   7.582   2.970   0.375
 4382TIP3   OH213022   5.748   7.705   6.602
 4382TIP3    H113023   5.829   7.654   6.605
 4382TIP3    H213024   5.727   7.724   6.693
 4383TIP3   OH213025   5.683   2.394   1.546
 4383TIP3    H113026   5.737   2.316   1.531
 4383TIP3    H213027   5.746   2.466   1.546
 4384TIP3   OH213028   0.276   3.524   7.821
 4384TIP3    H113029   0.263   3.509   7.727
 4384TIP3    H213030   0.334   3.600   7.826
 4385TIP3   OH213031   3.113   1.086   3.077
 4385TIP3    H113032   3.122   1.164   3.132
 4385TIP3    H213033   3.030   1.099   3.031
 4386TIP3   OH213034   2.484   7.647   2.514
 4386TIP3    H113035   2.460   7.558   2.538
 4386TIP3    H213036   2.495   7.643   2.419
 4387TIP3   OH213037   3.243   4.203   6.423
 4387TIP3    H113038   3.160   4.250   6.430
 4387TIP3    H213039   3.242   4.165   6.335
 4388TIP3   OH213040   2.207   0.725   6.438
 4388TIP3    H113041   2.243   0.653   6.387
 4388TIP3    H213042   2.173   0.684   6.517
 4389TIP3   OH213043   8.360   2.521   6.755
 4389TIP3    H113044   8.376   2.615   6.748
 4389TIP3    H213045   8.422   2.490   6.821
 4390TIP3   OH213046   5.554   0.307   5.856
 4390TIP3    H113047   5.559   0.310   5.951
 4390TIP3    H213048   5.619   0.241   5.831
 4391TIP3   OH213049   8.488   3.017   7.135
 4391TIP3    H113050   8.395   2.992   7.142
 4391TIP3    H213051   8.535   2.937   7.159
 4392TIP3   OH213052   0.196   5.507   7.430
 4392TIP3    H113053   0.144   5.581   7.398
 4392TIP3    H213054   0.168   5.496   7.521
 4393TIP3   OH213055   1.584   1.682   4.036
 4393TIP3    H113056   1.490   1.694   4.023
 4393TIP3    H213057   1.595   1.587   4.046
 4394TIP3   OH213058   4.921   4.330   1.026
 4394TIP3    H113059   5.015   4.347   1.023
 4394TIP3    H213060   4.904   4.301   1.116
 4395TIP3   OH213061   0.407   3.269   6.827
 4395TIP3    H113062   0.492   3.310   6.810
 4395TIP3    H213063   0.422   3.175   6.814
 4396TIP3   OH213064   6.824   2.981   7.403
 4396TIP3    H113065   6.880   3.010   7.475
 4396TIP3    H213066   6.736   3.007   7.429
 4397TIP3   OH213067   6.676   0.849   4.693
 4397TIP3    H113068   6.691   0.755   4.698
 4397TIP3    H213069   6.641   0.873   4.779
 4398TIP3   OH213070   8.564   0.129   6.219
 4398TIP3    H113071   8.647   0.119   6.265
 4398TIP3    H213072   8.579   0.202   6.158
 4399TIP3   OH213073   4.002   0.901   6.362
 4399TIP3    H113074   3.908   0.901   6.347
 4399TIP3    H213075   4.012   0.888   6.456
 4400TIP3   OH213076   4.297   2.060   3.154
 4400TIP3    H113077   4.376   2.031   3.110
 4400TIP3    H213078   4.309   2.032   3.245
 4401TIP3   OH213079   6.778   2.294   2.377
 4401TIP3    H113080   6.868   2.294   2.344
 4401TIP3    H213081   6.724   2.295   2.298
 4402TIP3   OH213082   4.415   5.405   4.287
 4402TIP3    H113083   4.501   5.402   4.330
 4402TIP3    H213084   4.412   5.491   4.245
 4403TIP3   OH213085   0.517   1.899   2.567
 4403TIP3    H113086   0.427   1.871   2.583
 4403TIP3    H213087   0.520   1.917   2.473
 4404TIP3   OH213088   0.545   9.013   5.751
 4404TIP3    H113089   0.591   9.052   5.676
 4404TIP3    H213090   0.573   9.064   5.826
 4405TIP3   OH213091   3.082   7.121   7.504
 4405TIP3    H113092   3.097   7.073   7.585
 4405TIP3    H213093   3.170   7.140   7.471
 4406TIP3   OH213094   5.669   8.187   1.976
 4406TIP3    H113095   5.722   8.147   2.045
 4406TIP3    H213096   5.653   8.116   1.914
 4407TIP3   OH213097   8.233   2.713   0.576
 4407TIP3    H113098   8.245   2.799   0.535
 4407TIP3    H213099   8.146   2.686   0.549
 4408TIP3   OH213100   8.437   3.380   0.063
 4408TIP3    H113101   8.346   3.351   0.056
 4408TIP3    H213102   8.462   3.360   0.153
 4409TIP3   OH213103   2.951   7.191   6.856
 4409TIP3    H113104   2.890   7.129   6.896
 4409TIP3    H213105   2.963   7.259   6.922
 4410TIP3   OH213106   3.964   1.473   3.287
 4410TIP3    H113107   3.939   1.533   3.217
 4410TIP3    H213108   3.880   1.436   3.317
 4411TIP3   OH213109   2.031   0.704   3.818
 4411TIP3    H113110   2.056   0.645   3.889
 4411TIP3    H213111   2.026   0.791   3.858
 4412TIP3   OH213112   8.543   1.338   1.224
 4412TIP3    H113113   8.475   1.312   1.285
 4412TIP3    H213114   8.528   1.432   1.210
 4413TIP3   OH213115   7.787   6.140   2.775
 4413TIP3    H113116   7.847   6.066   2.786
 4413TIP3    H213117   7.712   6.104   2.729
 4414TIP3   OH213118   6.374   3.865   1.816
 4414TIP3    H113119   6.291   3.881   1.860
 4414TIP3    H213120   6.374   3.770   1.801
 4415TIP3   OH213121   5.677   2.817   0.498
 4415TIP3    H113122   5.587   2.851   0.500
 4415TIP3    H213123   5.718   2.864   0.425
 4416TIP3   OH213124   0.648   3.181   4.550
 4416TIP3    H113125   0.614   3.234   4.623
 4416TIP3    H213126   0.594   3.102   4.551
 4417TIP3   OH213127   2.487   4.240   4.348
 4417TIP3    H113128   2.404   4.203   4.317
 4417TIP3    H213129   2.543   4.163   4.361
 4418TIP3   OH213130   2.885   4.132   6.025
 4418TIP3    H113131   2.946   4.064   6.054
 4418TIP3    H213132   2.807   4.119   6.080
 4419TIP3   OH213133   2.398   2.714   2.885
 4419TIP3    H113134   2.400   2.621   2.863
 4419TIP3    H213135   2.407   2.716   2.980
 4420TIP3   OH213136   0.929   3.734   7.090
 4420TIP3    H113137   0.977   3.763   7.167
 4420TIP3    H213138   0.859   3.799   7.079
 4421TIP3   OH213139   5.708   6.261   2.475
 4421TIP3    H113140   5.702   6.272   2.381
 4421TIP3    H213141   5.675   6.172   2.491
 4422TIP3   OH213142   0.053   3.259   2.645
 4422TIP3    H113143   0.120   3.223   2.587
 4422TIP3    H213144   0.085   3.241   2.733
 4423TIP3   OH213145   7.015   5.288   4.482
 4423TIP3    H113146   7.105   5.314   4.458
 4423TIP3    H213147   7.017   5.283   4.577
 4424TIP3   OH213148   1.378   4.136   7.376
 4424TIP3    H113149   1.286   4.160   7.359
 4424TIP3    H213150   1.394   4.061   7.319
 4425TIP3   OH213151   1.062   4.581   0.184
 4425TIP3    H113152   1.000   4.509   0.167
 4425TIP3    H213153   1.146   4.537   0.198
 4426TIP3   OH213154   4.372   3.317   3.711
 4426TIP3    H113155   4.401   3.276   3.792
 4426TIP3    H213156   4.366   3.410   3.732
 4427TIP3   OH213157   3.618   2.408   1.693
 4427TIP3    H113158   3.705   2.409   1.653
 4427TIP3    H213159   3.601   2.499   1.717
 4428TIP3   OH213160   2.486   5.065   0.435
 4428TIP3    H113161   2.438   5.040   0.356
 4428TIP3    H213162   2.473   5.160   0.441
 4429TIP3   OH213163   1.154   2.763   5.369
 4429TIP3    H113164   1.183   2.852   5.392
 4429TIP3    H213165   1.060   2.772   5.355
 4430TIP3   OH213166   8.514   6.882   2.417
 4430TIP3    H113167   8.476   6.801   2.382
 4430TIP3    H213168   8.447   6.916   2.476
 4431TIP3   OH213169   5.159   6.808   3.205
 4431TIP3    H113170   5.093   6.743   3.180
 4431TIP3    H213171   5.124   6.891   3.172
 4432TIP3   OH213172   7.095   5.080   2.270
 4432TIP3    H113173   7.183   5.098   2.303
 4432TIP3    H213174   7.098   5.110   2.179
 4433TIP3   OH213175   0.132   7.738   6.648
 4433TIP3    H113176   0.039   7.722   6.632
 4433TIP3    H213177   0.156   7.677   6.718
 4434TIP3   OH213178   2.546   1.331   5.173
 4434TIP3    H113179   2.564   1.373   5.257
 4434TIP3    H213180   2.630   1.333   5.126
 4435TIP3   OH213181   7.437   0.733   6.395
 4435TIP3    H113182   7.377   0.764   6.462
 4435TIP3    H213183   7.522   0.771   6.418
 4436TIP3   OH213184   2.487   2.282   3.718
 4436TIP3    H113185   2.508   2.264   3.626
 4436TIP3    H213186   2.484   2.196   3.760
 4437TIP3   OH213187   6.017   5.599   1.062
 4437TIP3    H113188   6.031   5.659   0.988
 4437TIP3    H213189   5.978   5.654   1.130
 4438TIP3   OH213190   0.177   1.000   4.240
 4438TIP3    H113191   0.128   0.960   4.168
 4438TIP3    H213192   0.166   1.094   4.227
 4439TIP3   OH213193   7.900   6.886   4.255
 4439TIP3    H113194   7.892   6.875   4.350
 4439TIP3    H213195   7.964   6.820   4.229
 4440TIP3   OH213196   1.961   8.305   4.143
 4440TIP3    H113197   2.055   8.314   4.128
 4440TIP3    H213198   1.954   8.235   4.208
 4441TIP3   OH213199   7.777   4.498   0.987
 4441TIP3    H113200   7.759   4.405   0.972
 4441TIP3    H213201   7.854   4.516   0.932
 4442TIP3   OH213202   7.010   6.859   1.017
 4442TIP3    H113203   6.974   6.813   0.942
 4442TIP3    H213204   6.947   6.844   1.088
 4443TIP3   OH213205   6.611   6.585   1.060
 4443TIP3    H113206   6.652   6.579   1.146
 4443TIP3    H213207   6.519   6.605   1.078
 4444TIP3   OH213208   1.181   0.929   2.179
 4444TIP3    H113209   1.110   0.958   2.236
 4444TIP3    H213210   1.138   0.903   2.097
 4445TIP3   OH213211   6.296   1.110   5.337
 4445TIP3    H113212   6.281   1.016   5.347
 4445TIP3    H213213   6.298   1.144   5.427
 4446TIP3   OH213214   8.043   0.737   4.566
 4446TIP3    H113215   7.977   0.804   4.547
 4446TIP3    H213216   7.992   0.658   4.584
 4447TIP3   OH213217   8.599   3.937   5.209
 4447TIP3    H113218   8.600   3.932   5.113
 4447TIP3    H213219   8.538   3.868   5.236
 4448TIP3   OH213220   0.671   0.226   4.638
 4448TIP3    H113221   0.692   0.302   4.584
 4448TIP3    H213222   0.645   0.263   4.723
 4449TIP3   OH213223   5.929   0.986   1.093
 4449TIP3    H113224   5.877   1.022   1.021
 4449TIP3    H213225   5.922   1.052   1.162
 4450TIP3   OH213226   1.859   5.565   3.239
 4450TIP3    H113227   1.864   5.631   3.308
 4450TIP3    H213228   1.934   5.582   3.183
 4451TIP3   OH213229   1.061   4.309   5.624
 4451TIP3    H113230   1.119   4.383   5.607
 4451TIP3    H213231   0.980   4.331   5.579
 4452TIP3   OH213232   0.802   2.884   5.566
 4452TIP3    H113233   0.806   2.961   5.510
 4452TIP3    H213234   0.764   2.916   5.648
 4453TIP3   OH213235   8.434   8.758   3.077
 4453TIP3    H113236   8.378   8.786   3.149
 4453TIP3    H213237   8.510   8.719   3.120
 4454TIP3   OH213238   5.145   1.539   4.946
 4454TIP3    H113239   5.219   1.484   4.969
 4454TIP3    H213240   5.180   1.628   4.945
 4455TIP3   OH213241   7.330   0.127   4.805
 4455TIP3    H113242   7.290   0.094   4.886
 4455TIP3    H213243   7.389   0.196   4.834
 4456TIP3   OH213244   8.819   7.086   6.296
 4456TIP3    H113245   8.788   7.000   6.268
 4456TIP3    H213246   8.818   7.139   6.217
 4457TIP3   OH213247   0.727   0.059   2.583
 4457TIP3    H113248   0.680  -0.007   2.633
 4457TIP3    H213249   0.701   0.142   2.622
 4458TIP3   OH213250   8.099   8.335   2.587
 4458TIP3    H113251   8.152   8.412   2.609
 4458TIP3    H213252   8.152   8.286   2.525
 4459TIP3   OH213253   1.632   6.730   5.804
 4459TIP3    H113254   1.550   6.765   5.769
 4459TIP3    H213255   1.700   6.772   5.751
 4460TIP3   OH213256   3.621   4.938   0.862
 4460TIP3    H113257   3.604   4.955   0.770
 4460TIP3    H213258   3.542   4.895   0.894
 4461TIP3   OH213259   8.483   7.299   3.749
 4461TIP3    H113260   8.436   7.234   3.800
 4461TIP3    H213261   8.467   7.273   3.658
 4462TIP3   OH213262   0.459   4.969   1.974
 4462TIP3    H113263   0.462   4.918   1.893
 4462TIP3    H213264   0.372   5.008   1.975
 4463TIP3   OH213265   7.122   8.411   6.017
 4463TIP3    H113266   7.210   8.393   5.983
 4463TIP3    H213267   7.096   8.330   6.061
 4464TIP3   OH213268   1.513   8.085   5.655
 4464TIP3    H113269   1.524   8.175   5.623
 4464TIP3    H213270   1.446   8.092   5.723
 4465TIP3   OH213271   6.713   0.343   6.656
 4465TIP3    H113272   6.791   0.296   6.685
 4465TIP3    H213273   6.645   0.276   6.649
 4466TIP3   OH213274   0.723   3.269   1.643
 4466TIP3    H113275   0.723   3.354   1.599
 4466TIP3    H213276   0.639   3.230   1.622
 4467TIP3   OH213277   3.702   7.513   0.691
 4467TIP3    H113278   3.666   7.496   0.778
 4467TIP3    H213279   3.680   7.605   0.674
 4468TIP3   OH213280   4.163   2.116   6.381
 4468TIP3    H113281   4.089   2.172   6.405
 4468TIP3    H213282   4.139   2.080   6.296
 4469TIP3   OH213283   4.529   6.643   3.037
 4469TIP3    H113284   4.496   6.722   3.080
 4469TIP3    H213285   4.583   6.600   3.103
 4470TIP3   OH213286   1.107   5.237   1.747
 4470TIP3    H113287   1.021   5.196   1.736
 4470TIP3    H213288   1.167   5.177   1.704
 4471TIP3   OH213289   3.319   6.689   3.829
 4471TIP3    H113290   3.412   6.676   3.811
 4471TIP3    H213291   3.273   6.647   3.756
 4472TIP3   OH213292   0.996   5.053   2.512
 4472TIP3    H113293   1.046   4.995   2.454
 4472TIP3    H213294   0.955   5.116   2.453
 4473TIP3   OH213295   9.222   7.164   4.764
 4473TIP3    H113296   9.218   7.204   4.850
 4473TIP3    H213297   9.158   7.092   4.768
 4474TIP3   OH213298   6.233   3.993   7.642
 4474TIP3    H113299   6.198   4.067   7.593
 4474TIP3    H213300   6.326   3.989   7.618
 4475TIP3   OH213301   9.519   7.844   0.681
 4475TIP3    H113302   9.580   7.858   0.753
 4475TIP3    H213303   9.478   7.760   0.702
 4476TIP3   OH213304   2.541   8.257   2.960
 4476TIP3    H113305   2.542   8.307   2.879
 4476TIP3    H213306   2.470   8.296   3.011
 4477TIP3   OH213307   0.108   0.205   6.696
 4477TIP3    H113308   0.122   0.299   6.702
 4477TIP3    H213309   0.152   0.170   6.774
 4478TIP3   OH213310   7.392   8.299   6.948
 4478TIP3    H113311   7.346   8.215   6.954
 4478TIP3    H213312   7.343   8.349   6.882
 4479TIP3   OH213313   3.791   6.987   6.158
 4479TIP3    H113314   3.702   7.016   6.178
 4479TIP3    H213315   3.779   6.919   6.092
 4480TIP3   OH213316   7.556   1.724   1.431
 4480TIP3    H113317   7.551   1.628   1.436
 4480TIP3    H213318   7.649   1.744   1.445
 4481TIP3   OH213319   9.100   8.212   6.133
 4481TIP3    H113320   9.133   8.219   6.043
 4481TIP3    H213321   9.055   8.296   6.148
 4482TIP3   OH213322   4.140   1.248   6.870
 4482TIP3    H113323   4.157   1.294   6.787
 4482TIP3    H213324   4.083   1.307   6.919
 4483TIP3   OH213325   1.073   5.775   7.178
 4483TIP3    H113326   1.086   5.868   7.164
 4483TIP3    H213327   1.160   5.736   7.170
 4484TIP3   OH213328   7.511   4.326   1.961
 4484TIP3    H113329   7.522   4.259   2.029
 4484TIP3    H213330   7.417   4.328   1.944
 4485TIP3   OH213331   6.358   5.733   4.692
 4485TIP3    H113332   6.430   5.751   4.752
 4485TIP3    H213333   6.284   5.780   4.728
 4486TIP3   OH213334   2.473   5.001   5.398
 4486TIP3    H113335   2.382   5.030   5.401
 4486TIP3    H213336   2.471   4.921   5.345
 4487TIP3   OH213337   7.396   7.761   5.976
 4487TIP3    H113338   7.463   7.801   6.032
 4487TIP3    H213339   7.422   7.786   5.887
 4488TIP3   OH213340   6.604   0.338   4.935
 4488TIP3    H113341   6.576   0.253   4.902
 4488TIP3    H213342   6.523   0.386   4.952
 4489TIP3   OH213343   2.991   8.290   6.087
 4489TIP3    H113344   3.086   8.287   6.100
 4489TIP3    H213345   2.980   8.345   6.010
 4490TIP3   OH213346   0.057   2.178   1.568
 4490TIP3    H113347   0.118   2.190   1.495
 4490TIP3    H213348   0.110   2.185   1.647
 4491TIP3   OH213349   1.122   6.206   2.340
 4491TIP3    H113350   1.047   6.164   2.383
 4491TIP3    H213351   1.193   6.142   2.350
 4492TIP3   OH213352   9.110   0.323   7.611
 4492TIP3    H113353   9.061   0.338   7.692
 4492TIP3    H213354   9.142   0.409   7.586
 4493TIP3   OH213355   3.807   5.956   7.817
 4493TIP3    H113356   3.765   5.871   7.829
 4493TIP3    H213357   3.788   5.980   7.726
 4494TIP3   OH213358   6.588   1.606   3.183
 4494TIP3    H113359   6.641   1.679   3.151
 4494TIP3    H213360   6.652   1.536   3.199
 4495TIP3   OH213361   0.322   6.036   1.460
 4495TIP3    H113362   0.234   6.053   1.494
 4495TIP3    H213363   0.349   6.119   1.420
 4496TIP3   OH213364   3.845   3.236   7.236
 4496TIP3    H113365   3.855   3.182   7.158
 4496TIP3    H213366   3.792   3.310   7.208
 4497TIP3   OH213367   3.817   2.799   0.623
 4497TIP3    H113368   3.779   2.801   0.535
 4497TIP3    H213369   3.821   2.891   0.649
 4498TIP3   OH213370   2.152   7.452   0.856
 4498TIP3    H113371   2.081   7.405   0.900
 4498TIP3    H213372   2.148   7.540   0.892
 4499TIP3   OH213373   7.686   6.859   4.989
 4499TIP3    H113374   7.668   6.903   5.072
 4499TIP3    H213375   7.778   6.877   4.971
 4500TIP3   OH213376   3.527   3.015   0.134
 4500TIP3    H113377   3.443   3.008   0.181
 4500TIP3    H213378   3.541   3.109   0.125
 4501TIP3   OH213379   3.125   7.096   5.879
 4501TIP3    H113380   3.213   7.067   5.856
 4501TIP3    H213381   3.108   7.055   5.964
 4502TIP3   OH213382   0.985   0.503   7.119
 4502TIP3    H113383   0.991   0.472   7.210
 4502TIP3    H213384   1.049   0.575   7.114
 4503TIP3   OH213385   2.119   3.725   1.288
 4503TIP3    H113386   2.180   3.744   1.216
 4503TIP3    H213387   2.096   3.633   1.277
 4504TIP3   OH213388   8.176   4.462   1.840
 4504TIP3    H113389   8.125   4.500   1.768
 4504TIP3    H213390   8.224   4.536   1.877
 4505TIP3   OH213391   7.125   5.232   7.621
 4505TIP3    H113392   7.196   5.206   7.562
 4505TIP3    H213393   7.099   5.151   7.664
 4506TIP3   OH213394   4.285   7.164   0.049
 4506TIP3    H113395   4.376   7.137   0.061
 4506TIP3    H213396   4.235   7.082   0.051
 4507TIP3   OH213397   1.855   6.607   7.547
 4507TIP3    H113398   1.865   6.533   7.607
 4507TIP3    H213399   1.845   6.568   7.461
 4508TIP3   OH213400   4.945   5.529   2.602
 4508TIP3    H113401   4.932   5.493   2.514
 4508TIP3    H213402   5.039   5.536   2.613
 4509TIP3   OH213403   0.746   6.683   3.463
 4509TIP3    H113404   0.711   6.735   3.535
 4509TIP3    H213405   0.715   6.727   3.384
 4510TIP3   OH213406   0.248   0.380   4.979
 4510TIP3    H113407   0.336   0.389   5.017
 4510TIP3    H213408   0.252   0.298   4.930
 4511TIP3   OH213409   6.169   6.277   4.108
 4511TIP3    H113410   6.226   6.201   4.096
 4511TIP3    H213411   6.184   6.331   4.030
 4512TIP3   OH213412   0.812   1.066   6.433
 4512TIP3    H113413   0.861   1.140   6.398
 4512TIP3    H213414   0.769   1.100   6.510
 4513TIP3   OH213415   3.376   2.124   4.840
 4513TIP3    H113416   3.379   2.169   4.755
 4513TIP3    H213417   3.404   2.191   4.902
 4514TIP3   OH213418   1.332   6.338   1.505
 4514TIP3    H113419   1.371   6.273   1.564
 4514TIP3    H213420   1.387   6.415   1.513
 4515TIP3   OH213421   5.269   9.012   1.872
 4515TIP3    H113422   5.176   8.988   1.864
 4515TIP3    H213423   5.289   9.058   1.790
 4516TIP3   OH213424   7.330   5.111   5.895
 4516TIP3    H113425   7.364   5.141   5.980
 4516TIP3    H213426   7.275   5.184   5.864
 4517TIP3   OH213427   3.246   5.213   6.533
 4517TIP3    H113428   3.299   5.246   6.606
 4517TIP3    H213429   3.177   5.278   6.522
 4518TIP3   OH213430   1.879   4.644   1.186
 4518TIP3    H113431   1.921   4.559   1.196
 4518TIP3    H213432   1.931   4.689   1.119
 4519TIP3   OH213433   2.239   8.536   0.144
 4519TIP3    H113434   2.225   8.450   0.104
 4519TIP3    H213435   2.288   8.586   0.079
 4520TIP3   OH213436   8.939   2.181   0.938
 4520TIP3    H113437   8.959   2.206   0.847
 4520TIP3    H213438   9.012   2.125   0.964
 4521TIP3   OH213439   2.544   1.280   2.504
 4521TIP3    H113440   2.487   1.238   2.568
 4521TIP3    H213441   2.630   1.240   2.518
 4522TIP3   OH213442   9.050   2.234   5.331
 4522TIP3    H113443   9.137   2.202   5.308
 4522TIP3    H213444   9.050   2.234   5.427
 4523TIP3   OH213445   2.513   1.449   3.920
 4523TIP3    H113446   2.427   1.466   3.882
 4523TIP3    H213447   2.563   1.408   3.850
 4524TIP3   OH213448   2.777   4.927   5.436
 4524TIP3    H113449   2.703   4.890   5.387
 4524TIP3    H213450   2.813   4.853   5.485
 4525TIP3   OH213451   5.552   8.303   7.565
 4525TIP3    H113452   5.502   8.239   7.616
 4525TIP3    H213453   5.627   8.254   7.533
 4526TIP3   OH213454   2.798   4.301   4.159
 4526TIP3    H113455   2.756   4.246   4.092
 4526TIP3    H213456   2.792   4.390   4.124
 4527TIP3   OH213457   5.375   3.796   0.954
 4527TIP3    H113458   5.444   3.809   0.888
 4527TIP3    H213459   5.367   3.880   0.998
 4528TIP3   OH213460   5.220   1.033   6.338
 4528TIP3    H113461   5.155   1.003   6.274
 4528TIP3    H213462   5.208   1.128   6.342
 4529TIP3   OH213463   2.751   7.277   4.665
 4529TIP3    H113464   2.731   7.206   4.605
 4529TIP3    H213465   2.771   7.234   4.748
 4530TIP3   OH213466   3.542   6.483   0.470
 4530TIP3    H113467   3.482   6.409   0.469
 4530TIP3    H213468   3.528   6.525   0.554
 4531TIP3   OH213469   3.665   5.298   2.713
 4531TIP3    H113470   3.713   5.351   2.777
 4531TIP3    H213471   3.578   5.289   2.751
 4532TIP3   OH213472   0.623   8.520   0.264
 4532TIP3    H113473   0.674   8.598   0.242
 4532TIP3    H213474   0.676   8.475   0.329
 4533TIP3   OH213475   3.906   5.073   6.804
 4533TIP3    H113476   3.925   4.983   6.777
 4533TIP3    H213477   3.866   5.114   6.727
 4534TIP3   OH213478   7.311   4.865   1.170
 4534TIP3    H113479   7.346   4.823   1.249
 4534TIP3    H213480   7.278   4.950   1.201
 4535TIP3   OH213481   3.333   5.045   3.435
 4535TIP3    H113482   3.254   5.061   3.383
 4535TIP3    H213483   3.301   5.033   3.524
 4536TIP3   OH213484   3.994   8.662   2.240
 4536TIP3    H113485   3.916   8.640   2.292
 4536TIP3    H213486   3.971   8.744   2.196
 4537TIP3   OH213487   6.075   8.488   6.651
 4537TIP3    H113488   6.166   8.457   6.645
 4537TIP3    H213489   6.070   8.530   6.737
 4538TIP3   OH213490   6.471   0.020   2.834
 4538TIP3    H113491   6.483  -0.075   2.824
 4538TIP3    H213492   6.560   0.054   2.843
 4539TIP3   OH213493   3.733   8.348   2.667
 4539TIP3    H113494   3.647   8.343   2.626
 4539TIP3    H213495   3.783   8.278   2.625
 4540TIP3   OH213496   6.813   7.225   6.707
 4540TIP3    H113497   6.771   7.250   6.625
 4540TIP3    H213498   6.759   7.266   6.775
 4541TIP3   OH213499   7.312   4.064   1.981
 4541TIP3    H113500   7.407   4.050   1.988
 4541TIP3    H213501   7.303   4.129   1.911
 4542TIP3   OH213502   6.783   8.792   5.328
 4542TIP3    H113503   6.849   8.844   5.374
 4542TIP3    H213504   6.789   8.821   5.237
 4543TIP3   OH213505   8.507   7.747   4.518
 4543TIP3    H113506   8.522   7.728   4.425
 4543TIP3    H213507   8.554   7.829   4.534
 4544TIP3   OH213508   8.689   6.362   1.629
 4544TIP3    H113509   8.727   6.287   1.583
 4544TIP3    H213510   8.697   6.340   1.721
 4545TIP3   OH213511   2.472   1.627   1.747
 4545TIP3    H113512   2.505   1.620   1.657
 4545TIP3    H213513   2.386   1.667   1.737
 4546TIP3   OH213514   8.257   2.373   2.425
 4546TIP3    H113515   8.214   2.421   2.354
 4546TIP3    H213516   8.203   2.295   2.437
 4547TIP3   OH213517   5.050   7.580   1.787
 4547TIP3    H113518   5.143   7.561   1.788
 4547TIP3    H213519   5.043   7.671   1.815
 4548TIP3   OH213520   1.282   2.240   7.195
 4548TIP3    H113521   1.209   2.258   7.253
 4548TIP3    H213522   1.294   2.320   7.144
 4549TIP3   OH213523   4.596   1.231   4.298
 4549TIP3    H113524   4.660   1.262   4.235
 4549TIP3    H213525   4.514   1.226   4.249
 4550TIP3   OH213526   4.924   1.230   5.451
 4550TIP3    H113527   4.865   1.231   5.527
 4550TIP3    H213528   4.873   1.187   5.382
 4551TIP3   OH213529   9.374   0.598   3.627
 4551TIP3    H113530   9.307   0.544   3.669
 4551TIP3    H213531   9.370   0.682   3.674
 4552TIP3   OH213532   2.532   8.956   2.949
 4552TIP3    H113533   2.624   8.929   2.952
 4552TIP3    H213534   2.510   8.977   3.039
 4553TIP3   OH213535   7.885   3.452   3.343
 4553TIP3    H113536   7.964   3.400   3.327
 4553TIP3    H213537   7.914   3.543   3.339
 4554TIP3   OH213538   3.711   5.386   7.019
 4554TIP3    H113539   3.778   5.320   7.037
 4554TIP3    H213540   3.715   5.399   6.924
 4555TIP3   OH213541   4.117   6.593   2.495
 4555TIP3    H113542   4.077   6.510   2.521
 4555TIP3    H213543   4.044   6.645   2.461
 4556TIP3   OH213544   3.208   7.459   7.425
 4556TIP3    H113545   3.236   7.368   7.434
 4556TIP3    H213546   3.274   7.510   7.472
 4557TIP3   OH213547   1.278   8.021   6.613
 4557TIP3    H113548   1.253   8.077   6.686
 4557TIP3    H213549   1.373   8.024   6.611
 4558TIP3   OH213550   2.957   3.435   2.226
 4558TIP3    H113551   3.003   3.396   2.151
 4558TIP3    H213552   2.948   3.363   2.288
 4559TIP3   OH213553   4.906   7.824   6.761
 4559TIP3    H113554   4.861   7.742   6.781
 4559TIP3    H213555   4.956   7.805   6.681
 4560TIP3   OH213556   2.317   2.810   7.046
 4560TIP3    H113557   2.347   2.860   6.970
 4560TIP3    H213558   2.223   2.799   7.031
 4561TIP3   OH213559   7.841   0.777   1.334
 4561TIP3    H113560   7.770   0.727   1.375
 4561TIP3    H213561   7.843   0.747   1.243
 4562TIP3   OH213562   8.228   3.252   4.397
 4562TIP3    H113563   8.323   3.245   4.391
 4562TIP3    H213564   8.212   3.300   4.478
 4563TIP3   OH213565   3.704   2.575   6.569
 4563TIP3    H113566   3.691   2.485   6.542
 4563TIP3    H213567   3.639   2.625   6.520
 4564TIP3   OH213568   3.514   2.057   7.022
 4564TIP3    H113569   3.517   2.043   6.928
 4564TIP3    H213570   3.564   2.137   7.037
 4565TIP3   OH213571   7.963   3.445   5.352
 4565TIP3    H113572   7.876   3.424   5.385
 4565TIP3    H213573   8.017   3.455   5.431
 4566TIP3   OH213574   7.143   6.789   3.417
 4566TIP3    H113575   7.168   6.743   3.337
 4566TIP3    H213576   7.051   6.767   3.430
 4567TIP3   OH213577   9.015   7.190   7.706
 4567TIP3    H113578   9.083   7.255   7.724
 4567TIP3    H213579   8.998   7.148   7.790
 4568TIP3   OH213580   1.735   0.949   5.067
 4568TIP3    H113581   1.749   0.957   5.162
 4568TIP3    H213582   1.656   1.001   5.051
 4569TIP3   OH213583   3.057   5.250   2.534
 4569TIP3    H113584   2.962   5.235   2.536
 4569TIP3    H213585   3.087   5.223   2.620
 4570TIP3   OH213586   0.074   0.407   0.007
 4570TIP3    H113587   0.010   0.407   0.078
 4570TIP3    H213588   0.117   0.321   0.013
 4571TIP3   OH213589   0.859   8.359   6.608
 4571TIP3    H113590   0.938   8.331   6.562
 4571TIP3    H213591   0.832   8.281   6.658
 4572TIP3   OH213592   3.334   7.931   5.172
 4572TIP3    H113593   3.299   7.847   5.202
 4572TIP3    H213594   3.412   7.946   5.225
 4573TIP3   OH213595   0.608   3.525   0.818
 4573TIP3    H113596   0.641   3.559   0.901
 4573TIP3    H213597   0.687   3.514   0.764
 4574TIP3   OH213598   7.453   1.459   5.072
 4574TIP3    H113599   7.371   1.410   5.075
 4574TIP3    H213600   7.512   1.406   5.019
 4575TIP3   OH213601   2.316   8.729   3.131
 4575TIP3    H113602   2.287   8.681   3.208
 4575TIP3    H213603   2.305   8.668   3.059
 4576TIP3   OH213604   6.521   6.030   4.588
 4576TIP3    H113605   6.432   6.038   4.624
 4576TIP3    H213606   6.572   5.989   4.658
 4577TIP3   OH213607   5.405   1.476   6.074
 4577TIP3    H113608   5.354   1.552   6.046
 4577TIP3    H213609   5.496   1.507   6.077
 4578TIP3   OH213610   9.290   0.534   4.778
 4578TIP3    H113611   9.241   0.454   4.795
 4578TIP3    H213612   9.280   0.549   4.684
 4579TIP3   OH213613   4.048   8.724   4.443
 4579TIP3    H113614   4.105   8.717   4.367
 4579TIP3    H213615   4.085   8.795   4.495
 4580TIP3   OH213616   1.181   3.607   4.987
 4580TIP3    H113617   1.137   3.563   4.914
 4580TIP3    H213618   1.188   3.698   4.959
 4581TIP3   OH213619   5.060   7.059   3.150
 4581TIP3    H113620   5.036   7.125   3.086
 4581TIP3    H213621   5.048   7.101   3.235
 4582TIP3   OH213622   3.453   5.340   1.166
 4582TIP3    H113623   3.358   5.340   1.154
 4582TIP3    H213624   3.468   5.273   1.234
 4583TIP3   OH213625   7.338   3.774   2.487
 4583TIP3    H113626   7.257   3.810   2.451
 4583TIP3    H213627   7.324   3.773   2.582
 4584TIP3   OH213628   8.682   4.579   6.408
 4584TIP3    H113629   8.736   4.516   6.360
 4584TIP3    H213630   8.728   4.663   6.398
 4585TIP3   OH213631   5.198   3.942   6.279
 4585TIP3    H113632   5.111   3.906   6.298
 4585TIP3    H213633   5.217   3.912   6.191
 4586TIP3   OH213634   0.723   4.178   0.217
 4586TIP3    H113635   0.637   4.177   0.259
 4586TIP3    H213636   0.771   4.107   0.260
 4587TIP3   OH213637   0.791   4.078   7.559
 4587TIP3    H113638   0.799   4.097   7.465
 4587TIP3    H213639   0.858   4.134   7.599
 4588TIP3   OH213640   0.163   8.489   5.910
 4588TIP3    H113641   0.108   8.503   5.833
 4588TIP3    H213642   0.161   8.573   5.956
 4589TIP3   OH213643   6.789   8.817   7.608
 4589TIP3    H113644   6.747   8.806   7.693
 4589TIP3    H213645   6.737   8.765   7.548
 4590TIP3   OH213646   9.129   3.063   2.052
 4590TIP3    H113647   9.036   3.067   2.031
 4590TIP3    H213648   9.136   3.109   2.136
 4591TIP3   OH213649   4.406   8.478   2.046
 4591TIP3    H113650   4.481   8.441   2.093
 4591TIP3    H213651   4.332   8.423   2.072
 4592TIP3   OH213652   6.884   3.995   5.335
 4592TIP3    H113653   6.789   4.004   5.343
 4592TIP3    H213654   6.919   4.063   5.392
 4593TIP3   OH213655   0.497   2.403   2.586
 4593TIP3    H113656   0.569   2.430   2.643
 4593TIP3    H213657   0.464   2.323   2.626
 4594TIP3   OH213658   2.149   3.770   3.687
 4594TIP3    H113659   2.211   3.733   3.750
 4594TIP3    H213660   2.069   3.784   3.738
 4595TIP3   OH213661   1.034   3.405   5.419
 4595TIP3    H113662   0.993   3.470   5.477
 4595TIP3    H213663   1.125   3.400   5.449
 4596TIP3   OH213664   2.234   2.222   6.994
 4596TIP3    H113665   2.289   2.258   6.925
 4596TIP3    H213666   2.281   2.143   7.023
 4597TIP3   OH213667   0.687   7.491   7.478
 4597TIP3    H113668   0.643   7.568   7.512
 4597TIP3    H213669   0.653   7.418   7.531
 4598TIP3   OH213670   0.758   6.340   1.841
 4598TIP3    H113671   0.672   6.378   1.826
 4598TIP3    H213672   0.793   6.325   1.753
 4599TIP3   OH213673   2.773   4.899   1.439
 4599TIP3    H113674   2.784   4.860   1.525
 4599TIP3    H213675   2.805   4.833   1.378
 4600TIP3   OH213676   2.521   0.619   2.457
 4600TIP3    H113677   2.504   0.595   2.548
 4600TIP3    H213678   2.439   0.601   2.412
 4601TIP3   OH213679   6.753   2.372   2.903
 4601TIP3    H113680   6.793   2.308   2.962
 4601TIP3    H213681   6.696   2.424   2.959
 4602TIP3   OH213682   7.954   3.058   6.423
 4602TIP3    H113683   8.004   3.054   6.342
 4602TIP3    H213684   7.928   2.968   6.440
 4603TIP3   OH213685   8.114   6.561   4.765
 4603TIP3    H113686   8.185   6.623   4.745
 4603TIP3    H213687   8.038   6.598   4.721
 4604TIP3   OH213688   6.634   8.125   4.333
 4604TIP3    H113689   6.593   8.146   4.417
 4604TIP3    H213690   6.597   8.189   4.272
 4605TIP3   OH213691   4.140   4.251   2.657
 4605TIP3    H113692   4.197   4.216   2.588
 4605TIP3    H213693   4.181   4.334   2.682
 4606TIP3   OH213694   4.585   4.377   3.032
 4606TIP3    H113695   4.506   4.324   3.023
 4606TIP3    H213696   4.653   4.315   3.058
 4607TIP3   OH213697   6.147   6.832   0.115
 4607TIP3    H113698   6.108   6.835   0.202
 4607TIP3    H213699   6.134   6.920   0.080
 4608TIP3   OH213700   8.962   5.839   5.606
 4608TIP3    H113701   8.994   5.795   5.528
 4608TIP3    H213702   8.983   5.780   5.678
 4609TIP3   OH213703   7.857   5.911   3.118
 4609TIP3    H113704   7.868   5.955   3.034
 4609TIP3    H213705   7.762   5.910   3.133
 4610TIP3   OH213706   9.533   6.606   6.948
 4610TIP3    H113707   9.533   6.596   6.853
 4610TIP3    H213708   9.601   6.546   6.979
 4611TIP3   OH213709   0.765   7.257   0.101
 4611TIP3    H113710   0.795   7.190   0.039
 4611TIP3    H213711   0.760   7.211   0.185
 4612TIP3   OH213712   4.240   0.076   0.603
 4612TIP3    H113713   4.221   0.063   0.696
 4612TIP3    H213714   4.261  -0.011   0.570
 4613TIP3   OH213715   5.198   8.556   4.560
 4613TIP3    H113716   5.140   8.481   4.544
 4613TIP3    H213717   5.139   8.628   4.580
 4614TIP3   OH213718   0.518   2.552   1.719
 4614TIP3    H113719   0.444   2.612   1.722
 4614TIP3    H213720   0.574   2.585   1.649
 4615TIP3   OH213721   4.911   8.589   7.314
 4615TIP3    H113722   4.846   8.621   7.377
 4615TIP3    H213723   4.874   8.608   7.228
 4616TIP3   OH213724   7.162   2.215   5.764
 4616TIP3    H113725   7.249   2.238   5.796
 4616TIP3    H213726   7.102   2.264   5.820
 4617TIP3   OH213727   1.527   3.615   4.493
 4617TIP3    H113728   1.613   3.639   4.526
 4617TIP3    H213729   1.502   3.686   4.435
 4618TIP3   OH213730   9.021   4.009   7.205
 4618TIP3    H113731   9.020   4.011   7.110
 4618TIP3    H213732   8.931   4.028   7.230
 4619TIP3   OH213733   1.787   6.011   1.058
 4619TIP3    H113734   1.757   6.092   1.098
 4619TIP3    H213735   1.767   5.943   1.122
 4620TIP3   OH213736   8.418   4.140   1.186
 4620TIP3    H113737   8.463   4.056   1.186
 4620TIP3    H213738   8.399   4.157   1.278
 4621TIP3   OH213739   5.135   2.018   3.427
 4621TIP3    H113740   5.102   2.104   3.401
 4621TIP3    H213741   5.138   2.022   3.522
 4622TIP3   OH213742   8.893   3.453   1.212
 4622TIP3    H113743   8.818   3.439   1.270
 4622TIP3    H213744   8.948   3.375   1.225
 4623TIP3   OH213745   7.474   0.782   7.375
 4623TIP3    H113746   7.469   0.750   7.285
 4623TIP3    H213747   7.411   0.728   7.423
 4624TIP3   OH213748   5.543   5.671   3.704
 4624TIP3    H113749   5.554   5.638   3.794
 4624TIP3    H213750   5.623   5.644   3.659
 4625TIP3   OH213751   2.785   1.692   4.001
 4625TIP3    H113752   2.831   1.748   4.063
 4625TIP3    H213753   2.745   1.624   4.055
 4626TIP3   OH213754   6.823   8.678   0.714
 4626TIP3    H113755   6.837   8.699   0.621
 4626TIP3    H213756   6.854   8.756   0.760
 4627TIP3   OH213757   5.741   1.449   1.697
 4627TIP3    H113758   5.774   1.530   1.736
 4627TIP3    H213759   5.733   1.389   1.771
 4628TIP3   OH213760   7.302   0.281   4.179
 4628TIP3    H113761   7.297   0.186   4.186
 4628TIP3    H213762   7.379   0.305   4.231
 4629TIP3   OH213763   0.616   5.419   0.322
 4629TIP3    H113764   0.621   5.417   0.417
 4629TIP3    H213765   0.647   5.332   0.295
 4630TIP3   OH213766   4.243   5.657   7.416
 4630TIP3    H113767   4.208   5.587   7.471
 4630TIP3    H213768   4.336   5.636   7.407
 4631TIP3   OH213769   9.092   3.556   4.526
 4631TIP3    H113770   9.022   3.607   4.485
 4631TIP3    H213771   9.093   3.474   4.476
 4632TIP3   OH213772   4.184   3.393   2.150
 4632TIP3    H113773   4.090   3.401   2.166
 4632TIP3    H213774   4.224   3.425   2.231
 4633TIP3   OH213775   7.867   2.345   0.704
 4633TIP3    H113776   7.807   2.416   0.726
 4633TIP3    H213777   7.951   2.373   0.741
 4634TIP3   OH213778   1.724   7.748   7.033
 4634TIP3    H113779   1.818   7.751   7.018
 4634TIP3    H213780   1.700   7.656   7.022
 4635TIP3   OH213781   8.928   8.044   3.989
 4635TIP3    H113782   8.859   7.983   3.963
 4635TIP3    H213783   8.990   8.044   3.916
 4636TIP3   OH213784   5.410   1.924   2.686
 4636TIP3    H113785   5.498   1.955   2.663
 4636TIP3    H213786   5.423   1.832   2.710
 4637TIP3   OH213787   9.130   3.611   3.113
 4637TIP3    H113788   9.173   3.631   3.196
 4637TIP3    H213789   9.089   3.526   3.127
 4638TIP3   OH213790   1.271   2.070   4.195
 4638TIP3    H113791   1.249   1.977   4.181
 4638TIP3    H213792   1.306   2.073   4.283
 4639TIP3   OH213793   6.110   7.733   1.082
 4639TIP3    H113794   6.178   7.731   1.015
 4639TIP3    H213795   6.124   7.653   1.133
 4640TIP3   OH213796   0.172   0.299   0.388
 4640TIP3    H113797   0.234   0.253   0.332
 4640TIP3    H213798   0.086   0.267   0.360
 4641TIP3   OH213799   5.742   3.394   6.403
 4641TIP3    H113800   5.816   3.449   6.375
 4641TIP3    H213801   5.687   3.386   6.326
 4642TIP3   OH213802   6.586   3.056   3.628
 4642TIP3    H113803   6.508   3.016   3.666
 4642TIP3    H213804   6.614   3.121   3.693
 4643TIP3   OH213805   7.355   5.579   5.958
 4643TIP3    H113806   7.426   5.536   5.911
 4643TIP3    H213807   7.323   5.645   5.896
 4644TIP3   OH213808   9.183   8.419   5.659
 4644TIP3    H113809   9.181   8.432   5.564
 4644TIP3    H213810   9.131   8.491   5.694
 4645TIP3   OH213811   2.511   8.793   7.250
 4645TIP3    H113812   2.546   8.740   7.322
 4645TIP3    H213813   2.460   8.862   7.293
 4646TIP3   OH213814   5.517   7.193   6.528
 4646TIP3    H113815   5.602   7.150   6.515
 4646TIP3    H213816   5.537   7.273   6.576
 4647TIP3   OH213817   3.154   2.416   1.536
 4647TIP3    H113818   3.176   2.349   1.472
 4647TIP3    H213819   3.214   2.488   1.518
 4648TIP3   OH213820   4.579   0.351   1.924
 4648TIP3    H113821   4.646   0.329   1.990
 4648TIP3    H213822   4.570   0.446   1.930
 4649TIP3   OH213823   0.950   6.715   5.824
 4649TIP3    H113824   0.868   6.744   5.783
 4649TIP3    H213825   0.947   6.620   5.818
 4650TIP3   OH213826   0.375   0.984   3.070
 4650TIP3    H113827   0.410   1.021   2.988
 4650TIP3    H213828   0.394   1.051   3.136
 4651TIP3   OH213829   4.907   5.945   3.131
 4651TIP3    H113830   4.957   5.958   3.212
 4651TIP3    H213831   4.822   5.985   3.149
 4652TIP3   OH213832   6.615   8.087   1.741
 4652TIP3    H113833   6.677   8.055   1.807
 4652TIP3    H213834   6.592   8.174   1.771
 4653TIP3   OH213835   4.090   4.870   2.178
 4653TIP3    H113836   3.999   4.840   2.179
 4653TIP3    H213837   4.099   4.914   2.093
 4654TIP3   OH213838   0.725   7.584   3.489
 4654TIP3    H113839   0.650   7.564   3.433
 4654TIP3    H213840   0.692   7.578   3.578
 4655TIP3   OH213841   8.258   0.299   7.634
 4655TIP3    H113842   8.289   0.363   7.698
 4655TIP3    H213843   8.326   0.231   7.635
 4656TIP3   OH213844   5.252   6.399   2.706
 4656TIP3    H113845   5.282   6.375   2.618
 4656TIP3    H213846   5.217   6.487   2.697
 4657TIP3   OH213847   7.350   5.682   3.874
 4657TIP3    H113848   7.422   5.685   3.810
 4657TIP3    H213849   7.353   5.592   3.908
 4658TIP3   OH213850   3.167   1.717   2.068
 4658TIP3    H113851   3.211   1.735   1.985
 4658TIP3    H213852   3.142   1.804   2.101
 4659TIP3   OH213853   8.463   1.896   0.327
 4659TIP3    H113854   8.373   1.925   0.338
 4659TIP3    H213855   8.506   1.968   0.281
 4660TIP3   OH213856   4.743   9.001   0.320
 4660TIP3    H113857   4.746   8.921   0.267
 4660TIP3    H213858   4.711   8.971   0.405
 4661TIP3   OH213859   7.242   7.683   7.505
 4661TIP3    H113860   7.268   7.728   7.585
 4661TIP3    H213861   7.224   7.753   7.442
 4662TIP3   OH213862   4.480   4.549   0.246
 4662TIP3    H113863   4.474   4.520   0.337
 4662TIP3    H213864   4.416   4.495   0.199
 4663TIP3   OH213865   4.676   6.948   2.634
 4663TIP3    H113866   4.727   6.919   2.710
 4663TIP3    H213867   4.681   7.044   2.636
 4664TIP3   OH213868   4.189   1.852   5.771
 4664TIP3    H113869   4.147   1.791   5.711
 4664TIP3    H213870   4.215   1.799   5.846
 4665TIP3   OH213871   5.473   0.683   4.155
 4665TIP3    H113872   5.471   0.647   4.244
 4665TIP3    H213873   5.518   0.767   4.164
 4666TIP3   OH213874   4.940   3.001   1.429
 4666TIP3    H113875   4.861   3.021   1.379
 4666TIP3    H213876   4.966   2.915   1.398
 4667TIP3   OH213877   9.045   8.248   5.841
 4667TIP3    H113878   9.051   8.248   5.745
 4667TIP3    H213879   8.999   8.328   5.862
 4668TIP3   OH213880   2.014   7.037   7.017
 4668TIP3    H113881   1.931   7.016   7.060
 4668TIP3    H213882   2.046   7.115   7.063
 4669TIP3   OH213883   5.190   0.581   6.456
 4669TIP3    H113884   5.261   0.594   6.394
 4669TIP3    H213885   5.227   0.526   6.525
 4670TIP3   OH213886   5.293   4.748   6.488
 4670TIP3    H113887   5.361   4.786   6.543
 4670TIP3    H213888   5.279   4.813   6.419
 4671TIP3   OH213889   7.470   1.513   4.252
 4671TIP3    H113890   7.435   1.602   4.254
 4671TIP3    H213891   7.451   1.477   4.339
 4672TIP3   OH213892   5.465   7.955   3.723
 4672TIP3    H113893   5.426   7.915   3.801
 4672TIP3    H213894   5.391   7.995   3.677
 4673TIP3   OH213895   5.368   6.517   2.331
 4673TIP3    H113896   5.385   6.434   2.376
 4673TIP3    H213897   5.281   6.543   2.362
 4674TIP3   OH213898   0.250   8.869   7.441
 4674TIP3    H113899   0.298   8.882   7.523
 4674TIP3    H213900   0.181   8.807   7.464
 4675TIP3   OH213901   9.347   4.886   2.678
 4675TIP3    H113902   9.313   4.806   2.717
 4675TIP3    H213903   9.337   4.953   2.746
 4676TIP3   OH213904   8.983   2.410   1.751
 4676TIP3    H113905   9.017   2.328   1.716
 4676TIP3    H213906   9.058   2.449   1.796
 4677TIP3   OH213907   4.584   8.445   6.081
 4677TIP3    H113908   4.564   8.522   6.026
 4677TIP3    H213909   4.528   8.376   6.046
 4678TIP3   OH213910   5.890   5.138   5.205
 4678TIP3    H113911   5.854   5.222   5.234
 4678TIP3    H213912   5.845   5.073   5.258
 4679TIP3   OH213913   2.329   6.503   5.031
 4679TIP3    H113914   2.254   6.454   4.999
 4679TIP3    H213915   2.399   6.438   5.037
 4680TIP3   OH213916   4.859   0.468   7.317
 4680TIP3    H113917   4.835   0.527   7.246
 4680TIP3    H213918   4.902   0.523   7.382
 4681TIP3   OH213919   1.703   6.220   6.065
 4681TIP3    H113920   1.695   6.129   6.040
 4681TIP3    H213921   1.625   6.263   6.029
 4682TIP3   OH213922   7.379   7.093   5.915
 4682TIP3    H113923   7.461   7.047   5.932
 4682TIP3    H213924   7.405   7.184   5.902
 4683TIP3   OH213925   6.022   3.357   7.672
 4683TIP3    H113926   6.011   3.412   7.595
 4683TIP3    H213927   6.036   3.418   7.744
 4684TIP3   OH213928   6.864   8.464   0.884
 4684TIP3    H113929   6.934   8.483   0.947
 4684TIP3    H213930   6.858   8.543   0.830
 4685TIP3   OH213931   0.714   4.585   4.070
 4685TIP3    H113932   0.661   4.563   3.993
 4685TIP3    H213933   0.663   4.651   4.116
 4686TIP3   OH213934   5.849   5.266   0.357
 4686TIP3    H113935   5.919   5.303   0.304
 4686TIP3    H213936   5.772   5.320   0.337
 4687TIP3   OH213937   4.794   4.218   5.696
 4687TIP3    H113938   4.810   4.309   5.674
 4687TIP3    H213939   4.700   4.206   5.685
 4688TIP3   OH213940   1.257   5.907   3.311
 4688TIP3    H113941   1.188   5.854   3.351
 4688TIP3    H213942   1.209   5.970   3.257
 4689TIP3   OH213943   5.715   4.418   0.326
 4689TIP3    H113944   5.722   4.499   0.276
 4689TIP3    H213945   5.632   4.424   0.372
 4690TIP3   OH213946   5.749   6.242   0.493
 4690TIP3    H113947   5.806   6.302   0.445
 4690TIP3    H213948   5.687   6.211   0.427
 4691TIP3   OH213949   8.601   4.590   7.028
 4691TIP3    H113950   8.695   4.586   7.008
 4691TIP3    H213951   8.590   4.671   7.077
 4692TIP3   OH213952   8.025   1.118   3.333
 4692TIP3    H113953   8.047   1.036   3.288
 4692TIP3    H213954   8.032   1.185   3.265
 4693TIP3   OH213955   4.462   7.478   5.772
 4693TIP3    H113956   4.538   7.461   5.716
 4693TIP3    H213957   4.490   7.449   5.859
 4694TIP3   OH213958   4.159   7.095   2.238
 4694TIP3    H113959   4.159   7.081   2.143
 4694TIP3    H213960   4.104   7.171   2.251
 4695TIP3   OH213961   7.076   8.181   6.166
 4695TIP3    H113962   7.099   8.122   6.238
 4695TIP3    H213963   7.006   8.236   6.202
 4696TIP3   OH213964   8.404   0.530   6.134
 4696TIP3    H113965   8.394   0.473   6.210
 4696TIP3    H213966   8.496   0.555   6.135
 4697TIP3   OH213967   4.931   5.980   5.798
 4697TIP3    H113968   4.876   5.903   5.789
 4697TIP3    H213969   5.019   5.945   5.811
 4698TIP3   OH213970   8.521   1.765   5.291
 4698TIP3    H113971   8.558   1.774   5.204
 4698TIP3    H213972   8.426   1.766   5.277
 4699TIP3   OH213973   6.282   3.068   7.148
 4699TIP3    H113974   6.377   3.069   7.141
 4699TIP3    H213975   6.251   3.058   7.058
 4700TIP3   OH213976   6.191   5.875   3.563
 4700TIP3    H113977   6.259   5.821   3.604
 4700TIP3    H213978   6.235   5.916   3.488
 4701TIP3   OH213979   5.669   4.317   3.305
 4701TIP3    H113980   5.609   4.388   3.280
 4701TIP3    H213981   5.641   4.293   3.393
 4702TIP3   OH213982   4.975   6.637   2.055
 4702TIP3    H113983   4.933   6.643   2.141
 4702TIP3    H213984   4.928   6.701   2.001
 4703TIP3   OH213985   0.792   6.667   2.008
 4703TIP3    H113986   0.724   6.720   1.966
 4703TIP3    H213987   0.863   6.664   1.944
 4704TIP3   OH213988   6.029   5.386   0.204
 4704TIP3    H113989   6.003   5.474   0.230
 4704TIP3    H213990   6.124   5.390   0.197
 4705TIP3   OH213991   4.770   1.724   0.092
 4705TIP3    H113992   4.720   1.643   0.089
 4705TIP3    H213993   4.797   1.733   0.183
 4706TIP3   OH213994   4.771   3.256   7.380
 4706TIP3    H113995   4.733   3.168   7.380
 4706TIP3    H213996   4.760   3.287   7.290
 4707TIP3   OH213997   0.358   8.291   2.738
 4707TIP3    H113998   0.312   8.367   2.702
 4707TIP3    H213999   0.369   8.232   2.663
 4708TIP3   OH214000   7.074   4.459   0.876
 4708TIP3    H114001   7.000   4.399   0.864
 4708TIP3    H214002   7.142   4.424   0.819
 4709TIP3   OH214003   2.227   7.066   1.794
 4709TIP3    H114004   2.154   7.010   1.819
 4709TIP3    H214005   2.201   7.154   1.821
 4710TIP3   OH214006   0.989   3.960   3.938
 4710TIP3    H114007   1.081   3.956   3.962
 4710TIP3    H214008   0.956   3.872   3.954
 4711TIP3   OH214009   7.357   0.920   2.863
 4711TIP3    H114010   7.440   0.960   2.837
 4711TIP3    H214011   7.381   0.833   2.896
 4712TIP3   OH214012   0.919   8.678   4.340
 4712TIP3    H114013   0.862   8.616   4.384
 4712TIP3    H214014   0.978   8.624   4.287
 4713TIP3   OH214015   0.187   3.938   3.616
 4713TIP3    H114016   0.269   3.905   3.581
 4713TIP3    H214017   0.158   4.003   3.552
 4714TIP3   OH214018   3.039   4.728   0.716
 4714TIP3    H114019   3.110   4.686   0.668
 4714TIP3    H214020   3.028   4.813   0.673
 4715TIP3   OH214021   3.886   4.916   5.352
 4715TIP3    H114022   3.858   4.825   5.360
 4715TIP3    H214023   3.808   4.962   5.323
 4716TIP3   OH214024   4.763   5.031   7.145
 4716TIP3    H114025   4.844   5.068   7.181
 4716TIP3    H214026   4.790   4.948   7.105
 4717TIP3   OH214027   7.454   8.678   0.441
 4717TIP3    H114028   7.385   8.691   0.376
 4717TIP3    H214029   7.470   8.584   0.441
 4718TIP3   OH214030   2.721   2.917   3.043
 4718TIP3    H114031   2.785   2.946   3.109
 4718TIP3    H214032   2.659   2.863   3.091
 4719TIP3   OH214033   5.765   8.396   1.322
 4719TIP3    H114034   5.767   8.472   1.264
 4719TIP3    H214035   5.709   8.422   1.395
 4720TIP3   OH214036   2.632   8.089   5.959
 4720TIP3    H114037   2.711   8.051   5.997
 4720TIP3    H214038   2.621   8.172   6.006
 4721TIP3   OH214039   3.694   2.121   3.144
 4721TIP3    H114040   3.627   2.132   3.212
 4721TIP3    H214041   3.714   2.211   3.117
 4722TIP3   OH214042   8.507   2.059   4.937
 4722TIP3    H114043   8.416   2.078   4.957
 4722TIP3    H214044   8.506   1.974   4.893
 4723TIP3   OH214045   0.602   5.191   7.611
 4723TIP3    H114046   0.680   5.154   7.568
 4723TIP3    H214047   0.578   5.266   7.556
 4724TIP3   OH214048   1.815   3.884   3.267
 4724TIP3    H114049   1.858   3.855   3.348
 4724TIP3    H214050   1.753   3.951   3.296
 4725TIP3   OH214051   5.583   7.421   5.617
 4725TIP3    H114052   5.580   7.328   5.598
 4725TIP3    H214053   5.596   7.426   5.711
 4726TIP3   OH214054   4.288   3.892   3.562
 4726TIP3    H114055   4.233   3.962   3.526
 4726TIP3    H214056   4.253   3.876   3.650
 4727TIP3   OH214057   7.464   5.961   2.330
 4727TIP3    H114058   7.558   5.947   2.321
 4727TIP3    H214059   7.429   5.875   2.354
 4728TIP3   OH214060   1.240   6.064   5.923
 4728TIP3    H114061   1.296   6.005   5.974
 4728TIP3    H214062   1.299   6.134   5.895
 4729TIP3   OH214063   0.087   4.463   6.811
 4729TIP3    H114064   0.056   4.472   6.721
 4729TIP3    H214065   0.099   4.553   6.841
 4730TIP3   OH214066   8.649   2.493   7.395
 4730TIP3    H114067   8.624   2.498   7.303
 4730TIP3    H214068   8.632   2.403   7.420
 4731TIP3   OH214069   8.787   7.864   7.595
 4731TIP3    H114070   8.823   7.829   7.676
 4731TIP3    H214071   8.789   7.959   7.608
 4732TIP3   OH214072   9.463   5.425   4.997
 4732TIP3    H114073   9.411   5.504   5.011
 4732TIP3    H214074   9.549   5.457   4.971
 4733TIP3   OH214075   0.543   1.535   1.243
 4733TIP3    H114076   0.567   1.505   1.155
 4733TIP3    H214077   0.586   1.620   1.252
 4734TIP3   OH214078   2.054   8.268   2.604
 4734TIP3    H114079   1.959   8.267   2.614
 4734TIP3    H214080   2.078   8.177   2.588
 4735TIP3   OH214081   6.466   0.447   3.562
 4735TIP3    H114082   6.441   0.453   3.654
 4735TIP3    H214083   6.544   0.503   3.554
 4736TIP3   OH214084   5.452   8.763   0.480
 4736TIP3    H114085   5.536   8.723   0.457
 4736TIP3    H214086   5.450   8.762   0.575
 4737TIP3   OH214087   4.539   5.615   2.606
 4737TIP3    H114088   4.502   5.621   2.694
 4737TIP3    H214089   4.622   5.570   2.619
 4738TIP3   OH214090   6.047   7.616   5.766
 4738TIP3    H114091   6.123   7.597   5.711
 4738TIP3    H214092   6.060   7.706   5.795
 4739TIP3   OH214093   0.056   7.949   2.383
 4739TIP3    H114094  -0.007   7.974   2.450
 4739TIP3    H214095   0.054   7.853   2.382
 4740TIP3   OH214096   7.331   7.820   7.739
 4740TIP3    H114097   7.417   7.861   7.729
 4740TIP3    H214098   7.345   7.749   7.801
 4741TIP3   OH214099   5.101   6.569   2.432
 4741TIP3    H114100   5.086   6.620   2.512
 4741TIP3    H214101   5.033   6.598   2.371
 4742TIP3   OH214102   1.486   3.584   7.059
 4742TIP3    H114103   1.566   3.634   7.044
 4742TIP3    H214104   1.417   3.635   7.018
 4743TIP3   OH214105   0.877   2.825   7.763
 4743TIP3    H114106   0.800   2.773   7.788
 4743TIP3    H214107   0.951   2.766   7.774
 4744TIP3   OH214108   8.158   2.611   3.988
 4744TIP3    H114109   8.211   2.682   4.024
 4744TIP3    H214110   8.143   2.552   4.062
 4745TIP3   OH214111   8.186   1.346   3.568
 4745TIP3    H114112   8.096   1.338   3.534
 4745TIP3    H214113   8.190   1.435   3.603
 4746TIP3   OH214114   9.398   7.244   7.377
 4746TIP3    H114115   9.440   7.158   7.380
 4746TIP3    H214116   9.468   7.306   7.397
 4747TIP3   OH214117   7.328   0.163   7.279
 4747TIP3    H114118   7.244   0.119   7.295
 4747TIP3    H214119   7.312   0.217   7.202
 4748TIP3   OH214120   2.112   0.177   2.614
 4748TIP3    H114121   2.107   0.090   2.654
 4748TIP3    H214122   2.198   0.209   2.639
 4749TIP3   OH214123   6.600   5.454   0.678
 4749TIP3    H114124   6.535   5.482   0.614
 4749TIP3    H214125   6.684   5.471   0.636
 4750TIP3   OH214126   3.374   6.278   4.098
 4750TIP3    H114127   3.333   6.194   4.079
 4750TIP3    H214128   3.396   6.314   4.012
 4751TIP3   OH214129   2.692   6.219   7.409
 4751TIP3    H114130   2.733   6.258   7.331
 4751TIP3    H214131   2.629   6.156   7.373
 4752TIP3   OH214132   5.313   6.742   0.445
 4752TIP3    H114133   5.405   6.766   0.433
 4752TIP3    H214134   5.316   6.659   0.492
 4753TIP3   OH214135   2.647   2.807   4.154
 4753TIP3    H114136   2.673   2.779   4.242
 4753TIP3    H214137   2.557   2.838   4.165
 4754TIP3   OH214138   4.108   7.411   6.549
 4754TIP3    H114139   4.075   7.417   6.460
 4754TIP3    H214140   4.074   7.489   6.593
 4755TIP3   OH214141   6.332   1.651   6.468
 4755TIP3    H114142   6.294   1.692   6.390
 4755TIP3    H214143   6.424   1.639   6.446
 4756TIP3   OH214144   8.633   3.016   2.641
 4756TIP3    H114145   8.705   3.013   2.704
 4756TIP3    H214146   8.676   3.015   2.556
 4757TIP3   OH214147   1.181   1.479   2.518
 4757TIP3    H114148   1.086   1.496   2.521
 4757TIP3    H214149   1.218   1.540   2.582
 4758TIP3   OH214150   0.689   8.943   7.515
 4758TIP3    H114151   0.757   9.002   7.548
 4758TIP3    H214152   0.624   9.001   7.475
 4759TIP3   OH214153   6.808   7.040   5.775
 4759TIP3    H114154   6.825   7.102   5.704
 4759TIP3    H214155   6.733   7.076   5.821
 4760TIP3   OH214156   1.611   0.946   6.820
 4760TIP3    H114157   1.527   0.924   6.859
 4760TIP3    H214158   1.607   0.911   6.731
 4761TIP3   OH214159   3.380   4.362   0.009
 4761TIP3    H114160   3.381   4.454  -0.018
 4761TIP3    H214161   3.288   4.343   0.026
 4762TIP3   OH214162   2.084   0.793   7.341
 4762TIP3    H114163   2.157   0.783   7.401
 4762TIP3    H214164   2.099   0.725   7.274
 4763TIP3   OH214165   7.827   1.484   3.726
 4763TIP3    H114166   7.873   1.414   3.679
 4763TIP3    H214167   7.803   1.547   3.657
 4764TIP3   OH214168   6.032   8.766   3.828
 4764TIP3    H114169   5.950   8.718   3.839
 4764TIP3    H214170   6.011   8.837   3.767
 4765TIP3   OH214171   6.439   6.091   1.480
 4765TIP3    H114172   6.417   6.010   1.433
 4765TIP3    H214173   6.490   6.142   1.417
 4766TIP3   OH214174   3.174   8.324   6.394
 4766TIP3    H114175   3.082   8.303   6.381
 4766TIP3    H214176   3.216   8.303   6.311
 4767TIP3   OH214177   1.489   8.978   3.437
 4767TIP3    H114178   1.420   8.953   3.375
 4767TIP3    H214179   1.466   8.931   3.518
 4768TIP3   OH214180   2.440   8.368   3.432
 4768TIP3    H114181   2.504   8.433   3.458
 4768TIP3    H214182   2.438   8.305   3.505
 4769TIP3   OH214183   8.911   3.791   1.913
 4769TIP3    H114184   8.886   3.843   1.837
 4769TIP3    H214185   9.003   3.769   1.898
 4770TIP3   OH214186   7.138   4.503   4.153
 4770TIP3    H114187   7.230   4.522   4.138
 4770TIP3    H214188   7.138   4.419   4.200
 4771TIP3   OH214189   3.306   4.285   5.937
 4771TIP3    H114190   3.305   4.365   5.885
 4771TIP3    H214191   3.377   4.232   5.899
 4772TIP3   OH214192   7.451   2.109   3.722
 4772TIP3    H114193   7.356   2.114   3.730
 4772TIP3    H214194   7.482   2.105   3.813
 4773TIP3   OH214195   8.560   6.338   4.165
 4773TIP3    H114196   8.523   6.267   4.113
 4773TIP3    H214197   8.633   6.298   4.212
 4774TIP3   OH214198   5.244   5.245   3.546
 4774TIP3    H114199   5.337   5.262   3.532
 4774TIP3    H214200   5.232   5.154   3.520
 4775TIP3   OH214201   0.183   4.214   0.340
 4775TIP3    H114202   0.091   4.190   0.353
 4775TIP3    H214203   0.180   4.303   0.305
 4776TIP3   OH214204   2.504   3.407   4.729
 4776TIP3    H114205   2.482   3.314   4.729
 4776TIP3    H214206   2.571   3.415   4.797
 4777TIP3   OH214207   3.780   8.186   6.648
 4777TIP3    H114208   3.855   8.157   6.596
 4777TIP3    H214209   3.709   8.126   6.624
 4778TIP3   OH214210   6.344   3.224   2.126
 4778TIP3    H114211   6.373   3.135   2.142
 4778TIP3    H214212   6.389   3.276   2.193
 4779TIP3   OH214213   4.234   1.808   4.725
 4779TIP3    H114214   4.231   1.843   4.814
 4779TIP3    H214215   4.312   1.752   4.725
 4780TIP3   OH214216   2.105   3.526   6.633
 4780TIP3    H114217   2.163   3.601   6.643
 4780TIP3    H214218   2.017   3.561   6.647
 4781TIP3   OH214219   7.792   5.469   6.817
 4781TIP3    H114220   7.731   5.418   6.764
 4781TIP3    H214221   7.738   5.510   6.884
 4782TIP3   OH214222   1.784   8.405   2.269
 4782TIP3    H114223   1.784   8.463   2.193
 4782TIP3    H214224   1.693   8.404   2.298
 4783TIP3   OH214225   3.587   3.648   4.362
 4783TIP3    H114226   3.570   3.576   4.301
 4783TIP3    H214227   3.523   3.715   4.340
 4784TIP3   OH214228   0.311   3.224   7.684
 4784TIP3    H114229   0.286   3.150   7.738
 4784TIP3    H214230   0.300   3.193   7.594
 4785TIP3   OH214231   3.630   4.349   7.351
 4785TIP3    H114232   3.577   4.333   7.429
 4785TIP3    H214233   3.654   4.262   7.320
 4786TIP3   OH214234   8.479   8.040   6.222
 4786TIP3    H114235   8.559   8.008   6.263
 4786TIP3    H214236   8.408   7.998   6.271
 4787TIP3   OH214237   6.495   0.611   3.111
 4787TIP3    H114238   6.561   0.635   3.045
 4787TIP3    H214239   6.422   0.577   3.060
 4788TIP3   OH214240   4.750   5.618   5.027
 4788TIP3    H114241   4.668   5.636   4.983
 4788TIP3    H214242   4.794   5.703   5.033
 4789TIP3   OH214243   5.927   2.408   7.486
 4789TIP3    H114244   6.008   2.363   7.508
 4789TIP3    H214245   5.919   2.398   7.391
 4790TIP3   OH214246   5.527   1.568   7.007
 4790TIP3    H114247   5.487   1.654   7.022
 4790TIP3    H214248   5.603   1.566   7.065
 4791TIP3   OH214249   8.673   7.759   0.804
 4791TIP3    H114250   8.667   7.853   0.790
 4791TIP3    H214251   8.729   7.750   0.882
 4792TIP3   OH214252   1.355   2.519   7.810
 4792TIP3    H114253   1.423   2.547   7.871
 4792TIP3    H214254   1.379   2.429   7.788
 4793TIP3   OH214255   3.716   0.819   5.598
 4793TIP3    H114256   3.715   0.752   5.667
 4793TIP3    H214257   3.771   0.783   5.529
 4794TIP3   OH214258   3.055   1.136   4.683
 4794TIP3    H114259   2.979   1.078   4.684
 4794TIP3    H214260   3.024   1.216   4.725
 4795TIP3   OH214261   9.466   2.676   1.036
 4795TIP3    H114262   9.451   2.765   1.004
 4795TIP3    H214263   9.547   2.681   1.086
 4796TIP3   OH214264   2.221   0.814   2.946
 4796TIP3    H114265   2.246   0.829   2.855
 4796TIP3    H214266   2.153   0.879   2.964
 4797TIP3   OH214267   3.203   5.917   5.747
 4797TIP3    H114268   3.265   5.959   5.807
 4797TIP3    H214269   3.194   5.828   5.781
 4798TIP3   OH214270   0.594   3.495   2.105
 4798TIP3    H114271   0.674   3.470   2.150
 4798TIP3    H214272   0.557   3.413   2.074
 4799TIP3   OH214273   8.754   7.000   0.571
 4799TIP3    H114274   8.787   7.073   0.624
 4799TIP3    H214275   8.752   7.034   0.481
 4800TIP3   OH214276   1.092   8.234   6.449
 4800TIP3    H114277   1.023   8.237   6.383
 4800TIP3    H214278   1.141   8.154   6.428
 4801TIP3   OH214279   0.361   6.496   1.118
 4801TIP3    H114280   0.287   6.437   1.105
 4801TIP3    H214281   0.365   6.509   1.213
 4802TIP3   OH214282   5.812   6.511   1.198
 4802TIP3    H114283   5.774   6.586   1.153
 4802TIP3    H214284   5.740   6.474   1.250
 4803TIP3   OH214285   7.815   4.427   2.130
 4803TIP3    H114286   7.761   4.354   2.161
 4803TIP3    H214287   7.872   4.447   2.205
 4804TIP3   OH214288   9.247   1.559   1.022
 4804TIP3    H114289   9.291   1.482   1.059
 4804TIP3    H214290   9.259   1.549   0.927
 4805TIP3   OH214291   6.089   6.017   5.011
 4805TIP3    H114292   6.028   6.079   5.050
 4805TIP3    H214293   6.175   6.046   5.043
 4806TIP3   OH214294   0.634   5.170   1.967
 4806TIP3    H114295   0.598   5.090   2.006
 4806TIP3    H214296   0.558   5.216   1.932
 4807TIP3   OH214297   3.183   1.442   6.855
 4807TIP3    H114298   3.250   1.387   6.813
 4807TIP3    H214299   3.229   1.484   6.927
 4808TIP3   OH214300   4.670   6.601   3.745
 4808TIP3    H114301   4.635   6.535   3.686
 4808TIP3    H214302   4.761   6.575   3.759
 4809TIP3   OH214303   5.487   0.094   2.523
 4809TIP3    H114304   5.572   0.128   2.551
 4809TIP3    H214305   5.436   0.173   2.502
 4810TIP3   OH214306   5.378   8.663   6.562
 4810TIP3    H114307   5.286   8.678   6.585
 4810TIP3    H214308   5.410   8.748   6.533
 4811TIP3   OH214309   1.993   1.575   7.238
 4811TIP3    H114310   1.983   1.577   7.333
 4811TIP3    H214311   2.084   1.600   7.223
 4812TIP3   OH214312   3.838   1.482   6.788
 4812TIP3    H114313   3.837   1.564   6.740
 4812TIP3    H214314   3.782   1.498   6.864
 4813TIP3   OH214315   5.459   7.812   0.243
 4813TIP3    H114316   5.478   7.718   0.245
 4813TIP3    H214317   5.387   7.822   0.305
 4814TIP3   OH214318   5.157   0.894   4.770
 4814TIP3    H114319   5.095   0.821   4.766
 4814TIP3    H214320   5.198   0.886   4.856
 4815TIP3   OH214321   5.811   8.825   2.846
 4815TIP3    H114322   5.730   8.774   2.852
 4815TIP3    H214323   5.796   8.885   2.772
 4816TIP3   OH214324   3.792   4.767   2.223
 4816TIP3    H114325   3.801   4.819   2.302
 4816TIP3    H214326   3.728   4.815   2.169
 4817TIP3   OH214327   7.390   8.086   4.790
 4817TIP3    H114328   7.482   8.083   4.764
 4817TIP3    H214329   7.362   8.175   4.771
 4818TIP3   OH214330   3.113   1.629   4.248
 4818TIP3    H114331   3.026   1.595   4.271
 4818TIP3    H214332   3.161   1.628   4.331
 4819TIP3   OH214333   9.471   8.367   1.067
 4819TIP3    H114334   9.565   8.350   1.071
 4819TIP3    H214335   9.461   8.455   1.104
 4820TIP3   OH214336   5.059   0.847   0.571
 4820TIP3    H114337   5.079   0.939   0.590
 4820TIP3    H214338   4.986   0.825   0.629
 4821TIP3   OH214339   1.227   2.896   7.370
 4821TIP3    H114340   1.137   2.868   7.357
 4821TIP3    H214341   1.230   2.985   7.335
 4822TIP3   OH214342   1.318   5.575   0.423
 4822TIP3    H114343   1.378   5.605   0.355
 4822TIP3    H214344   1.348   5.621   0.502
 4823TIP3   OH214345   3.514   2.376   6.821
 4823TIP3    H114346   3.491   2.467   6.839
 4823TIP3    H214347   3.433   2.337   6.787
 4824TIP3   OH214348   4.445   0.154   4.094
 4824TIP3    H114349   4.501   0.140   4.171
 4824TIP3    H214350   4.495   0.116   4.021
 4825TIP3   OH214351   9.388   1.438   7.752
 4825TIP3    H114352   9.468   1.404   7.792
 4825TIP3    H214353   9.317   1.406   7.808
 4826TIP3   OH214354   7.340   7.300   4.627
 4826TIP3    H114355   7.416   7.357   4.638
 4826TIP3    H214356   7.369   7.232   4.566
 4827TIP3   OH214357   4.495   6.949   1.772
 4827TIP3    H114358   4.504   6.940   1.867
 4827TIP3    H214359   4.556   7.019   1.749
 4828TIP3   OH214360   0.268   1.577   4.823
 4828TIP3    H114361   0.287   1.483   4.829
 4828TIP3    H214362   0.282   1.598   4.731
 4829TIP3   OH214363   9.213   6.580   1.204
 4829TIP3    H114364   9.144   6.632   1.244
 4829TIP3    H214365   9.274   6.644   1.167
 4830TIP3   OH214366   5.764   8.761   0.599
 4830TIP3    H114367   5.733   8.696   0.535
 4830TIP3    H214368   5.858   8.747   0.603
 4831TIP3   OH214369   6.822   2.299   6.639
 4831TIP3    H114370   6.875   2.258   6.570
 4831TIP3    H214371   6.794   2.227   6.694
 4832TIP3   OH214372   6.126   3.942   7.066
 4832TIP3    H114373   6.211   3.978   7.088
 4832TIP3    H214374   6.085   4.008   7.009
 4833TIP3   OH214375   7.185   8.004   1.727
 4833TIP3    H114376   7.149   7.959   1.804
 4833TIP3    H214377   7.277   7.980   1.726
 4834TIP3   OH214378   0.593   0.601   4.859
 4834TIP3    H114379   0.570   0.629   4.770
 4834TIP3    H214380   0.579   0.679   4.913
 4835TIP3   OH214381   1.997   1.644   2.425
 4835TIP3    H114382   2.068   1.620   2.484
 4835TIP3    H214383   1.966   1.560   2.389
 4836TIP3   OH214384   3.869   1.845   5.228
 4836TIP3    H114385   3.939   1.854   5.164
 4836TIP3    H214386   3.790   1.826   5.177
 4837TIP3   OH214387   5.154   7.681   7.123
 4837TIP3    H114388   5.098   7.661   7.048
 4837TIP3    H214389   5.094   7.714   7.190
 4838TIP3   OH214390   6.214   8.006   3.282
 4838TIP3    H114391   6.233   7.971   3.195
 4838TIP3    H214392   6.244   7.939   3.343
 4839TIP3   OH214393   1.551   6.634   0.235
 4839TIP3    H114394   1.527   6.620   0.326
 4839TIP3    H214395   1.589   6.722   0.233
 4840TIP3   OH214396   3.925   5.454   4.881
 4840TIP3    H114397   3.835   5.488   4.887
 4840TIP3    H214398   3.915   5.360   4.895
 4841TIP3   OH214399   3.763   5.090   4.689
 4841TIP3    H114400   3.797   5.143   4.616
 4841TIP3    H214401   3.798   5.002   4.673
 4842TIP3   OH214402   4.045   0.764   1.149
 4842TIP3    H114403   4.006   0.799   1.229
 4842TIP3    H214404   3.981   0.784   1.081
 4843TIP3   OH214405   4.877   2.707   6.708
 4843TIP3    H114406   4.878   2.614   6.730
 4843TIP3    H214407   4.943   2.716   6.638
 4844TIP3   OH214408   6.587   1.042   3.662
 4844TIP3    H114409   6.646   1.062   3.734
 4844TIP3    H214410   6.560   0.951   3.678
 4845TIP3   OH214411   9.185   5.632   0.950
 4845TIP3    H114412   9.201   5.726   0.961
 4845TIP3    H214413   9.090   5.624   0.944
 4846TIP3   OH214414   5.512   4.017   3.972
 4846TIP3    H114415   5.608   4.018   3.976
 4846TIP3    H214416   5.487   4.107   3.995
 4847TIP3   OH214417   4.194   0.835   4.312
 4847TIP3    H114418   4.126   0.859   4.374
 4847TIP3    H214419   4.264   0.898   4.326
 4848TIP3   OH214420   2.376   1.229   2.733
 4848TIP3    H114421   2.318   1.282   2.788
 4848TIP3    H214422   2.318   1.173   2.682
 4849TIP3   OH214423   0.529   0.978   3.349
 4849TIP3    H114424   0.607   1.033   3.341
 4849TIP3    H214425   0.549   0.920   3.423
 4850TIP3   OH214426   5.166   3.821   4.315
 4850TIP3    H114427   5.249   3.798   4.274
 4850TIP3    H214428   5.158   3.760   4.389
 4851TIP3   OH214429   6.031   4.731   6.196
 4851TIP3    H114430   5.985   4.769   6.270
 4851TIP3    H214431   6.095   4.797   6.169
 4852TIP3   OH214432   7.385   5.878   7.116
 4852TIP3    H114433   7.406   5.840   7.031
 4852TIP3    H214434   7.450   5.841   7.175
 4853TIP3   OH214435   4.039   1.328   6.152
 4853TIP3    H114436   4.117   1.342   6.206
 4853TIP3    H214437   4.065   1.263   6.087
 4854TIP3   OH214438   4.150   1.113   5.319
 4854TIP3    H114439   4.210   1.128   5.246
 4854TIP3    H214440   4.185   1.035   5.363
 4855TIP3   OH214441   3.105   7.635   2.715
 4855TIP3    H114442   3.056   7.665   2.638
 4855TIP3    H214443   3.169   7.705   2.730
 4856TIP3   OH214444   4.549   5.737   6.186
 4856TIP3    H114445   4.499   5.656   6.190
 4856TIP3    H214446   4.490   5.804   6.221
 4857TIP3   OH214447   5.302   4.819   0.020
 4857TIP3    H114448   5.383   4.802  -0.028
 4857TIP3    H214449   5.246   4.867  -0.041
 4858TIP3   OH214450   8.991   2.989   3.033
 4858TIP3    H114451   9.037   2.924   2.979
 4858TIP3    H214452   9.059   3.052   3.058
 4859TIP3   OH214453   7.324   3.753   4.337
 4859TIP3    H114454   7.363   3.675   4.300
 4859TIP3    H214455   7.300   3.728   4.427
 4860TIP3   OH214456   2.105   0.430   1.739
 4860TIP3    H114457   2.117   0.520   1.706
 4860TIP3    H214458   2.014   0.428   1.769
 4861TIP3   OH214459   7.808   2.935   7.642
 4861TIP3    H114460   7.856   2.853   7.629
 4861TIP3    H214461   7.846   2.972   7.722
 4862TIP3   OH214462   0.837   2.931   3.691
 4862TIP3    H114463   0.767   2.874   3.724
 4862TIP3    H214464   0.886   2.876   3.630
 4863TIP3   OH214465   3.235   7.819   3.026
 4863TIP3    H114466   3.247   7.793   3.118
 4863TIP3    H214467   3.297   7.765   2.978
 4864TIP3   OH214468   0.653   4.322   3.849
 4864TIP3    H114469   0.596   4.379   3.900
 4864TIP3    H214470   0.603   4.305   3.769
 4865TIP3   OH214471   5.232   2.553   1.141
 4865TIP3    H114472   5.180   2.600   1.206
 4865TIP3    H214473   5.175   2.481   1.113
 4866TIP3   OH214474   6.984   8.173   6.848
 4866TIP3    H114475   7.052   8.237   6.825
 4866TIP3    H214476   7.023   8.122   6.919
 4867TIP3   OH214477   0.231   1.052   6.524
 4867TIP3    H114478   0.270   1.016   6.604
 4867TIP3    H214479   0.157   1.104   6.554
 4868TIP3   OH214480   5.838   3.855   4.228
 4868TIP3    H114481   5.816   3.875   4.137
 4868TIP3    H214482   5.795   3.771   4.246
 4869TIP3   OH214483   5.224   3.421   2.024
 4869TIP3    H114484   5.155   3.487   2.024
 4869TIP3    H214485   5.260   3.422   2.112
 4870TIP3   OH214486   2.392   4.987   0.183
 4870TIP3    H114487   2.384   5.006   0.090
 4870TIP3    H214488   2.332   4.915   0.199
 4871TIP3   OH214489   6.130   4.601   5.262
 4871TIP3    H114490   6.098   4.689   5.283
 4871TIP3    H214491   6.162   4.608   5.172
 4872TIP3   OH214492   6.396   1.113   2.923
 4872TIP3    H114493   6.326   1.050   2.942
 4872TIP3    H214494   6.433   1.134   3.009
 4873TIP3   OH214495   1.049   6.365   3.454
 4873TIP3    H114496   1.020   6.305   3.523
 4873TIP3    H214497   1.086   6.308   3.387
 4874TIP3   OH214498   5.932   4.284   6.085
 4874TIP3    H114499   5.951   4.356   6.145
 4874TIP3    H214500   5.916   4.326   6.001
 4875TIP3   OH214501   7.372   2.930   4.865
 4875TIP3    H114502   7.386   2.851   4.917
 4875TIP3    H214503   7.429   2.919   4.788
 4876TIP3   OH214504   3.424   3.007   4.753
 4876TIP3    H114505   3.436   2.993   4.659
 4876TIP3    H214506   3.500   3.060   4.779
 4877TIP3   OH214507   8.604   0.735   5.589
 4877TIP3    H114508   8.515   0.741   5.623
 4877TIP3    H214509   8.617   0.816   5.541
 4878TIP3   OH214510   4.729   8.148   0.187
 4878TIP3    H114511   4.807   8.114   0.231
 4878TIP3    H214512   4.750   8.142   0.094
 4879TIP3   OH214513   8.658   8.975   2.958
 4879TIP3    H114514   8.585   9.011   2.909
 4879TIP3    H214515   8.701   8.914   2.898
 4880TIP3   OH214516   6.583   4.263   3.145
 4880TIP3    H114517   6.551   4.173   3.148
 4880TIP3    H214518   6.671   4.257   3.108
 4881TIP3   OH214519   1.668   3.296   6.735
 4881TIP3    H114520   1.704   3.244   6.807
 4881TIP3    H214521   1.676   3.239   6.658
 4882TIP3   OH214522   9.144   6.507   0.930
 4882TIP3    H114523   9.167   6.599   0.941
 4882TIP3    H214524   9.089   6.487   1.006
 4883TIP3   OH214525   4.720   7.115   7.370
 4883TIP3    H114526   4.746   7.207   7.364
 4883TIP3    H214527   4.789   7.073   7.421
 4884TIP3   OH214528   0.166   3.335   3.959
 4884TIP3    H114529   0.124   3.418   3.980
 4884TIP3    H214530   0.154   3.325   3.864
 4885TIP3   OH214531   5.869   0.738   5.426
 4885TIP3    H114532   5.783   0.781   5.427
 4885TIP3    H214533   5.850   0.646   5.444
 4886TIP3   OH214534   4.273   3.829   0.787
 4886TIP3    H114535   4.294   3.880   0.709
 4886TIP3    H214536   4.181   3.849   0.805
 4887TIP3   OH214537   6.321   7.019   6.536
 4887TIP3    H114538   6.306   7.068   6.455
 4887TIP3    H214539   6.321   7.086   6.605
 4888TIP3   OH214540   0.477   6.669   4.700
 4888TIP3    H114541   0.546   6.735   4.710
 4888TIP3    H214542   0.482   6.643   4.608
 4889TIP3   OH214543   1.153   1.459   7.200
 4889TIP3    H114544   1.098   1.469   7.122
 4889TIP3    H214545   1.091   1.437   7.270
 4890TIP3   OH214546   2.027   0.939   5.302
 4890TIP3    H114547   2.039   0.860   5.249
 4890TIP3    H214548   1.935   0.938   5.326
 4891TIP3   OH214549   1.153   7.647   5.219
 4891TIP3    H114550   1.153   7.552   5.232
 4891TIP3    H214551   1.229   7.678   5.269
 4892TIP3   OH214552   3.926   6.572   0.227
 4892TIP3    H114553   3.868   6.497   0.241
 4892TIP3    H214554   4.001   6.536   0.180
 4893TIP3   OH214555   5.616   7.844   4.628
 4893TIP3    H114556   5.702   7.819   4.595
 4893TIP3    H214557   5.592   7.774   4.689
 4894TIP3   OH214558   0.266   0.742   5.679
 4894TIP3    H114559   0.266   0.747   5.584
 4894TIP3    H214560   0.300   0.655   5.699
 4895TIP3   OH214561   7.041   8.803   0.376
 4895TIP3    H114562   7.004   8.870   0.319
 4895TIP3    H214563   6.966   8.770   0.426
 4896TIP3   OH214564   8.133   5.222   5.573
 4896TIP3    H114565   8.187   5.185   5.643
 4896TIP3    H214566   8.179   5.301   5.546
 4897TIP3   OH214567   7.278   0.281   2.507
 4897TIP3    H114568   7.269   0.209   2.446
 4897TIP3    H214569   7.192   0.290   2.547
 4898TIP3   OH214570   2.804   2.166   5.165
 4898TIP3    H114571   2.748   2.167   5.242
 4898TIP3    H214572   2.812   2.258   5.140
 4899TIP3   OH214573   8.893   4.723   6.716
 4899TIP3    H114574   8.823   4.785   6.693
 4899TIP3    H214575   8.948   4.771   6.778
 4900TIP3   OH214576   5.727   6.642   7.136
 4900TIP3    H114577   5.716   6.687   7.052
 4900TIP3    H214578   5.734   6.713   7.200
 4901TIP3   OH214579   6.197   7.308   4.568
 4901TIP3    H114580   6.232   7.276   4.485
 4901TIP3    H214581   6.272   7.348   4.612
 4902TIP3   OH214582   1.431   2.870   5.806
 4902TIP3    H114583   1.426   2.944   5.746
 4902TIP3    H214584   1.515   2.827   5.785
 4903TIP3   OH214585   4.562   5.165   6.300
 4903TIP3    H114586   4.487   5.198   6.252
 4903TIP3    H214587   4.588   5.086   6.252
 4904TIP3   OH214588   3.922   8.346   0.914
 4904TIP3    H114589   3.936   8.252   0.927
 4904TIP3    H214590   3.959   8.386   0.993
 4905TIP3   OH214591   2.518   8.350   6.090
 4905TIP3    H114592   2.496   8.268   6.134
 4905TIP3    H214593   2.453   8.413   6.123
 4906TIP3   OH214594   8.772   7.697   1.061
 4906TIP3    H114595   8.842   7.632   1.064
 4906TIP3    H214596   8.817   7.782   1.062
 4907TIP3   OH214597   5.800   6.179   0.974
 4907TIP3    H114598   5.765   6.257   0.932
 4907TIP3    H214599   5.828   6.123   0.901
 4908TIP3   OH214600   6.070   1.608   3.022
 4908TIP3    H114601   6.093   1.700   3.033
 4908TIP3    H214602   6.140   1.572   2.968
 4909TIP3   OH214603   7.291   2.569   4.368
 4909TIP3    H114604   7.220   2.590   4.308
 4909TIP3    H214605   7.365   2.548   4.312
 4910TIP3   OH214606   8.612   3.933   4.925
 4910TIP3    H114607   8.589   3.950   4.834
 4910TIP3    H214608   8.592   3.840   4.938
 4911TIP3   OH214609   2.898   4.254   2.576
 4911TIP3    H114610   2.842   4.263   2.653
 4911TIP3    H214611   2.915   4.343   2.548
 4912TIP3   OH214612   7.253   4.467   7.324
 4912TIP3    H114613   7.191   4.507   7.262
 4912TIP3    H214614   7.208   4.470   7.408
 4913TIP3   OH214615   1.010   3.473   7.790
 4913TIP3    H114616   1.035   3.393   7.743
 4913TIP3    H214617   0.916   3.463   7.805
 4914TIP3   OH214618   0.518   2.102   4.361
 4914TIP3    H114619   0.486   2.099   4.271
 4914TIP3    H214620   0.453   2.054   4.411
 4915TIP3   OH214621   4.149   2.766   3.087
 4915TIP3    H114622   4.237   2.732   3.070
 4915TIP3    H214623   4.140   2.839   3.026
 4916TIP3   OH214624   4.450   6.027   5.873
 4916TIP3    H114625   4.492   5.941   5.870
 4916TIP3    H214626   4.509   6.084   5.823
 4917TIP3   OH214627   2.795   3.000   5.788
 4917TIP3    H114628   2.729   3.052   5.835
 4917TIP3    H214629   2.790   3.030   5.698
 4918TIP3   OH214630   1.671   3.795   1.857
 4918TIP3    H114631   1.695   3.888   1.851
 4918TIP3    H214632   1.576   3.795   1.867
 4919TIP3   OH214633   5.763   4.896   5.285
 4919TIP3    H114634   5.731   4.829   5.224
 4919TIP3    H214635   5.738   4.863   5.371
 4920TIP3   OH214636   1.323   2.136   3.022
 4920TIP3    H114637   1.413   2.152   3.052
 4920TIP3    H214638   1.271   2.200   3.070
 4921TIP3   OH214639   1.453   4.480   0.390
 4921TIP3    H114640   1.535   4.431   0.384
 4921TIP3    H214641   1.399   4.429   0.450
 4922TIP3   OH214642   3.583   3.727   0.654
 4922TIP3    H114643   3.593   3.650   0.711
 4922TIP3    H214644   3.506   3.707   0.601
 4923TIP3   OH214645   8.151   6.960   2.120
 4923TIP3    H114646   8.153   6.958   2.024
 4923TIP3    H214647   8.240   6.981   2.145
 4924TIP3   OH214648   8.483   3.638   4.115
 4924TIP3    H114649   8.464   3.551   4.081
 4924TIP3    H214650   8.397   3.680   4.122
 4925TIP3   OH214651   8.780   2.295   7.098
 4925TIP3    H114652   8.777   2.354   7.023
 4925TIP3    H214653   8.869   2.301   7.130
 4926TIP3   OH214654   2.319   1.706   4.030
 4926TIP3    H114655   2.232   1.744   4.046
 4926TIP3    H214656   2.308   1.653   3.951
 4927TIP3   OH214657   1.769   1.971   4.537
 4927TIP3    H114658   1.730   2.030   4.472
 4927TIP3    H214659   1.783   2.026   4.614
 4928TIP3   OH214660   5.126   6.118   0.164
 4928TIP3    H114661   5.144   6.177   0.090
 4928TIP3    H214662   5.032   6.127   0.179
 4929TIP3   OH214663   8.136   7.538   4.692
 4929TIP3    H114664   8.219   7.548   4.645
 4929TIP3    H214665   8.078   7.493   4.631
 4930TIP3   OH214666   4.387   4.598   7.496
 4930TIP3    H114667   4.478   4.585   7.521
 4930TIP3    H214668   4.342   4.521   7.531
 4931TIP3   OH214669   7.739   2.773   6.604
 4931TIP3    H114670   7.660   2.728   6.573
 4931TIP3    H214671   7.707   2.831   6.673
 4932TIP3   OH214672   5.486   4.732   3.440
 4932TIP3    H114673   5.552   4.720   3.372
 4932TIP3    H214674   5.402   4.725   3.394
 4933TIP3   OH214675   0.375   2.108   4.130
 4933TIP3    H114676   0.381   2.128   4.037
 4933TIP3    H214677   0.285   2.077   4.142
 4934TIP3   OH214678   2.870   7.278   3.287
 4934TIP3    H114679   2.930   7.218   3.332
 4934TIP3    H214680   2.810   7.308   3.354
 4935TIP3   OH214681   0.016   4.873   5.736
 4935TIP3    H114682   0.092   4.882   5.679
 4935TIP3    H214683  -0.030   4.796   5.702
 4936TIP3   OH214684   0.448   3.469   3.241
 4936TIP3    H114685   0.394   3.539   3.277
 4936TIP3    H214686   0.538   3.502   3.246
 4937TIP3   OH214687   0.501   6.320   5.547
 4937TIP3    H114688   0.479   6.339   5.456
 4937TIP3    H214689   0.508   6.225   5.551
 4938TIP3   OH214690   7.367   6.119   7.654
 4938TIP3    H114691   7.337   6.122   7.563
 4938TIP3    H214692   7.427   6.193   7.663
 4939TIP3   OH214693   7.145   8.556   0.995
 4939TIP3    H114694   7.180   8.634   0.952
 4939TIP3    H214695   7.217   8.493   0.993
 4940TIP3   OH214696   0.751   6.748   3.752
 4940TIP3    H114697   0.816   6.705   3.808
 4940TIP3    H214698   0.794   6.826   3.720
 4941TIP3   OH214699   8.688   2.660   4.472
 4941TIP3    H114700   8.724   2.582   4.429
 4941TIP3    H214701   8.760   2.692   4.526
 4942TIP3   OH214702   0.808   5.162   6.802
 4942TIP3    H114703   0.752   5.112   6.742
 4942TIP3    H214704   0.746   5.210   6.857
 4943TIP3   OH214705   2.104   4.995   6.382
 4943TIP3    H114706   2.157   5.043   6.319
 4943TIP3    H214707   2.062   5.063   6.435
 4944TIP3   OH214708   1.759   8.653   5.322
 4944TIP3    H114709   1.689   8.599   5.287
 4944TIP3    H214710   1.835   8.595   5.324
 4945TIP3   OH214711   2.777   7.617   2.745
 4945TIP3    H114712   2.853   7.663   2.779
 4945TIP3    H214713   2.805   7.582   2.660
 4946TIP3   OH214714   6.061   8.283   6.259
 4946TIP3    H114715   6.010   8.357   6.292
 4946TIP3    H214716   6.150   8.318   6.249
 4947TIP3   OH214717   6.095   5.731   1.532
 4947TIP3    H114718   6.089   5.783   1.612
 4947TIP3    H214719   6.113   5.642   1.563
 4948TIP3   OH214720   6.193   8.746   0.911
 4948TIP3    H114721   6.109   8.699   0.915
 4948TIP3    H214722   6.237   8.722   0.992
 4949TIP3   OH214723   0.279   7.487   3.824
 4949TIP3    H114724   0.331   7.530   3.756
 4949TIP3    H214725   0.218   7.432   3.776
 4950TIP3   OH214726   3.854   2.732   7.174
 4950TIP3    H114727   3.934   2.718   7.224
 4950TIP3    H214728   3.836   2.826   7.183
 4951TIP3   OH214729   5.236   0.804   7.541
 4951TIP3    H114730   5.278   0.727   7.579
 4951TIP3    H214731   5.154   0.814   7.589
 4952TIP3   OH214732   8.524   4.577   6.769
 4952TIP3    H114733   8.517   4.492   6.725
 4952TIP3    H214734   8.578   4.560   6.846
 4953TIP3   OH214735   8.647   6.415   0.992
 4953TIP3    H114736   8.605   6.390   1.074
 4953TIP3    H214737   8.630   6.342   0.933
 4954TIP3   OH214738   5.221   4.982   0.799
 4954TIP3    H114739   5.282   5.021   0.862
 4954TIP3    H214740   5.154   5.049   0.786
 4955TIP3   OH214741   0.401   5.854   0.741
 4955TIP3    H114742   0.395   5.760   0.721
 4955TIP3    H214743   0.444   5.857   0.827
 4956TIP3   OH214744   5.334   6.214   7.328
 4956TIP3    H114745   5.255   6.206   7.274
 4956TIP3    H214746   5.301   6.222   7.417
 4957TIP3   OH214747   0.345   7.888   4.160
 4957TIP3    H114748   0.434   7.919   4.143
 4957TIP3    H214749   0.308   7.875   4.072
 4958TIP3   OH214750   7.368   8.242   3.341
 4958TIP3    H114751   7.405   8.206   3.260
 4958TIP3    H214752   7.276   8.259   3.320
 4959TIP3   OH214753   3.969   5.749   1.609
 4959TIP3    H114754   3.972   5.785   1.521
 4959TIP3    H214755   4.017   5.811   1.663
 4960TIP3   OH214756   1.946   6.311   5.703
 4960TIP3    H114757   1.854   6.336   5.710
 4960TIP3    H214758   1.981   6.366   5.633
 4961TIP3   OH214759   7.905   5.475   4.674
 4961TIP3    H114760   7.855   5.498   4.752
 4961TIP3    H214761   7.991   5.451   4.708
 4962TIP3   OH214762   4.907   6.668   5.827
 4962TIP3    H114763   4.844   6.616   5.777
 4962TIP3    H214764   4.871   6.669   5.916
 4963TIP3   OH214765   1.789   7.020   2.681
 4963TIP3    H114766   1.863   6.962   2.698
 4963TIP3    H214767   1.745   7.028   2.766
 4964TIP3   OH214768   4.980   8.636   2.120
 4964TIP3    H114769   5.066   8.667   2.089
 4964TIP3    H214770   4.937   8.715   2.153
 4965TIP3   OH214771   7.151   1.895   4.701
 4965TIP3    H114772   7.217   1.963   4.690
 4965TIP3    H214773   7.073   1.929   4.658
 4966TIP3   OH214774   5.243   4.631   6.880
 4966TIP3    H114775   5.166   4.629   6.937
 4966TIP3    H214776   5.243   4.719   6.843
 4967TIP3   OH214777   8.207   3.547   6.607
 4967TIP3    H114778   8.158   3.466   6.592
 4967TIP3    H214779   8.256   3.561   6.526
 4968TIP3   OH214780   0.869   5.899   2.669
 4968TIP3    H114781   0.785   5.863   2.696
 4968TIP3    H214782   0.915   5.825   2.629
 4969TIP3   OH214783   0.514   4.381   1.750
 4969TIP3    H114784   0.489   4.470   1.775
 4969TIP3    H214785   0.596   4.392   1.702
 4970TIP3   OH214786   1.041   5.686   3.361
 4970TIP3    H114787   0.998   5.736   3.429
 4970TIP3    H214788   0.972   5.631   3.323
 4971TIP3   OH214789   7.547   2.902   4.651
 4971TIP3    H114790   7.524   2.840   4.582
 4971TIP3    H214791   7.643   2.908   4.646
 4972TIP3   OH214792   1.055   5.527   7.530
 4972TIP3    H114793   1.114   5.505   7.602
 4972TIP3    H214794   1.015   5.610   7.557
 4973TIP3   OH214795   7.483   4.194   0.011
 4973TIP3    H114796   7.469   4.284   0.041
 4973TIP3    H214797   7.433   4.141   0.073
 4974TIP3   OH214798   3.831   3.743   4.243
 4974TIP3    H114799   3.775   3.701   4.308
 4974TIP3    H214800   3.916   3.749   4.285
 4975TIP3   OH214801   8.503   3.380   6.652
 4975TIP3    H114802   8.420   3.332   6.648
 4975TIP3    H214803   8.489   3.446   6.720
 4976TIP3   OH214804   7.707   0.658   4.142
 4976TIP3    H114805   7.718   0.715   4.066
 4976TIP3    H214806   7.638   0.698   4.193
 4977TIP3   OH214807   9.519   6.466   2.063
 4977TIP3    H114808   9.515   6.472   1.967
 4977TIP3    H214809   9.470   6.542   2.094
 4978TIP3   OH214810   8.844   2.055   2.916
 4978TIP3    H114811   8.819   2.143   2.945
 4978TIP3    H214812   8.864   2.008   2.997
 4979TIP3   OH214813   7.140   5.506   3.379
 4979TIP3    H114814   7.173   5.448   3.310
 4979TIP3    H214815   7.134   5.449   3.456
 4980TIP3   OH214816   9.357   5.018   2.416
 4980TIP3    H114817   9.315   4.978   2.492
 4980TIP3    H214818   9.436   4.965   2.403
 4981TIP3   OH214819   1.387   1.717   2.680
 4981TIP3    H114820   1.305   1.766   2.670
 4981TIP3    H214821   1.443   1.776   2.731
 4982TIP3   OH214822   8.401   1.351   2.773
 4982TIP3    H114823   8.371   1.337   2.683
 4982TIP3    H214824   8.326   1.389   2.818
 4983TIP3   OH214825   5.404   7.590   2.766
 4983TIP3    H114826   5.349   7.535   2.711
 4983TIP3    H214827   5.382   7.679   2.740
 4984TIP3   OH214828   7.891   4.426   5.982
 4984TIP3    H114829   7.811   4.471   5.953
 4984TIP3    H214830   7.930   4.487   6.045
 4985TIP3   OH214831   5.257   8.968   0.568
 4985TIP3    H114832   5.315   8.920   0.509
 4985TIP3    H214833   5.243   9.052   0.525
 4986TIP3   OH214834   9.248   1.955   1.204
 4986TIP3    H114835   9.207   1.874   1.235
 4986TIP3    H214836   9.220   1.964   1.113
 4987TIP3   OH214837   7.503   1.521   7.030
 4987TIP3    H114838   7.519   1.508   7.123
 4987TIP3    H214839   7.543   1.444   6.988
 4988TIP3   OH214840   6.551   6.626   7.782
 4988TIP3    H114841   6.568   6.577   7.863
 4988TIP3    H214842   6.637   6.648   7.748
 4989TIP3   OH214843   0.760   8.955   0.260
 4989TIP3    H114844   0.688   9.018   0.261
 4989TIP3    H214845   0.833   9.002   0.218
 4990TIP3   OH214846   8.976   7.851   1.432
 4990TIP3    H114847   8.897   7.879   1.478
 4990TIP3    H214848   8.966   7.757   1.421
 4991TIP3   OH214849   5.693   5.493   0.327
 4991TIP3    H114850   5.758   5.552   0.290
 4991TIP3    H214851   5.609   5.528   0.298
 4992TIP3   OH214852   9.233   1.192   3.205
 4992TIP3    H114853   9.154   1.178   3.153
 4992TIP3    H214854   9.298   1.134   3.165
 4993TIP3   OH214855   6.671   4.622   4.604
 4993TIP3    H114856   6.717   4.539   4.617
 4993TIP3    H214857   6.607   4.604   4.535
 4994TIP3   OH214858   3.452   6.398   5.046
 4994TIP3    H114859   3.442   6.307   5.019
 4994TIP3    H214860   3.546   6.415   5.036
 4995TIP3   OH214861   6.106   8.980   5.754
 4995TIP3    H114862   6.126   9.052   5.814
 4995TIP3    H214863   6.021   9.003   5.717
 4996TIP3   OH214864   7.415   7.109   3.561
 4996TIP3    H114865   7.388   7.023   3.595
 4996TIP3    H214866   7.333   7.153   3.539
 4997TIP3   OH214867   8.664   4.007   3.723
 4997TIP3    H114868   8.728   3.962   3.778
 4997TIP3    H214869   8.617   3.937   3.679
 4998TIP3   OH214870   5.758   3.190   3.535
 4998TIP3    H114871   5.852   3.200   3.516
 4998TIP3    H214872   5.755   3.126   3.606
 4999TIP3   OH214873   5.561   4.352   4.999
 4999TIP3    H114874   5.545   4.368   4.907
 4999TIP3    H214875   5.504   4.277   5.020
 5000TIP3   OH214876   7.539   0.996   4.916
 5000TIP3    H114877   7.581   0.987   5.001
 5000TIP3    H214878   7.606   0.967   4.853
 5001TIP3   OH214879   3.555   4.066   3.987
 5001TIP3    H114880   3.616   4.032   4.053
 5001TIP3    H214881   3.591   4.036   3.903
 5002TIP3   OH214882   6.573   3.697   6.342
 5002TIP3    H114883   6.583   3.649   6.424
 5002TIP3    H214884   6.575   3.630   6.274
 5003TIP3   OH214885   5.149   2.605   7.505
 5003TIP3    H114886   5.241   2.609   7.478
 5003TIP3    H214887   5.139   2.677   7.567
 5004TIP3   OH214888   2.637   0.432   5.236
 5004TIP3    H114889   2.662   0.448   5.145
 5004TIP3    H214890   2.682   0.500   5.285
 5005TIP3   OH214891   2.927   5.569   0.318
 5005TIP3    H114892   2.869   5.616   0.379
 5005TIP3    H214893   2.912   5.477   0.339
 5006TIP3   OH214894   3.110   1.997   4.202
 5006TIP3    H114895   3.099   2.082   4.159
 5006TIP3    H214896   3.189   2.007   4.255
 5007TIP3   OH214897   5.364   5.598   5.271
 5007TIP3    H114898   5.319   5.520   5.238
 5007TIP3    H214899   5.331   5.669   5.216
 5008TIP3   OH214900   3.233   8.099   1.072
 5008TIP3    H114901   3.208   8.173   1.017
 5008TIP3    H214902   3.237   8.025   1.012
 5009TIP3   OH214903   3.123   0.731   2.875
 5009TIP3    H114904   3.193   0.767   2.928
 5009TIP3    H214905   3.062   0.693   2.938
 5010TIP3   OH214906   7.218   0.585   7.252
 5010TIP3    H114907   7.273   0.532   7.310
 5010TIP3    H214908   7.195   0.527   7.180
 5011TIP3   OH214909   6.500   2.078   3.172
 5011TIP3    H114910   6.543   2.156   3.207
 5011TIP3    H214911   6.415   2.110   3.140
 5012TIP3   OH214912   2.633   6.324   6.901
 5012TIP3    H114913   2.710   6.311   6.845
 5012TIP3    H214914   2.580   6.389   6.854
 5013TIP3   OH214915   0.893   1.960   2.712
 5013TIP3    H114916   0.821   1.900   2.735
 5013TIP3    H214917   0.862   2.046   2.738
 5014TIP3   OH214918   4.010   5.077   3.907
 5014TIP3    H114919   4.012   5.113   3.996
 5014TIP3    H214920   3.929   5.027   3.903
 5015TIP3   OH214921   7.998   6.681   7.669
 5015TIP3    H114922   8.014   6.652   7.759
 5015TIP3    H214923   7.959   6.768   7.679
 5016TIP3   OH214924   6.267   5.073   7.093
 5016TIP3    H114925   6.294   5.149   7.041
 5016TIP3    H214926   6.311   4.999   7.053
 5017TIP3   OH214927   0.836   8.928   1.129
 5017TIP3    H114928   0.768   8.896   1.188
 5017TIP3    H214929   0.889   8.986   1.183
 5018TIP3   OH214930   2.452   5.328   0.475
 5018TIP3    H114931   2.535   5.359   0.512
 5018TIP3    H214932   2.386   5.354   0.540
 5019TIP3   OH214933   6.379   4.413   4.797
 5019TIP3    H114934   6.377   4.418   4.701
 5019TIP3    H214935   6.472   4.402   4.818
 5020TIP3   OH214936   8.847   6.608   6.834
 5020TIP3    H114937   8.763   6.640   6.867
 5020TIP3    H214938   8.912   6.668   6.871
 5021TIP3   OH214939   0.573   6.534   1.610
 5021TIP3    H114940   0.646   6.529   1.548
 5021TIP3    H214941   0.577   6.623   1.644
 5022TIP3   OH214942   8.444   8.101   2.566
 5022TIP3    H114943   8.379   8.135   2.504
 5022TIP3    H214944   8.395   8.039   2.620
 5023TIP3   OH214945   3.412   2.564   0.056
 5023TIP3    H114946   3.386   2.567   0.148
 5023TIP3    H214947   3.330   2.568   0.008
 5024TIP3   OH214948   1.454   6.155   7.454
 5024TIP3    H114949   1.522   6.202   7.504
 5024TIP3    H214950   1.502   6.086   7.409
 5025TIP3   OH214951   2.034   4.955   3.001
 5025TIP3    H114952   2.125   4.960   2.973
 5025TIP3    H214953   2.028   4.873   3.050
 5026TIP3   OH214954   2.967   4.972   0.604
 5026TIP3    H114955   2.882   5.015   0.610
 5026TIP3    H214956   3.030   5.043   0.612
 5027TIP3   OH214957   2.573   0.920   0.842
 5027TIP3    H114958   2.607   1.008   0.827
 5027TIP3    H214959   2.648   0.862   0.823
 5028TIP3   OH214960   2.695   4.235   6.896
 5028TIP3    H114961   2.766   4.177   6.924
 5028TIP3    H214962   2.696   4.229   6.800
 5029TIP3   OH214963   3.626   5.659   1.185
 5029TIP3    H114964   3.663   5.580   1.144
 5029TIP3    H214965   3.692   5.726   1.171
 5030TIP3   OH214966   1.250   5.684   6.891
 5030TIP3    H114967   1.294   5.669   6.975
 5030TIP3    H214968   1.283   5.769   6.862
 5031TIP3   OH214969   8.120   2.943   4.505
 5031TIP3    H114970   8.072   2.864   4.480
 5031TIP3    H214971   8.071   3.015   4.465
 5032TIP3   OH214972   1.786   7.943   1.260
 5032TIP3    H114973   1.799   7.923   1.168
 5032TIP3    H214974   1.768   8.037   1.263
 5033TIP3   OH214975   3.495   3.247   4.064
 5033TIP3    H114976   3.408   3.234   4.101
 5033TIP3    H214977   3.517   3.164   4.022
 5034TIP3   OH214978   7.313   5.281   4.735
 5034TIP3    H114979   7.337   5.222   4.664
 5034TIP3    H214980   7.301   5.225   4.811
 5035TIP3   OH214981   3.337   4.033   0.946
 5035TIP3    H114982   3.369   4.123   0.950
 5035TIP3    H214983   3.341   4.002   1.037
 5036TIP3   OH214984   9.050   1.363   1.314
 5036TIP3    H114985   8.964   1.397   1.338
 5036TIP3    H214986   9.112   1.427   1.348
 5037TIP3   OH214987   0.984   1.306   0.309
 5037TIP3    H114988   0.913   1.245   0.293
 5037TIP3    H214989   1.056   1.252   0.340
 5038TIP3   OH214990   7.271   8.740   0.806
 5038TIP3    H114991   7.231   8.789   0.735
 5038TIP3    H214992   7.298   8.657   0.767
 5039TIP3   OH214993   8.783   4.945   0.814
 5039TIP3    H114994   8.759   4.853   0.806
 5039TIP3    H214995   8.830   4.964   0.733
 5040TIP3   OH214996   0.697   1.556   2.648
 5040TIP3    H114997   0.675   1.471   2.609
 5040TIP3    H214998   0.624   1.576   2.706
 5041TIP3   OH214999   7.312   2.040   4.574
 5041TIP3    H115000   7.398   2.072   4.603
 5041TIP3    H215001   7.292   2.091   4.496
 5042TIP3   OH215002   5.091   2.261   3.317
 5042TIP3    H115003   5.139   2.332   3.360
 5042TIP3    H215004   4.999   2.280   3.334
 5043TIP3   OH215005   7.679   7.802   1.489
 5043TIP3    H115006   7.664   7.773   1.399
 5043TIP3    H215007   7.772   7.823   1.492
 5044TIP3   OH215008   1.715   6.584   5.079
 5044TIP3    H115009   1.620   6.574   5.087
 5044TIP3    H215010   1.727   6.656   5.017
 5045TIP3   OH215011   8.876   3.776   2.394
 5045TIP3    H115012   8.811   3.712   2.365
 5045TIP3    H215013   8.830   3.827   2.460
 5046TIP3   OH215014   3.945   3.014   0.263
 5046TIP3    H115015   3.897   2.953   0.318
 5046TIP3    H215016   3.903   3.098   0.276
 5047TIP3   OH215017   9.008   4.517   2.071
 5047TIP3    H115018   9.028   4.463   1.994
 5047TIP3    H215019   9.092   4.558   2.094
 5048TIP3   OH215020   3.668   6.649   4.012
 5048TIP3    H115021   3.596   6.655   4.074
 5048TIP3    H215022   3.741   6.614   4.063
 5049TIP3   OH215023   8.608   0.489   7.373
 5049TIP3    H115024   8.592   0.398   7.399
 5049TIP3    H215025   8.701   0.503   7.392
 5050TIP3   OH215026   6.072   8.078   6.841
 5050TIP3    H115027   6.120   8.161   6.840
 5050TIP3    H215028   6.003   8.089   6.775
 5051TIP3   OH215029   6.886   1.572   4.315
 5051TIP3    H115030   6.834   1.550   4.237
 5051TIP3    H215031   6.933   1.652   4.291
 5052TIP3   OH215032   8.176   6.253   4.331
 5052TIP3    H115033   8.213   6.308   4.400
 5052TIP3    H215034   8.215   6.167   4.344
 5053TIP3   OH215035   1.701   1.157   0.509
 5053TIP3    H115036   1.682   1.136   0.417
 5053TIP3    H215037   1.789   1.197   0.506
 5054TIP3   OH215038   1.370   5.796   0.603
 5054TIP3    H115039   1.464   5.787   0.589
 5054TIP3    H215040   1.363   5.835   0.690
 5055TIP3   OH215041   7.065   2.933   5.488
 5055TIP3    H115042   7.085   3.026   5.481
 5055TIP3    H215043   7.033   2.922   5.578
 5056TIP3   OH215044   6.848   8.370   4.556
 5056TIP3    H115045   6.925   8.357   4.500
 5056TIP3    H215046   6.873   8.333   4.640
 5057TIP3   OH215047   9.498   7.556   0.378
 5057TIP3    H115048   9.484   7.649   0.362
 5057TIP3    H215049   9.593   7.543   0.368
 5058TIP3   OH215050   2.287   0.495   2.737
 5058TIP3    H115051   2.377   0.525   2.751
 5058TIP3    H215052   2.295   0.420   2.679
 5059TIP3   OH215053   1.183   4.877   2.382
 5059TIP3    H115054   1.228   4.840   2.458
 5059TIP3    H215055   1.170   4.802   2.323
 5060TIP3   OH215056   1.379   3.340   6.609
 5060TIP3    H115057   1.474   3.338   6.601
 5060TIP3    H215058   1.348   3.365   6.522
 5061TIP3   OH215059   6.894   6.199   5.991
 5061TIP3    H115060   6.986   6.192   5.965
 5061TIP3    H215061   6.894   6.263   6.062
 5062TIP3   OH215062   5.205   0.225   1.518
 5062TIP3    H115063   5.196   0.310   1.474
 5062TIP3    H215064   5.118   0.207   1.553
 5063TIP3   OH215065   7.065   8.829   5.924
 5063TIP3    H115066   7.139   8.885   5.946
 5063TIP3    H215067   6.990   8.869   5.967
 5064TIP3   OH215068   4.932   0.256   7.489
 5064TIP3    H115069   4.962   0.166   7.479
 5064TIP3    H215070   4.890   0.277   7.406
 5065TIP3   OH215071   2.365   6.044   6.285
 5065TIP3    H115072   2.389   6.123   6.236
 5065TIP3    H215073   2.270   6.048   6.292
 5066TIP3   OH215074   3.039   7.346   5.050
 5066TIP3    H115075   3.016   7.407   5.121
 5066TIP3    H215076   3.046   7.261   5.093
 5067TIP3   OH215077   5.887   6.206   0.213
 5067TIP3    H115078   5.803   6.163   0.229
 5067TIP3    H215079   5.886   6.225   0.119
 5068TIP3   OH215080   5.941   2.099   3.636
 5068TIP3    H115081   5.979   2.176   3.593
 5068TIP3    H215082   5.950   2.029   3.572
 5069TIP3   OH215083   0.851   8.217   1.896
 5069TIP3    H115084   0.878   8.233   1.806
 5069TIP3    H215085   0.860   8.302   1.939
 5070TIP3   OH215086   3.451   2.901   3.502
 5070TIP3    H115087   3.537   2.878   3.467
 5070TIP3    H215088   3.417   2.819   3.538
 5071TIP3   OH215089   4.457   1.657   4.678
 5071TIP3    H115090   4.550   1.673   4.694
 5071TIP3    H215091   4.447   1.562   4.688
 5072TIP3   OH215092   9.020   1.765   4.006
 5072TIP3    H115093   8.951   1.802   4.061
 5072TIP3    H215094   9.081   1.837   3.993
 5073TIP3   OH215095   0.589   4.331   0.513
 5073TIP3    H115096   0.526   4.316   0.442
 5073TIP3    H215097   0.624   4.245   0.533
 5074TIP3   OH215098   9.569   5.450   6.295
 5074TIP3    H115099   9.629   5.517   6.264
 5074TIP3    H215100   9.552   5.472   6.386
 5075TIP3   OH215101   0.925   8.692   7.124
 5075TIP3    H115102   1.013   8.706   7.090
 5075TIP3    H215103   0.915   8.757   7.193
 5076TIP3   OH215104   6.516   1.563   0.636
 5076TIP3    H115105   6.542   1.654   0.645
 5076TIP3    H215106   6.525   1.544   0.542
 5077TIP3   OH215107   3.174   3.532   6.393
 5077TIP3    H115108   3.153   3.602   6.332
 5077TIP3    H215109   3.179   3.453   6.339
 5078TIP3   OH215110   6.287   5.762   5.425
 5078TIP3    H115111   6.338   5.819   5.366
 5078TIP3    H215112   6.312   5.673   5.399
 5079TIP3   OH215113   2.258   5.148   3.112
 5079TIP3    H115114   2.249   5.067   3.161
 5079TIP3    H215115   2.345   5.143   3.071
 5080TIP3   OH215116   5.083   5.869   1.850
 5080TIP3    H115117   5.175   5.856   1.827
 5080TIP3    H215118   5.035   5.858   1.767
 5081TIP3   OH215119   2.116   2.737   7.568
 5081TIP3    H115120   2.030   2.705   7.596
 5081TIP3    H215121   2.151   2.781   7.645
 5082TIP3   OH215122   1.256   6.661   1.557
 5082TIP3    H115123   1.337   6.677   1.508
 5082TIP3    H215124   1.286   6.618   1.638
 5083TIP3   OH215125   8.719   4.350   3.197
 5083TIP3    H115126   8.692   4.442   3.193
 5083TIP3    H215127   8.638   4.301   3.181
 5084TIP3   OH215128   4.588   6.152   2.129
 5084TIP3    H115129   4.659   6.104   2.087
 5084TIP3    H215130   4.535   6.184   2.055
 5085TIP3   OH215131   1.139   8.592   7.353
 5085TIP3    H115132   1.091   8.625   7.429
 5085TIP3    H215133   1.189   8.667   7.322
 5086TIP3   OH215134   5.611   6.848   1.931
 5086TIP3    H115135   5.590   6.937   1.903
 5086TIP3    H215136   5.702   6.852   1.959
 5087TIP3   OH215137   0.926   5.584   0.369
 5087TIP3    H115138   0.954   5.545   0.452
 5087TIP3    H215139   0.863   5.651   0.395
 5088TIP3   OH215140   7.292   6.144   2.455
 5088TIP3    H115141   7.353   6.094   2.401
 5088TIP3    H215142   7.262   6.214   2.397
 5089TIP3   OH215143   3.075   6.499   1.970
 5089TIP3    H115144   3.160   6.463   1.996
 5089TIP3    H215145   3.012   6.453   2.025
 5090TIP3   OH215146   2.826   7.706   1.656
 5090TIP3    H115147   2.768   7.740   1.588
 5090TIP3    H215148   2.911   7.744   1.636
 5091TIP3   OH215149   1.786   1.190   1.212
 5091TIP3    H115150   1.765   1.125   1.146
 5091TIP3    H215151   1.748   1.271   1.178
 5092TIP3   OH215152   1.982   3.918   7.252
 5092TIP3    H115153   2.046   3.943   7.318
 5092TIP3    H215154   1.902   3.899   7.302
 5093TIP3   OH215155   3.209   2.598   3.612
 5093TIP3    H115156   3.139   2.537   3.636
 5093TIP3    H215157   3.219   2.654   3.689
 5094TIP3   OH215158   7.211   7.123   1.788
 5094TIP3    H115159   7.129   7.073   1.788
 5094TIP3    H215160   7.245   7.111   1.699
 5095TIP3   OH215161   3.206   0.693   6.842
 5095TIP3    H115162   3.289   0.648   6.824
 5095TIP3    H215163   3.230   0.785   6.849
 5096TIP3   OH215164   0.488   2.412   6.683
 5096TIP3    H115165   0.413   2.466   6.711
 5096TIP3    H215166   0.480   2.332   6.735
 5097TIP3   OH215167   3.059   7.249   7.764
 5097TIP3    H115168   3.089   7.327   7.810
 5097TIP3    H215169   3.138   7.198   7.747
 5098TIP3   OH215170   6.835   6.638   7.378
 5098TIP3    H115171   6.869   6.727   7.386
 5098TIP3    H215172   6.875   6.604   7.298
 5099TIP3   OH215173   0.006   2.010   7.262
 5099TIP3    H115174   0.052   2.045   7.338
 5099TIP3    H215175  -0.012   2.087   7.207
 5100TIP3   OH215176   6.268   0.165   0.574
 5100TIP3    H115177   6.210   0.215   0.517
 5100TIP3    H215178   6.257   0.205   0.660
 5101TIP3   OH215179   0.670   7.805   1.105
 5101TIP3    H115180   0.728   7.800   1.029
 5101TIP3    H215181   0.723   7.846   1.174
 5102TIP3   OH215182   0.463   4.026   0.077
 5102TIP3    H115183   0.546   3.980   0.062
 5102TIP3    H215184   0.480   4.082   0.152
 5103TIP3   OH215185   4.859   3.259   0.971
 5103TIP3    H115186   4.830   3.348   0.991
 5103TIP3    H215187   4.924   3.239   1.039
 5104TIP3   OH215188   1.417   8.091   1.458
 5104TIP3    H115189   1.490   8.044   1.498
 5104TIP3    H215190   1.388   8.035   1.387
 5105TIP3   OH215191   6.888   3.842   7.725
 5105TIP3    H115192   6.973   3.887   7.725
 5105TIP3    H215193   6.896   3.776   7.656
 5106TIP3   OH215194   5.288   4.468   4.587
 5106TIP3    H115195   5.213   4.503   4.635
 5106TIP3    H215196   5.260   4.468   4.496
 5107TIP3   OH215197   8.237   7.688   2.252
 5107TIP3    H115198   8.308   7.652   2.198
 5107TIP3    H215199   8.275   7.696   2.339
 5108TIP3   OH215200   8.878   7.908   6.793
 5108TIP3    H115201   8.974   7.916   6.794
 5108TIP3    H215202   8.850   7.959   6.717
 5109TIP3   OH215203   0.976   4.270   0.545
 5109TIP3    H115204   0.925   4.342   0.509
 5109TIP3    H215205   0.946   4.193   0.496
 5110TIP3   OH215206   1.177   6.932   4.503
 5110TIP3    H115207   1.230   6.865   4.460
 5110TIP3    H215208   1.117   6.962   4.436
 5111TIP3   OH215209   6.648   2.121   5.914
 5111TIP3    H115210   6.579   2.185   5.924
 5111TIP3    H215211   6.657   2.080   6.000
 5112TIP3   OH215212   5.512   2.507   1.018
 5112TIP3    H115213   5.511   2.571   0.947
 5112TIP3    H215214   5.435   2.528   1.071
 5113TIP3   OH215215   1.810   2.947   0.228
 5113TIP3    H115216   1.818   3.025   0.282
 5113TIP3    H215217   1.727   2.907   0.254
 5114TIP3   OH215218   0.924   7.410   0.648
 5114TIP3    H115219   0.980   7.487   0.663
 5114TIP3    H215220   0.838   7.446   0.629
 5115TIP3   OH215221   8.404   1.635   4.837
 5115TIP3    H115222   8.318   1.613   4.872
 5115TIP3    H215223   8.398   1.728   4.815
 5116TIP3   OH215224   1.221   0.306   0.502
 5116TIP3    H115225   1.274   0.342   0.432
 5116TIP3    H215226   1.174   0.232   0.463
 5117TIP3   OH215227   3.667   7.856   4.511
 5117TIP3    H115228   3.664   7.773   4.558
 5117TIP3    H215229   3.646   7.834   4.420
 5118TIP3   OH215230   8.025   4.135   3.455
 5118TIP3    H115231   8.075   4.147   3.535
 5118TIP3    H215232   8.067   4.193   3.391
 5119TIP3   OH215233   7.760   3.195   6.596
 5119TIP3    H115234   7.788   3.286   6.605
 5119TIP3    H215235   7.838   3.149   6.566
 5120TIP3   OH215236   1.865   2.021   6.671
 5120TIP3    H115237   1.887   2.007   6.763
 5120TIP3    H215238   1.870   1.934   6.632
 5121TIP3   OH215239   1.265   4.334   0.536
 5121TIP3    H115240   1.176   4.299   0.547
 5121TIP3    H215241   1.294   4.356   0.624
 5122TIP3   OH215242   5.326   6.354   7.560
 5122TIP3    H115243   5.386   6.335   7.632
 5122TIP3    H215244   5.242   6.316   7.588
 5123TIP3   OH215245   3.781   1.709   7.795
 5123TIP3    H115246   3.715   1.665   7.742
 5123TIP3    H215247   3.837   1.754   7.731
 5124TIP3   OH215248   8.702   2.545   5.060
 5124TIP3    H115249   8.789   2.512   5.082
 5124TIP3    H215250   8.642   2.488   5.107
 5125TIP3   OH215251   8.197   4.745   2.946
 5125TIP3    H115252   8.287   4.778   2.945
 5125TIP3    H215253   8.199   4.667   2.890
 5126TIP3   OH215254   8.514   5.853   4.541
 5126TIP3    H115255   8.490   5.870   4.633
 5126TIP3    H215256   8.548   5.763   4.542
 5127TIP3   OH215257   6.643   5.652   6.819
 5127TIP3    H115258   6.607   5.566   6.842
 5127TIP3    H215259   6.687   5.682   6.899
 5128TIP3   OH215260   0.526   1.219   6.091
 5128TIP3    H115261   0.553   1.132   6.122
 5128TIP3    H215262   0.454   1.243   6.149
 5129TIP3   OH215263   6.531   7.543   0.668
 5129TIP3    H115264   6.599   7.491   0.625
 5129TIP3    H215265   6.557   7.634   0.652
 5130TIP3   OH215266   1.387   1.161   7.259
 5130TIP3    H115267   1.360   1.251   7.276
 5130TIP3    H215268   1.481   1.167   7.243
 5131TIP3   OH215269   2.302   1.186   6.725
 5131TIP3    H115270   2.288   1.263   6.670
 5131TIP3    H215271   2.327   1.221   6.810
 5132TIP3   OH215272   8.872   9.000   3.157
 5132TIP3    H115273   8.888   8.913   3.193
 5132TIP3    H215274   8.812   8.985   3.083
 5133TIP3   OH215275   0.058   3.081   5.293
 5133TIP3    H115276   0.120   3.025   5.247
 5133TIP3    H215277   0.095   3.169   5.285
 5134TIP3   OH215278   3.481   7.670   4.282
 5134TIP3    H115279   3.572   7.646   4.299
 5134TIP3    H215280   3.437   7.663   4.367
 5135TIP3   OH215281   2.807   7.810   5.132
 5135TIP3    H115282   2.769   7.825   5.046
 5135TIP3    H215283   2.901   7.804   5.117
 5136TIP3   OH215284   5.203   8.925   5.855
 5136TIP3    H115285   5.292   8.922   5.891
 5136TIP3    H215286   5.181   8.833   5.838
 5137TIP3   OH215287   2.006   3.611   4.169
 5137TIP3    H115288   1.974   3.567   4.247
 5137TIP3    H215289   2.064   3.548   4.127
 5138TIP3   OH215290   6.742   8.130   3.352
 5138TIP3    H115291   6.752   8.224   3.340
 5138TIP3    H215292   6.659   8.109   3.309
 5139TIP3   OH215293   4.564   8.083   0.412
 5139TIP3    H115294   4.624   8.044   0.476
 5139TIP3    H215295   4.622   8.115   0.342
 5140TIP3   OH215296   0.500   7.484   1.846
 5140TIP3    H115297   0.481   7.575   1.821
 5140TIP3    H215298   0.595   7.477   1.839
 5141TIP3   OH215299   1.205   0.722   3.948
 5141TIP3    H115300   1.283   0.667   3.942
 5141TIP3    H215301   1.236   0.810   3.924
 5142TIP3   OH215302   8.547   6.512   3.404
 5142TIP3    H115303   8.529   6.602   3.432
 5142TIP3    H215304   8.498   6.457   3.466
 5143TIP3   OH215305   8.581   5.655   0.573
 5143TIP3    H115306   8.589   5.561   0.557
 5143TIP3    H215307   8.610   5.696   0.491
 5144TIP3   OH215308   9.492   5.801   2.293
 5144TIP3    H115309   9.415   5.824   2.241
 5144TIP3    H215310   9.458   5.778   2.379
 5145TIP3   OH215311   9.363   4.023   3.425
 5145TIP3    H115312   9.314   4.020   3.508
 5145TIP3    H215313   9.307   4.073   3.366
 5146TIP3   OH215314   4.146   6.310   1.279
 5146TIP3    H115315   4.085   6.316   1.206
 5146TIP3    H215316   4.233   6.312   1.238
 5147TIP3   OH215317   1.872   5.317   1.668
 5147TIP3    H115318   1.838   5.312   1.579
 5147TIP3    H215319   1.800   5.285   1.723
 5148TIP3   OH215320   4.105   2.694   5.244
 5148TIP3    H115321   4.097   2.775   5.295
 5148TIP3    H215322   4.109   2.625   5.310
 5149TIP3   OH215323   0.824   6.292   1.579
 5149TIP3    H115324   0.823   6.374   1.530
 5149TIP3    H215325   0.914   6.260   1.571
 5150TIP3   OH215326   4.669   2.226   1.434
 5150TIP3    H115327   4.713   2.263   1.510
 5150TIP3    H215328   4.655   2.301   1.376
 5151TIP3   OH215329   0.643   2.827   6.922
 5151TIP3    H115330   0.723   2.777   6.908
 5151TIP3    H215331   0.583   2.795   6.854
 5152TIP3   OH215332   4.683   7.069   4.165
 5152TIP3    H115333   4.671   7.122   4.244
 5152TIP3    H215334   4.593   7.046   4.138
 5153TIP3   OH215335   0.825   5.985   2.043
 5153TIP3    H115336   0.756   5.974   1.977
 5153TIP3    H215337   0.800   5.926   2.114
 5154TIP3   OH215338   6.435   5.859   3.821
 5154TIP3    H115339   6.500   5.921   3.790
 5154TIP3    H215340   6.430   5.793   3.751
 5155TIP3   OH215341   8.170   0.042   4.983
 5155TIP3    H115342   8.154  -0.049   4.958
 5155TIP3    H215343   8.263   0.056   4.965
 5156TIP3   OH215344   7.132   5.903   7.241
 5156TIP3    H115345   7.162   5.960   7.312
 5156TIP3    H215346   7.212   5.863   7.208
 5157TIP3   OH215347   7.298   3.818   0.365
 5157TIP3    H115348   7.295   3.740   0.309
 5157TIP3    H215349   7.206   3.841   0.379
 5158TIP3   OH215350   1.827   3.966   6.095
 5158TIP3    H115351   1.748   3.998   6.138
 5158TIP3    H215352   1.811   3.981   6.001
 5159TIP3   OH215353   5.217   6.724   5.401
 5159TIP3    H115354   5.266   6.648   5.371
 5159TIP3    H215355   5.150   6.687   5.459
 5160TIP3   OH215356   7.175   6.665   1.174
 5160TIP3    H115357   7.171   6.712   1.091
 5160TIP3    H215358   7.267   6.640   1.182
 5161TIP3   OH215359   8.555   6.313   5.059
 5161TIP3    H115360   8.573   6.244   4.995
 5161TIP3    H215361   8.478   6.358   5.024
 5162TIP3   OH215362   8.097   1.422   4.437
 5162TIP3    H115363   8.133   1.380   4.515
 5162TIP3    H215364   8.034   1.359   4.402
 5163TIP3   OH215365   8.587   2.938   5.008
 5163TIP3    H115366   8.559   2.893   4.928
 5163TIP3    H215367   8.507   2.978   5.042
 5164TIP3   OH215368   5.868   4.433   0.070
 5164TIP3    H115369   5.830   4.387   0.144
 5164TIP3    H215370   5.794   4.450   0.011
 5165TIP3   OH215371   1.070   6.604   6.891
 5165TIP3    H115372   1.147   6.617   6.946
 5165TIP3    H215373   1.023   6.687   6.896
 5166TIP3   OH215374   8.519   7.600   1.045
 5166TIP3    H115375   8.609   7.631   1.056
 5166TIP3    H215376   8.495   7.627   0.956
 5167TIP3   OH215377   0.719   6.989   2.778
 5167TIP3    H115378   0.672   7.051   2.723
 5167TIP3    H215379   0.777   6.943   2.718
 5168TIP3   OH215380   7.624   4.932   3.582
 5168TIP3    H115381   7.712   4.941   3.619
 5168TIP3    H215382   7.567   4.969   3.649
 5169TIP3   OH215383   6.017   0.970   6.241
 5169TIP3    H115384   5.961   0.903   6.280
 5169TIP3    H215385   6.018   1.041   6.305
 5170TIP3   OH215386   2.788   7.988   0.813
 5170TIP3    H115387   2.781   8.029   0.900
 5170TIP3    H215388   2.822   7.900   0.831
 5171TIP3   OH215389   9.430   0.968   6.816
 5171TIP3    H115390   9.410   0.971   6.723
 5171TIP3    H215391   9.349   0.996   6.859
 5172TIP3   OH215392   2.976   3.183   3.922
 5172TIP3    H115393   2.978   3.234   4.003
 5172TIP3    H215394   3.061   3.200   3.881
 5173TIP3   OH215395   7.696   6.777   2.342
 5173TIP3    H115396   7.765   6.749   2.402
 5173TIP3    H215397   7.731   6.755   2.255
 5174TIP3   OH215398   9.354   8.387   6.119
 5174TIP3    H115399   9.361   8.292   6.128
 5174TIP3    H215400   9.435   8.412   6.075
 5175TIP3   OH215401   3.710   0.938   2.240
 5175TIP3    H115402   3.792   0.985   2.253
 5175TIP3    H215403   3.736   0.847   2.224
 5176TIP3   OH215404   7.982   4.933   5.986
 5176TIP3    H115405   7.971   5.001   5.920
 5176TIP3    H215406   7.951   4.853   5.944
 5177TIP3   OH215407   4.878   8.250   7.661
 5177TIP3    H115408   4.830   8.273   7.581
 5177TIP3    H215409   4.890   8.155   7.655
 5178TIP3   OH215410   1.054   7.790   5.536
 5178TIP3    H115411   1.098   7.718   5.580
 5178TIP3    H215412   1.003   7.833   5.605
 5179TIP3   OH215413   7.300   3.253   7.433
 5179TIP3    H115414   7.348   3.290   7.507
 5179TIP3    H215415   7.209   3.280   7.448
 5180TIP3   OH215416   6.577   4.913   3.509
 5180TIP3    H115417   6.604   4.831   3.549
 5180TIP3    H215418   6.544   4.888   3.423
 5181TIP3   OH215419   8.750   6.066   4.608
 5181TIP3    H115420   8.760   5.977   4.643
 5181TIP3    H215421   8.716   6.053   4.519
 5182TIP3   OH215422   9.310   0.366   2.954
 5182TIP3    H115423   9.263   0.449   2.965
 5182TIP3    H215424   9.353   0.352   3.039
 5183TIP3   OH215425   9.278   8.468   3.615
 5183TIP3    H115426   9.327   8.524   3.554
 5183TIP3    H215427   9.274   8.383   3.573
 5184TIP3   OH215428   9.096   2.154   6.038
 5184TIP3    H115429   9.057   2.078   6.081
 5184TIP3    H215430   9.101   2.220   6.108
 5185TIP3   OH215431   3.159   7.697   5.178
 5185TIP3    H115432   3.133   7.724   5.090
 5185TIP3    H215433   3.113   7.756   5.237
 5186TIP3   OH215434   9.543   7.252   4.775
 5186TIP3    H115435   9.459   7.223   4.810
 5186TIP3    H215436   9.607   7.195   4.818
 5187TIP3   OH215437   9.011   8.747   4.558
 5187TIP3    H115438   9.003   8.806   4.633
 5187TIP3    H215439   9.085   8.690   4.580
 5188TIP3   OH215440   6.104   0.690   2.431
 5188TIP3    H115441   6.064   0.636   2.363
 5188TIP3    H215442   6.089   0.641   2.512
 5189TIP3   OH215443   8.340   8.909   7.320
 5189TIP3    H115444   8.319   8.858   7.399
 5189TIP3    H215445   8.285   8.869   7.252
 5190TIP3   OH215446   2.280   6.679   5.783
 5190TIP3    H115447   2.310   6.613   5.846
 5190TIP3    H215448   2.188   6.656   5.767
 5191TIP3   OH215449   5.891   0.325   7.024
 5191TIP3    H115450   5.919   0.331   6.932
 5191TIP3    H215451   5.914   0.411   7.060
 5192TIP3   OH215452   5.793   7.955   3.259
 5192TIP3    H115453   5.769   8.008   3.183
 5192TIP3    H215454   5.757   8.003   3.334
 5193TIP3   OH215455   6.330   8.645   5.176
 5193TIP3    H115456   6.268   8.574   5.191
 5193TIP3    H215457   6.327   8.660   5.082
 5194TIP3   OH215458   1.944   4.823   3.415
 5194TIP3    H115459   1.918   4.779   3.496
 5194TIP3    H215460   1.968   4.911   3.442
 5195TIP3   OH215461   3.807   2.154   6.473
 5195TIP3    H115462   3.726   2.195   6.442
 5195TIP3    H215463   3.796   2.061   6.452
 5196TIP3   OH215464   5.967   7.678   6.136
 5196TIP3    H115465   5.906   7.738   6.091
 5196TIP3    H215466   6.046   7.730   6.149
 5197TIP3   OH215467   1.695   2.210   2.553
 5197TIP3    H115468   1.679   2.163   2.472
 5197TIP3    H215469   1.783   2.184   2.579
 5198TIP3   OH215470   6.437   7.840   4.334
 5198TIP3    H115471   6.455   7.891   4.255
 5198TIP3    H215472   6.509   7.862   4.393
 5199TIP3   OH215473   6.794   3.499   4.699
 5199TIP3    H115474   6.820   3.581   4.657
 5199TIP3    H215475   6.859   3.485   4.768
 5200TIP3   OH215476   2.884   7.707   7.068
 5200TIP3    H115477   2.957   7.690   7.127
 5200TIP3    H215478   2.807   7.672   7.114
 5201TIP3   OH215479   4.823   8.385   5.593
 5201TIP3    H115480   4.886   8.369   5.662
 5201TIP3    H215481   4.875   8.420   5.520
 5202TIP3   OH215482   7.772   1.720   6.835
 5202TIP3    H115483   7.821   1.725   6.917
 5202TIP3    H215484   7.681   1.736   6.861
 5203TIP3   OH215485   4.398   1.192   6.924
 5203TIP3    H115486   4.312   1.234   6.926
 5203TIP3    H215487   4.395   1.129   6.996
 5204TIP3   OH215488   1.221   7.310   1.196
 5204TIP3    H115489   1.292   7.328   1.258
 5204TIP3    H215490   1.156   7.378   1.215
 5205TIP3   OH215491   3.245   2.127   2.480
 5205TIP3    H115492   3.265   2.044   2.439
 5205TIP3    H215493   3.281   2.119   2.569
 5206TIP3   OH215494   1.875   6.158   0.618
 5206TIP3    H115495   1.805   6.124   0.673
 5206TIP3    H215496   1.836   6.233   0.572
 5207TIP3   OH215497   8.498   5.358   1.428
 5207TIP3    H115498   8.465   5.329   1.343
 5207TIP3    H215499   8.543   5.281   1.464
 5208TIP3   OH215500   5.094   2.549   7.060
 5208TIP3    H115501   5.182   2.544   7.098
 5208TIP3    H215502   5.110   2.564   6.967
 5209TIP3   OH215503   7.696   8.349   1.244
 5209TIP3    H115504   7.710   8.256   1.263
 5209TIP3    H215505   7.614   8.371   1.289
 5210TIP3   OH215506   2.989   0.449   2.713
 5210TIP3    H115507   3.064   0.417   2.765
 5210TIP3    H215508   2.999   0.544   2.713
 5211TIP3   OH215509   2.233   0.006   2.219
 5211TIP3    H115510   2.201   0.012   2.129
 5211TIP3    H215511   2.153   0.000   2.272
 5212TIP3   OH215512   7.892   0.074   4.707
 5212TIP3    H115513   7.948  -0.001   4.686
 5212TIP3    H215514   7.882   0.071   4.802
 5213TIP3   OH215515   6.226   2.985   7.510
 5213TIP3    H115516   6.264   3.069   7.487
 5213TIP3    H215517   6.291   2.921   7.483
 5214TIP3   OH215518   7.462   7.373   2.470
 5214TIP3    H115519   7.391   7.437   2.465
 5214TIP3    H215520   7.422   7.292   2.438
 5215TIP3   OH215521   0.186   7.974   6.517
 5215TIP3    H115522   0.098   7.999   6.490
 5215TIP3    H215523   0.176   7.885   6.553
 5216TIP3   OH215524   8.824   5.062   3.653
 5216TIP3    H115525   8.827   5.127   3.583
 5216TIP3    H215526   8.915   5.047   3.676
 5217TIP3   OH215527   0.309   5.089   3.925
 5217TIP3    H115528   0.395   5.123   3.950
 5217TIP3    H215529   0.319   5.059   3.835
 5218TIP3   OH215530   4.152   6.665   3.252
 5218TIP3    H115531   4.152   6.757   3.277
 5218TIP3    H215532   4.081   6.626   3.303
 5219TIP3   OH215533   1.663   5.809   1.204
 5219TIP3    H115534   1.721   5.735   1.187
 5219TIP3    H215535   1.576   5.779   1.177
 5220TIP3   OH215536   2.913   2.746   4.117
 5220TIP3    H115537   2.820   2.770   4.114
 5220TIP3    H215538   2.955   2.803   4.053
 5221TIP3   OH215539   1.815   6.373   4.017
 5221TIP3    H115540   1.887   6.328   4.061
 5221TIP3    H215541   1.821   6.463   4.049
 5222TIP3   OH215542   6.942   2.356   1.258
 5222TIP3    H115543   7.027   2.400   1.264
 5222TIP3    H215544   6.953   2.291   1.189
 5223TIP3   OH215545   0.323   8.656   5.007
 5223TIP3    H115546   0.356   8.673   5.095
 5223TIP3    H215547   0.372   8.579   4.978
 5224TIP3   OH215548   2.424   1.329   3.105
 5224TIP3    H115549   2.417   1.408   3.053
 5224TIP3    H215550   2.499   1.282   3.068
 5225TIP3   OH215551   0.517   0.034   3.775
 5225TIP3    H115552   0.506   0.030   3.680
 5225TIP3    H215553   0.570   0.112   3.790
 5226TIP3   OH215554   7.537   2.729   5.524
 5226TIP3    H115555   7.476   2.801   5.506
 5226TIP3    H215556   7.602   2.767   5.582
 5227TIP3   OH215557   0.299   4.769   5.714
 5227TIP3    H115558   0.278   4.764   5.620
 5227TIP3    H215559   0.372   4.708   5.725
 5228TIP3   OH215560   2.878   3.692   1.901
 5228TIP3    H115561   2.864   3.598   1.913
 5228TIP3    H215562   2.966   3.708   1.935
 5229TIP3   OH215563   2.527   4.799   4.197
 5229TIP3    H115564   2.467   4.726   4.184
 5229TIP3    H215565   2.518   4.852   4.117
 5230TIP3   OH215566   4.303   0.872   5.415
 5230TIP3    H115567   4.275   0.784   5.388
 5230TIP3    H215568   4.395   0.876   5.388
 5231TIP3   OH215569   1.393   0.344   4.993
 5231TIP3    H115570   1.315   0.300   4.959
 5231TIP3    H215571   1.458   0.335   4.924
 5232TIP3   OH215572   4.665   1.703   4.841
 5232TIP3    H115573   4.726   1.774   4.819
 5232TIP3    H215574   4.721   1.632   4.872
 5233TIP3   OH215575   1.770   7.602   5.520
 5233TIP3    H115576   1.682   7.588   5.486
 5233TIP3    H215577   1.796   7.517   5.554
 5234TIP3   OH215578   1.412   3.085   6.834
 5234TIP3    H115579   1.471   3.119   6.902
 5234TIP3    H215580   1.347   3.154   6.824
 5235TIP3   OH215581   6.127   5.029   4.006
 5235TIP3    H115582   6.119   5.122   4.024
 5235TIP3    H215583   6.038   5.001   3.985
 5236TIP3   OH215584   5.870   6.422   7.175
 5236TIP3    H115585   5.804   6.482   7.141
 5236TIP3    H215586   5.823   6.341   7.195
 5237TIP3   OH215587   9.257   0.532   6.699
 5237TIP3    H115588   9.272   0.438   6.702
 5237TIP3    H215589   9.253   0.559   6.791
 5238TIP3   OH215590   4.768   7.705   3.338
 5238TIP3    H115591   4.782   7.628   3.394
 5238TIP3    H215592   4.673   7.719   3.342
 5239TIP3   OH215593   4.175   2.873   5.947
 5239TIP3    H115594   4.105   2.873   6.012
 5239TIP3    H215595   4.256   2.864   5.998
 5240TIP3   OH215596   8.176   6.919   6.760
 5240TIP3    H115597   8.143   6.934   6.671
 5240TIP3    H215598   8.263   6.883   6.747
 5241TIP3   OH215599   2.706   3.633   0.032
 5241TIP3    H115600   2.660   3.554   0.006
 5241TIP3    H215601   2.647   3.705   0.008
 5242TIP3   OH215602   2.766   1.681   3.186
 5242TIP3    H115603   2.805   1.601   3.219
 5242TIP3    H215604   2.774   1.744   3.257
 5243TIP3   OH215605   8.964   1.168   3.450
 5243TIP3    H115606   8.907   1.235   3.412
 5243TIP3    H215607   8.917   1.086   3.436
 5244TIP3   OH215608   9.553   2.860   5.863
 5244TIP3    H115609   9.596   2.913   5.796
 5244TIP3    H215610   9.460   2.864   5.840
 5245TIP3   OH215611   2.558   8.570   4.832
 5245TIP3    H115612   2.557   8.622   4.912
 5245TIP3    H215613   2.530   8.483   4.859
 5246TIP3   OH215614   0.897   2.431   6.070
 5246TIP3    H115615   0.877   2.490   6.142
 5246TIP3    H215616   0.966   2.374   6.104
 5247TIP3   OH215617   1.242   3.145   7.264
 5247TIP3    H115618   1.313   3.193   7.222
 5247TIP3    H215619   1.172   3.143   7.198
 5248TIP3   OH215620   2.237   3.008   6.320
 5248TIP3    H115621   2.162   2.971   6.366
 5248TIP3    H215622   2.270   2.937   6.265
 5249TIP3   OH215623   9.077   2.240   7.094
 5249TIP3    H115624   9.159   2.195   7.117
 5249TIP3    H215625   9.074   2.237   6.999
 5250TIP3   OH215626   4.642   0.349   5.331
 5250TIP3    H115627   4.699   0.378   5.402
 5250TIP3    H215628   4.685   0.380   5.251
 5251TIP3   OH215629   3.102   1.438   5.062
 5251TIP3    H115630   3.149   1.356   5.079
 5251TIP3    H215631   3.056   1.422   4.979
 5252TIP3   OH215632   9.252   1.458   5.379
 5252TIP3    H115633   9.245   1.429   5.288
 5252TIP3    H215634   9.202   1.393   5.428
 5253TIP3   OH215635   2.941   1.531   3.573
 5253TIP3    H115636   2.863   1.568   3.614
 5253TIP3    H215637   2.911   1.498   3.489
 5254TIP3   OH215638   6.120   3.676   7.036
 5254TIP3    H115639   6.107   3.771   7.044
 5254TIP3    H215640   6.192   3.656   7.095
 5255TIP3   OH215641   0.998   3.035   7.627
 5255TIP3    H115642   1.068   3.070   7.682
 5255TIP3    H215643   0.938   2.993   7.689
 5256TIP3   OH215644   4.116   7.814   0.276
 5256TIP3    H115645   4.067   7.873   0.219
 5256TIP3    H215646   4.201   7.856   0.287
 5257TIP3   OH215647   0.864   8.416   1.283
 5257TIP3    H115648   0.927   8.440   1.215
 5257TIP3    H215649   0.895   8.463   1.361
 5258TIP3   OH215650   4.679   3.093   4.997
 5258TIP3    H115651   4.613   3.023   4.988
 5258TIP3    H215652   4.640   3.154   5.059
 5259TIP3   OH215653   4.729   2.402   0.880
 5259TIP3    H115654   4.789   2.330   0.902
 5259TIP3    H215655   4.643   2.361   0.877
 5260TIP3   OH215656   4.178   7.730   6.023
 5260TIP3    H115657   4.173   7.810   6.075
 5260TIP3    H215658   4.271   7.719   6.005
 5261TIP3   OH215659   7.906   5.968   3.515
 5261TIP3    H115660   7.929   5.921   3.435
 5261TIP3    H215661   7.819   6.004   3.497
 5262TIP3   OH215662   6.892   7.284   3.430
 5262TIP3    H115663   6.856   7.361   3.472
 5262TIP3    H215664   6.973   7.315   3.388
 5263TIP3   OH215665   9.222   8.464   6.362
 5263TIP3    H115666   9.248   8.427   6.278
 5263TIP3    H215667   9.149   8.409   6.390
 5264TIP3   OH215668   1.105   1.024   4.565
 5264TIP3    H115669   1.014   0.994   4.562
 5264TIP3    H215670   1.150   0.960   4.619
 5265TIP3   OH215671   0.932   7.159   0.528
 5265TIP3    H115672   0.919   7.238   0.581
 5265TIP3    H215673   1.015   7.123   0.558
 5266TIP3   OH215674   0.881   6.397   7.275
 5266TIP3    H115675   0.961   6.436   7.241
 5266TIP3    H215676   0.892   6.398   7.370
 5267TIP3   OH215677   3.339   8.549   4.567
 5267TIP3    H115678   3.271   8.615   4.567
 5267TIP3    H215679   3.321   8.495   4.489
 5268TIP3   OH215680   4.662   0.214   1.669
 5268TIP3    H115681   4.680   0.120   1.677
 5268TIP3    H215682   4.651   0.244   1.759
 5269TIP3   OH215683   4.742   4.371   6.294
 5269TIP3    H115684   4.762   4.319   6.217
 5269TIP3    H215685   4.813   4.353   6.355
 5270TIP3   OH215686   0.151   4.129   2.489
 5270TIP3    H115687   0.132   4.208   2.439
 5270TIP3    H215688   0.158   4.159   2.580
 5271TIP3   OH215689   4.635   2.251   2.023
 5271TIP3    H115690   4.707   2.294   2.068
 5271TIP3    H215691   4.672   2.169   1.990
 5272TIP3   OH215692   5.878   1.742   4.848
 5272TIP3    H115693   5.849   1.664   4.802
 5272TIP3    H215694   5.801   1.773   4.895
 5273TIP3   OH215695   6.125   5.674   2.497
 5273TIP3    H115696   6.184   5.724   2.440
 5273TIP3    H215697   6.183   5.615   2.546
 5274TIP3   OH215698   4.301   2.657   5.062
 5274TIP3    H115699   4.272   2.612   4.982
 5274TIP3    H215700   4.226   2.651   5.121
 5275TIP3   OH215701   1.747   7.536   4.650
 5275TIP3    H115702   1.702   7.452   4.651
 5275TIP3    H215703   1.783   7.543   4.561
 5276TIP3   OH215704   1.390   8.643   1.097
 5276TIP3    H115705   1.334   8.698   1.152
 5276TIP3    H215706   1.399   8.692   1.015
 5277TIP3   OH215707   8.628   1.546   7.461
 5277TIP3    H115708   8.548   1.568   7.511
 5277TIP3    H215709   8.684   1.502   7.525
 5278TIP3   OH215710   4.121   4.017   2.140
 5278TIP3    H115711   4.205   3.974   2.158
 5278TIP3    H215712   4.143   4.109   2.130
 5279TIP3   OH215713   4.604   6.660   7.692
 5279TIP3    H115714   4.593   6.749   7.725
 5279TIP3    H215715   4.687   6.662   7.645
 5280TIP3   OH215716   1.219   4.911   7.563
 5280TIP3    H115717   1.167   4.969   7.618
 5280TIP3    H215718   1.264   4.853   7.624
 5281TIP3   OH215719   5.836   3.204   2.063
 5281TIP3    H115720   5.861   3.245   2.146
 5281TIP3    H215721   5.851   3.111   2.077
 5282TIP3   OH215722   0.882   0.017   2.850
 5282TIP3    H115723   0.812  -0.027   2.802
 5282TIP3    H215724   0.836   0.085   2.900
 5283TIP3   OH215725   2.794   1.443   2.693
 5283TIP3    H115726   2.807   1.422   2.785
 5283TIP3    H215727   2.710   1.488   2.690
 5284TIP3   OH215728   4.970   7.276   7.789
 5284TIP3    H115729   4.982   7.251   7.881
 5284TIP3    H215730   5.033   7.221   7.742
 5285TIP3   OH215731   0.592   6.816   1.912
 5285TIP3    H115732   0.516   6.766   1.880
 5285TIP3    H215733   0.556   6.900   1.938
 5286TIP3   OH215734   3.916   4.497   7.121
 5286TIP3    H115735   3.877   4.576   7.084
 5286TIP3    H215736   3.847   4.431   7.113
 5287TIP3   OH215737   8.791   2.800   3.072
 5287TIP3    H115738   8.875   2.835   3.101
 5287TIP3    H215739   8.780   2.834   2.984
 5288TIP3   OH215740   9.206   3.912   0.432
 5288TIP3    H115741   9.151   3.950   0.501
 5288TIP3    H215742   9.159   3.834   0.405
 5289TIP3   OH215743   3.240   0.217   1.990
 5289TIP3    H115744   3.164   0.222   1.933
 5289TIP3    H215745   3.205   0.224   2.079
 5290TIP3   OH215746   5.694   0.397   7.590
 5290TIP3    H115747   5.775   0.357   7.559
 5290TIP3    H215748   5.628   0.372   7.526
 5291TIP3   OH215749   1.741   7.168   0.926
 5291TIP3    H115750   1.684   7.215   0.866
 5291TIP3    H215751   1.693   7.165   1.008
 5292TIP3   OH215752   8.220   1.976   7.678
 5292TIP3    H115753   8.236   1.940   7.765
 5292TIP3    H215754   8.138   2.023   7.686
 5293TIP3   OH215755   3.514   6.494   6.396
 5293TIP3    H115756   3.587   6.500   6.458
 5293TIP3    H215757   3.436   6.513   6.448
 5294TIP3   OH215758   6.460   7.175   3.506
 5294TIP3    H115759   6.413   7.151   3.427
 5294TIP3    H215760   6.483   7.267   3.493
 5295TIP3   OH215761   7.962   5.036   5.474
 5295TIP3    H115762   7.902   5.044   5.548
 5295TIP3    H215763   7.999   5.124   5.463
 5296TIP3   OH215764   0.871   4.126   3.019
 5296TIP3    H115765   0.801   4.146   2.957
 5296TIP3    H215766   0.830   4.070   3.085
 5297TIP3   OH215767   9.392   3.456   3.737
 5297TIP3    H115768   9.363   3.433   3.648
 5297TIP3    H215769   9.467   3.514   3.723
 5298TIP3   OH215770   0.398   3.206   4.998
 5298TIP3    H115771   0.447   3.274   5.045
 5298TIP3    H215772   0.307   3.235   5.000
 5299TIP3   OH215773   7.128   1.341   3.626
 5299TIP3    H115774   7.178   1.344   3.708
 5299TIP3    H215775   7.037   1.351   3.654
 5300TIP3   OH215776   5.951   3.508   0.187
 5300TIP3    H115777   5.951   3.527   0.281
 5300TIP3    H215778   6.040   3.530   0.158
 5301TIP3   OH215779   6.759   5.522   5.445
 5301TIP3    H115780   6.765   5.616   5.460
 5301TIP3    H215781   6.848   5.496   5.422
 5302TIP3   OH215782   1.024   5.943   1.135
 5302TIP3    H115783   1.016   6.033   1.166
 5302TIP3    H215784   1.110   5.914   1.163
 5303TIP3   OH215785   0.654   1.265   2.516
 5303TIP3    H115786   0.706   1.301   2.444
 5303TIP3    H215787   0.570   1.242   2.476
 5304TIP3   OH215788   0.424   5.240   5.449
 5304TIP3    H115789   0.349   5.227   5.392
 5304TIP3    H215790   0.400   5.198   5.531
 5305TIP3   OH215791   9.464   8.377   7.555
 5305TIP3    H115792   9.378   8.368   7.513
 5305TIP3    H215793   9.526   8.383   7.482
 5306TIP3   OH215794   5.452   2.689   7.051
 5306TIP3    H115795   5.506   2.670   6.974
 5306TIP3    H215796   5.474   2.778   7.076
 5307TIP3   OH215797   0.368   5.704   2.096
 5307TIP3    H115798   0.459   5.725   2.117
 5307TIP3    H215799   0.319   5.782   2.121
 5308TIP3   OH215800   4.436   2.069   0.010
 5308TIP3    H115801   4.419   2.085   0.103
 5308TIP3    H215802   4.352   2.084  -0.033
 5309TIP3   OH215803   9.284   3.061   5.886
 5309TIP3    H115804   9.208   3.031   5.836
 5309TIP3    H215805   9.294   2.996   5.955
 5310TIP3   OH215806   1.210   4.898   4.561
 5310TIP3    H115807   1.281   4.849   4.520
 5310TIP3    H215808   1.194   4.972   4.503
 5311TIP3   OH215809   5.189   5.172   1.743
 5311TIP3    H115810   5.243   5.093   1.737
 5311TIP3    H215811   5.115   5.155   1.685
 5312TIP3   OH215812   4.764   8.772   4.021
 5312TIP3    H115813   4.718   8.780   4.104
 5312TIP3    H215814   4.696   8.784   3.954
 5313TIP3   OH215815   2.306   6.465   0.141
 5313TIP3    H115816   2.310   6.559   0.160
 5313TIP3    H215817   2.251   6.429   0.211
 5314TIP3   OH215818   1.556   2.843   6.088
 5314TIP3    H115819   1.507   2.851   6.170
 5314TIP3    H215820   1.517   2.767   6.044
 5315TIP3   OH215821   4.680   5.825   0.139
 5315TIP3    H115822   4.610   5.762   0.120
 5315TIP3    H215823   4.650   5.907   0.101
 5316TIP3   OH215824   9.482   7.885   6.814
 5316TIP3    H115825   9.541   7.825   6.769
 5316TIP3    H215826   9.454   7.946   6.745
 5317TIP3   OH215827   7.275   0.560   4.115
 5317TIP3    H115828   7.185   0.591   4.110
 5317TIP3    H215829   7.267   0.465   4.125
 5318TIP3   OH215830   4.552   8.110   1.111
 5318TIP3    H115831   4.550   8.126   1.016
 5318TIP3    H215832   4.467   8.070   1.130
 5319TIP3   OH215833   5.428   1.634   1.002
 5319TIP3    H115834   5.419   1.541   1.019
 5319TIP3    H215835   5.481   1.639   0.922
 5320TIP3   OH215836   6.530   6.357   0.801
 5320TIP3    H115837   6.600   6.386   0.859
 5320TIP3    H215838   6.574   6.321   0.725
 5321TIP3   OH215839   1.392   8.304   2.405
 5321TIP3    H115840   1.317   8.255   2.372
 5321TIP3    H215841   1.463   8.241   2.408
 5322TIP3   OH215842   5.262   3.479   6.519
 5322TIP3    H115843   5.296   3.548   6.463
 5322TIP3    H215844   5.321   3.405   6.505
 5323TIP3   OH215845   3.030   7.033   1.722
 5323TIP3    H115846   2.936   7.018   1.739
 5323TIP3    H215847   3.057   7.092   1.792
 5324TIP3   OH215848   1.767   3.707   4.542
 5324TIP3    H115849   1.756   3.791   4.497
 5324TIP3    H215850   1.802   3.731   4.628
 5325TIP3   OH215851   2.388   1.631   6.434
 5325TIP3    H115852   2.313   1.653   6.379
 5325TIP3    H215853   2.417   1.714   6.470
 5326TIP3   OH215854   3.390   4.086   3.526
 5326TIP3    H115855   3.305   4.095   3.483
 5326TIP3    H215856   3.369   4.080   3.620
 5327TIP3   OH215857   7.426   1.066   6.745
 5327TIP3    H115858   7.371   1.061   6.823
 5327TIP3    H215859   7.405   1.152   6.707
 5328TIP3   OH215860   8.344   6.405   0.025
 5328TIP3    H115861   8.330   6.380   0.117
 5328TIP3    H215862   8.273   6.466   0.005
 5329TIP3   OH215863   9.032   5.514   1.369
 5329TIP3    H115864   8.937   5.503   1.370
 5329TIP3    H215865   9.057   5.525   1.461
 5330TIP3   OH215866   0.793   1.245   5.381
 5330TIP3    H115867   0.795   1.336   5.351
 5330TIP3    H215868   0.730   1.245   5.453
 5331TIP3   OH215869   9.087   2.016   5.043
 5331TIP3    H115870   9.071   2.111   5.046
 5331TIP3    H215871   8.999   1.978   5.046
 5332TIP3   OH215872   0.322   3.407   5.938
 5332TIP3    H115873   0.350   3.399   5.847
 5332TIP3    H215874   0.289   3.320   5.960
 5333TIP3   OH215875   1.332   2.365   3.339
 5333TIP3    H115876   1.288   2.317   3.409
 5333TIP3    H215877   1.283   2.345   3.260
 5334TIP3   OH215878   7.434   7.150   2.763
 5334TIP3    H115879   7.391   7.101   2.833
 5334TIP3    H215880   7.365   7.167   2.699
 5335TIP3   OH215881   7.211   1.916   5.625
 5335TIP3    H115882   7.287   1.914   5.684
 5335TIP3    H215883   7.164   1.835   5.644
 5336TIP3   OH215884   9.462   1.738   2.900
 5336TIP3    H115885   9.478   1.803   2.968
 5336TIP3    H215886   9.539   1.681   2.903
 5337TIP3   OH215887   3.833   0.173   1.999
 5337TIP3    H115888   3.898   0.243   2.000
 5337TIP3    H215889   3.878   0.098   2.038
 5338TIP3   OH215890   7.203   5.808   5.238
 5338TIP3    H115891   7.222   5.734   5.181
 5338TIP3    H215892   7.221   5.885   5.185
 5339TIP3   OH215893   4.991   4.018   5.740
 5339TIP3    H115894   4.915   4.074   5.760
 5339TIP3    H215895   4.956   3.951   5.682
 5340TIP3   OH215896   0.780   8.458   4.420
 5340TIP3    H115897   0.713   8.457   4.351
 5340TIP3    H215898   0.731   8.445   4.501
 5341TIP3   OH215899   8.317   8.463   4.835
 5341TIP3    H115900   8.261   8.489   4.908
 5341TIP3    H215901   8.406   8.469   4.869
 5342TIP3   OH215902   1.441   1.821   5.180
 5342TIP3    H115903   1.520   1.822   5.235
 5342TIP3    H215904   1.417   1.913   5.170
 5343TIP3   OH215905   1.144   4.063   3.077
 5343TIP3    H115906   1.055   4.091   3.056
 5343TIP3    H215907   1.178   4.028   2.995
 5344TIP3   OH215908   5.115   3.776   7.494
 5344TIP3    H115909   5.110   3.857   7.444
 5344TIP3    H215910   5.044   3.722   7.461
 5345TIP3   OH215911   4.371   1.588   5.671
 5345TIP3    H115912   4.287   1.544   5.683
 5345TIP3    H215913   4.404   1.603   5.759
 5346TIP3   OH215914   8.255   7.367   7.078
 5346TIP3    H115915   8.193   7.318   7.024
 5346TIP3    H215916   8.335   7.370   7.025
 5347TIP3   OH215917   7.284   7.916   4.151
 5347TIP3    H115918   7.261   7.926   4.058
 5347TIP3    H215919   7.212   7.958   4.198
 5348TIP3   OH215920   7.953   0.861   5.088
 5348TIP3    H115921   8.004   0.943   5.085
 5348TIP3    H215922   7.938   0.846   5.181
 5349TIP3   OH215923   2.585   4.712   7.396
 5349TIP3    H115924   2.627   4.652   7.335
 5349TIP3    H215925   2.492   4.711   7.372
 5350TIP3   OH215926   1.507   5.267   5.171
 5350TIP3    H115927   1.445   5.212   5.123
 5350TIP3    H215928   1.554   5.316   5.104
 5351TIP3   OH215929   4.823   4.113   7.334
 5351TIP3    H115930   4.739   4.087   7.372
 5351TIP3    H215931   4.821   4.209   7.338
 5352TIP3   OH215932   8.100   3.786   2.679
 5352TIP3    H115933   8.064   3.861   2.728
 5352TIP3    H215934   8.190   3.779   2.709
 5353TIP3   OH215935   7.995   7.262   6.034
 5353TIP3    H115936   8.059   7.332   6.051
 5353TIP3    H215937   7.957   7.285   5.949
 5354TIP3   OH215938   0.222   1.715   3.530
 5354TIP3    H115939   0.236   1.659   3.606
 5354TIP3    H215940   0.216   1.804   3.565
 5355TIP3   OH215941   4.554   6.349   6.168
 5355TIP3    H115942   4.508   6.267   6.154
 5355TIP3    H215943   4.549   6.394   6.084
 5356TIP3   OH215944   5.366   8.187   7.722
 5356TIP3    H115945   5.369   8.091   7.724
 5356TIP3    H215946   5.274   8.208   7.711
 5357TIP3   OH215947   5.228   5.742   0.804
 5357TIP3    H115948   5.216   5.837   0.803
 5357TIP3    H215949   5.245   5.720   0.712
 5358TIP3   OH215950   2.048   4.589   2.566
 5358TIP3    H115951   2.052   4.662   2.629
 5358TIP3    H215952   2.120   4.532   2.591
 5359TIP3   OH215953   8.917   3.588   0.261
 5359TIP3    H115954   8.960   3.548   0.185
 5359TIP3    H215955   8.824   3.589   0.238
 5360TIP3   OH215956   4.386   2.310   7.175
 5360TIP3    H115957   4.404   2.387   7.230
 5360TIP3    H215958   4.468   2.261   7.177
 5361TIP3   OH215959   1.893   3.888   2.736
 5361TIP3    H115960   1.902   3.808   2.684
 5361TIP3    H215961   1.845   3.861   2.814
 5362TIP3   OH215962   4.952   2.951   7.596
 5362TIP3    H115963   5.004   2.995   7.664
 5362TIP3    H215964   4.972   3.000   7.516
 5363TIP3   OH215965   8.096   7.314   2.167
 5363TIP3    H115966   8.147   7.338   2.244
 5363TIP3    H215967   8.146   7.349   2.093
 5364TIP3   OH215968   0.602   1.331   4.064
 5364TIP3    H115969   0.550   1.252   4.078
 5364TIP3    H215970   0.579   1.359   3.975
 5365TIP3   OH215971   5.698   6.959   3.277
 5365TIP3    H115972   5.633   6.949   3.207
 5365TIP3    H215973   5.669   6.900   3.346
 5366TIP3   OH215974   0.735   5.301   4.907
 5366TIP3    H115975   0.772   5.310   4.819
 5366TIP3    H215976   0.664   5.365   4.910
 5367TIP3   OH215977   5.575   7.069   6.910
 5367TIP3    H115978   5.660   7.107   6.931
 5367TIP3    H215979   5.513   7.115   6.966
 5368TIP3   OH215980   1.141   0.309   5.328
 5368TIP3    H115981   1.059   0.273   5.293
 5368TIP3    H215982   1.115   0.357   5.406
 5369TIP3   OH215983   6.949   4.352   5.952
 5369TIP3    H115984   6.897   4.431   5.940
 5369TIP3    H215985   6.953   4.312   5.865
 5370TIP3   OH215986   0.141   6.908   7.672
 5370TIP3    H115987   0.080   6.888   7.742
 5370TIP3    H215988   0.198   6.831   7.666
 5371TIP3   OH215989   4.772   7.500   1.426
 5371TIP3    H115990   4.745   7.587   1.395
 5371TIP3    H215991   4.690   7.457   1.448
 5372TIP3   OH215992   4.306   1.389   2.719
 5372TIP3    H115993   4.298   1.484   2.707
 5372TIP3    H215994   4.361   1.360   2.647
 5373TIP3   OH215995   3.416   0.770   0.841
 5373TIP3    H115996   3.333   0.752   0.886
 5373TIP3    H215997   3.391   0.823   0.766
 5374TIP3   OH215998   1.764   6.018   2.135
 5374TIP3    H115999   1.786   6.005   2.227
 5374TIP3    H216000   1.747   5.930   2.102
 5375TIP3   OH216001   2.635   4.806   0.770
 5375TIP3    H116002   2.552   4.854   0.765
 5375TIP3    H216003   2.612   4.715   0.749
 5376TIP3   OH216004   6.456   6.941   4.347
 5376TIP3    H116005   6.521   6.944   4.277
 5376TIP3    H216006   6.437   6.848   4.358
 5377TIP3   OH216007   5.852   4.115   2.684
 5377TIP3    H116008   5.804   4.184   2.639
 5377TIP3    H216009   5.806   4.034   2.662
 5378TIP3   OH216010   9.346   8.741   5.275
 5378TIP3    H116011   9.341   8.740   5.371
 5378TIP3    H216012   9.270   8.792   5.247
 5379TIP3   OH216013   9.310   3.726   5.148
 5379TIP3    H116014   9.250   3.653   5.160
 5379TIP3    H216015   9.289   3.760   5.061
 5380TIP3   OH216016   5.521   3.531   1.147
 5380TIP3    H116017   5.456   3.517   1.078
 5380TIP3    H216018   5.507   3.622   1.175
 5381TIP3   OH216019   1.547   1.398   4.178
 5381TIP3    H116020   1.467   1.349   4.158
 5381TIP3    H216021   1.616   1.332   4.181
 5382TIP3   OH216022   2.966   4.818   0.264
 5382TIP3    H116023   2.979   4.757   0.191
 5382TIP3    H216024   3.028   4.889   0.247
 5383TIP3   OH216025   2.938   3.300   6.273
 5383TIP3    H116026   2.908   3.320   6.362
 5383TIP3    H216027   2.926   3.381   6.224
 5384TIP3   OH216028   2.884   3.318   7.223
 5384TIP3    H116029   2.814   3.257   7.246
 5384TIP3    H216030   2.944   3.314   7.297
 5385TIP3   OH216031   0.381   4.397   1.306
 5385TIP3    H116032   0.366   4.311   1.267
 5385TIP3    H216033   0.349   4.459   1.241
 5386TIP3   OH216034   4.309   3.338   4.422
 5386TIP3    H116035   4.242   3.406   4.425
 5386TIP3    H216036   4.384   3.381   4.379
 5387TIP3   OH216037   2.380   7.047   3.101
 5387TIP3    H116038   2.334   7.127   3.122
 5387TIP3    H216039   2.470   7.075   3.080
 5388TIP3   OH216040   5.037   0.520   7.565
 5388TIP3    H116041   5.095   0.522   7.641
 5388TIP3    H216042   5.032   0.427   7.541
 5389TIP3   OH216043   2.586   1.934   2.063
 5389TIP3    H116044   2.519   1.894   2.008
 5389TIP3    H216045   2.586   2.026   2.038
 5390TIP3   OH216046   4.612   7.687   1.998
 5390TIP3    H116047   4.697   7.724   1.974
 5390TIP3    H216048   4.549   7.731   1.940
 5391TIP3   OH216049   1.365   5.841   3.662
 5391TIP3    H116050   1.430   5.771   3.662
 5391TIP3    H216051   1.416   5.922   3.658
 5392TIP3   OH216052   2.323   4.802   0.706
 5392TIP3    H116053   2.373   4.760   0.636
 5392TIP3    H216054   2.265   4.734   0.739
 5393TIP3   OH216055   2.120   3.663   0.316
 5393TIP3    H116056   2.116   3.721   0.392
 5393TIP3    H216057   2.214   3.657   0.296
 5394TIP3   OH216058   2.370   7.772   3.819
 5394TIP3    H116059   2.353   7.749   3.727
 5394TIP3    H216060   2.438   7.711   3.847
 5395TIP3   OH216061   2.762   3.519   0.795
 5395TIP3    H116062   2.793   3.580   0.728
 5395TIP3    H216063   2.698   3.570   0.845
 5396TIP3   OH216064   1.582   4.838   2.119
 5396TIP3    H116065   1.586   4.855   2.025
 5396TIP3    H216066   1.491   4.814   2.136
 5397TIP3   OH216067   0.161   5.103   0.093
 5397TIP3    H116068   0.243   5.138   0.057
 5397TIP3    H216069   0.155   5.141   0.181
 5398TIP3   OH216070   4.289   6.780   4.240
 5398TIP3    H116071   4.262   6.867   4.269
 5398TIP3    H216072   4.267   6.722   4.314
 5399TIP3   OH216073   4.164   1.940   0.444
 5399TIP3    H116074   4.182   1.846   0.433
 5399TIP3    H216075   4.077   1.942   0.484
 5400TIP3   OH216076   7.176   1.902   5.080
 5400TIP3    H116077   7.213   1.938   5.161
 5400TIP3    H216078   7.219   1.817   5.069
 5401TIP3   OH216079   0.120   2.559   3.045
 5401TIP3    H116080   0.172   2.492   3.000
 5401TIP3    H216081   0.080   2.513   3.119
 5402TIP3   OH216082   9.446   6.760   3.054
 5402TIP3    H116083   9.475   6.787   3.141
 5402TIP3    H216084   9.492   6.678   3.038
 5403TIP3   OH216085   5.721   1.048   5.158
 5403TIP3    H116086   5.765   1.026   5.076
 5403TIP3    H216087   5.787   1.032   5.226
 5404TIP3   OH216088   2.818   2.992   1.910
 5404TIP3    H116089   2.904   3.028   1.933
 5404TIP3    H216090   2.810   3.006   1.816
 5405TIP3   OH216091   4.116   0.399   7.376
 5405TIP3    H116092   4.163   0.352   7.307
 5405TIP3    H216093   4.147   0.359   7.457
 5406TIP3   OH216094   1.729   4.342   5.824
 5406TIP3    H116095   1.794   4.391   5.775
 5406TIP3    H216096   1.768   4.255   5.836
 5407TIP3   OH216097   2.859   4.319   4.699
 5407TIP3    H116098   2.823   4.309   4.611
 5407TIP3    H216099   2.827   4.242   4.747
 5408TIP3   OH216100   6.599   5.068   5.887
 5408TIP3    H116101   6.638   5.057   5.974
 5408TIP3    H216102   6.659   5.127   5.841
 5409TIP3   OH216103   2.197   8.282   5.027
 5409TIP3    H116104   2.138   8.314   4.958
 5409TIP3    H216105   2.225   8.361   5.073
 5410TIP3   OH216106   7.054   5.983   3.611
 5410TIP3    H116107   7.091   5.946   3.691
 5410TIP3    H216108   7.092   5.930   3.540
 5411TIP3   OH216109   7.409   3.688   5.865
 5411TIP3    H116110   7.405   3.758   5.930
 5411TIP3    H216111   7.470   3.720   5.799
 5412TIP3   OH216112   9.222   2.486   4.235
 5412TIP3    H116113   9.191   2.418   4.295
 5412TIP3    H216114   9.235   2.441   4.152
 5413TIP3   OH216115   1.542   1.585   0.795
 5413TIP3    H116116   1.535   1.537   0.877
 5413TIP3    H216117   1.518   1.522   0.728
 5414TIP3   OH216118   2.041   7.919   2.297
 5414TIP3    H116119   1.978   7.852   2.270
 5414TIP3    H216120   2.108   7.871   2.346
 5415TIP3   OH216121   4.939   5.212   3.739
 5415TIP3    H116122   4.986   5.130   3.722
 5415TIP3    H216123   5.005   5.271   3.774
 5416TIP3   OH216124   6.613   0.928   1.476
 5416TIP3    H116125   6.660   0.845   1.467
 5416TIP3    H216126   6.561   0.918   1.556
 5417TIP3   OH216127   3.547   1.891   3.079
 5417TIP3    H116128   3.593   1.975   3.076
 5417TIP3    H216129   3.590   1.837   3.012
 5418TIP3   OH216130   0.279   4.346   6.554
 5418TIP3    H116131   0.185   4.340   6.571
 5418TIP3    H216132   0.286   4.400   6.475
 5419TIP3   OH216133   5.920   1.504   5.039
 5419TIP3    H116134   5.980   1.573   5.068
 5419TIP3    H216135   5.836   1.526   5.079
 5420TIP3   OH216136   0.705   8.188   1.214
 5420TIP3    H116137   0.771   8.254   1.234
 5420TIP3    H216138   0.728   8.113   1.270
 5421TIP3   OH216139   1.539   7.630   7.789
 5421TIP3    H116140   1.582   7.571   7.851
 5421TIP3    H216141   1.463   7.580   7.757
 5422TIP3   OH216142   4.657   2.883   3.077
 5422TIP3    H116143   4.603   2.950   3.035
 5422TIP3    H216144   4.624   2.878   3.166
 5423TIP3   OH216145   4.532   8.990   6.804
 5423TIP3    H116146   4.510   9.084   6.805
 5423TIP3    H216147   4.471   8.953   6.740
 5424TIP3   OH216148   9.182   7.695   3.621
 5424TIP3    H116149   9.260   7.656   3.581
 5424TIP3    H216150   9.129   7.620   3.648
 5425TIP3   OH216151   0.228   4.253   3.820
 5425TIP3    H116152   0.249   4.160   3.820
 5425TIP3    H216153   0.294   4.293   3.763
 5426TIP3   OH216154   2.075   3.760   5.359
 5426TIP3    H116155   2.162   3.751   5.396
 5426TIP3    H216156   2.016   3.727   5.428
 5427TIP3   OH216157   9.279   7.989   0.770
 5427TIP3    H116158   9.365   7.955   0.747
 5427TIP3    H216159   9.284   8.005   0.865
 5428TIP3   OH216160   2.780   4.872   5.840
 5428TIP3    H116161   2.845   4.884   5.770
 5428TIP3    H216162   2.702   4.916   5.808
 5429TIP3   OH216163   7.586   5.937   2.032
 5429TIP3    H116164   7.608   5.912   2.122
 5429TIP3    H216165   7.614   5.863   1.979
 5430TIP3   OH216166   4.448   1.391   6.455
 5430TIP3    H116167   4.504   1.404   6.530
 5430TIP3    H216168   4.433   1.296   6.453
 5431TIP3   OH216169   5.195   6.665   2.671
 5431TIP3    H116170   5.239   6.750   2.678
 5431TIP3    H216171   5.127   6.668   2.738
 5432TIP3   OH216172   1.183   1.143   0.407
 5432TIP3    H116173   1.208   1.164   0.498
 5432TIP3    H216174   1.208   1.052   0.396
 5433TIP3   OH216175   7.078   4.576   6.703
 5433TIP3    H116176   7.138   4.637   6.662
 5433TIP3    H216177   7.040   4.526   6.630
 5434TIP3   OH216178   4.208   0.466   2.610
 5434TIP3    H116179   4.172   0.378   2.610
 5434TIP3    H216180   4.214   0.490   2.702
 5435TIP3   OH216181   8.923   4.681   4.578
 5435TIP3    H116182   8.967   4.600   4.553
 5435TIP3    H216183   8.991   4.748   4.569
 5436TIP3   OH216184   6.150   2.485   2.432
 5436TIP3    H116185   6.065   2.528   2.431
 5436TIP3    H216186   6.130   2.392   2.420
 5437TIP3   OH216187   1.540   5.264   2.039
 5437TIP3    H116188   1.540   5.360   2.038
 5437TIP3    H216189   1.587   5.240   2.118
 5438TIP3   OH216190   6.155   1.053   6.030
 5438TIP3    H116191   6.128   1.015   5.946
 5438TIP3    H216192   6.106   1.003   6.095
 5439TIP3   OH216193   5.094   7.112   6.795
 5439TIP3    H116194   5.184   7.127   6.766
 5439TIP3    H216195   5.041   7.124   6.717
 5440TIP3   OH216196   5.664   4.268   6.178
 5440TIP3    H116197   5.651   4.348   6.128
 5440TIP3    H216198   5.758   4.250   6.172
 5441TIP3   OH216199   2.899   6.126   3.851
 5441TIP3    H116200   2.872   6.092   3.936
 5441TIP3    H216201   2.971   6.069   3.824
 5442TIP3   OH216202   5.351   2.390   7.620
 5442TIP3    H116203   5.332   2.438   7.701
 5442TIP3    H216204   5.316   2.302   7.635
 5443TIP3   OH216205   3.354   2.303   4.325
 5443TIP3    H116206   3.333   2.393   4.300
 5443TIP3    H216207   3.307   2.289   4.407
 5444TIP3   OH216208   8.122   4.645   1.356
 5444TIP3    H116209   8.190   4.667   1.291
 5444TIP3    H216210   8.162   4.577   1.410
 5445TIP3   OH216211   8.192   8.280   0.320
 5445TIP3    H116212   8.244   8.323   0.252
 5445TIP3    H216213   8.111   8.254   0.276
 5446TIP3   OH216214   0.621   0.843   6.110
 5446TIP3    H116215   0.689   0.777   6.098
 5446TIP3    H216216   0.614   0.855   6.204
 5447TIP3   OH216217   2.398   1.138   5.417
 5447TIP3    H116218   2.473   1.119   5.474
 5447TIP3    H216219   2.350   1.056   5.412
 5448TIP3   OH216220   6.846   6.014   4.040
 5448TIP3    H116221   6.805   5.928   4.047
 5448TIP3    H216222   6.791   6.072   4.094
 5449TIP3   OH216223   6.005   8.206   7.556
 5449TIP3    H116224   5.952   8.219   7.634
 5449TIP3    H216225   5.942   8.175   7.490
 5450TIP3   OH216226   7.024   7.654   1.644
 5450TIP3    H116227   7.085   7.702   1.700
 5450TIP3    H216228   7.076   7.583   1.607
 5451TIP3   OH216229   2.995   0.998   2.248
 5451TIP3    H116230   2.961   1.083   2.274
 5451TIP3    H216231   3.054   1.017   2.175
 5452TIP3   OH216232   3.914   8.081   3.035
 5452TIP3    H116233   3.854   8.062   2.963
 5452TIP3    H216234   3.859   8.112   3.106
 5453TIP3   OH216235   5.140   3.085   4.016
 5453TIP3    H116236   5.228   3.065   3.986
 5453TIP3    H216237   5.092   3.002   4.007
 5454TIP3   OH216238   1.228   3.870   0.169
 5454TIP3    H116239   1.147   3.871   0.118
 5454TIP3    H216240   1.265   3.783   0.154
 5455TIP3   OH216241   7.150   5.269   1.079
 5455TIP3    H116242   7.212   5.293   1.010
 5455TIP3    H216243   7.076   5.232   1.031
 5456TIP3   OH216244   0.780   2.046   3.099
 5456TIP3    H116245   0.787   2.056   3.194
 5456TIP3    H216246   0.695   2.003   3.086
 5457TIP3   OH216247   8.511   4.042   5.512
 5457TIP3    H116248   8.560   4.119   5.538
 5457TIP3    H216249   8.547   4.019   5.426
 5458TIP3   OH216250   5.760   0.804   6.308
 5458TIP3    H116251   5.755   0.720   6.354
 5458TIP3    H216252   5.671   0.817   6.274
 5459TIP3   OH216253   0.278   1.114   4.893
 5459TIP3    H116254   0.218   1.163   4.950
 5459TIP3    H216255   0.221   1.059   4.840
 5460TIP3   OH216256   1.394   0.894   1.576
 5460TIP3    H116257   1.403   0.979   1.618
 5460TIP3    H216258   1.484   0.868   1.556
 5461TIP3   OH216259   2.037   2.072   0.949
 5461TIP3    H116260   2.012   2.055   1.040
 5461TIP3    H216261   1.999   1.999   0.900
 5462TIP3   OH216262   2.505   4.884   2.448
 5462TIP3    H116263   2.589   4.837   2.453
 5462TIP3    H216264   2.476   4.870   2.358
 5463TIP3   OH216265   0.367   0.759   1.749
 5463TIP3    H116266   0.457   0.772   1.718
 5463TIP3    H216267   0.315   0.749   1.670
 5464TIP3   OH216268   5.766   4.915   5.763
 5464TIP3    H116269   5.762   4.988   5.700
 5464TIP3    H216270   5.847   4.869   5.740
 5465TIP3   OH216271   9.468   7.907   2.066
 5465TIP3    H116272   9.489   7.997   2.090
 5465TIP3    H216273   9.375   7.897   2.088
 5466TIP3   OH216274   5.618   1.819   6.553
 5466TIP3    H116275   5.590   1.735   6.590
 5466TIP3    H216276   5.694   1.798   6.499
 5467TIP3   OH216277   1.274   0.777   1.797
 5467TIP3    H116278   1.220   0.719   1.742
 5467TIP3    H216279   1.300   0.848   1.738
 5468TIP3   OH216280   3.187   3.169   2.577
 5468TIP3    H116281   3.177   3.221   2.657
 5468TIP3    H216282   3.279   3.143   2.577
 5469TIP3   OH216283   5.006   5.593   3.406
 5469TIP3    H116284   4.991   5.499   3.413
 5469TIP3    H216285   5.100   5.604   3.421
 5470TIP3   OH216286   0.268   3.707   7.563
 5470TIP3    H116287   0.281   3.743   7.475
 5470TIP3    H216288   0.207   3.769   7.605
 5471TIP3   OH216289   1.202   8.487   1.469
 5471TIP3    H116290   1.119   8.534   1.467
 5471TIP3    H216291   1.261   8.545   1.518
 5472TIP3   OH216292   6.625   5.033   3.146
 5472TIP3    H116293   6.702   5.024   3.090
 5472TIP3    H216294   6.585   5.116   3.118
 5473TIP3   OH216295   9.363   8.053   5.649
 5473TIP3    H116296   9.282   8.086   5.688
 5473TIP3    H216297   9.396   8.126   5.597
 5474TIP3   OH216298   3.847   1.734   2.652
 5474TIP3    H116299   3.934   1.742   2.692
 5474TIP3    H216300   3.861   1.753   2.559
 5475TIP3   OH216301   7.814   0.280   5.932
 5475TIP3    H116302   7.781   0.200   5.891
 5475TIP3    H216303   7.736   0.335   5.943
 5476TIP3   OH216304   0.505   5.947   2.412
 5476TIP3    H116305   0.569   6.017   2.400
 5476TIP3    H216306   0.512   5.895   2.332
 5477TIP3   OH216307   5.134   5.906   3.619
 5477TIP3    H116308   5.126   5.833   3.680
 5477TIP3    H216309   5.228   5.926   3.618
 5478TIP3   OH216310   2.522   0.290   5.710
 5478TIP3    H116311   2.615   0.288   5.688
 5478TIP3    H216312   2.482   0.225   5.653
 5479TIP3   OH216313   2.357   6.701   4.249
 5479TIP3    H116314   2.298   6.679   4.321
 5479TIP3    H216315   2.305   6.686   4.170
 5480TIP3   OH216316   1.153   3.631   6.952
 5480TIP3    H116317   1.068   3.665   6.981
 5480TIP3    H216318   1.131   3.573   6.879
 5481TIP3   OH216319   3.077   3.526   5.257
 5481TIP3    H116320   3.061   3.616   5.286
 5481TIP3    H216321   3.075   3.531   5.162
 5482TIP3   OH216322   2.649   5.823   6.843
 5482TIP3    H116323   2.583   5.875   6.889
 5482TIP3    H216324   2.721   5.885   6.827
 5483TIP3   OH216325   3.141   4.022   2.422
 5483TIP3    H116326   3.046   4.026   2.423
 5483TIP3    H216327   3.161   3.928   2.423
 5484TIP3   OH216328   6.896   0.278   2.046
 5484TIP3    H116329   6.891   0.195   2.094
 5484TIP3    H216330   6.965   0.327   2.090
 5485TIP3   OH216331   4.623   3.378   3.193
 5485TIP3    H116332   4.692   3.327   3.235
 5485TIP3    H216333   4.547   3.319   3.191
 5486TIP3   OH216334   9.126   8.948   6.717
 5486TIP3    H116335   9.188   8.875   6.715
 5486TIP3    H216336   9.163   9.011   6.655
 5487TIP3   OH216337   9.100   2.472   1.098
 5487TIP3    H116338   9.137   2.536   1.159
 5487TIP3    H216339   9.082   2.521   1.018
 5488TIP3   OH216340   2.325   8.091   5.965
 5488TIP3    H116341   2.313   8.120   6.055
 5488TIP3    H216342   2.419   8.074   5.957
 5489TIP3   OH216343   8.850   4.976   7.780
 5489TIP3    H116344   8.813   4.925   7.852
 5489TIP3    H216345   8.908   4.915   7.735
 5490TIP3   OH216346   7.855   4.369   0.323
 5490TIP3    H116347   7.851   4.449   0.270
 5490TIP3    H216348   7.767   4.332   0.317
 5491TIP3   OH216349   7.493   1.009   5.738
 5491TIP3    H116350   7.440   0.929   5.742
 5491TIP3    H216351   7.583   0.978   5.752
 5492TIP3   OH216352   1.172   5.644   1.140
 5492TIP3    H116353   1.124   5.670   1.219
 5492TIP3    H216354   1.243   5.708   1.133
 5493TIP3   OH216355   6.498   5.165   4.816
 5493TIP3    H116356   6.446   5.188   4.739
 5493TIP3    H216357   6.576   5.219   4.809
 5494TIP3   OH216358   6.969   3.178   4.775
 5494TIP3    H116359   6.907   3.111   4.748
 5494TIP3    H216360   7.054   3.147   4.741
 5495TIP3   OH216361   2.817   7.666   5.658
 5495TIP3    H116362   2.873   7.601   5.616
 5495TIP3    H216363   2.866   7.694   5.735
 5496TIP3   OH216364   5.526   4.550   4.434
 5496TIP3    H116365   5.578   4.630   4.445
 5496TIP3    H216366   5.465   4.551   4.508
 5497TIP3   OH216367   8.849   1.176   5.169
 5497TIP3    H116368   8.812   1.191   5.256
 5497TIP3    H216369   8.943   1.162   5.185
 5498TIP3   OH216370   2.466   2.426   0.790
 5498TIP3    H116371   2.391   2.367   0.801
 5498TIP3    H216372   2.534   2.388   0.845
 5499TIP3   OH216373   1.457   0.175   2.985
 5499TIP3    H116374   1.441   0.085   2.955
 5499TIP3    H216375   1.461   0.227   2.906
 5500TIP3   OH216376   2.402   4.696   6.586
 5500TIP3    H116377   2.400   4.677   6.680
 5500TIP3    H216378   2.469   4.636   6.552
 5501TIP3   OH216379   6.572   7.997   2.952
 5501TIP3    H116380   6.663   7.989   2.925
 5501TIP3    H216381   6.551   8.089   2.940
 5502TIP3   OH216382   4.003   8.003   0.770
 5502TIP3    H116383   4.033   8.053   0.845
 5502TIP3    H216384   4.050   7.920   0.776
 5503TIP3   OH216385   0.862   0.576   1.722
 5503TIP3    H116386   0.828   0.657   1.682
 5503TIP3    H216387   0.806   0.507   1.686
 5504TIP3   OH216388   6.678   1.362   4.308
 5504TIP3    H116389   6.672   1.399   4.220
 5504TIP3    H216390   6.588   1.338   4.330
 5505TIP3   OH216391   5.088   7.829   5.631
 5505TIP3    H116392   5.104   7.824   5.725
 5505TIP3    H216393   5.157   7.886   5.597
 5506TIP3   OH216394   3.619   6.139   0.117
 5506TIP3    H116395   3.634   6.115   0.208
 5506TIP3    H216396   3.534   6.100   0.095
 5507TIP3   OH216397   1.445   0.066   4.729
 5507TIP3    H116398   1.386   0.084   4.656
 5507TIP3    H216399   1.492  -0.013   4.704
 5508TIP3   OH216400   2.609   2.005   6.947
 5508TIP3    H116401   2.631   2.093   6.916
 5508TIP3    H216402   2.532   2.018   7.004
 5509TIP3   OH216403   7.626   5.538   5.280
 5509TIP3    H116404   7.599   5.626   5.254
 5509TIP3    H216405   7.695   5.552   5.344
 5510TIP3   OH216406   3.515   8.144   6.580
 5510TIP3    H116407   3.441   8.190   6.620
 5510TIP3    H216408   3.523   8.182   6.492
 5511TIP3   OH216409   9.333   0.589   6.185
 5511TIP3    H116410   9.279   0.538   6.245
 5511TIP3    H216411   9.335   0.538   6.104
 5512TIP3   OH216412   2.883   0.245   0.952
 5512TIP3    H116413   2.903   0.308   0.883
 5512TIP3    H216414   2.852   0.167   0.906
 5513TIP3   OH216415   3.360   0.092   5.032
 5513TIP3    H116416   3.416   0.051   5.098
 5513TIP3    H216417   3.421   0.124   4.966
 5514TIP3   OH216418   0.463   0.102   0.744
 5514TIP3    H116419   0.520   0.105   0.667
 5514TIP3    H216420   0.420   0.188   0.745
 5515TIP3   OH216421   3.810   8.141   4.278
 5515TIP3    H116422   3.807   8.075   4.210
 5515TIP3    H216423   3.724   8.183   4.275
 5516TIP3   OH216424   0.787   0.126   0.299
 5516TIP3    H116425   0.738   0.057   0.254
 5516TIP3    H216426   0.722   0.193   0.318
 5517TIP3   OH216427   1.923   7.252   3.088
 5517TIP3    H116428   1.990   7.183   3.083
 5517TIP3    H216429   1.877   7.246   3.005
 5518TIP3   OH216430   0.625   6.342   5.259
 5518TIP3    H116431   0.568   6.414   5.233
 5518TIP3    H216432   0.703   6.352   5.204
 5519TIP3   OH216433   2.541   5.673   6.613
 5519TIP3    H116434   2.574   5.716   6.692
 5519TIP3    H216435   2.504   5.743   6.560
 5520TIP3   OH216436   7.274   4.656   2.845
 5520TIP3    H116437   7.328   4.719   2.893
 5520TIP3    H216438   7.198   4.707   2.816
 5521TIP3   OH216439   3.805   6.887   0.291
 5521TIP3    H116440   3.875   6.821   0.292
 5521TIP3    H216441   3.755   6.868   0.212
 5522TIP3   OH216442   6.754   0.404   7.232
 5522TIP3    H116443   6.719   0.441   7.150
 5522TIP3    H216444   6.678   0.401   7.291
 5523TIP3   OH216445   5.761   3.195   5.931
 5523TIP3    H116446   5.834   3.257   5.932
 5523TIP3    H216447   5.780   3.138   5.856
 5524TIP3   OH216448   0.512   6.158   4.100
 5524TIP3    H116449   0.452   6.131   4.169
 5524TIP3    H216450   0.461   6.152   4.019
 5525TIP3   OH216451   7.430   2.669   0.358
 5525TIP3    H116452   7.460   2.756   0.387
 5525TIP3    H216453   7.475   2.608   0.416
 5526TIP3   OH216454   2.639   2.122   0.042
 5526TIP3    H116455   2.730   2.110   0.016
 5526TIP3    H216456   2.613   2.037   0.078
 5527TIP3   OH216457   8.637   4.809   7.169
 5527TIP3    H116458   8.567   4.854   7.215
 5527TIP3    H216459   8.713   4.865   7.179
 5528TIP3   OH216460   6.151   4.757   3.896
 5528TIP3    H116461   6.193   4.746   3.810
 5528TIP3    H216462   6.196   4.832   3.935
 5529TIP3   OH216463   7.909   8.304   6.972
 5529TIP3    H116464   7.822   8.275   6.944
 5529TIP3    H216465   7.969   8.247   6.924
 5530TIP3   OH216466   0.697   0.961   2.536
 5530TIP3    H116467   0.762   0.931   2.472
 5530TIP3    H216468   0.683   1.053   2.514
 5531TIP3   OH216469   2.312   5.900   1.828
 5531TIP3    H116470   2.295   5.811   1.799
 5531TIP3    H216471   2.242   5.919   1.891
 5532TIP3   OH216472   0.484   2.886   1.720
 5532TIP3    H116473   0.516   2.953   1.660
 5532TIP3    H216474   0.563   2.847   1.757
 5533TIP3   OH216475   7.216   6.882   6.283
 5533TIP3    H116476   7.194   6.955   6.342
 5533TIP3    H216477   7.137   6.828   6.282
 5534TIP3   OH216478   7.665   5.110   3.155
 5534TIP3    H116479   7.661   5.034   3.213
 5534TIP3    H216480   7.591   5.098   3.095
 5535TIP3   OH216481   2.834   2.983   6.183
 5535TIP3    H116482   2.786   3.055   6.224
 5535TIP3    H216483   2.768   2.935   6.133
 5536TIP3   OH216484   2.461   0.220   4.655
 5536TIP3    H116485   2.480   0.304   4.613
 5536TIP3    H216486   2.372   0.199   4.628
 5537TIP3   OH216487   4.454   3.820   6.054
 5537TIP3    H116488   4.422   3.910   6.063
 5537TIP3    H216489   4.419   3.791   5.970
 5538TIP3   OH216490   9.025   7.731   0.040
 5538TIP3    H116491   9.078   7.808   0.020
 5538TIP3    H216492   9.087   7.669   0.080
 5539TIP3   OH216493   5.861   5.177   5.622
 5539TIP3    H116494   5.838   5.269   5.622
 5539TIP3    H216495   5.956   5.175   5.635
 5540TIP3   OH216496   8.006   2.366   7.693
 5540TIP3    H116497   7.998   2.275   7.721
 5540TIP3    H216498   8.050   2.362   7.608
 5541TIP3   OH216499   4.409   9.008   6.153
 5541TIP3    H116500   4.383   9.090   6.195
 5541TIP3    H216501   4.376   8.939   6.211
 5542TIP3   OH216502   5.054   0.051   3.797
 5542TIP3    H116503   5.078   0.106   3.872
 5542TIP3    H216504   4.963   0.075   3.778
 5543TIP3   OH216505   4.874   3.045   2.563
 5543TIP3    H116506   4.860   3.015   2.474
 5543TIP3    H216507   4.863   2.967   2.617
 5544TIP3   OH216508   5.219   0.214   6.121
 5544TIP3    H116509   5.167   0.186   6.197
 5544TIP3    H216510   5.153   0.231   6.053
 5545TIP3   OH216511   8.238   1.669   3.825
 5545TIP3    H116512   8.213   1.586   3.868
 5545TIP3    H216513   8.228   1.651   3.732
 5546TIP3   OH216514   3.978   8.424   3.393
 5546TIP3    H116515   4.062   8.434   3.438
 5546TIP3    H216516   3.951   8.334   3.412
 5547TIP3   OH216517   9.536   5.803   2.827
 5547TIP3    H116518   9.463   5.865   2.824
 5547TIP3    H216519   9.605   5.844   2.775
 5548TIP3   OH216520   7.640   1.024   2.889
 5548TIP3    H116521   7.659   1.060   2.802
 5548TIP3    H216522   7.725   1.021   2.933
 5549TIP3   OH216523   8.354   6.470   7.386
 5549TIP3    H116524   8.287   6.404   7.400
 5549TIP3    H216525   8.305   6.551   7.371
 5550TIP3   OH216526   4.293   5.219   6.200
 5550TIP3    H116527   4.231   5.170   6.145
 5550TIP3    H216528   4.238   5.271   6.258
 5551TIP3   OH216529   8.900   2.799   2.747
 5551TIP3    H116530   8.938   2.768   2.665
 5551TIP3    H216531   8.910   2.895   2.743
 5552TIP3   OH216532   2.477   8.548   5.681
 5552TIP3    H116533   2.492   8.612   5.612
 5552TIP3    H216534   2.565   8.515   5.702
 5553TIP3   OH216535   1.594   8.948   2.828
 5553TIP3    H116536   1.626   9.035   2.804
 5553TIP3    H216537   1.654   8.888   2.786
 5554TIP3   OH216538   8.826   8.190   3.725
 5554TIP3    H116539   8.899   8.208   3.785
 5554TIP3    H216540   8.835   8.098   3.703
 5555TIP3   OH216541   0.915   8.161   3.553
 5555TIP3    H116542   0.916   8.117   3.638
 5555TIP3    H216543   0.988   8.223   3.557
 5556TIP3   OH216544   0.083   5.649   5.642
 5556TIP3    H116545   0.006   5.704   5.624
 5556TIP3    H216546   0.112   5.676   5.729
 5557TIP3   OH216547   1.094   0.242   1.395
 5557TIP3    H116548   1.088   0.254   1.301
 5557TIP3    H216549   1.129   0.325   1.428
 5558TIP3   OH216550   2.056   7.665   4.008
 5558TIP3    H116551   1.972   7.624   4.029
 5558TIP3    H216552   2.119   7.593   4.014
 5559TIP3   OH216553   3.220   0.065   2.839
 5559TIP3    H116554   3.276   0.092   2.911
 5559TIP3    H216555   3.223   0.139   2.777
 5560TIP3   OH216556   6.108   2.344   3.247
 5560TIP3    H116557   6.024   2.349   3.202
 5560TIP3    H216558   6.089   2.369   3.337
 5561TIP3   OH216559   1.283   6.826   5.465
 5561TIP3    H116560   1.206   6.834   5.521
 5561TIP3    H216561   1.251   6.781   5.386
 5562TIP3   OH216562   1.723   2.489   0.122
 5562TIP3    H116563   1.714   2.394   0.114
 5562TIP3    H216564   1.799   2.501   0.179
 5563TIP3   OH216565   6.937   3.066   2.780
 5563TIP3    H116566   6.936   3.074   2.685
 5563TIP3    H216567   6.856   3.110   2.809
 5564TIP3   OH216568   0.739   1.269   4.528
 5564TIP3    H116569   0.716   1.357   4.498
 5564TIP3    H216570   0.793   1.283   4.606
 5565TIP3   OH216571   6.635   4.135   6.993
 5565TIP3    H116572   6.714   4.110   6.947
 5565TIP3    H216573   6.563   4.109   6.935
 5566TIP3   OH216574   5.009   8.616   0.814
 5566TIP3    H116575   5.017   8.523   0.834
 5566TIP3    H216576   5.075   8.658   0.868
 5567TIP3   OH216577   8.209   7.310   7.597
 5567TIP3    H116578   8.294   7.312   7.641
 5567TIP3    H216579   8.191   7.401   7.574
 5568TIP3   OH216580   8.505   8.605   0.207
 5568TIP3    H116581   8.486   8.659   0.130
 5568TIP3    H216582   8.572   8.654   0.254
 5569TIP3   OH216583   6.784   5.211   1.802
 5569TIP3    H116584   6.785   5.299   1.766
 5569TIP3    H216585   6.796   5.223   1.896
 5570TIP3   OH216586   1.144   8.950   7.580
 5570TIP3    H116587   1.130   9.003   7.501
 5570TIP3    H216588   1.207   8.883   7.554
 5571TIP3   OH216589   5.557   2.414   5.314
 5571TIP3    H116590   5.608   2.387   5.238
 5571TIP3    H216591   5.590   2.501   5.336
 5572TIP3   OH216592   9.402   5.348   6.101
 5572TIP3    H116593   9.462   5.384   6.167
 5572TIP3    H216594   9.408   5.410   6.028
 5573TIP3   OH216595   0.143   0.475   6.787
 5573TIP3    H116596   0.161   0.524   6.868
 5573TIP3    H216597   0.087   0.534   6.736
 5574TIP3   OH216598   8.922   2.774   7.703
 5574TIP3    H116599   8.872   2.856   7.700
 5574TIP3    H216600   8.940   2.761   7.796
 5575TIP3   OH216601   0.571   3.112   0.770
 5575TIP3    H116602   0.647   3.166   0.746
 5575TIP3    H216603   0.609   3.028   0.797
 5576TIP3   OH216604   8.860   8.071   2.264
 5576TIP3    H116605   8.863   8.010   2.190
 5576TIP3    H216606   8.767   8.078   2.286
 5577TIP3   OH216607   8.540   8.151   0.921
 5577TIP3    H116608   8.455   8.134   0.880
 5577TIP3    H216609   8.600   8.093   0.875
 5578TIP3   OH216610   1.463   5.617   2.393
 5578TIP3    H116611   1.416   5.541   2.359
 5578TIP3    H216612   1.491   5.591   2.480
 5579TIP3   OH216613   9.234   3.358   1.295
 5579TIP3    H116614   9.200   3.357   1.385
 5579TIP3    H216615   9.236   3.450   1.270
 5580TIP3   OH216616   9.048   7.438   5.088
 5580TIP3    H116617   9.013   7.440   5.177
 5580TIP3    H216618   9.035   7.527   5.054
 5581TIP3   OH216619   6.637   4.305   2.488
 5581TIP3    H116620   6.568   4.367   2.466
 5581TIP3    H216621   6.703   4.357   2.535
 5582TIP3   OH216622   0.229   5.325   2.779
 5582TIP3    H116623   0.235   5.417   2.806
 5582TIP3    H216624   0.319   5.295   2.775
 5583TIP3   OH216625   7.040   2.940   4.523
 5583TIP3    H116626   7.091   2.868   4.560
 5583TIP3    H216627   7.082   3.019   4.559
 5584TIP3   OH216628   2.107   4.123   2.069
 5584TIP3    H116629   2.092   4.127   2.164
 5584TIP3    H216630   2.077   4.035   2.044
 5585TIP3   OH216631   0.373   3.368   3.494
 5585TIP3    H116632   0.467   3.364   3.473
 5585TIP3    H216633   0.331   3.321   3.422
 5586TIP3   OH216634   4.456   6.784   7.147
 5586TIP3    H116635   4.461   6.711   7.209
 5586TIP3    H216636   4.529   6.769   7.087
 5587TIP3   OH216637   2.090   3.730   5.079
 5587TIP3    H116638   2.140   3.648   5.071
 5587TIP3    H216639   2.087   3.745   5.174
 5588TIP3   OH216640   9.116   0.306   3.850
 5588TIP3    H116641   9.162   0.262   3.778
 5588TIP3    H216642   9.027   0.272   3.846
 5589TIP3   OH216643   4.558   8.230   3.908
 5589TIP3    H116644   4.484   8.244   3.849
 5589TIP3    H216645   4.598   8.316   3.917
 5590TIP3   OH216646   8.540   6.403   2.877
 5590TIP3    H116647   8.634   6.419   2.886
 5590TIP3    H216648   8.504   6.487   2.851
 5591TIP3   OH216649   0.989   7.797   4.292
 5591TIP3    H116650   0.906   7.812   4.337
 5591TIP3    H216651   1.004   7.703   4.299
 5592TIP3   OH216652   7.199   5.087   1.286
 5592TIP3    H116653   7.251   5.115   1.362
 5592TIP3    H216654   7.219   5.152   1.219
 5593TIP3   OH216655   9.318   8.268   1.722
 5593TIP3    H116656   9.350   8.324   1.651
 5593TIP3    H216657   9.257   8.208   1.680
 5594TIP3   OH216658   3.257   3.908   1.159
 5594TIP3    H116659   3.190   3.976   1.150
 5594TIP3    H216660   3.207   3.827   1.169
 5595TIP3   OH216661   6.991   0.618   1.471
 5595TIP3    H116662   7.068   0.675   1.467
 5595TIP3    H216663   6.947   0.642   1.553
 5596TIP3   OH216664   8.549   3.353   0.290
 5596TIP3    H116665   8.581   3.338   0.379
 5596TIP3    H216666   8.585   3.438   0.266
 5597TIP3   OH216667   3.570   3.077   4.399
 5597TIP3    H116668   3.565   3.035   4.314
 5597TIP3    H216669   3.662   3.072   4.424
 5598TIP3   OH216670   7.906   7.768   5.449
 5598TIP3    H116671   7.897   7.822   5.528
 5598TIP3    H216672   8.000   7.754   5.441
 5599TIP3   OH216673   7.595   6.667   6.481
 5599TIP3    H116674   7.604   6.718   6.400
 5599TIP3    H216675   7.568   6.580   6.451
 5600TIP3   OH216676   3.888   2.414   0.265
 5600TIP3    H116677   3.807   2.418   0.315
 5600TIP3    H216678   3.861   2.389   0.177
 5601TIP3   OH216679   0.023   5.878   3.971
 5601TIP3    H116680   0.057   5.956   4.015
 5601TIP3    H216681   0.031   5.897   3.878
 5602TIP3   OH216682   8.782   7.486   4.382
 5602TIP3    H116683   8.835   7.408   4.368
 5602TIP3    H216684   8.842   7.548   4.424
 5603TIP3   OH216685   7.770   1.074   1.379
 5603TIP3    H116686   7.735   0.988   1.353
 5603TIP3    H216687   7.785   1.066   1.473
 5604TIP3   OH216688   4.580   1.677   6.094
 5604TIP3    H116689   4.593   1.658   6.187
 5604TIP3    H216690   4.606   1.597   6.049
 5605TIP3   OH216691   1.284   6.161   1.738
 5605TIP3    H116692   1.213   6.189   1.680
 5605TIP3    H216693   1.241   6.147   1.822
 5606TIP3   OH216694   6.145   1.422   6.303
 5606TIP3    H116695   6.205   1.449   6.234
 5606TIP3    H216696   6.162   1.329   6.316
 5607TIP3   OH216697   5.525   5.298   2.379
 5607TIP3    H116698   5.597   5.242   2.409
 5607TIP3    H216699   5.511   5.274   2.288
 5608TIP3   OH216700   6.712   0.215   3.539
 5608TIP3    H116701   6.787   0.266   3.506
 5608TIP3    H216702   6.719   0.130   3.496
 5609TIP3   OH216703   7.863   0.530   3.363
 5609TIP3    H116704   7.891   0.448   3.404
 5609TIP3    H216705   7.887   0.520   3.271
 5610TIP3   OH216706   4.591   4.662   6.954
 5610TIP3    H116707   4.526   4.699   7.013
 5610TIP3    H216708   4.671   4.712   6.972
 5611TIP3   OH216709   8.728   4.821   2.470
 5611TIP3    H116710   8.647   4.787   2.432
 5611TIP3    H216711   8.743   4.904   2.424
 5612TIP3   OH216712   0.994   8.276   3.970
 5612TIP3    H116713   0.986   8.189   4.008
 5612TIP3    H216714   0.917   8.323   4.001
 5613TIP3   OH216715   9.493   8.302   1.947
 5613TIP3    H116716   9.457   8.381   1.988
 5613TIP3    H216717   9.445   8.294   1.864
 5614TIP3   OH216718   7.019   0.101   7.467
 5614TIP3    H116719   7.007   0.136   7.378
 5614TIP3    H216720   7.073   0.167   7.511
 5615TIP3   OH216721   1.881   2.976   1.353
 5615TIP3    H116722   1.830   2.923   1.292
 5615TIP3    H216723   1.962   2.926   1.365
 5616TIP3   OH216724   7.206   3.463   3.217
 5616TIP3    H116725   7.114   3.480   3.237
 5616TIP3    H216726   7.254   3.514   3.282
 5617TIP3   OH216727   1.756   4.902   0.284
 5617TIP3    H116728   1.734   4.973   0.224
 5617TIP3    H216729   1.845   4.921   0.313
 5618TIP3   OH216730   7.088   4.568   7.121
 5618TIP3    H116731   7.063   4.636   7.183
 5618TIP3    H216732   7.023   4.576   7.050
 5619TIP3   OH216733   8.264   6.639   0.242
 5619TIP3    H116734   8.213   6.720   0.233
 5619TIP3    H216735   8.198   6.572   0.259
 5620TIP3   OH216736   9.142   8.033   7.156
 5620TIP3    H116737   9.219   7.978   7.145
 5620TIP3    H216738   9.103   8.004   7.239
 5621TIP3   OH216739   3.051   1.818   5.693
 5621TIP3    H116740   3.077   1.790   5.780
 5621TIP3    H216741   3.106   1.767   5.633
 5622TIP3   OH216742   7.840   4.651   0.141
 5622TIP3    H116743   7.835   4.693   0.055
 5622TIP3    H216744   7.789   4.707   0.198
 5623TIP3   OH216745   4.941   4.476   1.433
 5623TIP3    H116746   5.007   4.421   1.474
 5623TIP3    H216747   4.893   4.514   1.506
 5624TIP3   OH216748   6.729   4.042   1.699
 5624TIP3    H116749   6.684   4.114   1.743
 5624TIP3    H216750   6.798   4.085   1.648
 5625TIP3   OH216751   0.260   8.960   5.779
 5625TIP3    H116752   0.276   8.870   5.807
 5625TIP3    H216753   0.346   9.001   5.776
 5626TIP3   OH216754   5.514   7.016   7.562
 5626TIP3    H116755   5.491   7.070   7.486
 5626TIP3    H216756   5.554   7.077   7.624
 5627TIP3   OH216757   6.522   2.341   6.027
 5627TIP3    H116758   6.455   2.405   6.001
 5627TIP3    H216759   6.476   2.282   6.087
 5628TIP3   OH216760   1.527   4.657   4.047
 5628TIP3    H116761   1.495   4.740   4.010
 5628TIP3    H216762   1.620   4.656   4.024
 5629TIP3   OH216763   0.744   3.181   1.949
 5629TIP3    H116764   0.819   3.121   1.950
 5629TIP3    H216765   0.783   3.267   1.936
 5630TIP3   OH216766   3.899   4.175   0.166
 5630TIP3    H116767   3.827   4.224   0.127
 5630TIP3    H216768   3.856   4.108   0.219
 5631TIP3   OH216769   1.510   4.642   0.110
 5631TIP3    H116770   1.565   4.647   0.031
 5631TIP3    H216771   1.566   4.599   0.175
 5632TIP3   OH216772   5.093   2.906   5.643
 5632TIP3    H116773   5.039   2.941   5.714
 5632TIP3    H216774   5.043   2.830   5.611
 5633TIP3   OH216775   5.345   1.390   6.694
 5633TIP3    H116776   5.383   1.410   6.609
 5633TIP3    H216777   5.290   1.313   6.679
 5634TIP3   OH216778   6.413   6.780   3.321
 5634TIP3    H116779   6.476   6.849   3.342
 5634TIP3    H216780   6.330   6.812   3.356
 5635TIP3   OH216781   6.208   5.801   5.688
 5635TIP3    H116782   6.242   5.785   5.599
 5635TIP3    H216783   6.263   5.747   5.744
 5636TIP3   OH216784   1.584   0.105   5.194
 5636TIP3    H116785   1.594   0.200   5.192
 5636TIP3    H216786   1.490   0.090   5.203
 5637TIP3   OH216787   6.303   0.703   7.777
 5637TIP3    H116788   6.374   0.649   7.812
 5637TIP3    H216789   6.240   0.640   7.743
 5638TIP3   OH216790   1.276   0.953   7.370
 5638TIP3    H116791   1.306   1.038   7.339
 5638TIP3    H216792   1.354   0.898   7.369
 5639TIP3   OH216793   0.357   6.509   0.001
 5639TIP3    H116794   0.328   6.600   0.007
 5639TIP3    H216795   0.297   6.461   0.059
 5640TIP3   OH216796   5.785   8.232   4.710
 5640TIP3    H116797   5.761   8.267   4.796
 5640TIP3    H216798   5.833   8.151   4.729
 5641TIP3   OH216799   0.447   4.701   5.403
 5641TIP3    H116800   0.476   4.718   5.493
 5641TIP3    H216801   0.447   4.787   5.362
 5642TIP3   OH216802   1.278   5.202   1.470
 5642TIP3    H116803   1.348   5.211   1.406
 5642TIP3    H216804   1.299   5.122   1.519
 5643TIP3   OH216805   4.903   1.885   4.868
 5643TIP3    H116806   4.927   1.879   4.960
 5643TIP3    H216807   4.963   1.825   4.823
 5644TIP3   OH216808   0.044   5.417   0.802
 5644TIP3    H116809  -0.051   5.421   0.812
 5644TIP3    H216810   0.074   5.505   0.822
 5645TIP3   OH216811   5.433   6.820   2.884
 5645TIP3    H116812   5.512   6.809   2.938
 5645TIP3    H216813   5.376   6.748   2.909
 5646TIP3   OH216814   9.118   6.797   0.877
 5646TIP3    H116815   9.046   6.861   0.873
 5646TIP3    H216816   9.186   6.842   0.928
 5647TIP3   OH216817   2.216   0.055   1.905
 5647TIP3    H116818   2.253   0.142   1.893
 5647TIP3    H216819   2.133   0.057   1.858
 5648TIP3   OH216820   1.178   6.645   1.256
 5648TIP3    H116821   1.268   6.620   1.277
 5648TIP3    H216822   1.187   6.714   1.191
 5649TIP3   OH216823   8.187   5.836   5.942
 5649TIP3    H116824   8.198   5.924   5.906
 5649TIP3    H216825   8.138   5.788   5.875
 5650TIP3   OH216826   9.060   1.566   4.608
 5650TIP3    H116827   9.018   1.572   4.693
 5650TIP3    H216828   9.057   1.472   4.586
 5651TIP3   OH216829   4.401   1.019   7.446
 5651TIP3    H116830   4.307   1.000   7.452
 5651TIP3    H216831   4.418   1.077   7.520
 5652TIP3   OH216832   0.808   5.688   6.956
 5652TIP3    H116833   0.736   5.752   6.956
 5652TIP3    H216834   0.881   5.734   6.916
 5653TIP3   OH216835   0.117   6.266   1.792
 5653TIP3    H116836   0.208   6.239   1.809
 5653TIP3    H216837   0.068   6.235   1.868
 5654TIP3   OH216838   1.895   8.742   7.532
 5654TIP3    H116839   1.881   8.707   7.444
 5654TIP3    H216840   1.872   8.670   7.590
 5655TIP3   OH216841   8.324   8.595   1.404
 5655TIP3    H116842   8.410   8.633   1.389
 5655TIP3    H216843   8.283   8.594   1.318
 5656TIP3   OH216844   3.588   8.904   6.667
 5656TIP3    H116845   3.668   8.851   6.675
 5656TIP3    H216846   3.575   8.940   6.755
 5657TIP3   OH216847   8.072   8.946   1.638
 5657TIP3    H116848   8.004   8.890   1.601
 5657TIP3    H216849   8.144   8.886   1.659
 5658TIP3   OH216850   5.646   2.759   3.969
 5658TIP3    H116851   5.741   2.753   3.978
 5658TIP3    H216852   5.629   2.733   3.879
 5659TIP3   OH216853   6.061   7.789   6.808
 5659TIP3    H116854   6.069   7.876   6.847
 5659TIP3    H216855   5.980   7.754   6.844
 5660TIP3   OH216856   8.459   0.138   7.793
 5660TIP3    H116857   8.466   0.174   7.881
 5660TIP3    H216858   8.377   0.089   7.793
 5661TIP3   OH216859   0.945   7.571   6.223
 5661TIP3    H116860   0.965   7.644   6.282
 5661TIP3    H216861   0.850   7.562   6.226
 5662TIP3   OH216862   6.084   2.210   6.047
 5662TIP3    H116863   6.098   2.147   6.117
 5662TIP3    H216864   6.059   2.291   6.092
 5663TIP3   OH216865   9.230   1.215   2.903
 5663TIP3    H116866   9.226   1.261   2.819
 5663TIP3    H216867   9.142   1.223   2.939
 5664TIP3   OH216868   2.485   0.592   7.052
 5664TIP3    H116869   2.457   0.514   7.101
 5664TIP3    H216870   2.548   0.559   6.988
 5665TIP3   OH216871   5.551   7.594   3.533
 5665TIP3    H116872   5.532   7.547   3.614
 5665TIP3    H216873   5.469   7.590   3.483
 5666TIP3   OH216874   3.127   5.537   1.310
 5666TIP3    H116875   3.125   5.441   1.305
 5666TIP3    H216876   3.210   5.562   1.270
 5667TIP3   OH216877   8.058   3.762   2.008
 5667TIP3    H116878   7.991   3.822   2.040
 5667TIP3    H216879   8.093   3.721   2.087
 5668TIP3   OH216880   0.527   7.905   0.091
 5668TIP3    H116881   0.434   7.925   0.086
 5668TIP3    H216882   0.558   7.950   0.169
 5669TIP3   OH216883   0.033   0.992   3.542
 5669TIP3    H116884  -0.038   1.048   3.511
 5669TIP3    H216885   0.107   1.012   3.485
 5670TIP3   OH216886   4.957   4.016   4.712
 5670TIP3    H116887   5.043   4.055   4.694
 5670TIP3    H216888   4.976   3.946   4.775
 5671TIP3   OH216889   0.252   6.574   2.288
 5671TIP3    H116890   0.164   6.583   2.324
 5671TIP3    H216891   0.310   6.599   2.360
 5672TIP3   OH216892   5.137   5.669   1.365
 5672TIP3    H116893   5.200   5.734   1.397
 5672TIP3    H216894   5.187   5.615   1.304
 5673TIP3   OH216895   0.760   5.613   5.546
 5673TIP3    H116896   0.778   5.537   5.491
 5673TIP3    H216897   0.840   5.665   5.540
 5674TIP3   OH216898   1.990   4.523   6.033
 5674TIP3    H116899   2.015   4.614   6.049
 5674TIP3    H216900   2.031   4.474   6.104
 5675TIP3   OH216901   1.195   7.310   6.906
 5675TIP3    H116902   1.127   7.328   6.841
 5675TIP3    H216903   1.212   7.395   6.946
 5676TIP3   OH216904   5.216   5.380   5.166
 5676TIP3    H116905   5.218   5.315   5.236
 5676TIP3    H216906   5.124   5.405   5.159
 5677TIP3   OH216907   0.451   8.391   5.485
 5677TIP3    H116908   0.393   8.467   5.480
 5677TIP3    H216909   0.472   8.383   5.578
 5678TIP3   OH216910   6.592   4.778   5.871
 5678TIP3    H116911   6.595   4.766   5.776
 5678TIP3    H216912   6.608   4.871   5.885
 5679TIP3   OH216913   0.562   6.043   5.651
 5679TIP3    H116914   0.608   6.042   5.735
 5679TIP3    H216915   0.469   6.042   5.674
 5680TIP3   OH216916   4.108   1.372   3.847
 5680TIP3    H116917   4.145   1.286   3.863
 5680TIP3    H216918   4.073   1.366   3.758
 5681TIP3   OH216919   3.187   8.786   4.434
 5681TIP3    H116920   3.117   8.783   4.369
 5681TIP3    H216921   3.268   8.776   4.384
 5682TIP3   OH216922   0.132   8.418   7.343
 5682TIP3    H116923   0.136   8.430   7.248
 5682TIP3    H216924   0.191   8.485   7.377
 5683TIP3   OH216925   5.049   7.207   5.993
 5683TIP3    H116926   5.038   7.142   5.923
 5683TIP3    H216927   5.142   7.229   5.991
 5684TIP3   OH216928   7.144   5.360   5.957
 5684TIP3    H116929   7.233   5.396   5.956
 5684TIP3    H216930   7.091   5.426   5.913
 5685TIP3   OH216931   4.553   1.867   1.687
 5685TIP3    H116932   4.477   1.819   1.654
 5685TIP3    H216933   4.625   1.805   1.680
 5686TIP3   OH216934   7.742   0.996   5.870
 5686TIP3    H116935   7.801   1.054   5.918
 5686TIP3    H216936   7.663   0.992   5.924
 5687TIP3   OH216937   6.030   2.093   0.793
 5687TIP3    H116938   5.982   2.135   0.721
 5687TIP3    H216939   5.979   2.015   0.813
 5688TIP3   OH216940   8.858   5.797   3.645
 5688TIP3    H116941   8.829   5.888   3.641
 5688TIP3    H216942   8.845   5.771   3.736
 5689TIP3   OH216943   1.392   7.666   1.082
 5689TIP3    H116944   1.454   7.708   1.141
 5689TIP3    H216945   1.435   7.669   0.996
 5690TIP3   OH216946   8.378   3.884   6.814
 5690TIP3    H116947   8.426   3.802   6.808
 5690TIP3    H216948   8.415   3.939   6.745
 5691TIP3   OH216949   7.735   4.592   6.218
 5691TIP3    H116950   7.757   4.686   6.220
 5691TIP3    H216951   7.820   4.548   6.222
 5692TIP3   OH216952   5.691   6.239   6.465
 5692TIP3    H116953   5.727   6.322   6.494
 5692TIP3    H216954   5.597   6.255   6.458
 5693TIP3   OH216955   6.506   8.141   6.731
 5693TIP3    H116956   6.479   8.061   6.776
 5693TIP3    H216957   6.450   8.145   6.653
 5694TIP3   OH216958   6.198   3.039   0.551
 5694TIP3    H116959   6.194   3.118   0.497
 5694TIP3    H216960   6.239   3.068   0.633
 5695TIP3   OH216961   0.342   2.959   3.569
 5695TIP3    H116962   0.305   3.042   3.539
 5695TIP3    H216963   0.299   2.943   3.653
 5696TIP3   OH216964   3.763   2.767   0.360
 5696TIP3    H116965   3.782   2.673   0.357
 5696TIP3    H216966   3.670   2.773   0.337
 5697TIP3   OH216967   3.179   0.059   6.285
 5697TIP3    H116968   3.138   0.142   6.260
 5697TIP3    H216969   3.118  -0.008   6.255
 5698TIP3   OH216970   9.528   7.456   2.544
 5698TIP3    H116971   9.491   7.435   2.630
 5698TIP3    H216972   9.452   7.457   2.486
 5699TIP3   OH216973   4.430   1.280   2.930
 5699TIP3    H116974   4.367   1.304   2.863
 5699TIP3    H216975   4.387   1.210   2.981
 5700TIP3   OH216976   6.365   5.843   6.546
 5700TIP3    H116977   6.333   5.758   6.518
 5700TIP3    H216978   6.436   5.863   6.486
 5701TIP3   OH216979   6.164   7.242   0.965
 5701TIP3    H116980   6.110   7.211   1.038
 5701TIP3    H216981   6.203   7.162   0.928
 5702TIP3   OH216982   0.947   6.504   0.275
 5702TIP3    H116983   0.909   6.464   0.197
 5702TIP3    H216984   0.914   6.452   0.348
 5703TIP3   OH216985   0.297   2.802   7.323
 5703TIP3    H116986   0.268   2.889   7.351
 5703TIP3    H216987   0.240   2.741   7.371
 5704TIP3   OH216988   1.802   7.408   7.462
 5704TIP3    H116989   1.739   7.479   7.453
 5704TIP3    H216990   1.787   7.352   7.386
 5705TIP3   OH216991   0.285   0.949   0.884
 5705TIP3    H116992   0.353   0.933   0.950
 5705TIP3    H216993   0.219   0.882   0.901
 5706TIP3   OH216994   4.314   8.483   6.392
 5706TIP3    H116995   4.375   8.551   6.422
 5706TIP3    H216996   4.227   8.521   6.407
 5707TIP3   OH216997   5.011   5.603   0.483
 5707TIP3    H116998   5.105   5.597   0.466
 5707TIP3    H216999   4.997   5.693   0.511
 5708TIP3   OH217000   5.464   2.600   6.396
 5708TIP3    H117001   5.438   2.523   6.344
 5708TIP3    H217002   5.439   2.578   6.485
 5709TIP3   OH217003   1.181   0.557   4.836
 5709TIP3    H117004   1.123   0.480   4.837
 5709TIP3    H217005   1.231   0.548   4.755
 5710TIP3   OH217006   6.076   4.449   3.793
 5710TIP3    H117007   6.039   4.535   3.773
 5710TIP3    H217008   6.087   4.407   3.707
 5711TIP3   OH217009   2.618   7.534   6.607
 5711TIP3    H117010   2.649   7.448   6.634
 5711TIP3    H217011   2.618   7.531   6.511
 5712TIP3   OH217012   9.221   7.859   1.715
 5712TIP3    H117013   9.306   7.890   1.744
 5712TIP3    H217014   9.240   7.779   1.665
 5713TIP3   OH217015   6.577   5.433   3.395
 5713TIP3    H117016   6.557   5.526   3.381
 5713TIP3    H217017   6.665   5.433   3.432
 5714TIP3   OH217018   2.167   8.090   2.104
 5714TIP3    H117019   2.108   8.025   2.142
 5714TIP3    H217020   2.137   8.173   2.140
 5715TIP3   OH217021   3.444   4.423   0.385
 5715TIP3    H117022   3.466   4.478   0.460
 5715TIP3    H217023   3.484   4.467   0.310
 5716TIP3   OH217024   1.326   7.716   3.223
 5716TIP3    H117025   1.369   7.791   3.181
 5716TIP3    H217026   1.335   7.645   3.159
 5717TIP3   OH217027   1.337   4.344   6.127
 5717TIP3    H117028   1.366   4.433   6.111
 5717TIP3    H217029   1.301   4.314   6.044
 5718TIP3   OH217030   8.313   0.676   3.874
 5718TIP3    H117031   8.301   0.766   3.842
 5718TIP3    H217032   8.281   0.621   3.802
 5719TIP3   OH217033   5.029   4.172   3.698
 5719TIP3    H117034   4.935   4.168   3.681
 5719TIP3    H217035   5.035   4.192   3.792
 5720TIP3   OH217036   7.457   1.444   0.262
 5720TIP3    H117037   7.407   1.471   0.184
 5720TIP3    H217038   7.390   1.409   0.321
 5721TIP3   OH217039   0.137   5.308   4.695
 5721TIP3    H117040   0.063   5.328   4.637
 5721TIP3    H217041   0.118   5.357   4.775
 5722TIP3   OH217042   2.914   8.405   3.289
 5722TIP3    H117043   2.972   8.437   3.359
 5722TIP3    H217044   2.905   8.481   3.231
 5723TIP3   OH217045   1.794   2.855   6.194
 5723TIP3    H117046   1.813   2.944   6.222
 5723TIP3    H217047   1.709   2.861   6.150
 5724TIP3   OH217048   6.060   8.327   0.758
 5724TIP3    H117049   6.150   8.349   0.734
 5724TIP3    H217050   6.059   8.328   0.854
 5725TIP3   OH217051   8.182   1.913   0.465
 5725TIP3    H117052   8.202   1.974   0.536
 5725TIP3    H217053   8.098   1.875   0.489
 5726TIP3   OH217054   9.008   5.461   4.328
 5726TIP3    H117055   8.958   5.394   4.375
 5726TIP3    H217056   8.960   5.542   4.343
 5727TIP3   OH217057   6.404   5.642   4.037
 5727TIP3    H117058   6.470   5.646   4.106
 5727TIP3    H217059   6.439   5.697   3.966
 5728TIP3   OH217060   4.305   1.095   4.665
 5728TIP3    H117061   4.353   1.057   4.592
 5728TIP3    H217062   4.215   1.103   4.633
 5729TIP3   OH217063   7.085   5.240   3.832
 5729TIP3    H117064   7.014   5.254   3.894
 5729TIP3    H217065   7.084   5.145   3.816
 5730TIP3   OH217066   1.522   4.609   5.289
 5730TIP3    H117067   1.469   4.677   5.249
 5730TIP3    H217068   1.464   4.571   5.356
 5731TIP3   OH217069   5.505   6.167   3.660
 5731TIP3    H117070   5.449   6.245   3.665
 5731TIP3    H217071   5.474   6.111   3.730
 5732TIP3   OH217072   7.561   4.296   5.390
 5732TIP3    H117073   7.634   4.345   5.428
 5732TIP3    H217074   7.503   4.278   5.463
 5733TIP3   OH217075   7.043   0.902   1.295
 5733TIP3    H117076   7.096   0.932   1.369
 5733TIP3    H217077   7.096   0.836   1.252
 5734TIP3   OH217078   7.908   7.313   1.332
 5734TIP3    H117079   7.947   7.230   1.302
 5734TIP3    H217080   7.890   7.361   1.251
 5735TIP3   OH217081   3.739   7.969   0.660
 5735TIP3    H117082   3.756   7.921   0.580
 5735TIP3    H217083   3.826   7.985   0.698
 5736TIP3   OH217084   7.875   8.205   2.194
 5736TIP3    H117085   7.950   8.192   2.137
 5736TIP3    H217086   7.899   8.277   2.251
 5737TIP3   OH217087   7.625   5.473   0.519
 5737TIP3    H117088   7.644   5.564   0.541
 5737TIP3    H217089   7.591   5.477   0.429
 5738TIP3   OH217090   0.022   6.539   3.072
 5738TIP3    H117091  -0.036   6.506   3.141
 5738TIP3    H217092  -0.014   6.502   2.991
 5739TIP3   OH217093   9.274   1.945   7.435
 5739TIP3    H117094   9.331   2.021   7.440
 5739TIP3    H217095   9.289   1.909   7.348
 5740TIP3   OH217096   7.854   7.701   2.745
 5740TIP3    H117097   7.770   7.661   2.722
 5740TIP3    H217098   7.881   7.655   2.824
 5741TIP3   OH217099   4.853   5.779   2.583
 5741TIP3    H117100   4.874   5.816   2.497
 5741TIP3    H217101   4.887   5.690   2.580
 5742TIP3   OH217102   2.017   5.094   3.456
 5742TIP3    H117103   2.064   5.136   3.527
 5742TIP3    H217104   2.005   5.163   3.390
 5743TIP3   OH217105   1.420   0.354   4.171
 5743TIP3    H117106   1.463   0.279   4.129
 5743TIP3    H217107   1.350   0.379   4.111
 5744TIP3   OH217108   3.214   0.888   3.636
 5744TIP3    H117109   3.122   0.878   3.612
 5744TIP3    H217110   3.229   0.819   3.701
 5745TIP3   OH217111   2.341   4.497   3.658
 5745TIP3    H117112   2.431   4.472   3.637
 5745TIP3    H217113   2.289   4.459   3.587
 5746TIP3   OH217114   2.161   8.810   4.092
 5746TIP3    H117115   2.135   8.856   4.012
 5746TIP3    H217116   2.135   8.868   4.163
 5747TIP3   OH217117   4.338   2.591   4.539
 5747TIP3    H117118   4.295   2.647   4.474
 5747TIP3    H217119   4.412   2.644   4.569
 5748TIP3   OH217120   4.746   4.460   4.339
 5748TIP3    H117121   4.757   4.365   4.336
 5748TIP3    H217122   4.652   4.473   4.328
 5749TIP3   OH217123   0.374   0.479   5.263
 5749TIP3    H117124   0.353   0.396   5.306
 5749TIP3    H217125   0.457   0.463   5.218
 5750TIP3   OH217126   9.365   5.851   4.867
 5750TIP3    H117127   9.428   5.922   4.854
 5750TIP3    H217128   9.334   5.863   4.957
 5751TIP3   OH217129   2.683   5.804   5.503
 5751TIP3    H117130   2.670   5.734   5.567
 5751TIP3    H217131   2.778   5.813   5.495
 5752TIP3   OH217132   9.557   7.931   4.942
 5752TIP3    H117133   9.601   7.975   4.870
 5752TIP3    H217134   9.469   7.912   4.908
 5753TIP3   OH217135   8.830   5.957   1.129
 5753TIP3    H117136   8.905   5.902   1.106
 5753TIP3    H217137   8.773   5.899   1.180
 5754TIP3   OH217138   6.452   2.787   1.862
 5754TIP3    H117139   6.384   2.747   1.807
 5754TIP3    H217140   6.522   2.722   1.864
 5755TIP3   OH217141   8.051   0.199   6.529
 5755TIP3    H117142   7.995   0.126   6.502
 5755TIP3    H217143   8.034   0.268   6.465
 5756TIP3   OH217144   0.924   2.629   7.448
 5756TIP3    H117145   0.912   2.618   7.354
 5756TIP3    H217146   1.009   2.589   7.466
 5757TIP3   OH217147   0.008   6.252   6.867
 5757TIP3    H117148  -0.016   6.160   6.860
 5757TIP3    H217149   0.102   6.254   6.848
 5758TIP3   OH217150   4.718   8.464   3.918
 5758TIP3    H117151   4.783   8.498   3.979
 5758TIP3    H217152   4.651   8.533   3.913
 5759TIP3   OH217153   6.022   7.868   5.030
 5759TIP3    H117154   6.101   7.915   5.004
 5759TIP3    H217155   5.959   7.885   4.959
 5760TIP3   OH217156   0.019   4.308   2.012
 5760TIP3    H117157  -0.069   4.322   2.047
 5760TIP3    H217158   0.018   4.217   1.982
 5761TIP3   OH217159   2.219   1.598   0.255
 5761TIP3    H117160   2.149   1.563   0.310
 5761TIP3    H217161   2.297   1.551   0.284
 5762TIP3   OH217162   7.381   2.441   0.723
 5762TIP3    H117163   7.410   2.383   0.794
 5762TIP3    H217164   7.286   2.431   0.721
 5763TIP3   OH217165   0.390   0.911   2.419
 5763TIP3    H117166   0.295   0.921   2.426
 5763TIP3    H217167   0.405   0.818   2.436
 5764TIP3   OH217168   4.374   3.080   6.551
 5764TIP3    H117169   4.296   3.033   6.523
 5764TIP3    H217170   4.387   3.148   6.484
 5765TIP3   OH217171   3.732   7.026   5.040
 5765TIP3    H117172   3.801   6.968   5.009
 5765TIP3    H217173   3.717   7.087   4.968
 5766TIP3   OH217174   4.473   0.609   4.507
 5766TIP3    H117175   4.505   0.605   4.597
 5766TIP3    H217176   4.453   0.519   4.484
 5767TIP3   OH217177   4.922   6.541   7.308
 5767TIP3    H117178   4.826   6.546   7.316
 5767TIP3    H217179   4.952   6.519   7.396
 5768TIP3   OH217180   9.328   6.874   4.225
 5768TIP3    H117181   9.355   6.798   4.173
 5768TIP3    H217182   9.331   6.947   4.164
 5769TIP3   OH217183   2.938   8.002   6.087
 5769TIP3    H117184   2.994   7.958   6.022
 5769TIP3    H217185   2.964   8.094   6.082
 5770TIP3   OH217186   7.506   8.753   7.744
 5770TIP3    H117187   7.515   8.835   7.695
 5770TIP3    H217188   7.577   8.755   7.808
 5771TIP3   OH217189   2.508   3.563   1.774
 5771TIP3    H117190   2.558   3.592   1.850
 5771TIP3    H217191   2.435   3.625   1.768
 5772TIP3   OH217192   9.081   7.869   4.332
 5772TIP3    H117193   9.035   7.816   4.397
 5772TIP3    H217194   9.022   7.942   4.314
 5773TIP3   OH217195   8.735   7.443   3.615
 5773TIP3    H117196   8.719   7.372   3.553
 5773TIP3    H217197   8.768   7.399   3.693
 5774TIP3   OH217198   7.879   0.786   1.048
 5774TIP3    H117199   7.941   0.856   1.066
 5774TIP3    H217200   7.795   0.831   1.033
 5775TIP3   OH217201   2.463   6.836   1.315
 5775TIP3    H117202   2.467   6.760   1.257
 5775TIP3    H217203   2.375   6.836   1.351
 5776TIP3   OH217204   3.971   3.688   4.600
 5776TIP3    H117205   3.876   3.691   4.590
 5776TIP3    H217206   3.985   3.712   4.692
 5777TIP3   OH217207   2.984   8.841   0.317
 5777TIP3    H117208   2.944   8.844   0.404
 5777TIP3    H217209   2.917   8.801   0.261
 5778TIP3   OH217210   8.470   3.438   4.644
 5778TIP3    H117211   8.525   3.361   4.659
 5778TIP3    H217212   8.491   3.466   4.555
 5779TIP3   OH217213   6.263   8.853   5.574
 5779TIP3    H117214   6.347   8.828   5.612
 5779TIP3    H217215   6.225   8.915   5.636
 5780TIP3   OH217216   2.729   1.583   4.667
 5780TIP3    H117217   2.803   1.544   4.713
 5780TIP3    H217218   2.711   1.523   4.594
 5781TIP3   OH217219   1.472   2.789   6.334
 5781TIP3    H117220   1.382   2.759   6.322
 5781TIP3    H217221   1.485   2.790   6.429
 5782TIP3   OH217222   6.393   1.242   5.635
 5782TIP3    H117223   6.339   1.228   5.713
 5782TIP3    H217224   6.466   1.296   5.665
 5783TIP3   OH217225   6.756   2.605   1.577
 5783TIP3    H117226   6.779   2.515   1.599
 5783TIP3    H217227   6.667   2.599   1.541
 5784TIP3   OH217228   3.073   3.117   1.648
 5784TIP3    H117229   3.087   3.100   1.741
 5784TIP3    H217230   3.161   3.118   1.610
 5785TIP3   OH217231   6.303   0.631   0.434
 5785TIP3    H117232   6.355   0.693   0.487
 5785TIP3    H217233   6.343   0.634   0.347
 5786TIP3   OH217234   8.311   0.367   6.330
 5786TIP3    H117235   8.223   0.385   6.364
 5786TIP3    H217236   8.314   0.272   6.321
 5787TIP3   OH217237   2.839   6.738   5.298
 5787TIP3    H117238   2.897   6.668   5.267
 5787TIP3    H217239   2.854   6.741   5.393
 5788TIP3   OH217240   5.448   4.220   3.769
 5788TIP3    H117241   5.515   4.250   3.830
 5788TIP3    H217242   5.365   4.247   3.809
 5789TIP3   OH217243   3.436   6.227   6.239
 5789TIP3    H117244   3.447   6.239   6.144
 5789TIP3    H217245   3.375   6.296   6.265
 5790TIP3   OH217246   5.962   0.279   7.556
 5790TIP3    H117247   6.021   0.286   7.481
 5790TIP3    H217248   5.922   0.192   7.547
 5791TIP3   OH217249   7.978   3.611   7.341
 5791TIP3    H117250   7.970   3.706   7.335
 5791TIP3    H217251   8.073   3.595   7.336
 5792TIP3   OH217252   0.541   5.852   0.972
 5792TIP3    H117253   0.556   5.936   1.016
 5792TIP3    H217254   0.600   5.791   1.016
 5793TIP3   OH217255   0.874   3.685   3.644
 5793TIP3    H117256   0.948   3.639   3.682
 5793TIP3    H217257   0.913   3.746   3.581
 5794TIP3   OH217258   4.085   3.665   5.319
 5794TIP3    H117259   4.041   3.738   5.362
 5794TIP3    H217260   4.130   3.618   5.389
 5795TIP3   OH217261   2.163   5.171   3.669
 5795TIP3    H117262   2.247   5.209   3.696
 5795TIP3    H217263   2.108   5.178   3.747
 5796TIP3   OH217264   4.181   1.878   7.333
 5796TIP3    H117265   4.200   1.970   7.314
 5796TIP3    H217266   4.184   1.835   7.248
 5797TIP3   OH217267   4.890   7.795   4.181
 5797TIP3    H117268   4.936   7.844   4.248
 5797TIP3    H217269   4.820   7.750   4.228
 5798TIP3   OH217270   3.152   3.733   4.147
 5798TIP3    H117271   3.172   3.656   4.094
 5798TIP3    H217272   3.099   3.700   4.219
 5799TIP3   OH217273   5.927   3.590   6.338
 5799TIP3    H117274   5.996   3.572   6.401
 5799TIP3    H217275   5.940   3.682   6.314
 5800TIP3   OH217276   5.503   6.959   1.093
 5800TIP3    H117277   5.429   6.910   1.057
 5800TIP3    H217278   5.465   7.011   1.163
 5801TIP3   OH217279   8.435   3.139   2.938
 5801TIP3    H117280   8.504   3.198   2.907
 5801TIP3    H217281   8.403   3.180   3.019
 5802TIP3   OH217282   3.411   7.076   5.775
 5802TIP3    H117283   3.468   7.111   5.842
 5802TIP3    H217284   3.363   7.152   5.741
 5803TIP3   OH217285   2.574   5.045   5.832
 5803TIP3    H117286   2.606   5.119   5.883
 5803TIP3    H217287   2.559   5.081   5.744
 5804TIP3   OH217288   6.118   5.152   0.439
 5804TIP3    H117289   6.028   5.156   0.405
 5804TIP3    H217290   6.132   5.239   0.477
 5805TIP3   OH217291   1.597   7.205   5.439
 5805TIP3    H117292   1.628   7.258   5.365
 5805TIP3    H217293   1.552   7.266   5.496
 5806TIP3   OH217294   1.961   6.931   3.700
 5806TIP3    H117295   1.872   6.958   3.723
 5806TIP3    H217296   1.965   6.939   3.604
 5807TIP3   OH217297   3.543   2.293   5.536
 5807TIP3    H117298   3.607   2.314   5.604
 5807TIP3    H217299   3.501   2.377   5.516
 5808TIP3   OH217300   9.483   8.187   3.736
 5808TIP3    H117301   9.473   8.121   3.805
 5808TIP3    H217302   9.409   8.171   3.678
 5809TIP3   OH217303   3.550   1.700   4.798
 5809TIP3    H117304   3.635   1.699   4.840
 5809TIP3    H217305   3.495   1.752   4.857
 5810TIP3   OH217306   2.399   7.350   4.777
 5810TIP3    H117307   2.416   7.338   4.684
 5810TIP3    H217308   2.303   7.359   4.783
 5811TIP3   OH217309   4.730   0.424   5.053
 5811TIP3    H117310   4.711   0.487   4.983
 5811TIP3    H217311   4.826   0.423   5.058
 5812TIP3   OH217312   7.708   1.348   5.413
 5812TIP3    H117313   7.788   1.296   5.404
 5812TIP3    H217314   7.682   1.368   5.323
 5813TIP3   OH217315   1.729   6.651   5.374
 5813TIP3    H117316   1.724   6.600   5.293
 5813TIP3    H217317   1.709   6.741   5.346
 5814TIP3   OH217318   9.388   1.994   4.830
 5814TIP3    H117319   9.373   2.049   4.907
 5814TIP3    H217320   9.444   1.923   4.861
 5815TIP3   OH217321   9.159   7.624   5.292
 5815TIP3    H117322   9.243   7.613   5.246
 5815TIP3    H217323   9.144   7.539   5.334
 5816TIP3   OH217324   8.662   6.080   6.132
 5816TIP3    H117325   8.609   6.001   6.122
 5816TIP3    H217326   8.610   6.136   6.189
 5817TIP3   OH217327   8.030   2.179   7.423
 5817TIP3    H117328   8.023   2.091   7.387
 5817TIP3    H217329   8.107   2.217   7.380
 5818TIP3   OH217330   0.053   0.092   2.588
 5818TIP3    H117331   0.113   0.089   2.664
 5818TIP3    H217332  -0.017   0.032   2.611
 5819TIP3   OH217333   2.621   0.646   0.228
 5819TIP3    H117334   2.530   0.645   0.256
 5819TIP3    H217335   2.659   0.567   0.266
 5820TIP3   OH217336   0.338   0.366   0.800
 5820TIP3    H117337   0.407   0.425   0.770
 5820TIP3    H217338   0.365   0.342   0.889
 5821TIP3   OH217339   7.517   4.840   3.832
 5821TIP3    H117340   7.456   4.773   3.802
 5821TIP3    H217341   7.585   4.842   3.764
 5822TIP3   OH217342   4.213   7.159   4.619
 5822TIP3    H117343   4.272   7.134   4.690
 5822TIP3    H217344   4.185   7.248   4.642
 5823TIP3   OH217345   1.808   5.567   0.489
 5823TIP3    H117346   1.904   5.573   0.486
 5823TIP3    H217347   1.788   5.479   0.456
 5824TIP3   OH217348   4.357   3.962   6.329
 5824TIP3    H117349   4.297   3.904   6.377
 5824TIP3    H217350   4.443   3.941   6.364
 5825TIP3   OH217351   3.924   8.753   3.564
 5825TIP3    H117352   3.907   8.797   3.647
 5825TIP3    H217353   4.010   8.785   3.536
 5826TIP3   OH217354   8.322   5.440   5.705
 5826TIP3    H117355   8.353   5.471   5.790
 5826TIP3    H217356   8.388   5.376   5.678
 5827TIP3   OH217357   1.546   5.470   2.610
 5827TIP3    H117358   1.476   5.425   2.657
 5827TIP3    H217359   1.573   5.407   2.543
 5828TIP3   OH217360   6.641   7.470   6.059
 5828TIP3    H117361   6.661   7.559   6.086
 5828TIP3    H217362   6.714   7.444   6.002
 5829TIP3   OH217363   3.801   0.758   7.705
 5829TIP3    H117364   3.756   0.776   7.623
 5829TIP3    H217365   3.798   0.663   7.713
 5830TIP3   OH217366   0.265   8.884   4.687
 5830TIP3    H117367   0.322   8.862   4.613
 5830TIP3    H217368   0.191   8.930   4.646
 5831TIP3   OH217369   3.848   1.282   5.696
 5831TIP3    H117370   3.905   1.353   5.727
 5831TIP3    H217371   3.907   1.215   5.664
 5832TIP3   OH217372   6.898   0.128   6.678
 5832TIP3    H117373   6.865   0.044   6.646
 5832TIP3    H217374   6.935   0.108   6.764
 5833TIP3   OH217375   3.099   6.701   4.026
 5833TIP3    H117376   3.163   6.692   3.955
 5833TIP3    H217377   3.064   6.789   4.015
 5834TIP3   OH217378   9.133   7.411   6.973
 5834TIP3    H117379   9.207   7.352   6.957
 5834TIP3    H217380   9.108   7.394   7.064
 5835TIP3   OH217381   5.672   7.315   1.318
 5835TIP3    H117382   5.634   7.284   1.236
 5835TIP3    H217383   5.661   7.410   1.316
 5836TIP3   OH217384   6.626   3.345   5.105
 5836TIP3    H117385   6.538   3.339   5.143
 5836TIP3    H217386   6.619   3.413   5.039
 5837TIP3   OH217387   7.612   8.608   4.116
 5837TIP3    H117388   7.661   8.683   4.081
 5837TIP3    H217389   7.540   8.595   4.054
 5838TIP3   OH217390   7.944   4.078   6.715
 5838TIP3    H117391   8.013   4.124   6.666
 5838TIP3    H217392   7.946   3.989   6.681
 5839TIP3   OH217393   7.608   8.210   1.854
 5839TIP3    H117394   7.576   8.227   1.765
 5839TIP3    H217395   7.555   8.266   1.910
 5840TIP3   OH217396   7.004   6.179   4.533
 5840TIP3    H117397   6.949   6.103   4.514
 5840TIP3    H217398   7.061   6.187   4.457
 5841TIP3   OH217399   3.280   5.701   1.976
 5841TIP3    H117400   3.354   5.640   1.980
 5841TIP3    H217401   3.307   5.766   1.912
 5842TIP3   OH217402   2.609   2.681   7.077
 5842TIP3    H117403   2.548   2.722   7.138
 5842TIP3    H217404   2.569   2.694   6.991
 5843TIP3   OH217405   8.636   0.622   2.458
 5843TIP3    H117406   8.540   0.623   2.457
 5843TIP3    H217407   8.659   0.540   2.502
 5844TIP3   OH217408   8.769   5.230   2.510
 5844TIP3    H117409   8.790   5.185   2.428
 5844TIP3    H217410   8.715   5.167   2.559
 5845TIP3   OH217411   9.103   8.179   2.145
 5845TIP3    H117412   9.120   8.228   2.064
 5845TIP3    H217413   9.016   8.208   2.172
 5846TIP3   OH217414   2.194   7.496   2.233
 5846TIP3    H117415   2.135   7.422   2.216
 5846TIP3    H217416   2.181   7.517   2.325
 5847TIP3   OH217417   3.737   2.661   6.858
 5847TIP3    H117418   3.781   2.738   6.823
 5847TIP3    H217419   3.732   2.601   6.784
 5848TIP3   OH217420   2.385   3.927   0.383
 5848TIP3    H117421   2.479   3.919   0.399
 5848TIP3    H217422   2.378   3.941   0.289
 5849TIP3   OH217423   1.999   5.794   6.405
 5849TIP3    H117424   2.075   5.780   6.350
 5849TIP3    H217425   1.976   5.707   6.437
 5850TIP3   OH217426   8.821   2.682   5.507
 5850TIP3    H117427   8.913   2.670   5.481
 5850TIP3    H217428   8.772   2.625   5.448
 5851TIP3   OH217429   0.475   0.607   6.670
 5851TIP3    H117430   0.541   0.603   6.601
 5851TIP3    H217431   0.394   0.629   6.625
 5852TIP3   OH217432   1.866   1.849   1.014
 5852TIP3    H117433   1.783   1.813   0.981
 5852TIP3    H217434   1.853   1.854   1.109
 5853TIP3   OH217435   6.655   7.972   3.708
 5853TIP3    H117436   6.624   7.900   3.764
 5853TIP3    H217437   6.617   8.050   3.749
 5854TIP3   OH217438   0.990   7.640   0.378
 5854TIP3    H117439   0.943   7.667   0.299
 5854TIP3    H217440   1.036   7.560   0.352
 5855TIP3   OH217441   3.920   3.293   6.349
 5855TIP3    H117442   3.865   3.371   6.345
 5855TIP3    H217443   3.895   3.250   6.431
 5856TIP3   OH217444   3.937   5.693   7.504
 5856TIP3    H117445   3.973   5.611   7.536
 5856TIP3    H217446   3.852   5.701   7.546
 5857TIP3   OH217447   3.287   7.541   5.347
 5857TIP3    H117448   3.234   7.571   5.273
 5857TIP3    H217449   3.377   7.561   5.322
 5858TIP3   OH217450   7.701   6.444   4.682
 5858TIP3    H117451   7.618   6.488   4.701
 5858TIP3    H217452   7.763   6.515   4.669
 5859TIP3   OH217453   0.397   3.700   2.115
 5859TIP3    H117454   0.468   3.752   2.153
 5859TIP3    H217455   0.422   3.609   2.132
 5860TIP3   OH217456   4.631   0.132   6.975
 5860TIP3    H117457   4.631   0.115   6.881
 5860TIP3    H217458   4.693   0.204   6.987
 5861TIP3   OH217459   8.318   5.372   0.699
 5861TIP3    H117460   8.342   5.297   0.644
 5861TIP3    H217461   8.273   5.432   0.639
 5862TIP3   OH217462   9.343   3.051   6.815
 5862TIP3    H117463   9.319   2.960   6.800
 5862TIP3    H217464   9.438   3.051   6.818
 5863TIP3   OH217465   9.363   0.509   1.792
 5863TIP3    H117466   9.400   0.595   1.811
 5863TIP3    H217467   9.323   0.518   1.705
 5864TIP3   OH217468   6.957   3.139   0.403
 5864TIP3    H117469   6.910   3.062   0.371
 5864TIP3    H217470   7.047   3.127   0.370
 5865TIP3   OH217471   3.335   5.381   2.683
 5865TIP3    H117472   3.379   5.309   2.638
 5865TIP3    H217473   3.319   5.446   2.615
 5866TIP3   OH217474   0.872   8.831   3.759
 5866TIP3    H117475   0.798   8.798   3.811
 5866TIP3    H217476   0.937   8.858   3.824
 5867TIP3   OH217477   4.341   7.271   6.364
 5867TIP3    H117478   4.376   7.360   6.366
 5867TIP3    H217479   4.288   7.268   6.284
 5868TIP3   OH217480   6.500   6.468   5.985
 5868TIP3    H117481   6.542   6.419   5.915
 5868TIP3    H217482   6.463   6.546   5.942
 5869TIP3   OH217483   6.005   1.814   3.519
 5869TIP3    H117484   5.933   1.777   3.468
 5869TIP3    H217485   6.068   1.743   3.528
 5870TIP3   OH217486   7.930   2.701   0.870
 5870TIP3    H117487   8.011   2.655   0.892
 5870TIP3    H217488   7.926   2.773   0.933
 5871TIP3   OH217489   7.432   4.230   7.237
 5871TIP3    H117490   7.365   4.293   7.264
 5871TIP3    H217491   7.499   4.235   7.305
 5872TIP3   OH217492   5.832   4.568   0.768
 5872TIP3    H117493   5.794   4.485   0.798
 5872TIP3    H217494   5.877   4.602   0.845
 5873TIP3   OH217495   1.659   4.831   4.810
 5873TIP3    H117496   1.626   4.793   4.728
 5873TIP3    H217497   1.754   4.835   4.798
 5874TIP3   OH217498   1.625   2.897   5.346
 5874TIP3    H117499   1.567   2.831   5.386
 5874TIP3    H217500   1.565   2.953   5.296
 5875TIP3   OH217501   4.590   3.908   6.465
 5875TIP3    H117502   4.636   3.991   6.483
 5875TIP3    H217503   4.645   3.841   6.505
 5876TIP3   OH217504   4.960   1.846   1.887
 5876TIP3    H117505   4.990   1.796   1.963
 5876TIP3    H217506   5.040   1.874   1.844
 5877TIP3   OH217507   6.268   3.723   4.523
 5877TIP3    H117508   6.267   3.711   4.428
 5877TIP3    H217509   6.182   3.693   4.552
 5878TIP3   OH217510   6.819   6.506   2.420
 5878TIP3    H117511   6.818   6.511   2.515
 5878TIP3    H217512   6.822   6.413   2.400
 5879TIP3   OH217513   0.632   5.331   1.389
 5879TIP3    H117514   0.575   5.407   1.401
 5879TIP3    H217515   0.646   5.327   1.294
 5880TIP3   OH217516   3.138   4.195   4.518
 5880TIP3    H117517   3.215   4.251   4.527
 5880TIP3    H217518   3.124   4.160   4.606
 5881TIP3   OH217519   8.467   3.910   7.551
 5881TIP3    H117520   8.450   3.834   7.495
 5881TIP3    H217521   8.442   3.985   7.498
 5882TIP3   OH217522   7.602   2.136   5.180
 5882TIP3    H117523   7.596   2.172   5.269
 5882TIP3    H217524   7.527   2.174   5.134
 5883TIP3   OH217525   8.664   8.647   2.382
 5883TIP3    H117526   8.660   8.658   2.287
 5883TIP3    H217527   8.758   8.652   2.403
 5884TIP3   OH217528   9.527   2.404   3.211
 5884TIP3    H117529   9.509   2.401   3.305
 5884TIP3    H217530   9.526   2.312   3.184
 5885TIP3   OH217531   9.443   1.451   6.007
 5885TIP3    H117532   9.401   1.535   5.993
 5885TIP3    H217533   9.431   1.403   5.925
 5886TIP3   OH217534   5.958   7.713   7.212
 5886TIP3    H117535   5.873   7.681   7.181
 5886TIP3    H217536   5.972   7.667   7.295
 5887TIP3   OH217537   2.528   2.015   3.840
 5887TIP3    H117538   2.618   2.038   3.863
 5887TIP3    H217539   2.488   1.990   3.923
 5888TIP3   OH217540   8.492   2.064   1.734
 5888TIP3    H117541   8.469   1.982   1.689
 5888TIP3    H217542   8.434   2.129   1.696
 5889TIP3   OH217543   8.151   4.543   7.267
 5889TIP3    H117544   8.192   4.471   7.219
 5889TIP3    H217545   8.068   4.557   7.222
 5890TIP3   OH217546   0.894   7.580   5.471
 5890TIP3    H117547   0.936   7.666   5.473
 5890TIP3    H217548   0.957   7.522   5.429
 5891TIP3   OH217549   8.511   6.820   4.647
 5891TIP3    H117550   8.579   6.788   4.589
 5891TIP3    H217551   8.517   6.916   4.641
 5892TIP3   OH217552   4.982   2.095   0.478
 5892TIP3    H117553   5.077   2.108   0.480
 5892TIP3    H217554   4.947   2.174   0.436
 5893TIP3   OH217555   0.234   2.780   5.242
 5893TIP3    H117556   0.204   2.768   5.152
 5893TIP3    H217557   0.198   2.705   5.289
 5894TIP3   OH217558   9.092   3.998   4.037
 5894TIP3    H117559   9.121   4.084   4.006
 5894TIP3    H217560   9.139   3.985   4.120
 5895TIP3   OH217561   4.371   1.750   6.702
 5895TIP3    H117562   4.312   1.712   6.636
 5895TIP3    H217563   4.349   1.843   6.703
 5896TIP3   OH217564   1.305   1.610   3.960
 5896TIP3    H117565   1.278   1.519   3.962
 5896TIP3    H217566   1.331   1.626   3.870
 5897TIP3   OH217567   8.215   6.030   0.857
 5897TIP3    H117568   8.293   6.071   0.820
 5897TIP3    H217569   8.217   6.051   0.950
 5898TIP3   OH217570   9.465   2.108   2.526
 5898TIP3    H117571   9.437   2.040   2.588
 5898TIP3    H217572   9.394   2.111   2.461
 5899TIP3   OH217573   8.741   1.566   4.535
 5899TIP3    H117574   8.803   1.631   4.502
 5899TIP3    H217575   8.662   1.579   4.482
 5900TIP3   OH217576   7.085   7.395   3.275
 5900TIP3    H117577   7.107   7.353   3.191
 5900TIP3    H217578   7.169   7.427   3.308
 5901TIP3   OH217579   7.749   4.052   3.335
 5901TIP3    H117580   7.683   4.121   3.346
 5901TIP3    H217581   7.760   4.046   3.240
 5902TIP3   OH217582   5.624   5.506   7.580
 5902TIP3    H117583   5.610   5.561   7.503
 5902TIP3    H217584   5.625   5.568   7.653
 5903TIP3   OH217585   4.006   6.250   6.204
 5903TIP3    H117586   3.959   6.178   6.245
 5903TIP3    H217587   3.956   6.271   6.126
 5904TIP3   OH217588   0.314   3.092   2.105
 5904TIP3    H117589   0.240   3.060   2.158
 5904TIP3    H217590   0.360   3.153   2.163
 5905TIP3   OH217591   1.735   7.606   3.990
 5905TIP3    H117592   1.736   7.665   3.914
 5905TIP3    H217593   1.671   7.645   4.050
 5906TIP3   OH217594   4.398   7.920   2.609
 5906TIP3    H117595   4.443   7.848   2.654
 5906TIP3    H217596   4.422   7.998   2.659
 5907TIP3   OH217597   3.673   2.127   7.640
 5907TIP3    H117598   3.693   2.139   7.547
 5907TIP3    H217599   3.587   2.086   7.641
 5908TIP3   OH217600   1.523   1.585   4.597
 5908TIP3    H117601   1.535   1.493   4.577
 5908TIP3    H217602   1.477   1.621   4.521
 5909TIP3   OH217603   9.105   5.210   5.271
 5909TIP3    H117604   9.043   5.156   5.223
 5909TIP3    H217605   9.176   5.226   5.208
 5910TIP3   OH217606   5.838   0.243   3.168
 5910TIP3    H117607   5.893   0.270   3.095
 5910TIP3    H217608   5.777   0.316   3.181
 5911TIP3   OH217609   6.319   8.706   1.798
 5911TIP3    H117610   6.261   8.630   1.800
 5911TIP3    H217611   6.265   8.779   1.826
 5912TIP3   OH217612   7.070   0.025   5.008
 5912TIP3    H117613   7.113  -0.051   4.969
 5912TIP3    H217614   6.979  -0.003   5.020
 5913TIP3   OH217615   0.827   3.296   5.264
 5913TIP3    H117616   0.894   3.351   5.306
 5913TIP3    H217617   0.744   3.337   5.287
 5914TIP3   OH217618   7.678   5.291   2.904
 5914TIP3    H117619   7.688   5.247   2.820
 5914TIP3    H217620   7.759   5.341   2.915
 5915TIP3   OH217621   2.888   0.965   1.773
 5915TIP3    H117622   2.958   0.903   1.753
 5915TIP3    H217623   2.901   1.037   1.712
 5916TIP3   OH217624   8.787   1.243   1.149
 5916TIP3    H117625   8.700   1.202   1.159
 5916TIP3    H217626   8.786   1.316   1.210
 5917TIP3   OH217627   2.773   0.745   7.332
 5917TIP3    H117628   2.813   0.679   7.275
 5917TIP3    H217629   2.728   0.695   7.400
 5918TIP3   OH217630   9.081   0.714   0.191
 5918TIP3    H117631   9.092   0.634   0.140
 5918TIP3    H217632   9.158   0.717   0.247
 5919TIP3   OH217633   8.411   7.444   6.227
 5919TIP3    H117634   8.365   7.423   6.308
 5919TIP3    H217635   8.393   7.536   6.212
 5920TIP3   OH217636   4.959   6.324   7.100
 5920TIP3    H117637   4.967   6.414   7.130
 5920TIP3    H217638   4.922   6.277   7.175
 5921TIP3   OH217639   0.535   6.122   0.706
 5921TIP3    H117640   0.479   6.069   0.649
 5921TIP3    H217641   0.608   6.064   0.728
 5922TIP3   OH217642   7.485   6.826   1.058
 5922TIP3    H117643   7.483   6.921   1.067
 5922TIP3    H217644   7.577   6.805   1.044
 5923TIP3   OH217645   2.980   5.382   0.118
 5923TIP3    H117646   2.998   5.463   0.167
 5923TIP3    H217647   3.057   5.328   0.134
 5924TIP3   OH217648   0.377   3.899   6.360
 5924TIP3    H117649   0.338   3.882   6.446
 5924TIP3    H217650   0.318   3.963   6.319
 5925TIP3   OH217651   9.120   8.313   0.697
 5925TIP3    H117652   9.158   8.293   0.783
 5925TIP3    H217653   9.136   8.234   0.645
 5926TIP3   OH217654   4.245   1.952   5.322
 5926TIP3    H117655   4.172   1.983   5.376
 5926TIP3    H217656   4.276   1.874   5.367
 5927TIP3   OH217657   2.070   2.192   5.487
 5927TIP3    H117658   2.030   2.152   5.409
 5927TIP3    H217659   2.140   2.131   5.511
 5928TIP3   OH217660   7.562   1.852   7.283
 5928TIP3    H117661   7.496   1.921   7.284
 5928TIP3    H217662   7.580   1.837   7.190
 5929TIP3   OH217663   9.283   5.836   3.205
 5929TIP3    H117664   9.366   5.879   3.224
 5929TIP3    H217665   9.302   5.743   3.212
 5930TIP3   OH217666   0.024   2.375   6.610
 5930TIP3    H117667  -0.033   2.367   6.685
 5930TIP3    H217668   0.111   2.388   6.647
 5931TIP3   OH217669   4.449   5.863   2.633
 5931TIP3    H117670   4.519   5.860   2.698
 5931TIP3    H217671   4.454   5.778   2.588
 5932TIP3   OH217672   6.657   2.711   4.278
 5932TIP3    H117673   6.634   2.638   4.335
 5932TIP3    H217674   6.709   2.672   4.208
 5933TIP3   OH217675   2.688   6.248   1.396
 5933TIP3    H117676   2.633   6.181   1.437
 5933TIP3    H217677   2.630   6.323   1.384
 5934TIP3   OH217678   3.490   4.548   7.206
 5934TIP3    H117679   3.505   4.531   7.113
 5934TIP3    H217680   3.552   4.491   7.251
 5935TIP3   OH217681   9.313   4.114   2.778
 5935TIP3    H117682   9.233   4.076   2.744
 5935TIP3    H217683   9.320   4.081   2.868
 5936TIP3   OH217684   1.111   0.644   3.141
 5936TIP3    H117685   1.203   0.624   3.157
 5936TIP3    H217686   1.078   0.674   3.226
 5937TIP3   OH217687   1.793   8.856   2.643
 5937TIP3    H117688   1.772   8.805   2.565
 5937TIP3    H217689   1.841   8.931   2.610
 5938TIP3   OH217690   3.709   5.725   7.663
 5938TIP3    H117691   3.665   5.704   7.581
 5938TIP3    H217692   3.639   5.758   7.719
 5939TIP3   OH217693   2.333   8.942   1.339
 5939TIP3    H117694   2.346   8.847   1.338
 5939TIP3    H217695   2.251   8.956   1.291
 5940TIP3   OH217696   2.500   5.922   4.654
 5940TIP3    H117697   2.481   5.831   4.631
 5940TIP3    H217698   2.512   5.966   4.570
 5941TIP3   OH217699   0.319   8.632   2.932
 5941TIP3    H117700   0.229   8.646   2.903
 5941TIP3    H217701   0.368   8.620   2.851
 5942TIP3   OH217702   5.398   4.768   2.305
 5942TIP3    H117703   5.371   4.860   2.306
 5942TIP3    H217704   5.407   4.746   2.212
 5943TIP3   OH217705   0.887   8.933   5.455
 5943TIP3    H117706   0.982   8.942   5.468
 5943TIP3    H217707   0.862   9.011   5.406
 5944TIP3   OH217708   2.588   7.012   5.331
 5944TIP3    H117709   2.664   7.053   5.372
 5944TIP3    H217710   2.589   7.044   5.241
 5945TIP3   OH217711   5.534   7.062   2.589
 5945TIP3    H117712   5.472   7.128   2.620
 5945TIP3    H217713   5.490   6.979   2.607
 5946TIP3   OH217714   7.860   6.804   0.100
 5946TIP3    H117715   7.923   6.799   0.172
 5946TIP3    H217716   7.783   6.844   0.140
 5947TIP3   OH217717   3.299   0.901   2.998
 5947TIP3    H117718   3.225   0.953   3.030
 5947TIP3    H217719   3.371   0.965   2.989
 5948TIP3   OH217720   4.437   3.474   7.389
 5948TIP3    H117721   4.390   3.420   7.326
 5948TIP3    H217722   4.512   3.509   7.340
 5949TIP3   OH217723   0.115   1.574   4.064
 5949TIP3    H117724   0.129   1.553   3.971
 5949TIP3    H217725   0.174   1.514   4.111
 5950TIP3   OH217726   3.932   3.174   6.879
 5950TIP3    H117727   3.985   3.096   6.863
 5950TIP3    H217728   3.855   3.142   6.927
 5951TIP3   OH217729   5.351   8.167   7.115
 5951TIP3    H117730   5.330   8.240   7.056
 5951TIP3    H217731   5.351   8.090   7.059
 5952TIP3   OH217732   0.382   4.587   1.833
 5952TIP3    H117733   0.320   4.525   1.871
 5952TIP3    H217734   0.332   4.667   1.818
 5953TIP3   OH217735   3.153   6.826   3.161
 5953TIP3    H117736   3.137   6.921   3.159
 5953TIP3    H217737   3.204   6.809   3.082
 5954TIP3   OH217738   0.719   0.736   7.172
 5954TIP3    H117739   0.767   0.815   7.197
 5954TIP3    H217740   0.687   0.755   7.084
 5955TIP3   OH217741   7.650   6.462   1.139
 5955TIP3    H117742   7.717   6.417   1.087
 5955TIP3    H217743   7.667   6.435   1.229
 5956TIP3   OH217744   8.740   0.723   3.837
 5956TIP3    H117745   8.735   0.699   3.929
 5956TIP3    H217746   8.688   0.656   3.792
 5957TIP3   OH217747   4.596   8.246   4.510
 5957TIP3    H117748   4.596   8.295   4.593
 5957TIP3    H217749   4.504   8.247   4.482
 5958TIP3   OH217750   5.584   2.263   0.878
 5958TIP3    H117751   5.563   2.289   0.788
 5958TIP3    H217752   5.578   2.344   0.928
 5959TIP3   OH217753   2.971   0.853   7.670
 5959TIP3    H117754   3.055   0.807   7.674
 5959TIP3    H217755   2.994   0.945   7.676
 5960TIP3   OH217756   1.694   0.283   1.208
 5960TIP3    H117757   1.734   0.230   1.138
 5960TIP3    H217758   1.684   0.222   1.281
 5961TIP3   OH217759   3.139   8.044   0.665
 5961TIP3    H117760   3.130   7.989   0.744
 5961TIP3    H217761   3.175   8.126   0.697
 5962TIP3   OH217762   3.111   5.574   1.606
 5962TIP3    H117763   3.058   5.633   1.552
 5962TIP3    H217764   3.187   5.553   1.551
 5963TIP3   OH217765   1.820   2.560   0.592
 5963TIP3    H117766   1.730   2.552   0.560
 5963TIP3    H217767   1.823   2.504   0.669
 5964TIP3   OH217768   9.332   7.382   0.235
 5964TIP3    H117769   9.254   7.334   0.262
 5964TIP3    H217770   9.382   7.393   0.316
 5965TIP3   OH217771   7.676   6.013   4.482
 5965TIP3    H117772   7.625   5.946   4.527
 5965TIP3    H217773   7.664   5.995   4.389
 5966TIP3   OH217774   6.398   1.744   1.998
 5966TIP3    H117775   6.433   1.677   2.057
 5966TIP3    H217776   6.459   1.817   2.006
 5967TIP3   OH217777   1.379   1.109   5.317
 5967TIP3    H117778   1.389   1.034   5.259
 5967TIP3    H217779   1.408   1.077   5.403
 5968TIP3   OH217780   8.631   5.345   1.009
 5968TIP3    H117781   8.572   5.420   1.012
 5968TIP3    H217782   8.584   5.280   0.957
 5969TIP3   OH217783   2.994   1.246   5.770
 5969TIP3    H117784   2.992   1.341   5.776
 5969TIP3    H217785   2.994   1.215   5.860
 5970TIP3   OH217786   0.288   6.730   3.275
 5970TIP3    H117787   0.305   6.638   3.251
 5970TIP3    H217788   0.196   6.744   3.252
 5971TIP3   OH217789   7.579   3.490   0.757
 5971TIP3    H117790   7.507   3.517   0.700
 5971TIP3    H217791   7.544   3.497   0.846
 5972TIP3   OH217792   5.514   0.640   7.206
 5972TIP3    H117793   5.440   0.581   7.221
 5972TIP3    H217794   5.585   0.601   7.256
 5973TIP3   OH217795   3.644   7.164   0.072
 5973TIP3    H117796   3.575   7.140   0.135
 5973TIP3    H217797   3.670   7.081   0.033
 5974TIP3   OH217798   7.553   2.828   7.650
 5974TIP3    H117799   7.525   2.897   7.590
 5974TIP3    H217800   7.644   2.849   7.670
 5975TIP3   OH217801   0.159   4.076   1.387
 5975TIP3    H117802   0.138   4.092   1.479
 5975TIP3    H217803   0.168   3.981   1.381
 5976TIP3   OH217804   1.666   0.604   4.982
 5976TIP3    H117805   1.606   0.662   5.028
 5976TIP3    H217806   1.685   0.650   4.899
 5977TIP3   OH217807   8.500   8.663   0.761
 5977TIP3    H117808   8.509   8.736   0.822
 5977TIP3    H217809   8.554   8.688   0.686
 5978TIP3   OH217810   7.903   8.584   4.136
 5978TIP3    H117811   7.954   8.503   4.137
 5978TIP3    H217812   7.822   8.560   4.090
 5979TIP3   OH217813   7.750   1.723   5.981
 5979TIP3    H117814   7.703   1.699   6.061
 5979TIP3    H217815   7.802   1.647   5.959
 5980TIP3   OH217816   8.688   4.838   5.378
 5980TIP3    H117817   8.701   4.931   5.398
 5980TIP3    H217818   8.699   4.794   5.462
 5981TIP3   OH217819   3.422   6.452   4.299
 5981TIP3    H117820   3.414   6.531   4.246
 5981TIP3    H217821   3.418   6.380   4.236
 5982TIP3   OH217822   9.111   3.934   4.451
 5982TIP3    H117823   9.155   3.873   4.510
 5982TIP3    H217824   9.021   3.901   4.445
 5983TIP3   OH217825   5.339   2.970   4.305
 5983TIP3    H117826   5.387   2.969   4.388
 5983TIP3    H217827   5.407   2.957   4.238
 5984TIP3   OH217828   9.277   1.411   2.362
 5984TIP3    H117829   9.360   1.363   2.365
 5984TIP3    H217830   9.215   1.351   2.322
 5985TIP3   OH217831   5.143   7.897   5.930
 5985TIP3    H117832   5.055   7.888   5.966
 5985TIP3    H217833   5.199   7.850   5.992
 5986TIP3   OH217834   5.127   7.560   4.318
 5986TIP3    H117835   5.189   7.499   4.358
 5986TIP3    H217836   5.041   7.529   4.347
 5987TIP3   OH217837   0.195   0.088   7.655
 5987TIP3    H117838   0.167   0.166   7.606
 5987TIP3    H217839   0.217   0.024   7.587
 5988TIP3   OH217840   5.502   2.039   4.453
 5988TIP3    H117841   5.460   2.120   4.481
 5988TIP3    H217842   5.436   1.971   4.468
 5989TIP3   OH217843   8.525   2.664   6.543
 5989TIP3    H117844   8.498   2.573   6.559
 5989TIP3    H217845   8.573   2.660   6.460
 5990TIP3   OH217846   5.705   4.752   5.964
 5990TIP3    H117847   5.729   4.801   5.885
 5990TIP3    H217848   5.717   4.814   6.035
 5991TIP3   OH217849   4.478   0.203   2.232
 5991TIP3    H117850   4.444   0.125   2.187
 5991TIP3    H217851   4.407   0.230   2.290
 5992TIP3   OH217852   1.449   4.722   5.632
 5992TIP3    H117853   1.425   4.678   5.714
 5992TIP3    H217854   1.536   4.687   5.611
 5993TIP3   OH217855   8.480   0.447   7.738
 5993TIP3    H117856   8.576   0.441   7.733
 5993TIP3    H217857   8.457   0.399   7.818
 5994TIP3   OH217858   6.984   6.961   6.837
 5994TIP3    H117859   7.015   6.994   6.753
 5994TIP3    H217860   6.889   6.962   6.831
 5995TIP3   OH217861   9.389   2.188   5.035
 5995TIP3    H117862   9.318   2.233   4.991
 5995TIP3    H217863   9.379   2.212   5.128
 5996TIP3   OH217864   9.517   6.667   6.642
 5996TIP3    H117865   9.535   6.574   6.654
 5996TIP3    H217866   9.426   6.670   6.612
 5997TIP3   OH217867   3.661   5.780   0.129
 5997TIP3    H117868   3.691   5.722   0.059
 5997TIP3    H217869   3.738   5.794   0.183
 5998TIP3   OH217870   8.454   6.278   2.618
 5998TIP3    H117871   8.463   6.318   2.705
 5998TIP3    H217872   8.500   6.195   2.625
 5999TIP3   OH217873   2.319   6.341   0.669
 5999TIP3    H117874   2.395   6.299   0.707
 5999TIP3    H217875   2.248   6.278   0.679
 6000TIP3   OH217876   1.022   7.382   2.797
 6000TIP3    H117877   1.067   7.380   2.882
 6000TIP3    H217878   0.936   7.419   2.817
 6001TIP3   OH217879   1.035   8.321   7.408
 6001TIP3    H117880   1.010   8.357   7.324
 6001TIP3    H217881   0.957   8.276   7.440
 6002TIP3   OH217882   7.082   3.102   1.950
 6002TIP3    H117883   7.022   3.028   1.938
 6002TIP3    H217884   7.109   3.124   1.861
 6003TIP3   OH217885   8.863   2.768   2.454
 6003TIP3    H117886   8.934   2.728   2.405
 6003TIP3    H217887   8.803   2.695   2.473
 6004TIP3   OH217888   7.888   1.843   7.620
 6004TIP3    H117889   7.845   1.761   7.599
 6004TIP3    H217890   7.818   1.907   7.624
 6005TIP3   OH217891   2.328   8.317   7.474
 6005TIP3    H117892   2.337   8.360   7.388
 6005TIP3    H217893   2.386   8.241   7.469
 6006TIP3   OH217894   2.289   4.315   3.198
 6006TIP3    H117895   2.362   4.299   3.139
 6006TIP3    H217896   2.254   4.399   3.170
 6007TIP3   OH217897   5.413   4.761   6.022
 6007TIP3    H117898   5.507   4.741   6.021
 6007TIP3    H217899   5.383   4.733   6.108
 6008TIP3   OH217900   3.920   2.383   1.101
 6008TIP3    H117901   3.899   2.469   1.137
 6008TIP3    H217902   3.928   2.325   1.177
 6009TIP3   OH217903   5.702   8.363   4.500
 6009TIP3    H117904   5.716   8.294   4.564
 6009TIP3    H217905   5.606   8.368   4.490
 6010TIP3   OH217906   2.979   0.295   7.186
 6010TIP3    H117907   2.981   0.266   7.095
 6010TIP3    H217908   2.916   0.367   7.187
 6011TIP3   OH217909   2.498   8.311   4.931
 6011TIP3    H117910   2.490   8.215   4.927
 6011TIP3    H217911   2.417   8.340   4.972
 6012TIP3   OH217912   9.245   6.845   5.016
 6012TIP3    H117913   9.159   6.818   4.984
 6012TIP3    H217914   9.286   6.889   4.941
 6013TIP3   OH217915   9.373   8.364   7.271
 6013TIP3    H117916   9.421   8.283   7.255
 6013TIP3    H217917   9.427   8.432   7.233
 6014TIP3   OH217918   4.303   5.007   7.288
 6014TIP3    H117919   4.370   5.013   7.356
 6014TIP3    H217920   4.274   4.916   7.290
 6015TIP3   OH217921   4.757   5.508   4.062
 6015TIP3    H117922   4.714   5.426   4.086
 6015TIP3    H217923   4.695   5.550   4.003
 6016TIP3   OH217924   8.058   6.480   0.326
 6016TIP3    H117925   8.035   6.475   0.418
 6016TIP3    H217926   7.975   6.486   0.280
 6017TIP3   OH217927   5.913   1.235   1.886
 6017TIP3    H117928   5.988   1.282   1.922
 6017TIP3    H217929   5.950   1.177   1.819
 6018TIP3   OH217930   3.329   4.548   6.684
 6018TIP3    H117931   3.278   4.467   6.684
 6018TIP3    H217932   3.328   4.577   6.593
 6019TIP3   OH217933   8.661   4.833   4.404
 6019TIP3    H117934   8.688   4.827   4.496
 6019TIP3    H217935   8.685   4.749   4.367
 6020TIP3   OH217936   0.269   6.901   4.688
 6020TIP3    H117937   0.350   6.852   4.701
 6020TIP3    H217938   0.247   6.886   4.595
 6021TIP3   OH217939   4.767   2.920   3.791
 6021TIP3    H117940   4.729   2.963   3.714
 6021TIP3    H217941   4.753   2.983   3.862
 6022TIP3   OH217942   1.113   6.623   7.753
 6022TIP3    H117943   1.151   6.550   7.800
 6022TIP3    H217944   1.178   6.693   7.759
 6023TIP3   OH217945   2.084   3.943   4.918
 6023TIP3    H117946   2.150   3.988   4.970
 6023TIP3    H217947   2.055   3.870   4.972
 6024TIP3   OH217948   8.044   2.534   6.943
 6024TIP3    H117949   8.100   2.562   7.015
 6024TIP3    H217950   8.031   2.612   6.890
 6025TIP3   OH217951   0.098   5.649   5.283
 6025TIP3    H117952   0.185   5.632   5.319
 6025TIP3    H217953   0.061   5.717   5.339
 6026TIP3   OH217954   7.551   7.758   5.182
 6026TIP3    H117955   7.553   7.793   5.271
 6026TIP3    H217956   7.572   7.833   5.126
 6027TIP3   OH217957   8.393   3.705   6.423
 6027TIP3    H117958   8.406   3.791   6.383
 6027TIP3    H217959   8.328   3.662   6.368
 6028TIP3   OH217960   2.546   0.038   6.518
 6028TIP3    H117961   2.544   0.058   6.612
 6028TIP3    H217962   2.510  -0.051   6.512
 6029TIP3   OH217963   5.904   5.250   1.810
 6029TIP3    H117964   5.919   5.343   1.823
 6029TIP3    H217965   5.860   5.221   1.891
 6030TIP3   OH217966   7.207   5.051   6.558
 6030TIP3    H117967   7.221   5.135   6.514
 6030TIP3    H217968   7.257   5.058   6.639
 6031TIP3   OH217969   9.115   6.103   3.172
 6031TIP3    H117970   9.160   6.019   3.186
 6031TIP3    H217971   9.136   6.126   3.081
 6032TIP3   OH217972   4.935   7.788   4.465
 6032TIP3    H117973   4.911   7.697   4.481
 6032TIP3    H217974   4.880   7.838   4.526
 6033TIP3   OH217975   3.836   7.183   2.478
 6033TIP3    H117976   3.913   7.183   2.535
 6033TIP3    H217977   3.829   7.274   2.447
 6034TIP3   OH217978   3.225   6.442   7.278
 6034TIP3    H117979   3.270   6.467   7.197
 6034TIP3    H217980   3.296   6.429   7.341
 6035TIP3   OH217981   8.948   3.832   5.710
 6035TIP3    H117982   8.973   3.818   5.802
 6035TIP3    H217983   8.886   3.904   5.713
 6036TIP3   OH217984   0.853   5.614   0.081
 6036TIP3    H117985   0.759   5.596   0.087
 6036TIP3    H217986   0.882   5.619   0.172
 6037TIP3   OH217987   4.448   2.831   5.726
 6037TIP3    H117988   4.423   2.789   5.808
 6037TIP3    H217989   4.538   2.862   5.741
 6038TIP3   OH217990   1.688   5.700   6.634
 6038TIP3    H117991   1.765   5.661   6.674
 6038TIP3    H217992   1.715   5.721   6.544
 6039TIP3   OH217993   0.135   2.967   0.482
 6039TIP3    H117994   0.079   2.964   0.560
 6039TIP3    H217995   0.129   2.879   0.445
 6040TIP3   OH217996   6.140   2.785   7.058
 6040TIP3    H117997   6.181   2.796   7.144
 6040TIP3    H217998   6.064   2.730   7.075
 6041TIP3   OH217999   1.134   0.462   1.736
 6041TIP3    H118000   1.044   0.487   1.758
 6041TIP3    H218001   1.131   0.366   1.729
 6042TIP3   OH218002   0.203   5.076   1.920
 6042TIP3    H118003   0.192   5.171   1.920
 6042TIP3    H218004   0.117   5.042   1.945
 6043TIP3   OH218005   1.844   0.154   3.277
 6043TIP3    H118006   1.805   0.119   3.357
 6043TIP3    H218007   1.920   0.098   3.261
 6044TIP3   OH218008   3.819   0.066   6.849
 6044TIP3    H118009   3.899   0.118   6.859
 6044TIP3    H218010   3.850  -0.023   6.832
 6045TIP3   OH218011   9.150   7.747   7.695
 6045TIP3    H118012   9.069   7.762   7.744
 6045TIP3    H218013   9.128   7.677   7.632
 6046TIP3   OH218014   4.222   3.880   6.769
 6046TIP3    H118015   4.244   3.894   6.677
 6046TIP3    H218016   4.307   3.882   6.815
 6047TIP3   OH218017   5.424   0.828   2.143
 6047TIP3    H118018   5.400   0.878   2.221
 6047TIP3    H218019   5.424   0.737   2.172
 6048TIP3   OH218020   2.208   7.978   5.348
 6048TIP3    H118021   2.206   8.016   5.260
 6048TIP3    H218022   2.148   7.904   5.344
 6049TIP3   OH218023   8.196   2.996   1.773
 6049TIP3    H118024   8.176   2.929   1.708
 6049TIP3    H218025   8.111   3.033   1.796
 6050TIP3   OH218026   0.352   4.600   3.596
 6050TIP3    H118027   0.415   4.593   3.524
 6050TIP3    H218028   0.348   4.512   3.633
 6051TIP3   OH218029   4.358   8.727   1.932
 6051TIP3    H118030   4.279   8.712   1.880
 6051TIP3    H218031   4.393   8.639   1.948
 6052TIP3   OH218032   1.754   0.461   6.141
 6052TIP3    H118033   1.699   0.517   6.086
 6052TIP3    H218034   1.793   0.521   6.205
 6053TIP3   OH218035   4.015   7.137   4.036
 6053TIP3    H118036   4.080   7.201   4.064
 6053TIP3    H218037   3.935   7.160   4.084
 6054TIP3   OH218038   9.003   2.865   5.256
 6054TIP3    H118039   8.937   2.832   5.195
 6054TIP3    H218040   9.044   2.786   5.293
 6055TIP3   OH218041   7.085   7.532   4.431
 6055TIP3    H118042   7.090   7.497   4.520
 6055TIP3    H218043   7.001   7.500   4.398
 6056TIP3   OH218044   9.226   5.902   7.368
 6056TIP3    H118045   9.203   5.990   7.337
 6056TIP3    H218046   9.174   5.843   7.313
 6057TIP3   OH218047   1.510   8.120   6.458
 6057TIP3    H118048   1.509   8.184   6.386
 6057TIP3    H218049   1.512   8.035   6.414
 6058TIP3   OH218050   8.765   2.549   1.855
 6058TIP3    H118051   8.703   2.543   1.783
 6058TIP3    H218052   8.840   2.497   1.827
 6059TIP3   OH218053   0.092   2.665   3.716
 6059TIP3    H118054   0.160   2.598   3.709
 6059TIP3    H218055   0.027   2.627   3.776
 6060TIP3   OH218056   1.276   6.838   7.015
 6060TIP3    H118057   1.182   6.855   7.003
 6060TIP3    H218058   1.320   6.908   6.967
 6061TIP3   OH218059   9.151   7.001   6.668
 6061TIP3    H118060   9.241   7.032   6.666
 6061TIP3    H218061   9.153   6.924   6.725
 6062TIP3   OH218062   3.386   2.413   2.078
 6062TIP3    H118063   3.466   2.371   2.111
 6062TIP3    H218064   3.384   2.389   1.985
 6063TIP3   OH218065   8.228   0.732   3.300
 6063TIP3    H118066   8.247   0.822   3.272
 6063TIP3    H218067   8.134   0.731   3.316
 6064TIP3   OH218068   4.855   4.451   2.724
 6064TIP3    H118069   4.906   4.455   2.643
 6064TIP3    H218070   4.860   4.360   2.752
 6065TIP3   OH218071   5.989   2.847  -0.002
 6065TIP3    H118072   6.074   2.879  -0.034
 6065TIP3    H218073   6.003   2.833   0.092
 6066TIP3   OH218074   2.277   0.095   6.299
 6066TIP3    H118075   2.201   0.133   6.254
 6066TIP3    H218076   2.338   0.168   6.310
 6067TIP3   OH218077   6.241   5.890   6.769
 6067TIP3    H118078   6.311   5.930   6.820
 6067TIP3    H218079   6.279   5.876   6.682
 6068TIP3   OH218080   0.037   2.398   0.678
 6068TIP3    H118081   0.021   2.333   0.609
 6068TIP3    H218082  -0.043   2.396   0.731
 6069TIP3   OH218083   5.179   1.026   2.711
 6069TIP3    H118084   5.176   1.041   2.616
 6069TIP3    H218085   5.217   0.938   2.719
 6070TIP3   OH218086   1.128   8.032   6.004
 6070TIP3    H118087   1.044   8.024   5.958
 6070TIP3    H218088   1.104   8.057   6.093
 6071TIP3   OH218089   6.951   6.929   0.486
 6071TIP3    H118090   7.033   6.933   0.536
 6071TIP3    H218091   6.978   6.925   0.395
 6072TIP3   OH218092   2.789   5.041   0.315
 6072TIP3    H118093   2.845   4.964   0.312
 6072TIP3    H218094   2.796   5.072   0.405
 6073TIP3   OH218095   0.313   7.909   6.875
 6073TIP3    H118096   0.299   7.822   6.838
 6073TIP3    H218097   0.251   7.914   6.948
 6074TIP3   OH218098   6.691   3.626   0.725
 6074TIP3    H118099   6.651   3.547   0.686
 6074TIP3    H218100   6.619   3.669   0.770
 6075TIP3   OH218101   4.865   7.136   6.925
 6075TIP3    H118102   4.955   7.121   6.898
 6075TIP3    H218103   4.866   7.221   6.968
 6076TIP3   OH218104   2.749   3.421   1.906
 6076TIP3    H118105   2.705   3.394   1.825
 6076TIP3    H218106   2.827   3.365   1.911
 6077TIP3   OH218107   0.228   6.817   2.784
 6077TIP3    H118108   0.280   6.737   2.776
 6077TIP3    H218109   0.292   6.885   2.802
 6078TIP3   OH218110   0.495   6.372   0.446
 6078TIP3    H118111   0.579   6.383   0.402
 6078TIP3    H218112   0.513   6.397   0.537
 6079TIP3   OH218113   0.813   7.014   3.254
 6079TIP3    H118114   0.882   6.948   3.260
 6079TIP3    H218115   0.819   7.047   3.164
 6080TIP3   OH218116   5.449   3.817   6.704
 6080TIP3    H118117   5.506   3.893   6.713
 6080TIP3    H218118   5.367   3.843   6.746
 6081TIP3   OH218119   5.517   7.240   4.239
 6081TIP3    H118120   5.575   7.269   4.168
 6081TIP3    H218121   5.535   7.147   4.248
 6082TIP3   OH218122   4.562   1.835   4.497
 6082TIP3    H118123   4.573   1.794   4.411
 6082TIP3    H218124   4.498   1.780   4.542
 6083TIP3   OH218125   8.843   7.283   2.269
 6083TIP3    H118126   8.896   7.281   2.349
 6083TIP3    H218127   8.782   7.209   2.279
 6084TIP3   OH218128   1.605   2.958   2.334
 6084TIP3    H118129   1.540   2.889   2.346
 6084TIP3    H218130   1.684   2.912   2.306
 6085TIP3   OH218131   7.722   1.795   5.720
 6085TIP3    H118132   7.732   1.780   5.814
 6085TIP3    H218133   7.795   1.747   5.680
 6086TIP3   OH218134   2.621   0.585   4.937
 6086TIP3    H118135   2.637   0.543   4.853
 6086TIP3    H218136   2.526   0.596   4.940
 6087TIP3   OH218137   1.090   8.546   3.575
 6087TIP3    H118138   1.118   8.536   3.665
 6087TIP3    H218139   1.002   8.585   3.581
 6088TIP3   OH218140   0.197   3.132   3.384
 6088TIP3    H118141   0.103   3.121   3.396
 6088TIP3    H218142   0.228   3.046   3.353
 6089TIP3   OH218143   0.268   7.280   7.149
 6089TIP3    H118144   0.246   7.358   7.098
 6089TIP3    H218145   0.296   7.216   7.084
 6090TIP3   OH218146   8.740   3.408   6.512
 6090TIP3    H118147   8.656   3.404   6.558
 6090TIP3    H218148   8.721   3.455   6.431
 6091TIP3   OH218149   1.486   3.514   3.386
 6091TIP3    H118150   1.427   3.544   3.455
 6091TIP3    H218151   1.482   3.583   3.319
 6092TIP3   OH218152   5.531   1.086   6.115
 6092TIP3    H118153   5.508   1.061   6.205
 6092TIP3    H218154   5.614   1.040   6.098
 6093TIP3   OH218155   1.868   5.041   7.034
 6093TIP3    H118156   1.795   5.000   6.988
 6093TIP3    H218157   1.922   4.967   7.063
 6094TIP3   OH218158   7.887   7.295   2.818
 6094TIP3    H118159   7.861   7.280   2.727
 6094TIP3    H218160   7.983   7.297   2.816
 6095TIP3   OH218161   6.996   4.220   6.885
 6095TIP3    H118162   6.929   4.288   6.890
 6095TIP3    H218163   6.951   4.139   6.909
 6096TIP3   OH218164   1.281   8.860   7.300
 6096TIP3    H118165   1.244   8.840   7.214
 6096TIP3    H218166   1.348   8.926   7.282
 6097TIP3   OH218167   1.507   2.733   6.615
 6097TIP3    H118168   1.429   2.683   6.640
 6097TIP3    H218169   1.484   2.824   6.631
 6098TIP3   OH218170   6.785   2.939   0.324
 6098TIP3    H118171   6.771   2.938   0.229
 6098TIP3    H218172   6.728   2.869   0.357
 6099TIP3   OH218173   7.135   4.425   4.488
 6099TIP3    H118174   7.116   4.365   4.415
 6099TIP3    H218175   7.050   4.461   4.511
 6100TIP3   OH218176   0.550   0.833   0.612
 6100TIP3    H118177   0.525   0.768   0.678
 6100TIP3    H218178   0.467   0.863   0.575
 6101TIP3   OH218179   4.580   1.947   4.024
 6101TIP3    H118180   4.504   1.889   4.016
 6101TIP3    H218181   4.636   1.923   3.950
 6102TIP3   OH218182   2.629   5.790   1.851
 6102TIP3    H118183   2.649   5.805   1.759
 6102TIP3    H218184   2.711   5.758   1.889
 6103TIP3   OH218185   1.657   1.328   7.403
 6103TIP3    H118186   1.590   1.348   7.338
 6103TIP3    H218187   1.731   1.294   7.351
 6104TIP3   OH218188   1.616   1.824   7.718
 6104TIP3    H118189   1.595   1.750   7.661
 6104TIP3    H218190   1.595   1.901   7.665
 6105TIP3   OH218191   5.060   7.285   4.892
 6105TIP3    H118192   5.058   7.310   4.984
 6105TIP3    H218193   5.149   7.304   4.864
 6106TIP3   OH218194   7.432   2.619   5.032
 6106TIP3    H118195   7.507   2.660   5.075
 6106TIP3    H218196   7.398   2.558   5.097
 6107TIP3   OH218197   5.994   4.810   5.677
 6107TIP3    H118198   6.066   4.869   5.701
 6107TIP3    H218199   6.031   4.753   5.610
 6108TIP3   OH218200   7.716   4.547   7.626
 6108TIP3    H118201   7.774   4.614   7.663
 6108TIP3    H218202   7.773   4.470   7.614
 6109TIP3   OH218203   1.196   5.849   0.400
 6109TIP3    H118204   1.200   5.818   0.309
 6109TIP3    H218205   1.252   5.788   0.449
 6110TIP3   OH218206   3.140   6.473   1.320
 6110TIP3    H118207   3.137   6.395   1.375
 6110TIP3    H218208   3.198   6.449   1.247
 6111TIP3   OH218209   1.265   5.439   4.341
 6111TIP3    H118210   1.344   5.402   4.301
 6111TIP3    H218211   1.289   5.529   4.364
 6112TIP3   OH218212   5.473   4.166   5.577
 6112TIP3    H118213   5.379   4.180   5.580
 6112TIP3    H218214   5.491   4.108   5.651
 6113TIP3   OH218215   2.142   3.163   3.722
 6113TIP3    H118216   2.164   3.155   3.815
 6113TIP3    H218217   2.193   3.093   3.680
 6114TIP3   OH218218   2.413   3.598   0.583
 6114TIP3    H118219   2.446   3.563   0.500
 6114TIP3    H218220   2.470   3.673   0.602
 6115TIP3   OH218221   2.334   8.035   0.672
 6115TIP3    H118222   2.338   8.119   0.627
 6115TIP3    H218223   2.247   8.000   0.649
 6116TIP3   OH218224   3.462   5.356   4.468
 6116TIP3    H118225   3.387   5.320   4.515
 6116TIP3    H218226   3.455   5.321   4.379
 6117TIP3   OH218227   3.850   5.240   2.518
 6117TIP3    H118228   3.804   5.214   2.438
 6117TIP3    H218229   3.780   5.257   2.581
 6118TIP3   OH218230   2.359   4.236   1.739
 6118TIP3    H118231   2.395   4.191   1.815
 6118TIP3    H218232   2.264   4.235   1.754
 6119TIP3   OH218233   3.971   0.525   1.638
 6119TIP3    H118234   4.056   0.543   1.596
 6119TIP3    H218235   3.993   0.469   1.713
 6120TIP3   OH218236   0.017   6.123   0.928
 6120TIP3    H118237  -0.072   6.086   0.928
 6120TIP3    H218238   0.052   6.101   0.842
 6121TIP3   OH218239   8.003   6.281   6.548
 6121TIP3    H118240   7.947   6.283   6.626
 6121TIP3    H218241   8.070   6.346   6.565
 6122TIP3   OH218242   0.246   2.110   5.983
 6122TIP3    H118243   0.249   2.118   6.078
 6122TIP3    H218244   0.293   2.028   5.964
 6123TIP3   OH218245   8.384   7.281   7.333
 6123TIP3    H118246   8.336   7.307   7.254
 6123TIP3    H218247   8.319   7.236   7.387
 6124TIP3   OH218248   1.170   3.071   0.147
 6124TIP3    H118249   1.166   3.065   0.242
 6124TIP3    H218250   1.251   3.027   0.123
 6125TIP3   OH218251   2.135   4.747   1.360
 6125TIP3    H118252   2.218   4.743   1.407
 6125TIP3    H218253   2.088   4.821   1.398
 6126TIP3   OH218254   4.258   7.216   6.093
 6126TIP3    H118255   4.255   7.220   5.997
 6126TIP3    H218256   4.229   7.303   6.121
 6127TIP3   OH218257   7.283   6.547   0.505
 6127TIP3    H118258   7.293   6.555   0.600
 6127TIP3    H218259   7.190   6.529   0.492
 6128TIP3   OH218260   1.046   6.022   0.034
 6128TIP3    H118261   1.054   6.089   0.102
 6128TIP3    H218262   1.081   5.943   0.074
 6129TIP3   OH218263   0.264   1.838   0.365
 6129TIP3    H118264   0.296   1.762   0.317
 6129TIP3    H218265   0.342   1.878   0.403
 6130TIP3   OH218266   8.417   0.366   5.123
 6130TIP3    H118267   8.321   0.368   5.118
 6130TIP3    H218268   8.439   0.435   5.185
 6131TIP3   OH218269   5.786   1.685   3.411
 6131TIP3    H118270   5.758   1.770   3.377
 6131TIP3    H218271   5.787   1.628   3.334
 6132TIP3   OH218272   6.790   5.527   2.358
 6132TIP3    H118273   6.726   5.597   2.374
 6132TIP3    H218274   6.741   5.446   2.375
 6133TIP3   OH218275   4.627   1.022   6.416
 6133TIP3    H118276   4.535   1.048   6.414
 6133TIP3    H218277   4.626   0.933   6.452
 6134TIP3   OH218278   1.801   6.383   0.478
 6134TIP3    H118279   1.813   6.472   0.445
 6134TIP3    H218280   1.738   6.343   0.418
 6135TIP3   OH218281   8.713   3.266   5.500
 6135TIP3    H118282   8.708   3.267   5.596
 6135TIP3    H218283   8.800   3.230   5.482
 6136TIP3   OH218284   9.384   6.025   0.130
 6136TIP3    H118285   9.326   6.098   0.108
 6136TIP3    H218286   9.430   6.053   0.209
 6137TIP3   OH218287   5.959   4.080   7.798
 6137TIP3    H118288   5.936   4.142   7.866
 6137TIP3    H218289   6.035   4.119   7.754
 6138TIP3   OH218290   9.320   1.518   3.533
 6138TIP3    H118291   9.285   1.452   3.594
 6138TIP3    H218292   9.358   1.585   3.590
 6139TIP3   OH218293   8.177   7.325   1.064
 6139TIP3    H118294   8.138   7.402   1.022
 6139TIP3    H218295   8.103   7.279   1.103
 6140TIP3   OH218296   0.176   0.795   1.949
 6140TIP3    H118297   0.253   0.776   1.895
 6140TIP3    H218298   0.200   0.765   2.037
 6141TIP3   OH218299   5.926   6.327   2.654
 6141TIP3    H118300   5.860   6.309   2.586
 6141TIP3    H218301   5.962   6.241   2.675
 6142TIP3   OH218302   8.824   6.779   0.194
 6142TIP3    H118303   8.743   6.829   0.183
 6142TIP3    H218304   8.811   6.731   0.276
 6143TIP3   OH218305   1.723   4.598   5.600
 6143TIP3    H118306   1.788   4.568   5.663
 6143TIP3    H218307   1.765   4.671   5.555
 6144TIP3   OH218308   8.306   3.165   6.090
 6144TIP3    H118309   8.330   3.146   5.999
 6144TIP3    H218310   8.234   3.104   6.108
 6145TIP3   OH218311   5.316   0.638   0.035
 6145TIP3    H118312   5.339   0.655  -0.056
 6145TIP3    H218313   5.348   0.714   0.083
 6146TIP3   OH218314   6.601   2.868   2.913
 6146TIP3    H118315   6.607   2.832   3.002
 6146TIP3    H218316   6.673   2.931   2.909
 6147TIP3   OH218317   5.074   5.277   5.375
 6147TIP3    H118318   4.990   5.316   5.400
 6147TIP3    H218319   5.124   5.272   5.457
 6148TIP3   OH218320   7.472   2.207   0.529
 6148TIP3    H118321   7.454   2.123   0.573
 6148TIP3    H218322   7.418   2.270   0.576
 6149TIP3   OH218323   8.136   0.808   5.777
 6149TIP3    H118324   8.064   0.748   5.798
 6149TIP3    H218325   8.214   0.763   5.809
 6150TIP3   OH218326   6.502   2.707   4.864
 6150TIP3    H118327   6.528   2.697   4.955
 6150TIP3    H218328   6.570   2.762   4.825
 6151TIP3   OH218329   1.257   4.546   5.151
 6151TIP3    H118330   1.211   4.479   5.202
 6151TIP3    H218331   1.315   4.496   5.093
 6152TIP3   OH218332   6.421   7.291   5.700
 6152TIP3    H118333   6.404   7.255   5.787
 6152TIP3    H218334   6.441   7.383   5.716
 6153TIP3   OH218335   7.067   2.237   6.823
 6153TIP3    H118336   7.074   2.147   6.792
 6153TIP3    H218337   7.034   2.286   6.748
 6154TIP3   OH218338   1.018   4.710   7.593
 6154TIP3    H118339   1.030   4.657   7.514
 6154TIP3    H218340   1.082   4.781   7.584
 6155TIP3   OH218341   8.503   1.431   0.931
 6155TIP3    H118342   8.523   1.474   1.014
 6155TIP3    H218343   8.547   1.484   0.865
 6156TIP3   OH218344   5.788   0.049   4.656
 6156TIP3    H118345   5.870   0.086   4.623
 6156TIP3    H218346   5.813   0.001   4.735
 6157TIP3   OH218347   5.622   3.012   6.311
 6157TIP3    H118348   5.557   3.014   6.381
 6157TIP3    H218349   5.692   2.956   6.344
 6158TIP3   OH218350   8.955   0.537   6.035
 6158TIP3    H118351   9.039   0.534   6.080
 6158TIP3    H218352   8.936   0.446   6.012
 6159TIP3   OH218353   6.314   7.088   3.284
 6159TIP3    H118354   6.240   7.033   3.257
 6159TIP3    H218355   6.366   7.099   3.204
 6160TIP3   OH218356   0.173   2.936   4.724
 6160TIP3    H118357   0.170   2.842   4.708
 6160TIP3    H218358   0.099   2.971   4.676
 6161TIP3   OH218359   0.687   3.558   5.294
 6161TIP3    H118360   0.782   3.565   5.282
 6161TIP3    H218361   0.653   3.643   5.267
 6162TIP3   OH218362   0.125   4.027   1.063
 6162TIP3    H118363   0.054   4.019   0.999
 6162TIP3    H218364   0.081   4.024   1.148
 6163TIP3   OH218365   4.109   7.886   1.766
 6163TIP3    H118366   4.174   7.829   1.806
 6163TIP3    H218367   4.148   7.973   1.770
 6164TIP3   OH218368   0.943   1.846   5.171
 6164TIP3    H118369   0.869   1.855   5.231
 6164TIP3    H218370   1.017   1.821   5.226
 6165TIP3   OH218371   0.127   0.259   0.653
 6165TIP3    H118372   0.198   0.312   0.689
 6165TIP3    H218373   0.118   0.288   0.562
 6166TIP3   OH218374   4.805   7.228   5.232
 6166TIP3    H118375   4.791   7.214   5.326
 6166TIP3    H218376   4.846   7.148   5.201
 6167TIP3   OH218377   4.757   8.952   2.801
 6167TIP3    H118378   4.786   9.025   2.748
 6167TIP3    H218379   4.750   8.879   2.740
 6168TIP3   OH218380   3.257   8.254   6.151
 6168TIP3    H118381   3.307   8.289   6.077
 6168TIP3    H218382   3.281   8.161   6.154
 6169TIP3   OH218383   2.999   8.325   4.359
 6169TIP3    H118384   2.970   8.311   4.449
 6169TIP3    H218385   2.995   8.238   4.318
 6170TIP3   OH218386   1.905   6.404   0.141
 6170TIP3    H118387   1.948   6.477   0.186
 6170TIP3    H218388   1.827   6.386   0.194
 6171TIP3   OH218389   7.953   2.131   6.810
 6171TIP3    H118390   8.046   2.110   6.813
 6171TIP3    H218391   7.950   2.227   6.811
 6172TIP3   OH218392   1.132   5.891   5.471
 6172TIP3    H118393   1.125   5.859   5.560
 6172TIP3    H218394   1.041   5.911   5.445
 6173TIP3   OH218395   6.268   5.780   1.909
 6173TIP3    H118396   6.342   5.825   1.950
 6173TIP3    H218397   6.307   5.728   1.838
 6174TIP3   OH218398   2.959   5.861   5.070
 6174TIP3    H118399   3.050   5.853   5.098
 6174TIP3    H218400   2.933   5.771   5.050
 6175TIP3   OH218401   7.809   2.930   7.347
 6175TIP3    H118402   7.825   2.918   7.441
 6175TIP3    H218403   7.725   2.976   7.344
 6176TIP3   OH218404   5.606   1.793   3.222
 6176TIP3    H118405   5.523   1.833   3.248
 6176TIP3    H218406   5.634   1.842   3.145
 6177TIP3   OH218407   7.193   5.135   4.947
 6177TIP3    H118408   7.155   5.078   5.013
 6177TIP3    H218409   7.197   5.221   4.989
 6178TIP3   OH218410   8.054   5.703   4.188
 6178TIP3    H118411   8.060   5.773   4.123
 6178TIP3    H218412   7.964   5.707   4.220
 6179TIP3   OH218413   3.574   7.716   5.535
 6179TIP3    H118414   3.636   7.684   5.470
 6179TIP3    H218415   3.628   7.741   5.610
 6180TIP3   OH218416   3.552   1.284   5.793
 6180TIP3    H118417   3.626   1.245   5.746
 6180TIP3    H218418   3.502   1.330   5.725
 6181TIP3   OH218419   8.614   2.776   6.294
 6181TIP3    H118420   8.584   2.863   6.266
 6181TIP3    H218421   8.691   2.759   6.240
 6182TIP3   OH218422   4.079   4.224   4.997
 6182TIP3    H118423   4.100   4.316   5.016
 6182TIP3    H218424   4.158   4.176   5.022
 6183TIP3   OH218425   2.312   8.145   1.243
 6183TIP3    H118426   2.290   8.190   1.161
 6183TIP3    H218427   2.401   8.174   1.263
 6184TIP3   OH218428   0.254   6.364   6.501
 6184TIP3    H118429   0.174   6.354   6.552
 6184TIP3    H218430   0.234   6.433   6.438
 6185TIP3   OH218431   4.261   5.924   7.498
 6185TIP3    H118432   4.228   5.840   7.465
 6185TIP3    H218433   4.284   5.907   7.589
 6186TIP3   OH218434   8.224   7.083   6.053
 6186TIP3    H118435   8.135   7.112   6.074
 6186TIP3    H218436   8.228   7.088   5.958
 6187TIP3   OH218437   0.045   8.220   5.233
 6187TIP3    H118438   0.056   8.226   5.328
 6187TIP3    H218439   0.044   8.126   5.215
 6188TIP3   OH218440   8.875   0.431   0.332
 6188TIP3    H118441   8.851   0.425   0.425
 6188TIP3    H218442   8.795   0.462   0.289
 6189TIP3   OH218443   9.232   5.588   6.835
 6189TIP3    H118444   9.198   5.502   6.809
 6189TIP3    H218445   9.308   5.568   6.890
 6190TIP3   OH218446   4.649   5.275   5.906
 6190TIP3    H118447   4.578   5.224   5.946
 6190TIP3    H218448   4.616   5.298   5.820
 6191TIP3   OH218449   0.411   7.378   3.501
 6191TIP3    H118450   0.458   7.385   3.418
 6191TIP3    H218451   0.377   7.466   3.517
 6192TIP3   OH218452   9.021   4.362   0.051
 6192TIP3    H118453   9.026   4.295   0.119
 6192TIP3    H218454   8.940   4.342   0.004
 6193TIP3   OH218455   0.782   7.363   1.646
 6193TIP3    H118456   0.833   7.396   1.720
 6193TIP3    H218457   0.780   7.435   1.583
 6194TIP3   OH218458   5.044   0.206   1.965
 6194TIP3    H118459   5.125   0.236   2.006
 6194TIP3    H218460   5.032   0.264   1.890
 6195TIP3   OH218461   3.389   7.726   1.333
 6195TIP3    H118462   3.462   7.664   1.332
 6195TIP3    H218463   3.417   7.795   1.393
 6196TIP3   OH218464   9.109   5.307   0.581
 6196TIP3    H118465   9.198   5.272   0.572
 6196TIP3    H218466   9.082   5.281   0.669
 6197TIP3   OH218467   0.740   7.237   5.879
 6197TIP3    H118468   0.708   7.316   5.835
 6197TIP3    H218469   0.803   7.270   5.943
 6198TIP3   OH218470   6.395   7.395   5.183
 6198TIP3    H118471   6.397   7.363   5.273
 6198TIP3    H218472   6.306   7.378   5.153
 6199TIP3   OH218473   5.111   6.731   1.500
 6199TIP3    H118474   5.067   6.655   1.538
 6199TIP3    H218475   5.089   6.803   1.559
 6200TIP3   OH218476   2.162   5.363   7.007
 6200TIP3    H118477   2.101   5.325   7.070
 6200TIP3    H218478   2.174   5.453   7.037
 6201TIP3   OH218479   0.188   4.970   6.232
 6201TIP3    H118480   0.095   4.948   6.225
 6201TIP3    H218481   0.193   5.062   6.207
 6202TIP3   OH218482   2.031   0.182   6.636
 6202TIP3    H118483   2.005   0.269   6.607
 6202TIP3    H218484   2.030   0.129   6.557
 6203TIP3   OH218485   2.943   1.264   2.349
 6203TIP3    H118486   3.001   1.291   2.420
 6203TIP3    H218487   2.902   1.345   2.319
 6204TIP3   OH218488   8.045   6.002   6.516
 6204TIP3    H118489   8.005   6.088   6.504
 6204TIP3    H218490   7.994   5.961   6.586
 6205TIP3   OH218491   0.954   7.511   4.296
 6205TIP3    H118492   1.032   7.477   4.341
 6205TIP3    H218493   0.893   7.438   4.296
 6206TIP3   OH218494   4.711   8.957   7.016
 6206TIP3    H118495   4.734   8.865   7.025
 6206TIP3    H218496   4.648   8.960   6.944
 6207TIP3   OH218497   6.193   7.121   1.874
 6207TIP3    H118498   6.284   7.144   1.892
 6207TIP3    H218499   6.177   7.153   1.785
 6208TIP3   OH218500   1.658   5.750   0.607
 6208TIP3    H118501   1.728   5.786   0.661
 6208TIP3    H218502   1.696   5.673   0.566
 6209TIP3   OH218503   2.827   3.766   0.672
 6209TIP3    H118504   2.769   3.794   0.601
 6209TIP3    H218505   2.910   3.810   0.654
 6210TIP3   OH218506   3.884   0.567   5.957
 6210TIP3    H118507   3.877   0.581   6.052
 6210TIP3    H218508   3.945   0.635   5.927
 6211TIP3   OH218509   4.015   8.678   7.252
 6211TIP3    H118510   4.008   8.607   7.314
 6211TIP3    H218511   4.100   8.666   7.210
 6212TIP3   OH218512   5.884   8.026   1.636
 6212TIP3    H118513   5.937   7.949   1.655
 6212TIP3    H218514   5.946   8.099   1.642
 6213TIP3   OH218515   6.304   8.822   4.277
 6213TIP3    H118516   6.345   8.736   4.284
 6213TIP3    H218517   6.351   8.876   4.340
 6214TIP3   OH218518   1.309   5.110   2.878
 6214TIP3    H118519   1.261   5.039   2.834
 6214TIP3    H218520   1.399   5.080   2.880
 6215TIP3   OH218521   1.296   3.853   0.577
 6215TIP3    H118522   1.359   3.875   0.645
 6215TIP3    H218523   1.266   3.937   0.544
 6216TIP3   OH218524   5.171   0.121   3.286
 6216TIP3    H118525   5.150   0.209   3.318
 6216TIP3    H218526   5.108   0.064   3.330
 6217TIP3   OH218527   7.662   0.707   6.875
 6217TIP3    H118528   7.754   0.734   6.885
 6217TIP3    H218529   7.666   0.619   6.840
 6218TIP3   OH218530   7.839   4.221   5.762
 6218TIP3    H118531   7.830   4.305   5.718
 6218TIP3    H218532   7.926   4.224   5.802
 6219TIP3   OH218533   9.559   3.492   4.569
 6219TIP3    H118534   9.563   3.442   4.487
 6219TIP3    H218535   9.622   3.563   4.556
 6220TIP3   OH218536   8.740   1.042   6.343
 6220TIP3    H118537   8.661   1.000   6.379
 6220TIP3    H218538   8.787   1.072   6.420
 6221TIP3   OH218539   7.108   0.423   4.500
 6221TIP3    H118540   7.097   0.374   4.419
 6221TIP3    H218541   7.202   0.441   4.505
 6222TIP3   OH218542   1.817   2.600   7.200
 6222TIP3    H118543   1.726   2.572   7.196
 6222TIP3    H218544   1.865   2.523   7.231
 6223TIP3   OH218545   8.857   8.014   4.980
 6223TIP3    H118546   8.926   8.001   5.046
 6223TIP3    H218547   8.836   7.925   4.951
 6224TIP3   OH218548   1.700   3.805   3.873
 6224TIP3    H118549   1.661   3.717   3.874
 6224TIP3    H218550   1.673   3.842   3.789
 6225TIP3   OH218551   2.294   3.463   5.804
 6225TIP3    H118552   2.345   3.503   5.875
 6225TIP3    H218553   2.331   3.376   5.793
 6226TIP3   OH218554   3.897   8.941   2.777
 6226TIP3    H118555   3.916   8.855   2.739
 6226TIP3    H218556   3.809   8.932   2.814
 6227TIP3   OH218557   9.338   5.520   5.735
 6227TIP3    H118558   9.255   5.556   5.765
 6227TIP3    H218559   9.388   5.504   5.816
 6228TIP3   OH218560   4.007   0.847   3.576
 6228TIP3    H118561   3.950   0.881   3.644
 6228TIP3    H218562   3.974   0.758   3.559
 6229TIP3   OH218563   8.776   4.351   0.362
 6229TIP3    H118564   8.821   4.283   0.311
 6229TIP3    H218565   8.833   4.366   0.438
 6230TIP3   OH218566   0.769   6.890   1.205
 6230TIP3    H118567   0.815   6.873   1.287
 6230TIP3    H218568   0.781   6.811   1.153
 6231TIP3   OH218569   1.296   1.838   0.921
 6231TIP3    H118570   1.289   1.930   0.947
 6231TIP3    H218571   1.285   1.839   0.826
 6232TIP3   OH218572   6.255   2.743   1.652
 6232TIP3    H118573   6.200   2.821   1.641
 6232TIP3    H218574   6.199   2.670   1.628
 6233TIP3   OH218575   9.441   7.342   5.559
 6233TIP3    H118576   9.382   7.310   5.490
 6233TIP3    H218577   9.450   7.436   5.539
 6234TIP3   OH218578   0.736   2.370   5.463
 6234TIP3    H118579   0.674   2.314   5.510
 6234TIP3    H218580   0.797   2.308   5.422
 6235TIP3   OH218581   5.726   6.429   0.865
 6235TIP3    H118582   5.806   6.436   0.812
 6235TIP3    H218583   5.727   6.508   0.919
 6236TIP3   OH218584   9.114   7.797   0.494
 6236TIP3    H118585   9.143   7.737   0.426
 6236TIP3    H218586   9.098   7.741   0.570
 6237TIP3   OH218587   5.526   0.723   6.213
 6237TIP3    H118588   5.566   0.685   6.134
 6237TIP3    H218589   5.493   0.648   6.262
 6238TIP3   OH218590   7.983   8.611   6.548
 6238TIP3    H118591   7.984   8.546   6.618
 6238TIP3    H218592   8.007   8.562   6.469
 6239TIP3   OH218593   8.842   5.648   1.907
 6239TIP3    H118594   8.861   5.571   1.853
 6239TIP3    H218595   8.832   5.613   1.996
 6240TIP3   OH218596   3.704   5.119   0.304
 6240TIP3    H118597   3.734   5.180   0.236
 6240TIP3    H218598   3.634   5.069   0.262
 6241TIP3   OH218599   4.168   7.875   7.204
 6241TIP3    H118600   4.205   7.796   7.243
 6241TIP3    H218601   4.168   7.856   7.110
 6242TIP3   OH218602   9.166   4.820   4.708
 6242TIP3    H118603   9.234   4.887   4.712
 6242TIP3    H218604   9.088   4.862   4.743
 6243TIP3   OH218605   7.736   1.132   6.277
 6243TIP3    H118606   7.778   1.050   6.304
 6243TIP3    H218607   7.804   1.198   6.287
 6244TIP3   OH218608   6.864   2.315   4.909
 6244TIP3    H118609   6.799   2.247   4.926
 6244TIP3    H218610   6.948   2.275   4.935
 6245TIP3   OH218611   2.698   7.770   1.422
 6245TIP3    H118612   2.681   7.854   1.465
 6245TIP3    H218613   2.735   7.793   1.337
 6246TIP3   OH218614   0.115   2.779   4.160
 6246TIP3    H118615   0.092   2.711   4.096
 6246TIP3    H218616   0.116   2.860   4.109
 6247TIP3   OH218617   0.268   3.391   2.091
 6247TIP3    H118618   0.313   3.320   2.137
 6247TIP3    H218619   0.321   3.407   2.013
 6248TIP3   OH218620   6.916   8.218   1.620
 6248TIP3    H118621   6.848   8.275   1.582
 6248TIP3    H218622   6.875   8.180   1.697
 6249TIP3   OH218623   5.313   8.259   3.949
 6249TIP3    H118624   5.252   8.189   3.973
 6249TIP3    H218625   5.319   8.313   4.028
 6250TIP3   OH218626   7.960   1.776   3.574
 6250TIP3    H118627   7.868   1.757   3.596
 6250TIP3    H218628   7.954   1.842   3.505
 6251TIP3   OH218629   0.815   8.186   7.485
 6251TIP3    H118630   0.827   8.145   7.399
 6251TIP3    H218631   0.775   8.118   7.539
 6252TIP3   OH218632   5.642   6.310   1.721
 6252TIP3    H118633   5.618   6.398   1.749
 6252TIP3    H218634   5.615   6.253   1.793
 6253TIP3   OH218635   6.145   5.868   1.025
 6253TIP3    H118636   6.218   5.924   1.051
 6253TIP3    H218637   6.174   5.827   0.944
 6254TIP3   OH218638   5.777   4.150   5.363
 6254TIP3    H118639   5.756   4.198   5.443
 6254TIP3    H218640   5.873   4.144   5.364
 6255TIP3   OH218641   9.018   6.504   2.645
 6255TIP3    H118642   8.925   6.525   2.651
 6255TIP3    H218643   9.021   6.410   2.628
 6256TIP3   OH218644   5.386   6.347   6.750
 6256TIP3    H118645   5.322   6.308   6.809
 6256TIP3    H218646   5.447   6.393   6.808
 6257TIP3   OH218647   6.796   4.899   4.540
 6257TIP3    H118648   6.887   4.878   4.519
 6257TIP3    H218649   6.788   4.993   4.523
 6258TIP3   OH218650   6.730   1.436   1.082
 6258TIP3    H118651   6.686   1.473   1.006
 6258TIP3    H218652   6.809   1.394   1.046
 6259TIP3   OH218653   4.871   4.257   1.283
 6259TIP3    H118654   4.859   4.328   1.347
 6259TIP3    H218655   4.808   4.190   1.309
 6260TIP3   OH218656   9.506   2.945   2.053
 6260TIP3    H118657   9.530   2.926   2.143
 6260TIP3    H218658   9.566   3.015   2.027
 6261TIP3   OH218659   7.460   8.836   3.602
 6261TIP3    H118660   7.408   8.844   3.681
 6261TIP3    H218661   7.455   8.923   3.561
 6262TIP3   OH218662   3.061   5.894   0.296
 6262TIP3    H118663   3.033   5.975   0.253
 6262TIP3    H218664   3.047   5.909   0.389
 6263TIP3   OH218665   8.923   5.234   5.457
 6263TIP3    H118666   8.869   5.248   5.379
 6263TIP3    H218667   9.010   5.216   5.422
 6264TIP3   OH218668   8.278   5.609   7.400
 6264TIP3    H118669   8.230   5.644   7.475
 6264TIP3    H218670   8.227   5.534   7.370
 6265TIP3   OH218671   2.594   6.893   7.079
 6265TIP3    H118672   2.559   6.917   7.165
 6265TIP3    H218673   2.657   6.824   7.098
 6266TIP3   OH218674   1.478   6.137   0.160
 6266TIP3    H118675   1.461   6.129   0.066
 6266TIP3    H218676   1.564   6.096   0.172
 6267TIP3   OH218677   5.269   5.369   2.452
 6267TIP3    H118678   5.355   5.346   2.418
 6267TIP3    H218679   5.287   5.426   2.527
 6268TIP3   OH218680   1.421   1.188   6.865
 6268TIP3    H118681   1.430   1.129   6.940
 6268TIP3    H218682   1.396   1.131   6.792
 6269TIP3   OH218683   5.943   3.338   5.592
 6269TIP3    H118684   5.932   3.299   5.505
 6269TIP3    H218685   5.854   3.362   5.619
 6270TIP3   OH218686   4.532   2.934   3.606
 6270TIP3    H118687   4.531   2.839   3.603
 6270TIP3    H218688   4.455   2.961   3.556
 6271TIP3   OH218689   7.992   7.866   4.222
 6271TIP3    H118690   7.935   7.929   4.266
 6271TIP3    H218691   8.052   7.837   4.290
 6272TIP3   OH218692   3.084   4.152   1.157
 6272TIP3    H118693   3.019   4.085   1.176
 6272TIP3    H218694   3.123   4.174   1.242
 6273TIP3   OH218695   5.790   5.741   6.340
 6273TIP3    H118696   5.880   5.744   6.373
 6273TIP3    H218697   5.742   5.803   6.395
 6274TIP3   OH218698   2.564   5.128   1.798
 6274TIP3    H118699   2.636   5.167   1.848
 6274TIP3    H218700   2.485   5.154   1.845
 6275TIP3   OH218701   5.693   8.875   6.876
 6275TIP3    H118702   5.599   8.861   6.865
 6275TIP3    H218703   5.720   8.922   6.797
 6276TIP3   OH218704   0.496   6.304   6.629
 6276TIP3    H118705   0.516   6.216   6.595
 6276TIP3    H218706   0.412   6.326   6.588
 6277TIP3   OH218707   9.223   8.671   1.758
 6277TIP3    H118708   9.132   8.646   1.740
 6277TIP3    H218709   9.237   8.750   1.706
 6278TIP3   OH218710   8.537   4.683   3.381
 6278TIP3    H118711   8.504   4.770   3.360
 6278TIP3    H218712   8.518   4.673   3.475
 6279TIP3   OH218713   4.949   5.985   6.291
 6279TIP3    H118714   4.883   5.925   6.325
 6279TIP3    H218715   4.909   6.023   6.213
 6280TIP3   OH218716   4.822   4.719   7.721
 6280TIP3    H118717   4.747   4.670   7.689
 6280TIP3    H218718   4.793   4.756   7.804
 6281TIP3   OH218719   1.786   3.751   1.126
 6281TIP3    H118720   1.839   3.727   1.202
 6281TIP3    H218721   1.696   3.746   1.157
 6282TIP3   OH218722   2.463   3.166   7.645
 6282TIP3    H118723   2.551   3.203   7.650
 6282TIP3    H218724   2.465   3.090   7.704
 6283TIP3   OH218725   4.145   1.120   0.595
 6283TIP3    H118726   4.108   1.074   0.670
 6283TIP3    H218727   4.070   1.160   0.552
 6284TIP3   OH218728   6.297   1.503   6.890
 6284TIP3    H118729   6.374   1.559   6.884
 6284TIP3    H218730   6.319   1.426   6.837
 6285TIP3   OH218731   0.139   0.291   3.808
 6285TIP3    H118732   0.225   0.331   3.797
 6285TIP3    H218733   0.157   0.197   3.811
 6286TIP3   OH218734   1.015   6.453   5.607
 6286TIP3    H118735   1.075   6.428   5.537
 6286TIP3    H218736   1.068   6.454   5.686
 6287TIP3   OH218737   2.231   4.264   5.414
 6287TIP3    H118738   2.205   4.300   5.329
 6287TIP3    H218739   2.220   4.169   5.404
 6288TIP3   OH218740   4.999   3.811   2.343
 6288TIP3    H118741   4.989   3.878   2.411
 6288TIP3    H218742   4.978   3.729   2.387
 6289TIP3   OH218743   8.226   5.340   1.135
 6289TIP3    H118744   8.156   5.400   1.161
 6289TIP3    H218745   8.197   5.305   1.050
 6290TIP3   OH218746   4.694   4.158   7.065
 6290TIP3    H118747   4.599   4.166   7.061
 6290TIP3    H218748   4.715   4.164   7.159
 6291TIP3   OH218749   0.608   8.889   6.519
 6291TIP3    H118750   0.657   8.892   6.601
 6291TIP3    H218751   0.525   8.847   6.542
 6292TIP3   OH218752   0.650   1.924   5.877
 6292TIP3    H118753   0.735   1.969   5.875
 6292TIP3    H218754   0.597   1.976   5.937
 6293TIP3   OH218755   7.079   0.400   2.226
 6293TIP3    H118756   7.077   0.446   2.310
 6293TIP3    H218757   7.141   0.328   2.239
 6294TIP3   OH218758   4.964   5.998   1.204
 6294TIP3    H118759   5.005   6.041   1.279
 6294TIP3    H218760   5.010   6.033   1.128
 6295TIP3   OH218761   3.913   6.973   3.838
 6295TIP3    H118762   3.817   6.973   3.838
 6295TIP3    H218763   3.937   7.031   3.910
 6296TIP3   OH218764   5.648   5.212   6.769
 6296TIP3    H118765   5.566   5.246   6.731
 6296TIP3    H218766   5.701   5.189   6.693
 6297TIP3   OH218767   7.590   5.790   5.710
 6297TIP3    H118768   7.497   5.792   5.688
 6297TIP3    H218769   7.604   5.704   5.750
 6298TIP3   OH218770   1.605   2.210   0.594
 6298TIP3    H118771   1.531   2.235   0.538
 6298TIP3    H218772   1.567   2.202   0.681
 6299TIP3   OH218773   7.590   8.698   1.506
 6299TIP3    H118774   7.521   8.672   1.567
 6299TIP3    H218775   7.609   8.789   1.528
 6300TIP3   OH218776   0.161   6.029   0.703
 6300TIP3    H118777   0.100   5.997   0.636
 6300TIP3    H218778   0.236   5.969   0.697
 6301TIP3   OH218779   7.820   3.853   6.882
 6301TIP3    H118780   7.880   3.886   6.949
 6301TIP3    H218781   7.733   3.863   6.921
 6302TIP3   OH218782   9.479   5.754   6.743
 6302TIP3    H118783   9.450   5.845   6.735
 6302TIP3    H218784   9.467   5.732   6.835
 6303TIP3   OH218785   2.903   1.865   5.145
 6303TIP3    H118786   2.870   1.901   5.227
 6303TIP3    H218787   2.857   1.914   5.077
 6304TIP3   OH218788   3.356   7.952   0.524
 6304TIP3    H118789   3.369   8.006   0.445
 6304TIP3    H218790   3.305   8.008   0.583
 6305TIP3   OH218791   8.732   5.966   1.894
 6305TIP3    H118792   8.653   5.918   1.915
 6305TIP3    H218793   8.723   5.988   1.801
 6306TIP3   OH218794   8.531   8.325   6.260
 6306TIP3    H118795   8.586   8.312   6.184
 6306TIP3    H218796   8.483   8.242   6.269
 6307TIP3   OH218797   2.573   0.393   0.357
 6307TIP3    H118798   2.591   0.379   0.450
 6307TIP3    H218799   2.627   0.328   0.313
 6308TIP3   OH218800   1.470   8.899   4.818
 6308TIP3    H118801   1.477   8.979   4.767
 6308TIP3    H218802   1.466   8.929   4.909
 6309TIP3   OH218803   4.824   7.896   4.691
 6309TIP3    H118804   4.743   7.900   4.741
 6309TIP3    H218805   4.837   7.985   4.658
 6310TIP3   OH218806   6.318   4.975   6.346
 6310TIP3    H118807   6.278   4.947   6.264
 6310TIP3    H218808   6.290   5.066   6.357
 6311TIP3   OH218809   6.869   7.004   0.793
 6311TIP3    H118810   6.867   7.034   0.884
 6311TIP3    H218811   6.956   6.965   0.782
 6312TIP3   OH218812   3.063   0.940   4.208
 6312TIP3    H118813   3.072   0.851   4.240
 6312TIP3    H218814   3.126   0.991   4.260
 6313TIP3   OH218815   0.112   8.429   4.415
 6313TIP3    H118816   0.032   8.479   4.435
 6313TIP3    H218817   0.183   8.482   4.451
 6314TIP3   OH218818   3.137   4.819   5.669
 6314TIP3    H118819   3.087   4.745   5.703
 6314TIP3    H218820   3.199   4.839   5.740
 6315TIP3   OH218821   5.087   5.118   1.134
 6315TIP3    H118822   5.173   5.080   1.119
 6315TIP3    H218823   5.099   5.177   1.208
 6316TIP3   OH218824   4.693   1.504   0.387
 6316TIP3    H118825   4.753   1.499   0.313
 6316TIP3    H218826   4.663   1.594   0.388
 6317TIP3   OH218827   1.257   5.950   6.879
 6317TIP3    H118828   1.335   5.988   6.919
 6317TIP3    H218829   1.205   5.918   6.952
 6318TIP3   OH218830   4.135   2.343   3.672
 6318TIP3    H118831   4.095   2.259   3.648
 6318TIP3    H218832   4.126   2.397   3.593
 6319TIP3   OH218833   8.956   8.982   0.596
 6319TIP3    H118834   8.946   9.000   0.690
 6319TIP3    H218835   8.877   9.019   0.556
 6320TIP3   OH218836   4.148   5.444   5.059
 6320TIP3    H118837   4.105   5.403   5.133
 6320TIP3    H218838   4.077   5.477   5.005
 6321TIP3   OH218839   0.134   1.152   5.120
 6321TIP3    H118840   0.174   1.078   5.164
 6321TIP3    H218841   0.040   1.143   5.136
 6322TIP3   OH218842   2.770   3.778   4.998
 6322TIP3    H118843   2.838   3.841   5.022
 6322TIP3    H218844   2.688   3.824   5.013
 6323TIP3   OH218845   0.356   7.092   4.395
 6323TIP3    H118846   0.433   7.043   4.425
 6323TIP3    H218847   0.359   7.174   4.445
 6324TIP3   OH218848   3.291   7.221   3.265
 6324TIP3    H118849   3.283   7.308   3.225
 6324TIP3    H218850   3.385   7.209   3.278
 6325TIP3   OH218851   8.925   3.833   0.928
 6325TIP3    H118852   9.016   3.862   0.929
 6325TIP3    H218853   8.875   3.913   0.946
 6326TIP3   OH218854   2.614   0.848   2.778
 6326TIP3    H118855   2.600   0.899   2.698
 6326TIP3    H218856   2.705   0.863   2.801
 6327TIP3   OH218857   8.458   7.158   6.183
 6327TIP3    H118858   8.450   7.243   6.227
 6327TIP3    H218859   8.377   7.151   6.131
 6328TIP3   OH218860   7.687   5.821   2.334
 6328TIP3    H118861   7.750   5.753   2.312
 6328TIP3    H218862   7.622   5.777   2.389
 6329TIP3   OH218863   1.339   5.618   3.489
 6329TIP3    H118864   1.279   5.687   3.459
 6329TIP3    H218865   1.418   5.632   3.438
 6330TIP3   OH218866   3.454   6.860   0.138
 6330TIP3    H118867   3.405   6.782   0.112
 6330TIP3    H218868   3.451   6.860   0.234
 6331TIP3   OH218869   7.267   7.959   2.929
 6331TIP3    H118870   7.244   7.900   3.001
 6331TIP3    H218871   7.281   8.044   2.971
 6332TIP3   OH218872   4.053   5.135   5.704
 6332TIP3    H118873   4.086   5.064   5.648
 6332TIP3    H218874   4.002   5.190   5.645
 6333TIP3   OH218875   4.441   6.083   7.271
 6333TIP3    H118876   4.467   5.994   7.292
 6333TIP3    H218877   4.470   6.135   7.346
 6334TIP3   OH218878   3.320   6.923   4.941
 6334TIP3    H118879   3.253   6.917   4.872
 6334TIP3    H218880   3.332   6.832   4.969
 6335TIP3   OH218881   0.962   3.219   2.235
 6335TIP3    H118882   0.887   3.180   2.280
 6335TIP3    H218883   1.038   3.189   2.284
 6336TIP3   OH218884   7.396   1.046   5.456
 6336TIP3    H118885   7.465   1.023   5.518
 6336TIP3    H218886   7.410   0.988   5.382
 6337TIP3   OH218887   6.116   5.294   4.838
 6337TIP3    H118888   6.188   5.266   4.781
 6337TIP3    H218889   6.151   5.368   4.887
 6338TIP3   OH218890   1.876   1.819   1.636
 6338TIP3    H118891   1.785   1.790   1.636
 6338TIP3    H218892   1.925   1.744   1.603
 6339TIP3   OH218893   1.047   0.201   7.403
 6339TIP3    H118894   1.031   0.279   7.456
 6339TIP3    H218895   1.122   0.158   7.446
 6340TIP3   OH218896   7.054   7.283   7.768
 6340TIP3    H118897   7.078   7.350   7.833
 6340TIP3    H218898   6.959   7.283   7.767
 6341TIP3   OH218899   0.874   4.202   6.641
 6341TIP3    H118900   0.948   4.256   6.612
 6341TIP3    H218901   0.797   4.257   6.625
 6342TIP3   OH218902   7.343   1.388   4.469
 6342TIP3    H118903   7.365   1.386   4.562
 6342TIP3    H218904   7.258   1.433   4.466
 6343TIP3   OH218905   6.032   8.934   6.425
 6343TIP3    H118906   5.953   8.881   6.425
 6343TIP3    H218907   6.101   8.874   6.454
 6344TIP3   OH218908   6.863   0.222   6.415
 6344TIP3    H118909   6.890   0.201   6.504
 6344TIP3    H218910   6.848   0.317   6.416
 6345TIP3   OH218911   7.149   1.132   5.779
 6345TIP3    H118912   7.241   1.146   5.802
 6345TIP3    H218913   7.123   1.214   5.736
 6346TIP3   OH218914   7.723   6.333   0.430
 6346TIP3    H118915   7.722   6.293   0.344
 6346TIP3    H218916   7.653   6.398   0.427
 6347TIP3   OH218917   7.252   0.265   2.995
 6347TIP3    H118918   7.157   0.258   3.004
 6347TIP3    H218919   7.277   0.189   2.943
 6348TIP3   OH218920   9.029   6.727   1.946
 6348TIP3    H118921   8.993   6.804   1.991
 6348TIP3    H218922   8.969   6.712   1.873
 6349TIP3   OH218923   1.788   6.323   5.026
 6349TIP3    H118924   1.875   6.326   4.988
 6349TIP3    H218925   1.769   6.414   5.051
 6350TIP3   OH218926   4.135   2.678   1.291
 6350TIP3    H118927   4.181   2.601   1.257
 6350TIP3    H218928   4.099   2.648   1.375
 6351TIP3   OH218929   3.377   1.296   6.741
 6351TIP3    H118930   3.371   1.263   6.830
 6351TIP3    H218931   3.469   1.325   6.733
 6352TIP3   OH218932   0.370   8.654   2.094
 6352TIP3    H118933   0.330   8.668   2.009
 6352TIP3    H218934   0.424   8.575   2.083
 6353TIP3   OH218935   6.136   1.614   0.086
 6353TIP3    H118936   6.225   1.610   0.052
 6353TIP3    H218937   6.146   1.635   0.179
 6354TIP3   OH218938   3.522   7.913   3.277
 6354TIP3    H118939   3.444   7.967   3.263
 6354TIP3    H218940   3.493   7.823   3.260
 6355TIP3   OH218941   5.687   0.673   5.999
 6355TIP3    H118942   5.778   0.703   6.008
 6355TIP3    H218943   5.648   0.736   5.938
 6356TIP3   OH218944   6.446   4.833   4.589
 6356TIP3    H118945   6.373   4.776   4.614
 6356TIP3    H218946   6.417   4.876   4.508
 6357TIP3   OH218947   3.469   7.173   2.552
 6357TIP3    H118948   3.414   7.234   2.502
 6357TIP3    H218949   3.552   7.220   2.563
 6358TIP3   OH218950   4.405   2.208   2.498
 6358TIP3    H118951   4.354   2.217   2.578
 6358TIP3    H218952   4.358   2.142   2.447
 6359TIP3   OH218953   0.037   6.233   7.516
 6359TIP3    H118954  -0.034   6.242   7.453
 6359TIP3    H218955   0.117   6.238   7.464
 6360TIP3   OH218956   0.126   1.066   2.872
 6360TIP3    H118957   0.048   1.117   2.851
 6360TIP3    H218958   0.199   1.128   2.860
 6361TIP3   OH218959   8.378   3.166   6.903
 6361TIP3    H118960   8.447   3.137   6.843
 6361TIP3    H218961   8.390   3.113   6.981
 6362TIP3   OH218962   3.758   8.829   1.691
 6362TIP3    H118963   3.679   8.862   1.734
 6362TIP3    H218964   3.725   8.763   1.630
 6363TIP3   OH218965   2.316   7.397   1.581
 6363TIP3    H118966   2.404   7.369   1.555
 6363TIP3    H218967   2.262   7.381   1.503
 6364TIP3   OH218968   4.447   7.575   2.184
 6364TIP3    H118969   4.480   7.531   2.262
 6364TIP3    H218970   4.518   7.633   2.156
 6365TIP3   OH218971   5.405   6.185   3.148
 6365TIP3    H118972   5.328   6.202   3.094
 6365TIP3    H218973   5.444   6.271   3.163
 6366TIP3   OH218974   6.703   7.676   7.631
 6366TIP3    H118975   6.743   7.724   7.703
 6366TIP3    H218976   6.769   7.612   7.605
 6367TIP3   OH218977   8.138   1.792   0.846
 6367TIP3    H118978   8.082   1.869   0.843
 6367TIP3    H218979   8.102   1.738   0.916
 6368TIP3   OH218980   0.124   2.936   7.510
 6368TIP3    H118981   0.160   2.880   7.578
 6368TIP3    H218982   0.032   2.948   7.535
 6369TIP3   OH218983   2.828   3.416   1.176
 6369TIP3    H118984   2.913   3.385   1.207
 6369TIP3    H218985   2.848   3.470   1.100
 6370TIP3   OH218986   2.127   0.885   1.980
 6370TIP3    H118987   2.144   0.792   1.969
 6370TIP3    H218988   2.193   0.915   2.042
 6371TIP3   OH218989   5.716   3.845   0.999
 6371TIP3    H118990   5.644   3.841   1.061
 6371TIP3    H218991   5.700   3.774   0.937
 6372TIP3   OH218992   5.293   0.947   0.865
 6372TIP3    H118993   5.386   0.924   0.863
 6372TIP3    H218994   5.260   0.919   0.780
 6373TIP3   OH218995   2.491   0.223   0.071
 6373TIP3    H118996   2.445   0.186  -0.005
 6373TIP3    H218997   2.424   0.273   0.118
 6374TIP3   OH218998   3.732   2.735   4.814
 6374TIP3    H118999   3.743   2.651   4.769
 6374TIP3    H219000   3.798   2.733   4.883
 6375TIP3   OH219001   3.237   1.543   4.478
 6375TIP3    H119002   3.312   1.570   4.424
 6375TIP3    H219003   3.257   1.578   4.565
 6376TIP3   OH219004   4.147   3.431   4.007
 6376TIP3    H119005   4.071   3.441   4.064
 6376TIP3    H219006   4.197   3.511   4.019
 6377TIP3   OH219007   5.060   0.870   3.334
 6377TIP3    H119008   5.020   0.935   3.276
 6377TIP3    H219009   5.088   0.920   3.410
 6378TIP3   OH219010   8.219   3.436   3.830
 6378TIP3    H119011   8.168   3.487   3.892
 6378TIP3    H219012   8.168   3.437   3.749
 6379TIP3   OH219013   7.428   5.815   0.331
 6379TIP3    H119014   7.376   5.851   0.402
 6379TIP3    H219015   7.510   5.788   0.372
 6380TIP3   OH219016   8.444   0.855   7.750
 6380TIP3    H119017   8.428   0.795   7.677
 6380TIP3    H219018   8.475   0.936   7.709
 6381TIP3   OH219019   3.200   0.882   0.098
 6381TIP3    H119020   3.241   0.827   0.164
 6381TIP3    H219021   3.114   0.904   0.134
 6382TIP3   OH219022   0.528   3.009   6.151
 6382TIP3    H119023   0.503   2.925   6.113
 6382TIP3    H219024   0.617   2.995   6.183
 6383TIP3   OH219025   4.528   6.811   2.015
 6383TIP3    H119026   4.503   6.747   2.081
 6383TIP3    H219027   4.549   6.890   2.065
 6384TIP3   OH219028   6.954   1.022   1.049
 6384TIP3    H119029   6.935   1.115   1.059
 6384TIP3    H219030   7.044   1.012   1.081
 6385TIP3   OH219031   8.174   3.079   2.598
 6385TIP3    H119032   8.144   3.065   2.687
 6385TIP3    H219033   8.260   3.036   2.594
 6386TIP3   OH219034   8.609   2.582   3.129
 6386TIP3    H119035   8.643   2.672   3.133
 6386TIP3    H219036   8.687   2.527   3.124
 6387TIP3   OH219037   7.980   2.284   5.775
 6387TIP3    H119038   7.904   2.330   5.809
 6387TIP3    H219039   7.976   2.297   5.680
 6388TIP3   OH219040   3.055   1.142   3.659
 6388TIP3    H119041   3.105   1.223   3.659
 6388TIP3    H219042   3.102   1.084   3.600
 6389TIP3   OH219043   7.085   8.453   7.639
 6389TIP3    H119044   7.074   8.547   7.652
 6389TIP3    H219045   7.122   8.444   7.552
 6390TIP3   OH219046   2.181   6.402   6.343
 6390TIP3    H119047   2.243   6.469   6.315
 6390TIP3    H219048   2.141   6.437   6.423
 6391TIP3   OH219049   6.646   7.123   1.448
 6391TIP3    H119050   6.709   7.108   1.518
 6391TIP3    H219051   6.652   7.216   1.429
 6392TIP3   OH219052   1.094   4.807   3.245
 6392TIP3    H119053   1.073   4.719   3.213
 6392TIP3    H219054   1.082   4.801   3.340
 6393TIP3   OH219055   4.866   6.276   2.468
 6393TIP3    H119056   4.780   6.270   2.426
 6393TIP3    H219057   4.846   6.288   2.561
 6394TIP3   OH219058   5.530   7.515   0.317
 6394TIP3    H119059   5.541   7.597   0.366
 6394TIP3    H219060   5.617   7.496   0.282
 6395TIP3   OH219061   8.128   8.094   1.155
 6395TIP3    H119062   8.085   8.179   1.150
 6395TIP3    H219063   8.149   8.084   1.248
 6396TIP3   OH219064   1.495   4.019   3.053
 6396TIP3    H119065   1.404   4.021   3.082
 6396TIP3    H219066   1.546   4.034   3.132
 6397TIP3   OH219067   2.586   3.779   1.962
 6397TIP3    H119068   2.677   3.764   1.986
 6397TIP3    H219069   2.549   3.824   2.038
 6398TIP3   OH219070   3.845   5.299   4.497
 6398TIP3    H119071   3.856   5.381   4.449
 6398TIP3    H219072   3.773   5.317   4.558
 6399TIP3   OH219073   6.413   1.425   4.534
 6399TIP3    H119074   6.433   1.489   4.466
 6399TIP3    H219075   6.318   1.425   4.539
 6400TIP3   OH219076   0.357   2.863   5.594
 6400TIP3    H119077   0.377   2.825   5.508
 6400TIP3    H219078   0.425   2.929   5.607
 6401TIP3   OH219079   2.355   8.972   6.941
 6401TIP3    H119080   2.423   9.038   6.940
 6401TIP3    H219081   2.397   8.893   6.906
 6402TIP3   OH219082   6.126   2.619   4.916
 6402TIP3    H119083   6.201   2.592   4.968
 6402TIP3    H219084   6.164   2.655   4.836
 6403TIP3   OH219085   1.367   3.183   2.181
 6403TIP3    H119086   1.372   3.105   2.125
 6403TIP3    H219087   1.437   3.169   2.245
 6404TIP3   OH219088   3.705   8.444   6.373
 6404TIP3    H119089   3.633   8.485   6.324
 6404TIP3    H219090   3.681   8.455   6.465
 6405TIP3   OH219091   3.150   1.832   1.355
 6405TIP3    H119092   3.121   1.923   1.345
 6405TIP3    H219093   3.207   1.833   1.432
 6406TIP3   OH219094   7.695   0.525   2.193
 6406TIP3    H119095   7.759   0.556   2.256
 6406TIP3    H219096   7.623   0.490   2.246
 6407TIP3   OH219097   0.123   0.478   3.142
 6407TIP3    H119098   0.110   0.527   3.061
 6407TIP3    H219099   0.034   0.457   3.171
 6408TIP3   OH219100   7.528   0.061   2.307
 6408TIP3    H119101   7.589  -0.003   2.271
 6408TIP3    H219102   7.442   0.031   2.278
 6409TIP3   OH219103   1.937   3.153   0.357
 6409TIP3    H119104   1.999   3.081   0.347
 6409TIP3    H219105   1.979   3.213   0.419
 6410TIP3   OH219106   1.191   4.644   1.773
 6410TIP3    H119107   1.275   4.605   1.750
 6410TIP3    H219108   1.199   4.666   1.866
 6411TIP3   OH219109   1.295   2.603   3.213
 6411TIP3    H119110   1.319   2.648   3.294
 6411TIP3    H219111   1.294   2.510   3.238
 6412TIP3   OH219112   6.380   8.470   2.268
 6412TIP3    H119113   6.425   8.505   2.191
 6412TIP3    H219114   6.294   8.442   2.234
 6413TIP3   OH219115   7.450   3.900   6.738
 6413TIP3    H119116   7.522   3.963   6.741
 6413TIP3    H219117   7.481   3.831   6.679
 6414TIP3   OH219118   9.016   5.829   2.025
 6414TIP3    H119119   8.973   5.764   1.968
 6414TIP3    H219120   8.945   5.871   2.072
 6415TIP3   OH219121   7.507   4.408   5.899
 6415TIP3    H119122   7.551   4.462   5.834
 6415TIP3    H219123   7.413   4.424   5.884
 6416TIP3   OH219124   6.591   2.179   7.062
 6416TIP3    H119125   6.668   2.142   7.106
 6416TIP3    H219126   6.534   2.207   7.134
 6417TIP3   OH219127   5.155   6.588   7.147
 6417TIP3    H119128   5.073   6.584   7.197
 6417TIP3    H219129   5.215   6.635   7.205
 6418TIP3   OH219130   0.068   7.679   3.665
 6418TIP3    H119131   0.157   7.682   3.631
 6418TIP3    H219132   0.022   7.749   3.619
 6419TIP3   OH219133   1.242   1.348   1.799
 6419TIP3    H119134   1.152   1.361   1.829
 6419TIP3    H219135   1.260   1.424   1.745
 6420TIP3   OH219136   2.661   8.976   6.163
 6420TIP3    H119137   2.699   9.064   6.168
 6420TIP3    H219138   2.585   8.986   6.105
 6421TIP3   OH219139   1.969   5.689   2.263
 6421TIP3    H119140   1.932   5.660   2.346
 6421TIP3    H219141   2.058   5.717   2.284
 6422TIP3   OH219142   7.487   6.748   5.784
 6422TIP3    H119143   7.407   6.744   5.836
 6422TIP3    H219144   7.460   6.726   5.695
 6423TIP3   OH219145   6.192   2.725   2.174
 6423TIP3    H119146   6.195   2.781   2.252
 6423TIP3    H219147   6.283   2.700   2.158
 6424TIP3   OH219148   8.684   8.035   5.455
 6424TIP3    H119149   8.639   7.997   5.380
 6424TIP3    H219150   8.744   8.099   5.417
 6425TIP3   OH219151   5.291   4.302   6.995
 6425TIP3    H119152   5.327   4.275   7.079
 6425TIP3    H219153   5.196   4.304   7.008
 6426TIP3   OH219154   0.205   0.892   7.521
 6426TIP3    H119155   0.178   0.967   7.467
 6426TIP3    H219156   0.127   0.837   7.527
 6427TIP3   OH219157   5.076   5.499   4.624
 6427TIP3    H119158   5.127   5.457   4.556
 6427TIP3    H219159   5.033   5.427   4.670
 6428TIP3   OH219160   5.144   2.495   1.742
 6428TIP3    H119161   5.239   2.488   1.748
 6428TIP3    H219162   5.114   2.409   1.714
 6429TIP3   OH219163   4.690   1.390   2.298
 6429TIP3    H119164   4.773   1.368   2.254
 6429TIP3    H219165   4.630   1.410   2.226
 6430TIP3   OH219166   3.863   4.078   2.915
 6430TIP3    H119167   3.910   4.023   2.852
 6430TIP3    H219168   3.930   4.108   2.976
 6431TIP3   OH219169   2.226   0.385   0.083
 6431TIP3    H119170   2.160   0.320   0.109
 6431TIP3    H219171   2.195   0.418  -0.001
 6432TIP3   OH219172   4.759   3.876   2.534
 6432TIP3    H119173   4.735   3.887   2.626
 6432TIP3    H219174   4.836   3.933   2.523
 6433TIP3   OH219175   6.086   0.856   1.269
 6433TIP3    H119176   6.173   0.873   1.234
 6433TIP3    H219177   6.027   0.873   1.196
 6434TIP3   OH219178   4.001   4.438   5.840
 6434TIP3    H119179   3.942   4.457   5.767
 6434TIP3    H219180   4.079   4.400   5.799
 6435TIP3   OH219181   9.364   4.355   2.175
 6435TIP3    H119182   9.426   4.356   2.248
 6435TIP3    H219183   9.321   4.440   2.178
 6436TIP3   OH219184   2.060   5.033   1.361
 6436TIP3    H119185   2.101   5.048   1.446
 6436TIP3    H219186   2.134   5.019   1.301
 6437TIP3   OH219187   0.133   3.854   3.189
 6437TIP3    H119188   0.073   3.810   3.250
 6437TIP3    H219189   0.102   3.944   3.185
 6438TIP3   OH219190   2.013   0.143   0.292
 6438TIP3    H119191   1.930   0.165   0.250
 6438TIP3    H219192   2.029   0.215   0.353
 6439TIP3   OH219193   2.175   8.729   0.451
 6439TIP3    H119194   2.181   8.792   0.378
 6439TIP3    H219195   2.201   8.780   0.528
 6440TIP3   OH219196   3.181   4.923   5.400
 6440TIP3    H119197   3.164   4.860   5.470
 6440TIP3    H219198   3.099   4.971   5.391
 6441TIP3   OH219199   4.711   1.012   2.979
 6441TIP3    H119200   4.695   0.934   2.925
 6441TIP3    H219201   4.757   1.073   2.921
 6442TIP3   OH219202   6.984   6.401   3.155
 6442TIP3    H119203   6.907   6.345   3.146
 6442TIP3    H219204   6.993   6.443   3.069
 6443TIP3   OH219205   5.768   5.504   3.784
 6443TIP3    H119206   5.841   5.518   3.845
 6443TIP3    H219207   5.809   5.473   3.704
 6444TIP3   OH219208   7.231   6.144   5.374
 6444TIP3    H119209   7.170   6.111   5.307
 6444TIP3    H219210   7.209   6.237   5.381
 6445TIP3   OH219211   2.871   4.359   0.665
 6445TIP3    H119212   2.856   4.310   0.583
 6445TIP3    H219213   2.966   4.358   0.676
 6446TIP3   OH219214   0.853   1.131   2.025
 6446TIP3    H119215   0.848   1.048   1.979
 6446TIP3    H219216   0.762   1.157   2.037
 6447TIP3   OH219217   9.095   4.548   6.113
 6447TIP3    H119218   9.011   4.541   6.069
 6447TIP3    H219219   9.090   4.629   6.163
 6448TIP3   OH219220   3.682   1.698   0.513
 6448TIP3    H119221   3.717   1.686   0.602
 6448TIP3    H219222   3.754   1.674   0.455
 6449TIP3   OH219223   7.426   8.328   6.022
 6449TIP3    H119224   7.423   8.262   5.954
 6449TIP3    H219225   7.456   8.407   5.977
 6450TIP3   OH219226   5.293   5.653   0.526
 6450TIP3    H119227   5.341   5.713   0.468
 6450TIP3    H219228   5.362   5.601   0.567
 6451TIP3   OH219229   5.664   3.878   0.080
 6451TIP3    H119230   5.604   3.930   0.026
 6451TIP3    H219231   5.751   3.901   0.048
 6452TIP3   OH219232   6.381   0.837   2.424
 6452TIP3    H119233   6.407   0.791   2.344
 6452TIP3    H219234   6.293   0.805   2.443
 6453TIP3   OH219235   4.046   1.600   5.080
 6453TIP3    H119236   4.092   1.569   5.158
 6453TIP3    H219237   4.081   1.688   5.065
 6454TIP3   OH219238   0.555   8.712   1.124
 6454TIP3    H119239   0.580   8.720   1.031
 6454TIP3    H219240   0.460   8.705   1.123
 6455TIP3   OH219241   1.971   3.738   3.896
 6455TIP3    H119242   1.992   3.665   3.953
 6455TIP3    H219243   1.875   3.746   3.902
 6456TIP3   OH219244   5.735   2.854   6.811
 6456TIP3    H119245   5.722   2.766   6.848
 6456TIP3    H219246   5.723   2.843   6.717
 6457TIP3   OH219247   9.424   7.372   6.199
 6457TIP3    H119248   9.370   7.303   6.236
 6457TIP3    H219249   9.367   7.448   6.194
 6458TIP3   OH219250   3.825   3.806   0.069
 6458TIP3    H119251   3.815   3.871  -0.001
 6458TIP3    H219252   3.740   3.764   0.075
 6459TIP3   OH219253   0.522   4.998   4.445
 6459TIP3    H119254   0.456   5.026   4.382
 6459TIP3    H219255   0.605   5.027   4.406
 6460TIP3   OH219256   5.192   1.819   6.513
 6460TIP3    H119257   5.194   1.915   6.519
 6460TIP3    H219258   5.124   1.792   6.574
 6461TIP3   OH219259   6.031   8.680   2.182
 6461TIP3    H119260   6.043   8.774   2.190
 6461TIP3    H219261   6.120   8.644   2.183
 6462TIP3   OH219262   6.130   1.862   3.053
 6462TIP3    H119263   6.180   1.917   2.994
 6462TIP3    H219264   6.151   1.894   3.140
 6463TIP3   OH219265   0.833   7.243   4.288
 6463TIP3    H119266   0.788   7.169   4.247
 6463TIP3    H219267   0.926   7.222   4.280
 6464TIP3   OH219268   4.334   0.882   1.426
 6464TIP3    H119269   4.380   0.799   1.426
 6464TIP3    H219270   4.324   0.904   1.333
 6465TIP3   OH219271   8.661   6.233   0.778
 6465TIP3    H119272   8.643   6.305   0.717
 6465TIP3    H219273   8.602   6.163   0.749
 6466TIP3   OH219274   9.440   6.829   0.552
 6466TIP3    H119275   9.471   6.739   0.540
 6466TIP3    H219276   9.520   6.881   0.560
 6467TIP3   OH219277   7.212   1.283   5.072
 6467TIP3    H119278   7.245   1.208   5.121
 6467TIP3    H219279   7.142   1.248   5.018
 6468TIP3   OH219280   2.994   2.692   5.633
 6468TIP3    H119281   3.013   2.786   5.631
 6468TIP3    H219282   3.065   2.653   5.583
 6469TIP3   OH219283   8.236   4.594   0.272
 6469TIP3    H119284   8.301   4.551   0.328
 6469TIP3    H219285   8.179   4.523   0.243
 6470TIP3   OH219286   4.364   2.036   2.047
 6470TIP3    H119287   4.445   1.986   2.056
 6470TIP3    H219288   4.381   2.095   1.973
 6471TIP3   OH219289   6.247   3.237   1.556
 6471TIP3    H119290   6.224   3.169   1.493
 6471TIP3    H219291   6.165   3.257   1.602
 6472TIP3   OH219292   8.226   2.651   7.117
 6472TIP3    H119293   8.220   2.705   7.195
 6472TIP3    H219294   8.289   2.696   7.061
 6473TIP3   OH219295   7.298   5.923   0.557
 6473TIP3    H119296   7.248   5.889   0.632
 6473TIP3    H219297   7.245   5.997   0.526
 6474TIP3   OH219298   4.585   1.427   5.870
 6474TIP3    H119299   4.524   1.411   5.943
 6474TIP3    H219300   4.552   1.372   5.799
 6475TIP3   OH219301   1.475   7.490   4.098
 6475TIP3    H119302   1.482   7.398   4.126
 6475TIP3    H219303   1.454   7.538   4.178
 6476TIP3   OH219304   0.939   4.316   5.254
 6476TIP3    H119305   1.030   4.319   5.283
 6476TIP3    H219306   0.944   4.316   5.158
 6477TIP3   OH219307   9.407   7.938   1.365
 6477TIP3    H119308   9.466   7.982   1.304
 6477TIP3    H219309   9.458   7.863   1.397
 6478TIP3   OH219310   2.071   1.495   1.541
 6478TIP3    H119311   2.130   1.446   1.484
 6478TIP3    H219312   1.990   1.501   1.491
 6479TIP3   OH219313   1.001   8.969   1.524
 6479TIP3    H119314   1.001   8.874   1.523
 6479TIP3    H219315   1.077   8.993   1.576
 6480TIP3   OH219316   3.040   0.124   3.412
 6480TIP3    H119317   3.136   0.124   3.414
 6480TIP3    H219318   3.015   0.059   3.478
 6481TIP3   OH219319   1.206   2.147   7.570
 6481TIP3    H119320   1.261   2.069   7.579
 6481TIP3    H219321   1.118   2.117   7.592
 6482TIP3   OH219322   5.152   1.282   3.009
 6482TIP3    H119323   5.128   1.279   3.101
 6482TIP3    H219324   5.201   1.201   2.994
 6483TIP3   OH219325   7.341   6.024   3.145
 6483TIP3    H119326   7.296   5.980   3.073
 6483TIP3    H219327   7.370   5.953   3.203
 6484TIP3   OH219328   9.405   4.197   6.375
 6484TIP3    H119329   9.498   4.211   6.355
 6484TIP3    H219330   9.358   4.236   6.301
 6485TIP3   OH219331   5.124   5.011   7.001
 6485TIP3    H119332   5.102   5.100   7.029
 6485TIP3    H219333   5.091   4.955   7.072
 6486TIP3   OH219334   3.493   7.395   1.649
 6486TIP3    H119335   3.507   7.375   1.556
 6486TIP3    H219336   3.549   7.471   1.666
 6487TIP3   OH219337   5.180   6.193   1.865
 6487TIP3    H119338   5.113   6.261   1.855
 6487TIP3    H219339   5.223   6.213   1.948
 6488TIP3   OH219340   7.879   8.555   6.162
 6488TIP3    H119341   7.863   8.562   6.068
 6488TIP3    H219342   7.933   8.632   6.183
 6489TIP3   OH219343   9.034   2.094   4.515
 6489TIP3    H119344   9.103   2.028   4.523
 6489TIP3    H219345   9.021   2.104   4.421
 6490TIP3   OH219346   1.525   0.852   0.329
 6490TIP3    H119347   1.580   0.773   0.322
 6490TIP3    H219348   1.454   0.826   0.388
 6491TIP3   OH219349   1.313   8.767   2.334
 6491TIP3    H119350   1.220   8.789   2.334
 6491TIP3    H219351   1.345   8.797   2.420
 6492TIP3   OH219352   9.169   3.343   4.114
 6492TIP3    H119353   9.103   3.411   4.101
 6492TIP3    H219354   9.235   3.361   4.047
 6493TIP3   OH219355   0.871   7.717   2.623
 6493TIP3    H119356   0.849   7.810   2.630
 6493TIP3    H219357   0.858   7.696   2.531
 6494TIP3   OH219358   7.263   1.588   7.368
 6494TIP3    H119359   7.200   1.548   7.427
 6494TIP3    H219360   7.225   1.578   7.280
 6495TIP3   OH219361   4.198   2.479   3.328
 6495TIP3    H119362   4.234   2.537   3.261
 6495TIP3    H219363   4.103   2.487   3.319
 6496TIP3   OH219364   1.410   1.742   3.298
 6496TIP3    H119365   1.400   1.647   3.299
 6496TIP3    H219366   1.497   1.757   3.261
 6497TIP3   OH219367   1.727   4.186   3.970
 6497TIP3    H119368   1.644   4.232   3.954
 6497TIP3    H219369   1.788   4.225   3.907
 6498TIP3   OH219370   5.811   3.036   1.748
 6498TIP3    H119371   5.769   2.966   1.797
 6498TIP3    H219372   5.895   3.049   1.792
 6499TIP3   OH219373   1.318   5.961   1.527
 6499TIP3    H119374   1.395   5.904   1.517
 6499TIP3    H219375   1.326   5.996   1.616
 6500TIP3   OH219376   6.058   8.296   5.880
 6500TIP3    H119377   6.075   8.236   5.953
 6500TIP3    H219378   6.105   8.258   5.806
 6501TIP3   OH219379   0.810   3.439   2.244
 6501TIP3    H119380   0.862   3.371   2.201
 6501TIP3    H219381   0.751   3.391   2.303
 6502TIP3   OH219382   7.532   3.210   6.845
 6502TIP3    H119383   7.449   3.178   6.881
 6502TIP3    H219384   7.511   3.297   6.810
 6503TIP3   OH219385   4.235   7.822   4.083
 6503TIP3    H119386   4.149   7.810   4.042
 6503TIP3    H219387   4.261   7.735   4.111
 6504TIP3   OH219388   8.823   8.923   6.260
 6504TIP3    H119389   8.910   8.957   6.279
 6504TIP3    H219390   8.764   8.997   6.276
 6505TIP3   OH219391   9.061   6.443   1.796
 6505TIP3    H119392   9.119   6.518   1.811
 6505TIP3    H219393   8.973   6.479   1.805
 6506TIP3   OH219394   6.240   0.251   0.848
 6506TIP3    H119395   6.175   0.276   0.913
 6506TIP3    H219396   6.283   0.333   0.824
 6507TIP3   OH219397   2.132   6.404   3.845
 6507TIP3    H119398   2.069   6.333   3.859
 6507TIP3    H219399   2.120   6.462   3.920
 6508TIP3   OH219400   8.808   7.266   1.183
 6508TIP3    H119401   8.751   7.257   1.106
 6508TIP3    H219402   8.784   7.192   1.239
 6509TIP3   OH219403   9.075   0.121   4.399
 6509TIP3    H119404   9.046   0.174   4.325
 6509TIP3    H219405   9.020   0.150   4.472
 6510TIP3   OH219406   8.483   4.608   3.954
 6510TIP3    H119407   8.433   4.532   3.927
 6510TIP3    H219408   8.574   4.584   3.938
 6511TIP3   OH219409   6.521   7.079   3.999
 6511TIP3    H119410   6.603   7.052   4.040
 6511TIP3    H219411   6.467   7.000   3.998
 6512TIP3   OH219412   0.217   7.245   6.193
 6512TIP3    H119413   0.226   7.199   6.277
 6512TIP3    H219414   0.175   7.328   6.216
 6513TIP3   OH219415   8.999   4.998   5.700
 6513TIP3    H119416   9.051   4.984   5.621
 6513TIP3    H219417   9.060   4.986   5.772
 6514TIP3   OH219418   2.359   8.733   5.851
 6514TIP3    H119419   2.268   8.755   5.831
 6514TIP3    H219420   2.381   8.663   5.789
 6515TIP3   OH219421   0.660   0.725   1.979
 6515TIP3    H119422   0.752   0.698   1.985
 6515TIP3    H219423   0.612   0.656   2.026
 6516TIP3   OH219424   6.720   0.267   1.562
 6516TIP3    H119425   6.737   0.328   1.634
 6516TIP3    H219426   6.804   0.258   1.518
 6517TIP3   OH219427   8.085   6.524   2.754
 6517TIP3    H119428   8.126   6.549   2.671
 6517TIP3    H219429   8.102   6.599   2.812
 6518TIP3   OH219430   8.597   3.502   2.456
 6518TIP3    H119431   8.674   3.446   2.465
 6518TIP3    H219432   8.523   3.445   2.477
 6519TIP3   OH219433   7.157   3.309   6.590
 6519TIP3    H119434   7.106   3.303   6.509
 6519TIP3    H219435   7.191   3.220   6.604
 6520TIP3   OH219436   4.021   3.084   7.653
 6520TIP3    H119437   4.024   3.127   7.567
 6520TIP3    H219438   3.955   3.015   7.643
 6521TIP3   OH219439   3.175   2.099   5.877
 6521TIP3    H119440   3.096   2.138   5.914
 6521TIP3    H219441   3.191   2.021   5.930
 6522TIP3   OH219442   4.759   3.413   1.826
 6522TIP3    H119443   4.795   3.486   1.776
 6522TIP3    H219444   4.791   3.334   1.782
 6523TIP3   OH219445   5.605   5.953   5.256
 6523TIP3    H119446   5.647   5.882   5.208
 6523TIP3    H219447   5.512   5.946   5.234
 6524TIP3   OH219448   7.897   7.435   1.069
 6524TIP3    H119449   7.806   7.465   1.061
 6524TIP3    H219450   7.919   7.404   0.982
 6525TIP3   OH219451   7.526   4.938   6.465
 6525TIP3    H119452   7.476   4.951   6.384
 6525TIP3    H219453   7.594   4.876   6.442
 6526TIP3   OH219454   3.715   1.390   5.184
 6526TIP3    H119455   3.711   1.413   5.276
 6526TIP3    H219456   3.805   1.358   5.171
 6527TIP3   OH219457   4.232   1.966   2.867
 6527TIP3    H119458   4.220   1.946   2.774
 6527TIP3    H219459   4.279   1.890   2.901
 6528TIP3   OH219460   6.118   6.126   3.704
 6528TIP3    H119461   6.132   6.047   3.652
 6528TIP3    H219462   6.205   6.149   3.737
 6529TIP3   OH219463   8.116   5.690   6.943
 6529TIP3    H119464   8.189   5.741   6.978
 6529TIP3    H219465   8.156   5.617   6.897
 6530TIP3   OH219466   4.624   3.264   5.972
 6530TIP3    H119467   4.662   3.242   6.057
 6530TIP3    H219468   4.560   3.195   5.956
 6531TIP3   OH219469   1.425   2.872   2.980
 6531TIP3    H119470   1.460   2.938   3.039
 6531TIP3    H219471   1.331   2.889   2.977
 6532TIP3   OH219472   2.086   5.672   0.022
 6532TIP3    H119473   2.115   5.758   0.053
 6532TIP3    H219474   2.144   5.610   0.066
 6533TIP3   OH219475   6.196   7.586   0.392
 6533TIP3    H119476   6.120   7.540   0.426
 6533TIP3    H219477   6.257   7.516   0.368
 6534TIP3   OH219478   1.814   1.043   5.721
 6534TIP3    H119479   1.860   1.088   5.792
 6534TIP3    H219480   1.877   0.979   5.688
 6535TIP3   OH219481   1.227   1.212   0.667
 6535TIP3    H119482   1.253   1.181   0.754
 6535TIP3    H219483   1.153   1.270   0.684
 6536TIP3   OH219484   5.962   7.277   6.984
 6536TIP3    H119485   5.951   7.183   6.991
 6536TIP3    H219486   5.889   7.314   7.034
 6537TIP3   OH219487   1.717   4.549   6.056
 6537TIP3    H119488   1.710   4.459   6.025
 6537TIP3    H219489   1.810   4.571   6.046
 6538TIP3   OH219490   5.886   7.309   6.467
 6538TIP3    H119491   5.917   7.296   6.557
 6538TIP3    H219492   5.835   7.230   6.448
 6539TIP3   OH219493   4.025   4.406   5.236
 6539TIP3    H119494   4.023   4.458   5.156
 6539TIP3    H219495   3.958   4.445   5.291
 6540TIP3   OH219496   2.436   4.714   2.682
 6540TIP3    H119497   2.434   4.752   2.595
 6540TIP3    H219498   2.529   4.712   2.706
 6541TIP3   OH219499   2.482   2.930   7.793
 6541TIP3    H119500   2.415   2.868   7.824
 6541TIP3    H219501   2.562   2.878   7.787
 6542TIP3   OH219502   7.094   6.393   6.839
 6542TIP3    H119503   7.083   6.321   6.903
 6542TIP3    H219504   7.068   6.354   6.756
 6543TIP3   OH219505   8.686   8.308   5.326
 6543TIP3    H119506   8.767   8.326   5.278
 6543TIP3    H219507   8.634   8.387   5.315
 6544TIP3   OH219508   7.679   3.553   2.675
 6544TIP3    H119509   7.592   3.522   2.702
 6544TIP3    H219510   7.706   3.614   2.744
 6545TIP3   OH219511   2.599   1.571   1.188
 6545TIP3    H119512   2.539   1.497   1.199
 6545TIP3    H219513   2.646   1.575   1.272
 6546TIP3   OH219514   7.532   2.280   0.870
 6546TIP3    H119515   7.536   2.186   0.885
 6546TIP3    H219516   7.604   2.297   0.809
 6547TIP3   OH219517   3.623   8.811   2.567
 6547TIP3    H119518   3.543   8.758   2.566
 6547TIP3    H219519   3.643   8.823   2.660
 6548TIP3   OH219520   9.124   8.334   3.325
 6548TIP3    H119521   9.211   8.294   3.328
 6548TIP3    H219522   9.081   8.304   3.405
 6549TIP3   OH219523   8.484   2.273   0.296
 6549TIP3    H119524   8.391   2.269   0.317
 6549TIP3    H219525   8.497   2.360   0.258
 6550TIP3   OH219526   5.933   8.724   5.201
 6550TIP3    H119527   5.891   8.810   5.195
 6550TIP3    H219528   6.025   8.745   5.220
 6551TIP3   OH219529   5.796   5.861   3.902
 6551TIP3    H119530   5.853   5.936   3.921
 6551TIP3    H219531   5.816   5.838   3.812
 6552TIP3   OH219532   2.995   3.051   2.854
 6552TIP3    H119533   3.031   3.017   2.772
 6552TIP3    H219534   3.032   2.993   2.921
 6553TIP3   OH219535   4.048   0.077   1.342
 6553TIP3    H119536   4.089   0.060   1.427
 6553TIP3    H219537   3.978   0.140   1.361
 6554TIP3   OH219538   3.296   1.930   4.409
 6554TIP3    H119539   3.317   1.920   4.502
 6554TIP3    H219540   3.347   1.862   4.365
 6555TIP3   OH219541   3.587   3.061   5.461
 6555TIP3    H119542   3.592   3.099   5.549
 6555TIP3    H219543   3.596   3.136   5.403
 6556TIP3   OH219544   6.162   0.754   5.599
 6556TIP3    H119545   6.224   0.689   5.565
 6556TIP3    H219546   6.077   0.710   5.597
 6557TIP3   OH219547   9.420   1.009   4.275
 6557TIP3    H119548   9.434   1.100   4.248
 6557TIP3    H219549   9.344   0.981   4.224
 6558TIP3   OH219550   1.885   7.489   4.934
 6558TIP3    H119551   1.851   7.400   4.939
 6558TIP3    H219552   1.834   7.530   4.864
 6559TIP3   OH219553   7.774   0.691   2.878
 6559TIP3    H119554   7.684   0.695   2.910
 6559TIP3    H219555   7.823   0.649   2.949
 6560TIP3   OH219556   7.776   8.691   7.012
 6560TIP3    H119557   7.701   8.666   7.064
 6560TIP3    H219558   7.761   8.650   6.927
 6561TIP3   OH219559   8.579   2.330   3.940
 6561TIP3    H119560   8.571   2.236   3.923
 6561TIP3    H219561   8.670   2.342   3.966
 6562TIP3   OH219562   8.001   1.528   2.781
 6562TIP3    H119563   8.041   1.525   2.693
 6562TIP3    H219564   7.907   1.538   2.764
 6563TIP3   OH219565   3.845   7.823   5.182
 6563TIP3    H119566   3.915   7.857   5.127
 6563TIP3    H219567   3.883   7.748   5.226
 6564TIP3   OH219568   7.882   2.780   4.424
 6564TIP3    H119569   7.844   2.693   4.410
 6564TIP3    H219570   7.833   2.837   4.365
 6565TIP3   OH219571   8.101   0.902   3.587
 6565TIP3    H119572   8.189   0.891   3.551
 6565TIP3    H219573   8.044   0.858   3.524
 6566TIP3   OH219574   8.754   1.585   4.111
 6566TIP3    H119575   8.751   1.547   4.023
 6566TIP3    H219576   8.816   1.530   4.158
 6567TIP3   OH219577   0.873   0.940   4.405
 6567TIP3    H119578   0.815   1.016   4.402
 6567TIP3    H219579   0.821   0.871   4.446
 6568TIP3   OH219580   0.583   2.193   3.556
 6568TIP3    H119581   0.539   2.108   3.560
 6568TIP3    H219582   0.617   2.207   3.644
 6569TIP3   OH219583   3.033   1.106   7.789
 6569TIP3    H119584   2.953   1.121   7.739
 6569TIP3    H219585   3.051   1.190   7.831
 6570TIP3   OH219586   8.502   0.485   0.894
 6570TIP3    H119587   8.451   0.489   0.975
 6570TIP3    H219588   8.444   0.443   0.831
 6571TIP3   OH219589   8.198   0.712   0.220
 6571TIP3    H119590   8.251   0.667   0.285
 6571TIP3    H219591   8.129   0.756   0.270
 6572TIP3   OH219592   7.741   3.072   3.951
 6572TIP3    H119593   7.701   3.108   4.031
 6572TIP3    H219594   7.706   3.126   3.881
 6573TIP3   OH219595   1.413   0.050   0.922
 6573TIP3    H119596   1.461   0.013   0.848
 6573TIP3    H219597   1.456   0.133   0.939
 6574TIP3   OH219598   4.082   8.192   2.854
 6574TIP3    H119599   4.173   8.175   2.880
 6574TIP3    H219600   4.032   8.181   2.935
 6575TIP3   OH219601   4.856   7.430   3.959
 6575TIP3    H119602   4.943   7.391   3.969
 6575TIP3    H219603   4.864   7.490   3.885
 6576TIP3   OH219604   6.418   8.936   6.034
 6576TIP3    H119605   6.493   8.906   5.982
 6576TIP3    H219606   6.452   9.011   6.083
 6577TIP3   OH219607   7.894   3.604   4.880
 6577TIP3    H119608   7.798   3.603   4.884
 6577TIP3    H219609   7.919   3.680   4.933
 6578TIP3   OH219610   2.741   6.004   6.317
 6578TIP3    H119611   2.805   6.044   6.376
 6578TIP3    H219612   2.783   6.008   6.231
 6579TIP3   OH219613   6.678   7.008   6.868
 6579TIP3    H119614   6.724   7.086   6.898
 6579TIP3    H219615   6.591   7.016   6.905
 6580TIP3   OH219616   1.986   5.489   6.478
 6580TIP3    H119617   1.893   5.474   6.492
 6580TIP3    H219618   2.027   5.456   6.558
 6581TIP3   OH219619   8.082   3.429   1.868
 6581TIP3    H119620   8.059   3.378   1.946
 6581TIP3    H219621   8.168   3.466   1.889
 6582TIP3   OH219622   7.598   3.332   3.216
 6582TIP3    H119623   7.575   3.425   3.211
 6582TIP3    H219624   7.688   3.331   3.248
 6583TIP3   OH219625   7.789   5.977   7.148
 6583TIP3    H119626   7.801   5.898   7.096
 6583TIP3    H219627   7.865   5.979   7.207
 6584TIP3   OH219628   2.526   3.758   5.676
 6584TIP3    H119629   2.579   3.830   5.710
 6584TIP3    H219630   2.541   3.686   5.736
 6585TIP3   OH219631   4.955   1.173   6.893
 6585TIP3    H119632   4.972   1.093   6.844
 6585TIP3    H219633   4.860   1.180   6.895
 6586TIP3   OH219634   5.253   7.670   4.585
 6586TIP3    H119635   5.189   7.701   4.650
 6586TIP3    H219636   5.336   7.709   4.613
 6587TIP3   OH219637   5.192   0.967   0.199
 6587TIP3    H119638   5.279   0.932   0.220
 6587TIP3    H219639   5.162   1.005   0.282
 6588TIP3   OH219640   7.705   3.066   4.905
 6588TIP3    H119641   7.701   2.993   4.844
 6588TIP3    H219642   7.713   3.026   4.992
 6589TIP3   OH219643   6.484   5.186   3.425
 6589TIP3    H119644   6.546   5.136   3.478
 6589TIP3    H219645   6.529   5.269   3.406
 6590TIP3   OH219646   0.588   3.403   5.054
 6590TIP3    H119647   0.551   3.474   5.001
 6590TIP3    H219648   0.617   3.446   5.134
 6591TIP3   OH219649   8.734   4.563   4.851
 6591TIP3    H119650   8.680   4.486   4.869
 6591TIP3    H219651   8.816   4.527   4.817
 6592TIP3   OH219652   8.754   2.136   1.674
 6592TIP3    H119653   8.662   2.113   1.683
 6592TIP3    H219654   8.754   2.218   1.624
 6593TIP3   OH219655   6.211   3.394   5.596
 6593TIP3    H119656   6.251   3.379   5.510
 6593TIP3    H219657   6.124   3.354   5.589
 6594TIP3   OH219658   3.262   3.620   2.671
 6594TIP3    H119659   3.277   3.712   2.692
 6594TIP3    H219660   3.187   3.620   2.612
 6595TIP3   OH219661   5.280   2.544   5.434
 6595TIP3    H119662   5.307   2.627   5.395
 6595TIP3    H219663   5.331   2.477   5.388
 6596TIP3   OH219664   5.360   3.363   2.892
 6596TIP3    H119665   5.330   3.274   2.876
 6596TIP3    H219666   5.288   3.404   2.941
 6597TIP3   OH219667   7.869   2.036   7.051
 6597TIP3    H119668   7.873   1.942   7.071
 6597TIP3    H219669   7.914   2.044   6.967
 6598TIP3   OH219670   0.003   3.052   4.978
 6598TIP3    H119671   0.038   3.071   4.891
 6598TIP3    H219672   0.027   2.960   4.994
 6599TIP3   OH219673   8.391   4.226   2.866
 6599TIP3    H119674   8.371   4.187   2.781
 6599TIP3    H219675   8.486   4.239   2.865
 6600TIP3   OH219676   9.497   1.100   0.525
 6600TIP3    H119677   9.415   1.082   0.571
 6600TIP3    H219678   9.562   1.106   0.594
 6601TIP3   OH219679   2.055   0.740   0.559
 6601TIP3    H119680   2.070   0.656   0.601
 6601TIP3    H219681   2.039   0.719   0.467
 6602TIP3   OH219682   0.937   1.574   2.496
 6602TIP3    H119683   0.861   1.580   2.555
 6602TIP3    H219684   0.909   1.621   2.417
 6603TIP3   OH219685   8.527   1.231   3.013
 6603TIP3    H119686   8.592   1.168   2.980
 6603TIP3    H219687   8.481   1.261   2.935
 6604TIP3   OH219688   1.974   5.724   1.179
 6604TIP3    H119689   2.025   5.671   1.119
 6604TIP3    H219690   1.985   5.682   1.264
 6605TIP3   OH219691   2.991   2.040   5.543
 6605TIP3    H119692   2.996   1.972   5.611
 6605TIP3    H219693   3.036   2.001   5.467
 6606TIP3   OH219694   4.655   3.964   0.316
 6606TIP3    H119695   4.561   3.980   0.303
 6606TIP3    H219696   4.685   3.931   0.231
 6607TIP3   OH219697   3.184   3.832   7.798
 6607TIP3    H119698   3.110   3.879   7.836
 6607TIP3    H219699   3.164   3.739   7.813
 6608TIP3   OH219700   0.042   7.216   1.237
 6608TIP3    H119701   0.067   7.262   1.157
 6608TIP3    H219702   0.029   7.126   1.209
 6609TIP3   OH219703   0.086   4.154   0.676
 6609TIP3    H119704   0.009   4.100   0.662
 6609TIP3    H219705   0.160   4.096   0.659
 6610TIP3   OH219706   1.312   3.585   3.597
 6610TIP3    H119707   1.231   3.551   3.634
 6610TIP3    H219708   1.308   3.679   3.611
 6611TIP3   OH219709   0.489   2.722   3.533
 6611TIP3    H119710   0.527   2.715   3.446
 6611TIP3    H219711   0.435   2.801   3.530
 6612TIP3   OH219712   1.157   1.348   5.328
 6612TIP3    H119713   1.114   1.284   5.271
 6612TIP3    H219714   1.220   1.297   5.379
 6613TIP3   OH219715   6.156   6.414   3.790
 6613TIP3    H119716   6.078   6.465   3.765
 6613TIP3    H219717   6.142   6.328   3.750
 6614TIP3   OH219718   6.821   8.958   6.790
 6614TIP3    H119719   6.811   9.041   6.838
 6614TIP3    H219720   6.785   8.976   6.703
 6615TIP3   OH219721   8.455   5.673   2.094
 6615TIP3    H119722   8.456   5.586   2.053
 6615TIP3    H219723   8.384   5.669   2.159
 6616TIP3   OH219724   1.394   1.130   1.728
 6616TIP3    H119725   1.340   1.192   1.777
 6616TIP3    H219726   1.462   1.185   1.687
 6617TIP3   OH219727   7.452   6.560   1.693
 6617TIP3    H119728   7.437   6.528   1.604
 6617TIP3    H219729   7.449   6.481   1.747
 6618TIP3   OH219730   9.410   1.371   3.048
 6618TIP3    H119731   9.421   1.366   3.143
 6618TIP3    H219732   9.354   1.297   3.026
 6619TIP3   OH219733   1.680   0.879   2.466
 6619TIP3    H119734   1.655   0.891   2.374
 6619TIP3    H219735   1.752   0.940   2.479
 6620TIP3   OH219736   3.060   3.141   6.052
 6620TIP3    H119737   3.037   3.163   6.142
 6620TIP3    H219738   3.028   3.052   6.040
 6621TIP3   OH219739   7.335   0.118   5.637
 6621TIP3    H119740   7.382   0.039   5.665
 6621TIP3    H219741   7.265   0.128   5.701
 6622TIP3   OH219742   7.518   3.987   2.800
 6622TIP3    H119743   7.476   4.014   2.719
 6622TIP3    H219744   7.477   3.903   2.822
 6623TIP3   OH219745   6.599   7.120   4.469
 6623TIP3    H119746   6.684   7.078   4.486
 6623TIP3    H219747   6.545   7.050   4.432
 6624TIP3   OH219748   8.857   0.726   3.454
 6624TIP3    H119749   8.929   0.710   3.394
 6624TIP3    H219750   8.780   0.691   3.409
 6625TIP3   OH219751   2.216   7.034   5.300
 6625TIP3    H119752   2.261   7.115   5.275
 6625TIP3    H219753   2.283   6.966   5.293
 6626TIP3   OH219754   8.609   8.175   2.300
 6626TIP3    H119755   8.644   8.243   2.242
 6626TIP3    H219756   8.600   8.219   2.385
 6627TIP3   OH219757   5.243   6.555   0.719
 6627TIP3    H119758   5.290   6.626   0.762
 6627TIP3    H219759   5.310   6.488   0.703
 6628TIP3   OH219760   4.840   5.218   1.107
 6628TIP3    H119761   4.803   5.224   1.019
 6628TIP3    H219762   4.931   5.190   1.093
 6629TIP3   OH219763   3.865   6.781   5.375
 6629TIP3    H119764   3.892   6.857   5.426
 6629TIP3    H219765   3.916   6.786   5.294
 6630TIP3   OH219766   4.590   7.084   1.038
 6630TIP3    H119767   4.547   7.067   0.955
 6630TIP3    H219768   4.669   7.030   1.036
 6631TIP3   OH219769   2.733   8.146   2.795
 6631TIP3    H119770   2.771   8.059   2.783
 6631TIP3    H219771   2.724   8.155   2.890
 6632TIP3   OH219772   7.675   0.190   4.195
 6632TIP3    H119773   7.633   0.104   4.192
 6632TIP3    H219774   7.733   0.191   4.119
 6633TIP3   OH219775   7.589   4.054   6.413
 6633TIP3    H119776   7.502   4.087   6.435
 6633TIP3    H219777   7.584   3.961   6.432
 6634TIP3   OH219778   3.977   7.487   6.329
 6634TIP3    H119779   3.911   7.555   6.318
 6634TIP3    H219780   3.932   7.406   6.306
 6635TIP3   OH219781   7.815   8.174   6.543
 6635TIP3    H119782   7.827   8.114   6.469
 6635TIP3    H219783   7.761   8.125   6.605
 6636TIP3   OH219784   5.918   3.290   1.623
 6636TIP3    H119785   5.901   3.309   1.716
 6636TIP3    H219786   5.861   3.216   1.603
 6637TIP3   OH219787   6.487   4.193   7.777
 6637TIP3    H119788   6.572   4.153   7.757
 6637TIP3    H219789   6.456   4.228   7.694
 6638TIP3   OH219790   0.103   1.254   3.244
 6638TIP3    H119791   0.043   1.180   3.229
 6638TIP3    H219792   0.047   1.323   3.279
 6639TIP3   OH219793   1.835   3.652   1.369
 6639TIP3    H119794   1.825   3.679   1.461
 6639TIP3    H219795   1.841   3.557   1.373
 6640TIP3   OH219796   3.797   1.722   7.257
 6640TIP3    H119797   3.843   1.786   7.203
 6640TIP3    H219798   3.747   1.669   7.195
 6641TIP3   OH219799   1.010   5.048   2.098
 6641TIP3    H119800   0.969   4.964   2.116
 6641TIP3    H219801   1.046   5.039   2.009
 6642TIP3   OH219802   3.593   0.359   0.370
 6642TIP3    H119803   3.637   0.438   0.339
 6642TIP3    H219804   3.553   0.321   0.292
 6643TIP3   OH219805   2.410   5.337   2.554
 6643TIP3    H119806   2.460   5.255   2.555
 6643TIP3    H219807   2.474   5.405   2.533
 6644TIP3   OH219808   5.695   4.456   7.558
 6644TIP3    H119809   5.763   4.475   7.622
 6644TIP3    H219810   5.714   4.367   7.527
 6645TIP3   OH219811   9.021   6.896   7.274
 6645TIP3    H119812   9.070   6.949   7.337
 6645TIP3    H219813   8.953   6.853   7.326
 6646TIP3   OH219814   3.589   7.122   0.894
 6646TIP3    H119815   3.671   7.077   0.917
 6646TIP3    H219816   3.564   7.169   0.973
 6647TIP3   OH219817   4.592   1.886   2.058
 6647TIP3    H119818   4.687   1.890   2.062
 6647TIP3    H219819   4.573   1.811   2.003
 6648TIP3   OH219820   1.197   0.354   6.252
 6648TIP3    H119821   1.133   0.424   6.265
 6648TIP3    H219822   1.217   0.357   6.159
 6649TIP3   OH219823   3.533   1.212   1.823
 6649TIP3    H119824   3.591   1.211   1.899
 6649TIP3    H219825   3.586   1.175   1.752
 6650TIP3   OH219826   5.939   6.187   7.802
 6650TIP3    H119827   5.924   6.216   7.713
 6650TIP3    H219828   5.871   6.122   7.818
 6651TIP3   OH219829   2.964   1.991   7.741
 6651TIP3    H119830   3.057   1.975   7.757
 6651TIP3    H219831   2.962   2.064   7.680
 6652TIP3   OH219832   0.485   5.973   3.786
 6652TIP3    H119833   0.420   6.043   3.793
 6652TIP3    H219834   0.445   5.908   3.728
 6653TIP3   OH219835   9.250   6.015   2.345
 6653TIP3    H119836   9.294   6.073   2.282
 6653TIP3    H219837   9.304   6.021   2.424
 6654TIP3   OH219838   6.995   3.172   6.384
 6654TIP3    H119839   7.021   3.085   6.355
 6654TIP3    H219840   6.939   3.156   6.460
 6655TIP3   OH219841   1.792   4.079   5.803
 6655TIP3    H119842   1.713   4.026   5.811
 6655TIP3    H219843   1.849   4.028   5.745
 6656TIP3   OH219844   5.826   2.298   3.177
 6656TIP3    H119845   5.853   2.383   3.210
 6656TIP3    H219846   5.760   2.318   3.110
 6657TIP3   OH219847   7.880   4.866   6.590
 6657TIP3    H119848   7.853   4.958   6.589
 6657TIP3    H219849   7.938   4.859   6.666
 6658TIP3   OH219850   2.651   4.216   3.941
 6658TIP3    H119851   2.728   4.182   3.894
 6658TIP3    H219852   2.578   4.200   3.882
 6659TIP3   OH219853   7.454   3.450   2.764
 6659TIP3    H119854   7.376   3.454   2.709
 6659TIP3    H219855   7.428   3.395   2.838
 6660TIP3   OH219856   7.665   1.934   4.742
 6660TIP3    H119857   7.592   1.925   4.803
 6660TIP3    H219858   7.644   1.874   4.670
 6661TIP3   OH219859   0.751   5.112   0.738
 6661TIP3    H119860   0.773   5.184   0.679
 6661TIP3    H219861   0.656   5.118   0.749
 6662TIP3   OH219862   1.607   7.594   7.469
 6662TIP3    H119863   1.557   7.534   7.525
 6662TIP3    H219864   1.547   7.617   7.399
 6663TIP3   OH219865   3.334   4.740   3.518
 6663TIP3    H119866   3.332   4.648   3.492
 6663TIP3    H219867   3.270   4.783   3.461
 6664TIP3   OH219868   2.145   6.619   2.208
 6664TIP3    H119869   2.206   6.552   2.238
 6664TIP3    H219870   2.130   6.599   2.115
 6665TIP3   OH219871   5.040   8.516   7.533
 6665TIP3    H119872   5.051   8.434   7.484
 6665TIP3    H219873   4.988   8.572   7.475
 6666TIP3   OH219874   1.130   6.799   0.133
 6666TIP3    H119875   1.223   6.816   0.119
 6666TIP3    H219876   1.128   6.736   0.206
 6667TIP3   OH219877   0.834   2.982   1.658
 6667TIP3    H119878   0.826   3.062   1.709
 6667TIP3    H219879   0.782   2.917   1.706
 6668TIP3   OH219880   7.719   7.282   0.889
 6668TIP3    H119881   7.644   7.265   0.832
 6668TIP3    H219882   7.795   7.270   0.833
 6669TIP3   OH219883   2.170   8.166   3.811
 6669TIP3    H119884   2.095   8.107   3.800
 6669TIP3    H219885   2.239   8.110   3.846
 6670TIP3   OH219886   6.259   6.511   5.716
 6670TIP3    H119887   6.311   6.491   5.638
 6670TIP3    H219888   6.171   6.530   5.682
 6671TIP3   OH219889   2.222   5.124   2.732
 6671TIP3    H119890   2.291   5.140   2.668
 6671TIP3    H219891   2.254   5.050   2.784
 6672TIP3   OH219892   8.013   8.955   7.433
 6672TIP3    H119893   8.007   8.884   7.369
 6672TIP3    H219894   7.968   8.922   7.510
 6673TIP3   OH219895   9.569   1.187   0.036
 6673TIP3    H119896   9.576   1.159  -0.055
 6673TIP3    H219897   9.537   1.277   0.031
 6674TIP3   OH219898   5.703   2.656   2.761
 6674TIP3    H119899   5.644   2.730   2.772
 6674TIP3    H219900   5.791   2.694   2.758
 6675TIP3   OH219901   0.128   7.533   4.056
 6675TIP3    H119902   0.157   7.502   3.970
 6675TIP3    H219903   0.043   7.490   4.069
 6676TIP3   OH219904   3.757   6.911   2.448
 6676TIP3    H119905   3.843   6.872   2.432
 6676TIP3    H219906   3.774   7.004   2.456
 6677TIP3   OH219907   3.687   7.565   7.517
 6677TIP3    H119908   3.700   7.535   7.427
 6677TIP3    H219909   3.726   7.652   7.520
 6678TIP3   OH219910   7.378   5.755   3.228
 6678TIP3    H119911   7.357   5.682   3.170
 6678TIP3    H219912   7.420   5.714   3.304
 6679TIP3   OH219913   7.685   1.367   5.754
 6679TIP3    H119914   7.628   1.427   5.706
 6679TIP3    H219915   7.664   1.382   5.846
 6680TIP3   OH219916   2.694   0.641   3.505
 6680TIP3    H119917   2.688   0.637   3.601
 6680TIP3    H219918   2.771   0.587   3.484
 6681TIP3   OH219919   1.186   7.766   5.983
 6681TIP3    H119920   1.269   7.778   5.936
 6681TIP3    H219921   1.171   7.848   6.029
 6682TIP3   OH219922   8.249   3.823   1.444
 6682TIP3    H119923   8.268   3.800   1.354
 6682TIP3    H219924   8.182   3.760   1.471
 6683TIP3   OH219925   7.990   7.088   5.471
 6683TIP3    H119926   7.954   7.070   5.558
 6683TIP3    H219927   7.938   7.162   5.439
 6684TIP3   OH219928   4.733   7.167   3.060
 6684TIP3    H119929   4.814   7.218   3.066
 6684TIP3    H219930   4.666   7.232   3.038
 6685TIP3   OH219931   5.846   0.624   3.506
 6685TIP3    H119932   5.877   0.555   3.565
 6685TIP3    H219933   5.912   0.693   3.513
 6686TIP3   OH219934   4.692   5.701   2.138
 6686TIP3    H119935   4.677   5.779   2.085
 6686TIP3    H219936   4.783   5.707   2.165
 6687TIP3   OH219937   1.864   1.849  -0.004
 6687TIP3    H119938   1.842   1.859   0.088
 6687TIP3    H219939   1.948   1.804  -0.003
 6688TIP3   OH219940   8.087   6.873   4.463
 6688TIP3    H119941   8.147   6.947   4.452
 6688TIP3    H219942   8.008   6.912   4.500
 6689TIP3   OH219943   1.185   0.259   4.838
 6689TIP3    H119944   1.118   0.194   4.858
 6689TIP3    H219945   1.227   0.225   4.759
 6690TIP3   OH219946   4.152   7.538   1.805
 6690TIP3    H119947   4.172   7.534   1.711
 6690TIP3    H219948   4.066   7.496   1.812
 6691TIP3   OH219949   1.236   4.993   5.285
 6691TIP3    H119950   1.229   4.946   5.202
 6691TIP3    H219951   1.182   5.071   5.272
 6692TIP3   OH219952   6.024   7.499   0.064
 6692TIP3    H119953   6.021   7.513  -0.031
 6692TIP3    H219954   6.074   7.574   0.097
 6693TIP3   OH219955   7.482   8.181   0.237
 6693TIP3    H119956   7.488   8.169   0.142
 6693TIP3    H219957   7.388   8.188   0.254
 6694TIP3   OH219958   2.599   8.254   6.425
 6694TIP3    H119959   2.590   8.349   6.430
 6694TIP3    H219960   2.675   8.241   6.369
 6695TIP3   OH219961   2.667   5.515   4.430
 6695TIP3    H119962   2.608   5.562   4.489
 6695TIP3    H219963   2.720   5.461   4.488
 6696TIP3   OH219964   3.485   6.857   6.859
 6696TIP3    H119965   3.419   6.890   6.921
 6696TIP3    H219966   3.568   6.868   6.906
 6697TIP3   OH219967   4.816   1.209   1.699
 6697TIP3    H119968   4.897   1.214   1.749
 6697TIP3    H219969   4.813   1.291   1.650
 6698TIP3   OH219970   2.980   5.639   2.790
 6698TIP3    H119971   2.889   5.613   2.777
 6698TIP3    H219972   3.020   5.627   2.704
 6699TIP3   OH219973   7.797   1.137   3.898
 6699TIP3    H119974   7.859   1.191   3.947
 6699TIP3    H219975   7.721   1.193   3.885
 6700TIP3   OH219976   0.272   4.798   0.359
 6700TIP3    H119977   0.335   4.745   0.408
 6700TIP3    H219978   0.237   4.859   0.424
 6701TIP3   OH219979   7.085   8.371   4.871
 6701TIP3    H119980   7.180   8.367   4.856
 6701TIP3    H219981   7.076   8.371   4.966
 6702TIP3   OH219982   2.379   0.889   2.555
 6702TIP3    H119983   2.354   0.964   2.609
 6702TIP3    H219984   2.310   0.824   2.570
 6703TIP3   OH219985   1.461   6.078   3.058
 6703TIP3    H119986   1.442   6.057   3.150
 6703TIP3    H219987   1.390   6.037   3.009
 6704TIP3   OH219988   2.187   3.665   4.619
 6704TIP3    H119989   2.146   3.589   4.660
 6704TIP3    H219990   2.256   3.628   4.563
 6705TIP3   OH219991   7.164   0.308   7.608
 6705TIP3    H119992   7.245   0.299   7.558
 6705TIP3    H219993   7.191   0.303   7.700
 6706TIP3   OH219994   6.397   1.876   3.342
 6706TIP3    H119995   6.442   1.919   3.268
 6706TIP3    H219996   6.442   1.909   3.419
 6707TIP3   OH219997   5.494   2.803   2.900
 6707TIP3    H119998   5.472   2.722   2.946
 6707TIP3    H219999   5.411   2.833   2.864
 6708TIP3   OH220000   2.723   3.517   4.892
 6708TIP3    H120001   2.756   3.598   4.931
 6708TIP3    H220002   2.791   3.452   4.913
 6709TIP3   OH220003   7.534   6.164   4.743
 6709TIP3    H120004   7.480   6.087   4.725
 6709TIP3    H220005   7.554   6.157   4.836
 6710TIP3   OH220006   7.436   6.598   0.130
 6710TIP3    H120007   7.485   6.537   0.074
 6710TIP3    H220008   7.445   6.563   0.218
 6711TIP3   OH220009   0.025   2.243   3.602
 6711TIP3    H120010   0.101   2.221   3.656
 6711TIP3    H220011   0.017   2.170   3.541
 6712TIP3   OH220012   2.841   0.179   1.684
 6712TIP3    H120013   2.765   0.208   1.633
 6712TIP3    H220014   2.847   0.242   1.756
 6713TIP3   OH220015   5.872   4.237   2.047
 6713TIP3    H120016   5.901   4.277   2.129
 6713TIP3    H220017   5.952   4.228   1.996
 6714TIP3   OH220018   6.470   2.137   1.980
 6714TIP3    H120019   6.530   2.094   1.920
 6714TIP3    H220020   6.447   2.219   1.937
 6715TIP3   OH220021   8.547   7.701   0.056
 6715TIP3    H120022   8.580   7.758   0.126
 6715TIP3    H220023   8.610   7.628   0.054
 6716TIP3   OH220024   2.825   4.009   1.193
 6716TIP3    H120025   2.803   3.940   1.256
 6716TIP3    H220026   2.838   3.962   1.110
 6717TIP3   OH220027   8.896   0.724   0.383
 6717TIP3    H120028   8.985   0.695   0.362
 6717TIP3    H220029   8.849   0.717   0.300
 6718TIP3   OH220030   4.375   5.166   0.348
 6718TIP3    H120031   4.296   5.122   0.378
 6718TIP3    H220032   4.444   5.135   0.408
 6719TIP3   OH220033   4.241   5.532   1.521
 6719TIP3    H120034   4.214   5.542   1.430
 6719TIP3    H220035   4.276   5.618   1.545
 6720TIP3   OH220036   3.420   6.837   5.684
 6720TIP3    H120037   3.404   6.923   5.723
 6720TIP3    H220038   3.477   6.856   5.609
 6721TIP3   OH220039   3.103   6.381   4.781
 6721TIP3    H120040   3.126   6.288   4.777
 6721TIP3    H220041   3.023   6.389   4.731
 6722TIP3   OH220042   8.533   1.494   6.592
 6722TIP3    H120043   8.577   1.540   6.665
 6722TIP3    H220044   8.444   1.481   6.623
 6723TIP3   OH220045   1.566   6.953   0.779
 6723TIP3    H120046   1.645   6.968   0.832
 6723TIP3    H220047   1.494   6.978   0.837
 6724TIP3   OH220048   4.537   6.757   6.107
 6724TIP3    H120049   4.468   6.712   6.156
 6724TIP3    H220050   4.500   6.843   6.087
 6725TIP3   OH220051   6.958   1.122   5.436
 6725TIP3    H120052   7.018   1.059   5.475
 6725TIP3    H220053   7.014   1.193   5.406
 6726TIP3   OH220054   5.098   8.787   3.614
 6726TIP3    H120055   5.180   8.739   3.606
 6726TIP3    H220056   5.062   8.760   3.699
 6727TIP3   OH220057   8.303   6.772   6.993
 6727TIP3    H120058   8.357   6.774   7.072
 6727TIP3    H220059   8.224   6.725   7.020
 6728TIP3   OH220060   8.669   8.440   4.226
 6728TIP3    H120061   8.594   8.499   4.213
 6728TIP3    H220062   8.671   8.388   4.146
 6729TIP3   OH220063   8.083   0.839   2.998
 6729TIP3    H120064   8.028   0.760   3.002
 6729TIP3    H220065   8.021   0.911   3.011
 6730TIP3   OH220066   7.681   1.333   2.444
 6730TIP3    H120067   7.601   1.385   2.456
 6730TIP3    H220068   7.751   1.388   2.478
 6731TIP3   OH220069   9.265   5.486   6.410
 6731TIP3    H120070   9.170   5.471   6.415
 6731TIP3    H220071   9.302   5.426   6.475
 6732TIP3   OH220072   7.652   3.553   6.409
 6732TIP3    H120073   7.712   3.504   6.466
 6732TIP3    H220074   7.585   3.489   6.385
 6733TIP3   OH220075   5.798   8.822   3.171
 6733TIP3    H120076   5.790   8.824   3.075
 6733TIP3    H220077   5.709   8.839   3.203
 6734TIP3   OH220078   4.028   7.338   3.687
 6734TIP3    H120079   4.087   7.263   3.676
 6734TIP3    H220080   3.952   7.317   3.634
 6735TIP3   OH220081   6.627   7.176   0.963
 6735TIP3    H120082   6.585   7.092   0.947
 6735TIP3    H220083   6.556   7.241   0.957
 6736TIP3   OH220084   9.360   2.092   6.218
 6736TIP3    H120085   9.332   2.053   6.301
 6736TIP3    H220086   9.350   2.023   6.153
 6737TIP3   OH220087   5.849   7.733   0.309
 6737TIP3    H120088   5.845   7.673   0.234
 6737TIP3    H220089   5.770   7.714   0.359
 6738TIP3   OH220090   3.189   3.666   3.007
 6738TIP3    H120091   3.169   3.647   2.915
 6738TIP3    H220092   3.243   3.745   3.004
 6739TIP3   OH220093   0.563   7.554   5.173
 6739TIP3    H120094   0.488   7.608   5.199
 6739TIP3    H220095   0.612   7.542   5.254
 6740TIP3   OH220096   4.817   7.098   6.288
 6740TIP3    H120097   4.865   7.017   6.301
 6740TIP3    H220098   4.839   7.152   6.364
 6741TIP3   OH220099   3.957   3.765   0.624
 6741TIP3    H120100   4.036   3.734   0.580
 6741TIP3    H220101   3.990   3.830   0.687
 6742TIP3   OH220102   7.968   7.892   5.711
 6742TIP3    H120103   7.943   7.861   5.798
 6742TIP3    H220104   8.050   7.939   5.724
 6743TIP3   OH220105   8.910   2.392   5.799
 6743TIP3    H120106   8.858   2.470   5.813
 6743TIP3    H220107   8.977   2.395   5.868
 6744TIP3   OH220108   6.065   2.579   3.662
 6744TIP3    H120109   6.085   2.496   3.706
 6744TIP3    H220110   6.148   2.607   3.625
 6745TIP3   OH220111   5.670   2.407   4.184
 6745TIP3    H120112   5.707   2.322   4.209
 6745TIP3    H220113   5.609   2.429   4.254
 6746TIP3   OH220114   1.155   8.154   5.144
 6746TIP3    H120115   1.066   8.157   5.110
 6746TIP3    H220116   1.151   8.095   5.219
 6747TIP3   OH220117   5.907   5.811   0.547
 6747TIP3    H120118   5.994   5.772   0.548
 6747TIP3    H220119   5.855   5.754   0.604
 6748TIP3   OH220120   7.419   1.144   3.062
 6748TIP3    H120121   7.470   1.087   3.005
 6748TIP3    H220122   7.328   1.122   3.043
 6749TIP3   OH220123   1.980   2.456   6.452
 6749TIP3    H120124   1.889   2.483   6.457
 6749TIP3    H220125   1.989   2.414   6.367
 6750TIP3   OH220126   3.094   6.781   6.123
 6750TIP3    H120127   3.049   6.698   6.136
 6750TIP3    H220128   3.126   6.777   6.033
 6751TIP3   OH220129   6.146   0.147   7.084
 6751TIP3    H120130   6.149   0.188   6.998
 6751TIP3    H220131   6.063   0.100   7.086
 6752TIP3   OH220132   4.704   6.350   0.302
 6752TIP3    H120133   4.749   6.294   0.239
 6752TIP3    H220134   4.746   6.332   0.385
 6753TIP3   OH220135   7.725   2.594   5.091
 6753TIP3    H120136   7.812   2.570   5.121
 6753TIP3    H220137   7.715   2.550   5.007
 6754TIP3   OH220138   2.005   4.093   1.144
 6754TIP3    H120139   2.096   4.067   1.157
 6754TIP3    H220140   1.990   4.163   1.207
 6755TIP3   OH220141   0.423   4.726   7.784
 6755TIP3    H120142   0.467   4.656   7.833
 6755TIP3    H220143   0.378   4.680   7.713
 6756TIP3   OH220144   7.759   4.797   7.133
 6756TIP3    H120145   7.735   4.806   7.225
 6756TIP3    H220146   7.677   4.806   7.085
 6757TIP3   OH220147   8.232   2.282   6.781
 6757TIP3    H120148   8.213   2.285   6.875
 6757TIP3    H220149   8.260   2.371   6.760
 6758TIP3   OH220150   3.970   0.180   3.154
 6758TIP3    H120151   3.967   0.148   3.244
 6758TIP3    H220152   3.938   0.270   3.160
 6759TIP3   OH220153   4.552   6.134   3.824
 6759TIP3    H120154   4.542   6.134   3.919
 6759TIP3    H220155   4.605   6.056   3.806
 6760TIP3   OH220156   5.355   7.543   1.724
 6760TIP3    H120157   5.429   7.534   1.784
 6760TIP3    H220158   5.378   7.489   1.649
 6761TIP3   OH220159   8.567   1.216   6.988
 6761TIP3    H120160   8.513   1.198   7.064
 6761TIP3    H220161   8.581   1.130   6.947
 6762TIP3   OH220162   1.752   7.249   4.946
 6762TIP3    H120163   1.798   7.168   4.963
 6762TIP3    H220164   1.715   7.238   4.859
 6763TIP3   OH220165   2.933   7.967   7.041
 6763TIP3    H120166   2.910   7.874   7.038
 6763TIP3    H220167   3.025   7.970   7.017
 6764TIP3   OH220168   2.391   4.549   5.344
 6764TIP3    H120169   2.337   4.535   5.422
 6764TIP3    H220170   2.377   4.470   5.292
 6765TIP3   OH220171   7.659   3.219   4.186
 6765TIP3    H120172   7.637   3.175   4.267
 6765TIP3    H220173   7.642   3.312   4.203
 6766TIP3   OH220174   2.316   0.304   1.872
 6766TIP3    H120175   2.261   0.354   1.813
 6766TIP3    H220176   2.298   0.342   1.959
 6767TIP3   OH220177   7.561   6.000   2.694
 6767TIP3    H120178   7.475   6.019   2.656
 6767TIP3    H220179   7.587   5.917   2.654
 6768TIP3   OH220180   6.413   3.692   5.734
 6768TIP3    H120181   6.378   3.720   5.650
 6768TIP3    H220182   6.384   3.759   5.796
 6769TIP3   OH220183   7.216   8.044   5.962
 6769TIP3    H120184   7.156   7.971   5.951
 6769TIP3    H220185   7.193   8.082   6.047
 6770TIP3   OH220186   6.345   4.340   6.317
 6770TIP3    H120187   6.333   4.257   6.271
 6770TIP3    H220188   6.357   4.404   6.247
 6771TIP3   OH220189   5.146   4.301   4.308
 6771TIP3    H120190   5.123   4.347   4.228
 6771TIP3    H220191   5.062   4.272   4.344
 6772TIP3   OH220192   7.382   3.630   1.024
 6772TIP3    H120193   7.312   3.693   1.041
 6772TIP3    H220194   7.337   3.550   0.997
 6773TIP3   OH220195   2.362   1.399   3.366
 6773TIP3    H120196   2.289   1.340   3.384
 6773TIP3    H220197   2.380   1.387   3.273
 6774TIP3   OH220198   0.575   3.241   6.009
 6774TIP3    H120199   0.556   3.155   6.046
 6774TIP3    H220200   0.490   3.275   5.982
 6775TIP3   OH220201   5.422   1.630   5.242
 6775TIP3    H120202   5.488   1.616   5.309
 6775TIP3    H220203   5.352   1.677   5.287
 6776TIP3   OH220204   1.594   8.603   2.987
 6776TIP3    H120205   1.642   8.596   2.904
 6776TIP3    H220206   1.531   8.674   2.972
 6777TIP3   OH220207   6.446   1.403   6.649
 6777TIP3    H120208   6.397   1.477   6.614
 6777TIP3    H220209   6.498   1.371   6.575
 6778TIP3   OH220210   6.723   8.292   6.646
 6778TIP3    H120211   6.656   8.234   6.683
 6778TIP3    H220212   6.772   8.323   6.722
 6779TIP3   OH220213   2.521   6.946   2.836
 6779TIP3    H120214   2.499   7.037   2.856
 6779TIP3    H220215   2.606   6.951   2.791
 6780TIP3   OH220216   1.803   8.966   4.251
 6780TIP3    H120217   1.798   8.944   4.157
 6780TIP3    H220218   1.843   8.889   4.291
 6781TIP3   OH220219   0.574   3.031   3.241
 6781TIP3    H120220   0.532   3.025   3.155
 6781TIP3    H220221   0.572   2.941   3.275
 6782TIP3   OH220222   2.145   7.142   3.693
 6782TIP3    H120223   2.113   7.140   3.603
 6782TIP3    H220224   2.113   7.060   3.731
 6783TIP3   OH220225   6.037   2.951   7.307
 6783TIP3    H120226   6.098   2.985   7.242
 6783TIP3    H220227   6.082   2.966   7.391
 6784TIP3   OH220228   6.909   1.678   1.144
 6784TIP3    H120229   6.847   1.614   1.177
 6784TIP3    H220230   6.855   1.749   1.109
 6785TIP3   OH220231   4.488   7.621   6.136
 6785TIP3    H120232   4.583   7.613   6.142
 6785TIP3    H220233   4.461   7.550   6.077
 6786TIP3   OH220234   2.111   5.911   2.064
 6786TIP3    H120235   2.069   5.896   2.149
 6786TIP3    H220236   2.050   5.875   2.000
 6787TIP3   OH220237   3.099   8.683   3.361
 6787TIP3    H120238   3.070   8.755   3.306
 6787TIP3    H220239   3.179   8.651   3.319
 6788TIP3   OH220240   0.737   4.643   3.066
 6788TIP3    H120241   0.689   4.561   3.069
 6788TIP3    H220242   0.826   4.618   3.040
 6789TIP3   OH220243   3.698   0.213   5.349
 6789TIP3    H120244   3.730   0.261   5.273
 6789TIP3    H220245   3.663   0.281   5.407
 6790TIP3   OH220246   8.337   3.831   7.784
 6790TIP3    H120247   8.416   3.783   7.809
 6790TIP3    H220248   8.365   3.889   7.713
 6791TIP3   OH220249   4.329   6.701   5.761
 6791TIP3    H120250   4.326   6.606   5.755
 6791TIP3    H220251   4.259   6.731   5.703
 6792TIP3   OH220252   5.238   8.981   6.445
 6792TIP3    H120253   5.210   8.913   6.384
 6792TIP3    H220254   5.314   9.021   6.402
 6793TIP3   OH220255   8.149   8.650   0.903
 6793TIP3    H120256   8.057   8.629   0.922
 6793TIP3    H220257   8.150   8.675   0.811
 6794TIP3   OH220258   3.885   8.907   3.797
 6794TIP3    H120259   3.830   8.879   3.871
 6794TIP3    H220260   3.837   8.981   3.759
 6795TIP3   OH220261   5.206   6.188   3.463
 6795TIP3    H120262   5.228   6.265   3.515
 6795TIP3    H220263   5.283   6.175   3.407
 6796TIP3   OH220264   3.096   2.834   2.596
 6796TIP3    H120265   3.148   2.860   2.520
 6796TIP3    H220266   3.007   2.862   2.576
 6797TIP3   OH220267   8.830   2.826   0.604
 6797TIP3    H120268   8.826   2.884   0.528
 6797TIP3    H220269   8.738   2.810   0.626
 6798TIP3   OH220270   8.202   6.616   4.412
 6798TIP3    H120271   8.172   6.549   4.350
 6798TIP3    H220272   8.149   6.693   4.391
 6799TIP3   OH220273   1.883   5.283   0.496
 6799TIP3    H120274   1.967   5.281   0.450
 6799TIP3    H220275   1.897   5.231   0.574
 6800TIP3   OH220276   2.269   3.831   6.635
 6800TIP3    H120277   2.335   3.890   6.671
 6800TIP3    H220278   2.318   3.777   6.572
 6801TIP3   OH220279   5.522   8.900   5.817
 6801TIP3    H120280   5.494   8.893   5.908
 6801TIP3    H220281   5.575   8.822   5.802
 6802TIP3   OH220282   0.054   3.526   6.055
 6802TIP3    H120283   0.122   3.463   6.031
 6802TIP3    H220284  -0.003   3.530   5.978
 6803TIP3   OH220285   8.954   1.838   7.065
 6803TIP3    H120286   9.005   1.885   7.130
 6803TIP3    H220287   8.918   1.906   7.008
 6804TIP3   OH220288   8.144   1.956   6.895
 6804TIP3    H120289   8.174   1.874   6.857
 6804TIP3    H220290   8.160   1.947   6.989
 6805TIP3   OH220291   3.023   7.578   7.285
 6805TIP3    H120292   2.942   7.526   7.286
 6805TIP3    H220293   3.091   7.517   7.316
 6806TIP3   OH220294   0.265   3.214   1.724
 6806TIP3    H120295   0.194   3.276   1.740
 6806TIP3    H220296   0.319   3.218   1.803
 6807TIP3   OH220297   0.875   8.739   3.502
 6807TIP3    H120298   0.905   8.791   3.577
 6807TIP3    H220299   0.779   8.749   3.503
 6808TIP3   OH220300   7.522   5.198   6.565
 6808TIP3    H120301   7.536   5.245   6.483
 6808TIP3    H220302   7.503   5.108   6.538
 6809TIP3   OH220303   0.831   0.020   0.916
 6809TIP3    H120304   0.885  -0.041   0.966
 6809TIP3    H220305   0.867   0.017   0.828
 6810TIP3   OH220306   2.833   7.800   1.197
 6810TIP3    H120307   2.813   7.707   1.185
 6810TIP3    H220308   2.929   7.803   1.201
 6811TIP3   OH220309   0.695   7.938   6.158
 6811TIP3    H120310   0.678   7.894   6.241
 6811TIP3    H220311   0.691   7.869   6.093
 6812TIP3   OH220312   2.780   1.580   1.804
 6812TIP3    H120313   2.808   1.648   1.865
 6812TIP3    H220314   2.686   1.596   1.793
 6813TIP3   OH220315   7.883   5.138   0.085
 6813TIP3    H120316   7.970   5.155   0.122
 6813TIP3    H220317   7.855   5.222   0.051
 6814TIP3   OH220318   8.410   6.941   3.955
 6814TIP3    H120319   8.464   6.936   4.034
 6814TIP3    H220320   8.395   7.034   3.941
 6815TIP3   OH220321   3.562   4.441   2.529
 6815TIP3    H120322   3.540   4.456   2.437
 6815TIP3    H220323   3.653   4.411   2.527
 6816TIP3   OH220324   1.462   0.571   7.521
 6816TIP3    H120325   1.483   0.644   7.579
 6816TIP3    H220326   1.530   0.506   7.539
 6817TIP3   OH220327   4.876   1.622   4.123
 6817TIP3    H120328   4.798   1.587   4.079
 6817TIP3    H220329   4.919   1.676   4.057
 6818TIP3   OH220330   9.364   2.241   2.873
 6818TIP3    H120331   9.304   2.190   2.818
 6818TIP3    H220332   9.321   2.245   2.958
 6819TIP3   OH220333   2.762   4.698   2.403
 6819TIP3    H120334   2.756   4.608   2.435
 6819TIP3    H220335   2.839   4.699   2.347
 6820TIP3   OH220336   0.878   4.724   0.994
 6820TIP3    H120337   0.880   4.815   0.965
 6820TIP3    H220338   0.957   4.685   0.957
 6821TIP3   OH220339   0.459   7.770   1.845
 6821TIP3    H120340   0.428   7.778   1.754
 6821TIP3    H220341   0.519   7.843   1.857
 6822TIP3   OH220342   2.036   2.069   3.327
 6822TIP3    H120343   2.024   2.147   3.382
 6822TIP3    H220344   2.099   2.096   3.260
 6823TIP3   OH220345   4.572   2.655   4.871
 6823TIP3    H120346   4.552   2.745   4.895
 6823TIP3    H220347   4.495   2.625   4.822
 6824TIP3   OH220348   2.459   0.406   1.114
 6824TIP3    H120349   2.512   0.385   1.191
 6824TIP3    H220350   2.404   0.329   1.101
 6825TIP3   OH220351   4.455   2.610   4.073
 6825TIP3    H120352   4.412   2.695   4.085
 6825TIP3    H220353   4.505   2.620   3.991
 6826TIP3   OH220354   4.436   8.266   7.304
 6826TIP3    H120355   4.496   8.192   7.292
 6826TIP3    H220356   4.351   8.225   7.321
 6827TIP3   OH220357   5.871   7.006   2.559
 6827TIP3    H120358   5.788   6.971   2.591
 6827TIP3    H220359   5.922   6.929   2.535
 6828TIP3   OH220360   4.795   0.670   3.157
 6828TIP3    H120361   4.805   0.760   3.189
 6828TIP3    H220362   4.842   0.617   3.221
 6829TIP3   OH220363   7.795   4.336   0.646
 6829TIP3    H120364   7.851   4.374   0.579
 6829TIP3    H220365   7.712   4.384   0.638
 6830TIP3   OH220366   5.567   0.382   1.592
 6830TIP3    H120367   5.489   0.385   1.537
 6830TIP3    H220368   5.639   0.365   1.532
 6831TIP3   OH220369   2.021   7.136   0.223
 6831TIP3    H120370   2.009   7.209   0.162
 6831TIP3    H220371   1.949   7.076   0.203
 6832TIP3   OH220372   1.558   7.041   4.036
 6832TIP3    H120373   1.508   7.045   4.117
 6832TIP3    H220374   1.553   7.130   4.000
 6833TIP3   OH220375   7.191   1.016   5.169
 6833TIP3    H120376   7.247   0.968   5.231
 6833TIP3    H220377   7.203   0.970   5.086
 6834TIP3   OH220378   6.098   7.971   1.231
 6834TIP3    H120379   6.026   7.997   1.289
 6834TIP3    H220380   6.086   7.877   1.219
 6835TIP3   OH220381   3.567   4.811   0.343
 6835TIP3    H120382   3.608   4.747   0.285
 6835TIP3    H220383   3.475   4.809   0.319
 6836TIP3   OH220384   0.571   5.760   2.640
 6836TIP3    H120385   0.514   5.836   2.630
 6836TIP3    H220386   0.591   5.732   2.550
 6837TIP3   OH220387   8.140   5.501   6.565
 6837TIP3    H120388   8.071   5.472   6.625
 6837TIP3    H220389   8.221   5.493   6.615
 6838TIP3   OH220390   7.420   5.271   3.431
 6838TIP3    H120391   7.473   5.332   3.379
 6838TIP3    H220392   7.381   5.213   3.366
 6839TIP3   OH220393   3.803   6.352   3.273
 6839TIP3    H120394   3.770   6.356   3.183
 6839TIP3    H220395   3.744   6.291   3.317
 6840TIP3   OH220396   5.041   7.742   4.782
 6840TIP3    H120397   5.080   7.812   4.833
 6840TIP3    H220398   4.974   7.785   4.729
 6841TIP3   OH220399   9.251   6.372   4.966
 6841TIP3    H120400   9.300   6.424   4.902
 6841TIP3    H220401   9.318   6.338   5.026
 6842TIP3   OH220402   1.769   8.319   2.606
 6842TIP3    H120403   1.680   8.287   2.616
 6842TIP3    H220404   1.806   8.268   2.534
 6843TIP3   OH220405   2.678   0.477   1.954
 6843TIP3    H120406   2.607   0.421   1.983
 6843TIP3    H220407   2.675   0.552   2.013
 6844TIP3   OH220408   8.264   3.297   0.901
 6844TIP3    H120409   8.238   3.383   0.932
 6844TIP3    H220410   8.265   3.305   0.805
 6845TIP3   OH220411   4.355   1.996   3.833
 6845TIP3    H120412   4.349   2.080   3.879
 6845TIP3    H220413   4.399   2.017   3.751
 6846TIP3   OH220414   7.481   5.132   1.940
 6846TIP3    H120415   7.467   5.202   1.877
 6846TIP3    H220416   7.400   5.081   1.939
 6847TIP3   OH220417   4.264   0.105   0.907
 6847TIP3    H120418   4.258   0.158   0.987
 6847TIP3    H220419   4.260   0.169   0.835
 6848TIP3   OH220420   6.802   7.787   2.071
 6848TIP3    H120421   6.715   7.825   2.061
 6848TIP3    H220422   6.792   7.695   2.047
 6849TIP3   OH220423   5.056   5.012   6.455
 6849TIP3    H120424   5.038   4.938   6.513
 6849TIP3    H220425   4.983   5.072   6.469
 6850TIP3   OH220426   0.519   1.432   5.679
 6850TIP3    H120427   0.435   1.441   5.635
 6850TIP3    H220428   0.556   1.520   5.680
 6851TIP3   OH220429   4.774   7.504   0.719
 6851TIP3    H120430   4.798   7.588   0.757
 6851TIP3    H220431   4.838   7.442   0.754
 6852TIP3   OH220432   1.225   1.648   6.479
 6852TIP3    H120433   1.199   1.563   6.516
 6852TIP3    H220434   1.190   1.712   6.540
 6853TIP3   OH220435   3.174   6.194   0.034
 6853TIP3    H120436   3.102   6.175  -0.027
 6853TIP3    H220437   3.253   6.173  -0.016
 6854TIP3   OH220438   4.185   3.091   5.753
 6854TIP3    H120439   4.178   3.069   5.660
 6854TIP3    H220440   4.141   3.020   5.798
 6855TIP3   OH220441   7.067   8.822   3.816
 6855TIP3    H120442   7.040   8.867   3.736
 6855TIP3    H220443   6.986   8.809   3.865
 6856TIP3   OH220444   5.704   6.595   0.340
 6856TIP3    H120445   5.699   6.622   0.431
 6856TIP3    H220446   5.775   6.530   0.338
 6857TIP3   OH220447   3.470   3.357   7.069
 6857TIP3    H120448   3.447   3.372   7.160
 6857TIP3    H220449   3.386   3.347   7.024
 6858TIP3   OH220450   6.650   5.343   0.359
 6858TIP3    H120451   6.588   5.296   0.415
 6858TIP3    H220452   6.736   5.309   0.385
 6859TIP3   OH220453   7.305   6.318   5.619
 6859TIP3    H120454   7.318   6.224   5.609
 6859TIP3    H220455   7.393   6.352   5.639
 6860TIP3   OH220456   9.270   6.056   6.246
 6860TIP3    H120457   9.218   6.063   6.326
 6860TIP3    H220458   9.343   5.999   6.269
 6861TIP3   OH220459   1.588   6.699   6.634
 6861TIP3    H120460   1.518   6.756   6.664
 6861TIP3    H220461   1.544   6.634   6.578
 6862TIP3   OH220462   7.043   3.763   2.927
 6862TIP3    H120463   7.046   3.858   2.922
 6862TIP3    H220464   6.951   3.741   2.912
 6863TIP3   OH220465   6.944   7.962   2.213
 6863TIP3    H120466   6.883   8.031   2.238
 6863TIP3    H220467   6.891   7.901   2.160
 6864TIP3   OH220468   4.924   8.029   0.328
 6864TIP3    H120469   5.013   8.058   0.304
 6864TIP3    H220470   4.937   7.941   0.364
 6865TIP3   OH220471   5.079   0.038   5.137
 6865TIP3    H120472   5.129   0.119   5.126
 6865TIP3    H220473   4.987   0.066   5.135
 6866TIP3   OH220474   6.989   8.572   3.349
 6866TIP3    H120475   7.036   8.507   3.401
 6866TIP3    H220476   7.054   8.605   3.287
 6867TIP3   OH220477   7.211   4.471   3.530
 6867TIP3    H120478   7.169   4.398   3.486
 6867TIP3    H220479   7.180   4.549   3.483
 6868TIP3   OH220480   9.237   0.437   2.604
 6868TIP3    H120481   9.157   0.487   2.591
 6868TIP3    H220482   9.226   0.395   2.690
 6869TIP3   OH220483   7.163   8.399   0.390
 6869TIP3    H120484   7.123   8.468   0.443
 6869TIP3    H220485   7.256   8.406   0.409
 6870TIP3   OH220486   3.887   8.443   1.725
 6870TIP3    H120487   3.915   8.514   1.668
 6870TIP3    H220488   3.913   8.471   1.813
 6871TIP3   OH220489   5.562   3.059   4.167
 6871TIP3    H120490   5.634   2.996   4.178
 6871TIP3    H220491   5.605   3.144   4.165
 6872TIP3   OH220492   3.725   8.413   5.183
 6872TIP3    H120493   3.665   8.339   5.175
 6872TIP3    H220494   3.811   8.375   5.164
 6873TIP3   OH220495   9.512   8.814   0.892
 6873TIP3    H120496   9.485   8.836   0.981
 6873TIP3    H220497   9.431   8.790   0.847
 6874TIP3   OH220498   2.885   0.233   6.892
 6874TIP3    H120499   2.866   0.203   6.803
 6874TIP3    H220500   2.955   0.297   6.881
 6875TIP3   OH220501   3.190   2.609   3.344
 6875TIP3    H120502   3.194   2.620   3.439
 6875TIP3    H220503   3.208   2.696   3.309
 6876TIP3   OH220504   3.305   3.342   6.244
 6876TIP3    H120505   3.343   3.254   6.246
 6876TIP3    H220506   3.379   3.400   6.227
 6877TIP3   OH220507   5.318   0.191   6.730
 6877TIP3    H120508   5.391   0.252   6.742
 6877TIP3    H220509   5.265   0.230   6.661
 6878TIP3   OH220510   4.008   7.283   1.050
 6878TIP3    H120511   4.053   7.282   1.134
 6878TIP3    H220512   4.076   7.262   0.986
 6879TIP3   OH220513   3.877   0.995   4.001
 6879TIP3    H120514   3.831   0.938   3.940
 6879TIP3    H220515   3.817   1.068   4.017
 6880TIP3   OH220516   8.017   1.488   5.385
 6880TIP3    H120517   8.070   1.549   5.334
 6880TIP3    H220518   7.961   1.445   5.320
 6881TIP3   OH220519   0.817   4.186   7.247
 6881TIP3    H120520   0.905   4.208   7.276
 6881TIP3    H220521   0.823   4.095   7.216
 6882TIP3   OH220522   4.685   1.208   6.929
 6882TIP3    H120523   4.589   1.212   6.930
 6882TIP3    H220524   4.712   1.288   6.974
 6883TIP3   OH220525   5.559   0.337   6.754
 6883TIP3    H120526   5.588   0.313   6.842
 6883TIP3    H220527   5.638   0.337   6.701
 6884TIP3   OH220528   7.267   4.268   6.864
 6884TIP3    H120529   7.299   4.216   6.938
 6884TIP3    H220530   7.176   4.241   6.853
 6885TIP3   OH220531   5.811   4.832   4.808
 6885TIP3    H120532   5.821   4.771   4.735
 6885TIP3    H220533   5.897   4.872   4.818
 6886TIP3   OH220534   6.624   3.007   0.705
 6886TIP3    H120535   6.708   2.972   0.675
 6886TIP3    H220536   6.566   2.931   0.706
 6887TIP3   OH220537   4.753   3.648   3.953
 6887TIP3    H120538   4.838   3.658   3.995
 6887TIP3    H220539   4.750   3.557   3.924
 6888TIP3   OH220540   7.425   0.518   7.417
 6888TIP3    H120541   7.509   0.532   7.373
 6888TIP3    H220542   7.443   0.448   7.480
 6889TIP3   OH220543   5.546   1.287   4.644
 6889TIP3    H120544   5.525   1.271   4.552
 6889TIP3    H220545   5.477   1.241   4.693
 6890TIP3   OH220546   6.242   2.178   1.634
 6890TIP3    H120547   6.232   2.114   1.564
 6890TIP3    H220548   6.332   2.165   1.666
 6891TIP3   OH220549   1.502   4.899   5.220
 6891TIP3    H120550   1.430   4.956   5.193
 6891TIP3    H220551   1.566   4.959   5.260
 6892TIP3   OH220552   2.954   6.786   2.699
 6892TIP3    H120553   2.974   6.696   2.724
 6892TIP3    H220554   3.039   6.825   2.679
 6893TIP3   OH220555   8.512   7.802   7.316
 6893TIP3    H120556   8.431   7.779   7.269
 6893TIP3    H220557   8.557   7.719   7.327
 6894TIP3   OH220558   0.675   7.117   1.745
 6894TIP3    H120559   0.662   7.112   1.840
 6894TIP3    H220560   0.695   7.209   1.728
 6895TIP3   OH220561   2.455   7.887   3.261
 6895TIP3    H120562   2.477   7.909   3.170
 6895TIP3    H220563   2.437   7.971   3.302
 6896TIP3   OH220564   8.728   7.762   2.207
 6896TIP3    H120565   8.731   7.679   2.160
 6896TIP3    H220566   8.810   7.766   2.256
 6897TIP3   OH220567   5.193   8.069   2.458
 6897TIP3    H120568   5.216   8.010   2.386
 6897TIP3    H220569   5.152   8.145   2.414
 6898TIP3   OH220570   0.431   4.193   0.853
 6898TIP3    H120571   0.419   4.287   0.840
 6898TIP3    H220572   0.404   4.178   0.944
 6899TIP3   OH220573   4.567   8.945   1.397
 6899TIP3    H120574   4.593   8.965   1.307
 6899TIP3    H220575   4.473   8.930   1.392
 6900TIP3   OH220576   8.373   2.779   6.929
 6900TIP3    H120577   8.385   2.816   6.841
 6900TIP3    H220578   8.329   2.848   6.978
 6901TIP3   OH220579   1.194   8.251   1.203
 6901TIP3    H120580   1.142   8.198   1.264
 6901TIP3    H220581   1.207   8.334   1.249
 6902TIP3   OH220582   0.429   7.655   3.972
 6902TIP3    H120583   0.358   7.615   3.923
 6902TIP3    H220584   0.421   7.748   3.956
 6903TIP3   OH220585   4.455   2.700   5.277
 6903TIP3    H120586   4.384   2.693   5.213
 6903TIP3    H220587   4.535   2.688   5.226
 6904TIP3   OH220588   2.093   1.674   1.787
 6904TIP3    H120589   2.019   1.616   1.803
 6904TIP3    H220590   2.066   1.759   1.823
 6905TIP3   OH220591   6.788   8.136   6.073
 6905TIP3    H120592   6.871   8.089   6.068
 6905TIP3    H220593   6.813   8.228   6.078
 6906TIP3   OH220594   2.024   3.909   6.556
 6906TIP3    H120595   2.120   3.903   6.564
 6906TIP3    H220596   2.005   4.001   6.575
 6907TIP3   OH220597   5.111   1.838   6.949
 6907TIP3    H120598   5.087   1.914   7.003
 6907TIP3    H220599   5.194   1.863   6.909
 6908TIP3   OH220600   8.117   6.903   0.237
 6908TIP3    H120601   8.058   6.889   0.311
 6908TIP3    H220602   8.144   6.994   0.246
 6909TIP3   OH220603   0.994   1.349   1.647
 6909TIP3    H120604   0.999   1.327   1.554
 6909TIP3    H220605   1.061   1.415   1.660
 6910TIP3   OH220606   8.792   4.638   0.386
 6910TIP3    H120607   8.784   4.558   0.335
 6910TIP3    H220608   8.762   4.614   0.474
 6911TIP3   OH220609   3.252   7.888   4.662
 6911TIP3    H120610   3.160   7.913   4.668
 6911TIP3    H220611   3.288   7.908   4.749
 6912TIP3   OH220612   3.062   8.634   0.837
 6912TIP3    H120613   3.014   8.716   0.843
 6912TIP3    H220614   3.147   8.658   0.800
 6913TIP3   OH220615   3.141   7.463   2.124
 6913TIP3    H120616   3.149   7.371   2.099
 6913TIP3    H220617   3.053   7.488   2.096
 6914TIP3   OH220618   9.241   4.766   5.487
 6914TIP3    H120619   9.225   4.860   5.493
 6914TIP3    H220620   9.304   4.748   5.557
 6915TIP3   OH220621   5.116   3.474   0.284
 6915TIP3    H120622   5.051   3.505   0.347
 6915TIP3    H220623   5.106   3.532   0.209
 6916TIP3   OH220624   9.343   4.697   6.160
 6916TIP3    H120625   9.259   4.686   6.115
 6916TIP3    H220626   9.406   4.714   6.089
 6917TIP3   OH220627   2.949   6.784   3.775
 6917TIP3    H120628   2.999   6.702   3.777
 6917TIP3    H220629   2.877   6.769   3.836
 6918TIP3   OH220630   6.782   8.824   5.609
 6918TIP3    H120631   6.875   8.811   5.628
 6918TIP3    H220632   6.772   8.796   5.518
 6919TIP3   OH220633   1.619   1.924   7.394
 6919TIP3    H120634   1.600   1.997   7.335
 6919TIP3    H220635   1.563   1.853   7.363
 6920TIP3   OH220636   8.910   7.243   6.084
 6920TIP3    H120637   8.991   7.192   6.079
 6920TIP3    H220638   8.874   7.239   5.995
 6921TIP3   OH220639   3.044   0.487   5.095
 6921TIP3    H120640   3.041   0.425   5.167
 6921TIP3    H220641   3.111   0.551   5.120
 6922TIP3   OH220642   9.375   1.277   6.435
 6922TIP3    H120643   9.309   1.298   6.369
 6922TIP3    H220644   9.328   1.225   6.500
 6923TIP3   OH220645   5.166   3.211   7.284
 6923TIP3    H120646   5.188   3.122   7.312
 6923TIP3    H220647   5.121   3.249   7.360
 6924TIP3   OH220648   6.312   3.446   6.978
 6924TIP3    H120649   6.323   3.411   6.889
 6924TIP3    H220650   6.381   3.404   7.029
 6925TIP3   OH220651   8.494   5.672   6.330
 6925TIP3    H120652   8.478   5.733   6.258
 6925TIP3    H220653   8.418   5.614   6.329
 6926TIP3   OH220654   3.516   6.579   6.781
 6926TIP3    H120655   3.522   6.672   6.805
 6926TIP3    H220656   3.602   6.559   6.744
 6927TIP3   OH220657   9.548   5.346   1.689
 6927TIP3    H120658   9.575   5.280   1.625
 6927TIP3    H220659   9.456   5.327   1.706
 6928TIP3   OH220660   0.681   2.923   4.336
 6928TIP3    H120661   0.674   2.856   4.404
 6928TIP3    H220662   0.758   2.898   4.285
 6929TIP3   OH220663   5.993   7.978   2.289
 6929TIP3    H120664   6.085   7.959   2.271
 6929TIP3    H220665   5.946   7.907   2.246
 6930TIP3   OH220666   9.245   8.783   2.330
 6930TIP3    H120667   9.321   8.832   2.361
 6930TIP3    H220668   9.206   8.837   2.262
 6931TIP3   OH220669   1.383   3.934   3.346
 6931TIP3    H120670   1.294   3.962   3.326
 6931TIP3    H220671   1.403   3.975   3.430
 6932TIP3   OH220672   8.927   5.335   0.371
 6932TIP3    H120673   8.931   5.255   0.318
 6932TIP3    H220674   8.997   5.325   0.435
 6933TIP3   OH220675   0.878   7.043   5.744
 6933TIP3    H120676   0.865   7.110   5.810
 6933TIP3    H220677   0.817   6.973   5.768
 6934TIP3   OH220678   2.437   5.117   0.728
 6934TIP3    H120679   2.531   5.128   0.744
 6934TIP3    H220680   2.401   5.098   0.815
 6935TIP3   OH220681   6.214   1.981   1.039
 6935TIP3    H120682   6.123   2.011   1.048
 6935TIP3    H220683   6.250   2.036   0.970
 6936TIP3   OH220684   2.813   5.907   3.367
 6936TIP3    H120685   2.774   5.990   3.338
 6936TIP3    H220686   2.876   5.885   3.298
 6937TIP3   OH220687   3.943   3.736   7.326
 6937TIP3    H120688   3.859   3.715   7.285
 6937TIP3    H220689   3.929   3.720   7.419
 6938TIP3   OH220690   7.289   3.516   6.059
 6938TIP3    H120691   7.371   3.483   6.096
 6938TIP3    H220692   7.315   3.563   5.980
 6939TIP3   OH220693   4.577   8.773   3.310
 6939TIP3    H120694   4.563   8.685   3.344
 6939TIP3    H220695   4.493   8.798   3.272
 6940TIP3   OH220696   3.010   5.185   0.857
 6940TIP3    H120697   3.079   5.129   0.893
 6940TIP3    H220698   3.048   5.222   0.778
 6941TIP3   OH220699   8.979   7.180   0.847
 6941TIP3    H120700   8.935   7.223   0.773
 6941TIP3    H220701   8.933   7.097   0.857
 6942TIP3   OH220702   4.174   6.825   7.654
 6942TIP3    H120703   4.237   6.880   7.700
 6942TIP3    H220704   4.206   6.736   7.666
 6943TIP3   OH220705   7.152   6.970   2.390
 6943TIP3    H120706   7.059   6.948   2.386
 6943TIP3    H220707   7.193   6.914   2.325
 6944TIP3   OH220708   0.599   4.001   4.365
 6944TIP3    H120709   0.511   4.009   4.328
 6944TIP3    H220710   0.645   3.943   4.305
 6945TIP3   OH220711   1.623   8.276   7.187
 6945TIP3    H120712   1.630   8.370   7.202
 6945TIP3    H220713   1.705   8.240   7.222
 6946TIP3   OH220714   0.514   3.328   4.750
 6946TIP3    H120715   0.475   3.266   4.812
 6946TIP3    H220716   0.440   3.358   4.697
 6947TIP3   OH220717   9.033   8.769   7.520
 6947TIP3    H120718   8.983   8.850   7.521
 6947TIP3    H220719   9.121   8.795   7.491
 6948TIP3   OH220720   7.787   3.941   6.231
 6948TIP3    H120721   7.798   3.980   6.144
 6948TIP3    H220722   7.728   4.001   6.277
 6949TIP3   OH220723   3.072   1.224   6.968
 6949TIP3    H120724   3.157   1.229   7.011
 6949TIP3    H220725   3.078   1.287   6.896
 6950TIP3   OH220726   5.094   2.544   3.816
 6950TIP3    H120727   5.061   2.561   3.905
 6950TIP3    H220728   5.094   2.630   3.774
 6951TIP3   OH220729   6.558   1.399   5.976
 6951TIP3    H120730   6.570   1.329   5.911
 6951TIP3    H220731   6.623   1.380   6.044
 6952TIP3   OH220732   3.835   6.305   6.860
 6952TIP3    H120733   3.826   6.394   6.895
 6952TIP3    H220734   3.917   6.273   6.899
 6953TIP3   OH220735   2.640   4.826   0.083
 6953TIP3    H120736   2.606   4.901   0.131
 6953TIP3    H220737   2.634   4.753   0.144
 6954TIP3   OH220738   2.541   6.380   0.021
 6954TIP3    H120739   2.446   6.381   0.035
 6954TIP3    H220740   2.575   6.441   0.086
 6955TIP3   OH220741   8.622   6.995   5.251
 6955TIP3    H120742   8.648   7.057   5.182
 6955TIP3    H220743   8.691   6.929   5.251
 6956TIP3   OH220744   1.783   2.246   5.621
 6956TIP3    H120745   1.730   2.270   5.545
 6956TIP3    H220746   1.761   2.310   5.688
 6957TIP3   OH220747   5.731   4.076   4.955
 6957TIP3    H120748   5.691   4.058   4.870
 6957TIP3    H220749   5.698   4.006   5.012
 6958TIP3   OH220750   9.070   3.169   0.418
 6958TIP3    H120751   9.044   3.151   0.509
 6958TIP3    H220752   9.151   3.120   0.406
 6959TIP3   OH220753   0.842   0.175   3.828
 6959TIP3    H120754   0.932   0.146   3.838
 6959TIP3    H220755   0.845   0.270   3.841
 6960TIP3   OH220756   6.204   0.450   1.114
 6960TIP3    H120757   6.297   0.472   1.122
 6960TIP3    H220758   6.192   0.373   1.170
 6961TIP3   OH220759   4.713   8.788   2.247
 6961TIP3    H120760   4.685   8.875   2.220
 6961TIP3    H220761   4.737   8.798   2.340
 6962TIP3   OH220762   3.570   8.992   6.921
 6962TIP3    H120763   3.543   9.083   6.915
 6962TIP3    H220764   3.649   8.994   6.976
 6963TIP3   OH220765   3.408   5.205   6.238
 6963TIP3    H120766   3.358   5.278   6.276
 6963TIP3    H220767   3.363   5.127   6.269
 6964TIP3   OH220768   6.936   4.937   0.329
 6964TIP3    H120769   6.849   4.976   0.338
 6964TIP3    H220770   6.980   4.991   0.264
 6965TIP3   OH220771   5.339   1.782   7.710
 6965TIP3    H120772   5.305   1.764   7.623
 6965TIP3    H220773   5.278   1.845   7.748
 6966TIP3   OH220774   8.119   8.924   0.136
 6966TIP3    H120775   8.080   8.985   0.200
 6966TIP3    H220776   8.127   8.842   0.184
 6967TIP3   OH220777   8.617   4.668   0.791
 6967TIP3    H120778   8.608   4.622   0.707
 6967TIP3    H220779   8.526   4.686   0.817
 6968TIP3   OH220780   3.586   4.031   2.352
 6968TIP3    H120781   3.508   4.042   2.297
 6968TIP3    H220782   3.653   4.084   2.310
 6969TIP3   OH220783   0.299   6.283   6.867
 6969TIP3    H120784   0.267   6.355   6.922
 6969TIP3    H220785   0.360   6.324   6.806
 6970TIP3   OH220786   0.245   9.017   1.926
 6970TIP3    H120787   0.194   9.093   1.952
 6970TIP3    H220788   0.212   8.945   1.980
 6971TIP3   OH220789   8.303   7.050   1.529
 6971TIP3    H120790   8.287   7.081   1.440
 6971TIP3    H220791   8.243   6.976   1.539
 6972TIP3   OH220792   0.161   1.570   6.402
 6972TIP3    H120793   0.203   1.650   6.372
 6972TIP3    H220794   0.224   1.530   6.462
 6973TIP3   OH220795   1.977   1.930   6.913
 6973TIP3    H120796   1.951   1.975   6.993
 6973TIP3    H220797   2.021   1.850   6.943
 6974TIP3   OH220798   6.760   0.083   4.788
 6974TIP3    H120799   6.810   0.021   4.734
 6974TIP3    H220800   6.727   0.148   4.725
 6975TIP3   OH220801   7.154   8.430   3.522
 6975TIP3    H120802   7.145   8.407   3.614
 6975TIP3    H220803   7.244   8.463   3.515
 6976TIP3   OH220804   3.173   2.604   1.885
 6976TIP3    H120805   3.223   2.525   1.863
 6976TIP3    H220806   3.083   2.582   1.861
 6977TIP3   OH220807   8.384   7.292   5.841
 6977TIP3    H120808   8.372   7.318   5.749
 6977TIP3    H220809   8.408   7.200   5.837
 6978TIP3   OH220810   1.365   6.979   3.513
 6978TIP3    H120811   1.321   7.044   3.568
 6978TIP3    H220812   1.321   6.984   3.429
 6979TIP3   OH220813   3.597   4.114   1.102
 6979TIP3    H120814   3.667   4.053   1.124
 6979TIP3    H220815   3.580   4.161   1.184
 6980TIP3   OH220816   2.256   0.423   1.500
 6980TIP3    H120817   2.243   0.385   1.587
 6980TIP3    H220818   2.348   0.448   1.498
 6981TIP3   OH220819   1.324   2.058   1.517
 6981TIP3    H120820   1.244   2.007   1.533
 6981TIP3    H220821   1.305   2.109   1.438
 6982TIP3   OH220822   3.900   4.850   3.578
 6982TIP3    H120823   3.842   4.883   3.646
 6982TIP3    H220824   3.898   4.755   3.589
 6983TIP3   OH220825   4.877   0.509   0.131
 6983TIP3    H120826   4.957   0.457   0.123
 6983TIP3    H220827   4.880   0.544   0.220
 6984TIP3   OH220828   0.350   2.569   5.485
 6984TIP3    H120829   0.436   2.560   5.442
 6984TIP3    H220830   0.370   2.572   5.578
 6985TIP3   OH220831   3.147   5.394   3.442
 6985TIP3    H120832   3.069   5.443   3.416
 6985TIP3    H220833   3.113   5.323   3.496
 6986TIP3   OH220834   1.552   1.645   5.554
 6986TIP3    H120835   1.611   1.580   5.515
 6986TIP3    H220836   1.480   1.594   5.590
 6987TIP3   OH220837   0.893   0.134   6.281
 6987TIP3    H120838   0.875   0.199   6.213
 6987TIP3    H220839   0.838   0.161   6.355
 6988TIP3   OH220840   3.199   7.861   1.482
 6988TIP3    H120841   3.236   7.783   1.441
 6988TIP3    H220842   3.272   7.922   1.489
 6989TIP3   OH220843   7.366   5.999   4.604
 6989TIP3    H120844   7.431   5.929   4.612
 6989TIP3    H220845   7.283   5.957   4.625
 6990TIP3   OH220846   7.606   7.387   6.887
 6990TIP3    H120847   7.673   7.362   6.823
 6990TIP3    H220848   7.594   7.309   6.941
 6991TIP3   OH220849   7.765   6.411   4.949
 6991TIP3    H120850   7.800   6.367   4.872
 6991TIP3    H220851   7.806   6.367   5.023
 6992TIP3   OH220852   0.172   7.184   0.951
 6992TIP3    H120853   0.127   7.106   0.983
 6992TIP3    H220854   0.114   7.219   0.884
 6993TIP3   OH220855   6.819   1.906   6.483
 6993TIP3    H120856   6.837   1.862   6.400
 6993TIP3    H220857   6.837   1.998   6.466
 6994TIP3   OH220858   1.691   7.247   6.160
 6994TIP3    H120859   1.743   7.195   6.098
 6994TIP3    H220860   1.756   7.290   6.216
 6995TIP3   OH220861   3.401   8.450   7.370
 6995TIP3    H120862   3.382   8.544   7.378
 6995TIP3    H220863   3.398   8.417   7.460
 6996TIP3   OH220864   8.772   1.398   5.022
 6996TIP3    H120865   8.814   1.330   5.075
 6996TIP3    H220866   8.729   1.351   4.951
 6997TIP3   OH220867   9.036   3.142   1.725
 6997TIP3    H120868   8.951   3.182   1.707
 6997TIP3    H220869   9.032   3.118   1.818
 6998TIP3   OH220870   4.113   2.709   5.744
 6998TIP3    H120871   4.128   2.767   5.670
 6998TIP3    H220872   4.131   2.763   5.821
 6999TIP3   OH220873   7.465   7.607   7.295
 6999TIP3    H120874   7.413   7.535   7.331
 6999TIP3    H220875   7.539   7.564   7.252
 7000TIP3   OH220876   5.475   6.521   6.349
 7000TIP3    H120877   5.479   6.616   6.363
 7000TIP3    H220878   5.499   6.510   6.257
 7001TIP3   OH220879   6.979   0.356   5.359
 7001TIP3    H120880   6.947   0.304   5.285
 7001TIP3    H220881   6.975   0.297   5.434
 7002TIP3   OH220882   9.180   1.313   2.646
 7002TIP3    H120883   9.099   1.263   2.643
 7002TIP3    H220884   9.241   1.263   2.593
 7003TIP3   OH220885   0.652   0.116   4.210
 7003TIP3    H120886   0.670   0.055   4.138
 7003TIP3    H220887   0.739   0.135   4.246
 7004TIP3   OH220888   4.354   1.654   2.678
 7004TIP3    H120889   4.450   1.649   2.674
 7004TIP3    H220890   4.331   1.723   2.615
 7005TIP3   OH220891   1.777   1.889   3.718
 7005TIP3    H120892   1.772   1.813   3.659
 7005TIP3    H220893   1.781   1.965   3.660
 7006TIP3   OH220894   4.819   2.701   7.611
 7006TIP3    H120895   4.728   2.723   7.634
 7006TIP3    H220896   4.869   2.779   7.634
 7007TIP3   OH220897   6.679   1.988   4.913
 7007TIP3    H120898   6.723   2.029   4.839
 7007TIP3    H220899   6.608   1.937   4.874
 7008TIP3   OH220900   5.471   2.970   4.528
 7008TIP3    H120901   5.522   3.043   4.564
 7008TIP3    H220902   5.513   2.892   4.564
 7009TIP3   OH220903   6.355   0.494   3.793
 7009TIP3    H120904   6.296   0.566   3.773
 7009TIP3    H220905   6.377   0.506   3.885
 7010TIP3   OH220906   5.226   4.419   3.440
 7010TIP3    H120907   5.202   4.343   3.386
 7010TIP3    H220908   5.279   4.473   3.381
 7011TIP3   OH220909   1.886   8.964   1.946
 7011TIP3    H120910   1.855   9.055   1.951
 7011TIP3    H220911   1.957   8.967   1.882
 7012TIP3   OH220912   3.493   8.631   5.335
 7012TIP3    H120913   3.581   8.595   5.326
 7012TIP3    H220914   3.473   8.669   5.250
 7013TIP3   OH220915   2.571   2.917   3.764
 7013TIP3    H120916   2.590   2.827   3.791
 7013TIP3    H220917   2.628   2.971   3.818
 7014TIP3   OH220918   9.498   6.449   2.811
 7014TIP3    H120919   9.541   6.367   2.789
 7014TIP3    H220920   9.497   6.499   2.730
 7015TIP3   OH220921   9.043   7.255   4.075
 7015TIP3    H120922   9.096   7.327   4.040
 7015TIP3    H220923   9.064   7.255   4.169
 7016TIP3   OH220924   4.010   1.718   4.080
 7016TIP3    H120925   4.091   1.746   4.036
 7016TIP3    H220926   3.951   1.792   4.070
 7017TIP3   OH220927   4.199   7.341   4.204
 7017TIP3    H120928   4.127   7.346   4.267
 7017TIP3    H220929   4.248   7.422   4.217
 7018TIP3   OH220930   2.346   8.234   6.571
 7018TIP3    H120931   2.358   8.292   6.645
 7018TIP3    H220932   2.432   8.232   6.528
 7019TIP3   OH220933   4.424   2.304   3.996
 7019TIP3    H120934   4.443   2.389   4.036
 7019TIP3    H220935   4.362   2.324   3.926
 7020TIP3   OH220936   4.689   5.534   1.895
 7020TIP3    H120937   4.688   5.576   1.981
 7020TIP3    H220938   4.597   5.529   1.870
 7021TIP3   OH220939   8.608   7.836   6.859
 7021TIP3    H120940   8.698   7.866   6.846
 7021TIP3    H220941   8.615   7.764   6.922
 7022TIP3   OH220942   7.386   8.518   2.369
 7022TIP3    H120943   7.422   8.567   2.295
 7022TIP3    H220944   7.364   8.432   2.332
 7023TIP3   OH220945   8.294   0.532   1.070
 7023TIP3    H120946   8.231   0.519   1.141
 7023TIP3    H220947   8.245   0.581   1.004
 7024TIP3   OH220948   5.750   0.612   7.327
 7024TIP3    H120949   5.725   0.564   7.406
 7024TIP3    H220950   5.747   0.704   7.352
 7025TIP3   OH220951   2.764   8.921   7.131
 7025TIP3    H120952   2.686   8.868   7.146
 7025TIP3    H220953   2.801   8.887   7.050
 7026TIP3   OH220954   7.508   1.725   5.012
 7026TIP3    H120955   7.504   1.637   5.049
 7026TIP3    H220956   7.427   1.734   4.961
 7027TIP3   OH220957   8.225   8.552   3.430
 7027TIP3    H120958   8.141   8.550   3.475
 7027TIP3    H220959   8.239   8.461   3.401
 7028TIP3   OH220960   8.455   1.771   3.479
 7028TIP3    H120961   8.409   1.840   3.432
 7028TIP3    H220962   8.387   1.709   3.505
 7029TIP3   OH220963   5.836   2.106   7.451
 7029TIP3    H120964   5.754   2.155   7.456
 7029TIP3    H220965   5.883   2.146   7.378
 7030TIP3   OH220966   7.715   2.024   1.405
 7030TIP3    H120967   7.702   1.972   1.484
 7030TIP3    H220968   7.809   2.042   1.403
 7031TIP3   OH220969   6.986   5.008   4.204
 7031TIP3    H120970   6.988   4.955   4.124
 7031TIP3    H220971   7.068   5.058   4.201
 7032TIP3   OH220972   3.817   5.102   6.219
 7032TIP3    H120973   3.909   5.129   6.216
 7032TIP3    H220974   3.775   5.154   6.151
 7033TIP3   OH220975   8.326   4.562   4.870
 7033TIP3    H120976   8.294   4.652   4.868
 7033TIP3    H220977   8.324   4.532   4.779
 7034TIP3   OH220978   7.652   4.268   0.937
 7034TIP3    H120979   7.619   4.199   0.879
 7034TIP3    H220980   7.574   4.317   0.963
 7035TIP3   OH220981   3.888   0.159   6.235
 7035TIP3    H120982   3.840   0.078   6.253
 7035TIP3    H220983   3.926   0.146   6.148
 7036TIP3   OH220984   1.521   3.778   2.479
 7036TIP3    H120985   1.444   3.730   2.507
 7036TIP3    H220986   1.502   3.869   2.502
 7037TIP3   OH220987   3.255   5.889   1.507
 7037TIP3    H120988   3.168   5.863   1.474
 7037TIP3    H220989   3.288   5.949   1.441
 7038TIP3   OH220990   1.321   8.688   7.624
 7038TIP3    H120991   1.242   8.688   7.678
 7038TIP3    H220992   1.319   8.603   7.579
 7039TIP3   OH220993   1.521   6.649   6.331
 7039TIP3    H120994   1.529   6.622   6.239
 7039TIP3    H220995   1.576   6.728   6.336
 7040TIP3   OH220996   2.747   0.971   1.995
 7040TIP3    H120997   2.803   1.016   2.058
 7040TIP3    H220998   2.789   0.985   1.910
 7041TIP3   OH220999   9.158   7.700   7.238
 7041TIP3    H121000   9.197   7.745   7.313
 7041TIP3    H221001   9.200   7.614   7.236
 7042TIP3   OH221002   7.981   7.063   3.553
 7042TIP3    H121003   8.011   7.146   3.517
 7042TIP3    H221004   7.915   7.087   3.618
 7043TIP3   OH221005   1.721   1.290   6.295
 7043TIP3    H121006   1.664   1.351   6.248
 7043TIP3    H221007   1.786   1.263   6.230
 7044TIP3   OH221008   3.864   4.291   2.541
 7044TIP3    H121009   3.823   4.277   2.626
 7044TIP3    H221010   3.958   4.284   2.558
 7045TIP3   OH221011   0.476   5.458   4.951
 7045TIP3    H121012   0.480   5.545   4.992
 7045TIP3    H221013   0.484   5.397   5.024
 7046TIP3   OH221014   3.793   3.105   0.607
 7046TIP3    H121015   3.855   3.154   0.662
 7046TIP3    H221016   3.719   3.086   0.665
 7047TIP3   OH221017   1.535   4.850   1.852
 7047TIP3    H121018   1.507   4.859   1.761
 7047TIP3    H221019   1.623   4.813   1.846
 7048TIP3   OH221020   2.034   7.988   2.632
 7048TIP3    H121021   1.969   7.934   2.587
 7048TIP3    H221022   2.118   7.951   2.605
 7049TIP3   OH221023   2.760   7.572   1.067
 7049TIP3    H121024   2.680   7.522   1.085
 7049TIP3    H221025   2.831   7.513   1.091
 7050TIP3   OH221026   4.558   4.457   5.888
 7050TIP3    H121027   4.532   4.426   5.975
 7050TIP3    H221028   4.645   4.495   5.901
 7051TIP3   OH221029   3.585   0.181   7.167
 7051TIP3    H121030   3.510   0.197   7.224
 7051TIP3    H221031   3.602   0.265   7.125
 7052TIP3   OH221032   0.846   8.559   5.780
 7052TIP3    H121033   0.927   8.609   5.790
 7052TIP3    H221034   0.800   8.571   5.863
 7053TIP3   OH221035   1.251   6.127   0.360
 7053TIP3    H121036   1.336   6.126   0.318
 7053TIP3    H221037   1.216   6.038   0.348
 7054TIP3   OH221038   5.925   6.765   7.535
 7054TIP3    H121039   5.979   6.711   7.478
 7054TIP3    H221040   5.959   6.750   7.623
 7055TIP3   OH221041   1.054   1.340   7.708
 7055TIP3    H121042   1.053   1.305   7.797
 7055TIP3    H221043   1.066   1.264   7.652
 7056TIP3   OH221044   6.691   3.807   0.945
 7056TIP3    H121045   6.729   3.784   1.030
 7056TIP3    H221046   6.752   3.872   0.908
 7057TIP3   OH221047   4.404   4.077   0.329
 7057TIP3    H121048   4.360   4.131   0.264
 7057TIP3    H221049   4.372   3.988   0.312
 7058TIP3   OH221050   4.371   8.694   1.620
 7058TIP3    H121051   4.283   8.670   1.648
 7058TIP3    H221052   4.385   8.782   1.655
 7059TIP3   OH221053   9.560   5.392   5.245
 7059TIP3    H121054   9.592   5.479   5.269
 7059TIP3    H221055   9.505   5.407   5.168
 7060TIP3   OH221056   4.969   4.578   4.694
 7060TIP3    H121057   4.977   4.488   4.664
 7060TIP3    H221058   4.898   4.615   4.641
 7061TIP3   OH221059   5.448   3.045   6.517
 7061TIP3    H121060   5.360   3.044   6.480
 7061TIP3    H221061   5.439   3.003   6.602
 7062TIP3   OH221062   1.887   7.630   3.076
 7062TIP3    H121063   1.805   7.582   3.088
 7062TIP3    H221064   1.870   7.716   3.114
 7063TIP3   OH221065   2.089   8.063   3.055
 7063TIP3    H121066   2.010   8.109   3.086
 7063TIP3    H221067   2.140   8.131   3.011
 7064TIP3   OH221068   1.038   2.815   5.723
 7064TIP3    H121069   0.984   2.828   5.646
 7064TIP3    H221070   0.976   2.814   5.796
 7065TIP3   OH221071   1.106   4.953   0.494
 7065TIP3    H121072   1.156   4.982   0.418
 7065TIP3    H221073   1.141   4.866   0.514
 7066TIP3   OH221074   3.897   4.973   3.300
 7066TIP3    H121075   3.992   4.969   3.309
 7066TIP3    H221076   3.864   4.975   3.389
 7067TIP3   OH221077   5.162   6.084   0.663
 7067TIP3    H121078   5.096   6.059   0.599
 7067TIP3    H221079   5.214   6.151   0.619
 7068TIP3   OH221080   1.454   5.803   2.048
 7068TIP3    H121081   1.511   5.776   1.976
 7068TIP3    H221082   1.366   5.780   2.018
 7069TIP3   OH221083   4.566   1.270   0.950
 7069TIP3    H121084   4.621   1.283   0.873
 7069TIP3    H221085   4.628   1.255   1.021
 7070TIP3   OH221086   4.031   5.478   3.293
 7070TIP3    H121087   3.939   5.488   3.317
 7070TIP3    H221088   4.047   5.548   3.231
 7071TIP3   OH221089   1.590   2.385   5.476
 7071TIP3    H121090   1.594   2.459   5.536
 7071TIP3    H221091   1.540   2.318   5.524
 7072TIP3   OH221092   5.220   6.442   4.471
 7072TIP3    H121093   5.312   6.422   4.452
 7072TIP3    H221094   5.211   6.427   4.565
 7073TIP3   OH221095   8.995   0.977   0.479
 7073TIP3    H121096   8.993   0.897   0.426
 7073TIP3    H221097   8.916   0.972   0.533
 7074TIP3   OH221098   1.932   0.655   5.275
 7074TIP3    H121099   1.998   0.586   5.275
 7074TIP3    H221100   1.905   0.663   5.183
 7075TIP3   OH221101   4.852   3.348   5.866
 7075TIP3    H121102   4.838   3.433   5.824
 7075TIP3    H221103   4.763   3.316   5.884
 7076TIP3   OH221104   6.219   3.156   2.404
 7076TIP3    H121105   6.168   3.202   2.471
 7076TIP3    H221106   6.186   3.066   2.408
 7077TIP3   OH221107   6.892   3.681   7.516
 7077TIP3    H121108   6.899   3.592   7.548
 7077TIP3    H221109   6.885   3.672   7.421
 7078TIP3   OH221110   5.162   8.079   4.072
 7078TIP3    H121111   5.199   7.993   4.053
 7078TIP3    H221112   5.219   8.115   4.141
 7079TIP3   OH221113   8.295   4.531   2.808
 7079TIP3    H121114   8.250   4.477   2.873
 7079TIP3    H221115   8.381   4.490   2.797
 7080TIP3   OH221116   1.629   2.421   5.789
 7080TIP3    H121117   1.608   2.416   5.882
 7080TIP3    H221118   1.545   2.405   5.745
 7081TIP3   OH221119   7.883   1.753   0.055
 7081TIP3    H121120   7.952   1.686   0.059
 7081TIP3    H221121   7.849   1.747  -0.035
 7082TIP3   OH221122   5.875   1.949   3.064
 7082TIP3    H121123   5.901   2.021   3.006
 7082TIP3    H221124   5.958   1.905   3.085
 7083TIP3   OH221125   6.831   3.758   1.206
 7083TIP3    H121126   6.791   3.835   1.247
 7083TIP3    H221127   6.761   3.692   1.205
 7084TIP3   OH221128   1.395   0.978   6.641
 7084TIP3    H121129   1.383   1.004   6.549
 7084TIP3    H221130   1.308   0.952   6.670
 7085TIP3   OH221131   8.048   5.960   2.569
 7085TIP3    H121132   7.976   6.002   2.522
 7085TIP3    H221133   8.041   5.867   2.545
 7086TIP3   OH221134   8.129   1.491   0.295
 7086TIP3    H121135   8.166   1.571   0.257
 7086TIP3    H221136   8.204   1.431   0.301
 7087TIP3   OH221137   2.442   1.461   0.330
 7087TIP3    H121138   2.502   1.415   0.272
 7087TIP3    H221139   2.496   1.490   0.404
 7088TIP3   OH221140   4.364   1.280   2.178
 7088TIP3    H121141   4.389   1.206   2.122
 7088TIP3    H221142   4.443   1.334   2.182
 7089TIP3   OH221143   7.323   1.336   0.529
 7089TIP3    H121144   7.279   1.381   0.601
 7089TIP3    H221145   7.411   1.374   0.528
 7090TIP3   OH221146   0.042   0.451   3.504
 7090TIP3    H121147   0.127   0.453   3.460
 7090TIP3    H221148   0.004   0.537   3.487
 7091TIP3   OH221149   3.023   7.288   7.112
 7091TIP3    H121150   3.007   7.221   7.179
 7091TIP3    H221151   2.949   7.347   7.118
 7092TIP3   OH221152   0.908   6.375   7.556
 7092TIP3    H121153   0.971   6.305   7.543
 7092TIP3    H221154   0.891   6.375   7.651
 7093TIP3   OH221155   4.167   4.378   7.368
 7093TIP3    H121156   4.109   4.302   7.373
 7093TIP3    H221157   4.168   4.400   7.275
 7094TIP3   OH221158   6.690   0.440   2.628
 7094TIP3    H121159   6.646   0.498   2.565
 7094TIP3    H221160   6.686   0.487   2.711
 7095TIP3   OH221161   3.981   0.837   6.624
 7095TIP3    H121162   3.953   0.862   6.712
 7095TIP3    H221163   4.040   0.763   6.637
 7096TIP3   OH221164   2.585   7.802   6.600
 7096TIP3    H121165   2.662   7.853   6.624
 7096TIP3    H221166   2.606   7.713   6.627
 7097TIP3   OH221167   5.692   2.622   5.417
 7097TIP3    H121168   5.774   2.616   5.466
 7097TIP3    H221169   5.699   2.705   5.370
 7098TIP3   OH221170   9.264   4.507   0.760
 7098TIP3    H121171   9.354   4.533   0.738
 7098TIP3    H221172   9.231   4.578   0.815
 7099TIP3   OH221173   2.846   5.018   2.333
 7099TIP3    H121174   2.865   5.043   2.424
 7099TIP3    H221175   2.920   5.052   2.283
 7100TIP3   OH221176   9.066   4.647   3.529
 7100TIP3    H121177   9.132   4.598   3.578
 7100TIP3    H221178   8.982   4.611   3.559
 7101TIP3   OH221179   3.277   7.106   0.062
 7101TIP3    H121180   3.336   7.034   0.083
 7101TIP3    H221181   3.190   7.072   0.085
 7102TIP3   OH221182   3.031   3.050   3.505
 7102TIP3    H121183   3.017   2.967   3.552
 7102TIP3    H221184   3.126   3.057   3.496
 7103TIP3   OH221185   7.557   8.344   5.686
 7103TIP3    H121186   7.526   8.262   5.724
 7103TIP3    H221187   7.649   8.349   5.711
 7104TIP3   OH221188   2.801   6.054   0.450
 7104TIP3    H121189   2.858   6.002   0.507
 7104TIP3    H221190   2.857   6.076   0.375
 7105TIP3   OH221191   7.452   7.099   1.066
 7105TIP3    H121192   7.444   7.119   0.973
 7105TIP3    H221193   7.475   7.183   1.107
 7106TIP3   OH221194   2.632   6.736   2.984
 7106TIP3    H121195   2.628   6.653   2.937
 7106TIP3    H221196   2.576   6.795   2.933
 7107TIP3   OH221197   4.269   5.521   5.363
 7107TIP3    H121198   4.180   5.488   5.357
 7107TIP3    H221199   4.278   5.549   5.454
 7108TIP3   OH221200   8.377   8.285   5.505
 7108TIP3    H121201   8.348   8.317   5.590
 7108TIP3    H221202   8.404   8.364   5.458
 7109TIP3   OH221203   3.477   0.786   4.472
 7109TIP3    H121204   3.499   0.861   4.417
 7109TIP3    H221205   3.446   0.823   4.554
 7110TIP3   OH221206   1.899   6.208   5.412
 7110TIP3    H121207   1.822   6.251   5.373
 7110TIP3    H221208   1.927   6.267   5.482
 7111TIP3   OH221209   8.898   8.386   6.153
 7111TIP3    H121210   8.892   8.389   6.248
 7111TIP3    H221211   8.893   8.478   6.125
 7112TIP3   OH221212   7.866   4.393   1.396
 7112TIP3    H121213   7.848   4.485   1.418
 7112TIP3    H221214   7.935   4.397   1.330
 7113TIP3   OH221215   3.059   6.740   2.299
 7113TIP3    H121216   3.148   6.713   2.320
 7113TIP3    H221217   3.005   6.664   2.319
 7114TIP3   OH221218   7.109   2.854   0.475
 7114TIP3    H121219   7.174   2.924   0.465
 7114TIP3    H221220   7.071   2.845   0.388
 7115TIP3   OH221221   6.046   8.527   1.014
 7115TIP3    H121222   5.985   8.453   1.014
 7115TIP3    H221223   6.083   8.527   1.102
 7116TIP3   OH221224   8.354   9.017   0.816
 7116TIP3    H121225   8.406   8.976   0.747
 7116TIP3    H221226   8.406   9.004   0.896
 7117TIP3   OH221227   7.111   0.652   5.969
 7117TIP3    H121228   7.026   0.636   6.010
 7117TIP3    H221229   7.171   0.664   6.042
 7118TIP3   OH221230   2.366   0.904   2.156
 7118TIP3    H121231   2.397   0.958   2.083
 7118TIP3    H221232   2.429   0.919   2.225
 7119TIP3   OH221233   0.503   5.343   1.812
 7119TIP3    H121234   0.516   5.313   1.722
 7119TIP3    H221235   0.436   5.412   1.805
 7120TIP3   OH221236   8.326   6.141   5.532
 7120TIP3    H121237   8.251   6.085   5.549
 7120TIP3    H221238   8.350   6.123   5.441
 7121TIP3   OH221239   3.482   3.814   5.829
 7121TIP3    H121240   3.523   3.814   5.743
 7121TIP3    H221241   3.430   3.895   5.832
 7122TIP3   OH221242   7.434   3.905   0.013
 7122TIP3    H121243   7.478   3.906  -0.072
 7122TIP3    H221244   7.376   3.830   0.009
 7123TIP3   OH221245   2.004   6.510   1.868
 7123TIP3    H121246   1.937   6.485   1.932
 7123TIP3    H221247   1.981   6.460   1.790
 7124TIP3   OH221248   8.688   0.392   4.446
 7124TIP3    H121249   8.759   0.385   4.381
 7124TIP3    H221250   8.631   0.461   4.412
 7125TIP3   OH221251   4.218   8.374   5.832
 7125TIP3    H121252   4.187   8.328   5.910
 7125TIP3    H221253   4.168   8.336   5.760
 7126TIP3   OH221254   1.531   6.617   6.042
 7126TIP3    H121255   1.511   6.530   6.007
 7126TIP3    H221256   1.568   6.665   5.968
 7127TIP3   OH221257   8.275   2.056   6.126
 7127TIP3    H121258   8.347   2.069   6.065
 7127TIP3    H221259   8.316   2.052   6.212
 7128TIP3   OH221260   7.445   5.854   6.027
 7128TIP3    H121261   7.450   5.758   6.027
 7128TIP3    H221262   7.425   5.877   6.118
 7129TIP3   OH221263   2.036   0.998   4.623
 7129TIP3    H121264   2.061   0.986   4.714
 7129TIP3    H221265   2.073   1.083   4.599
 7130TIP3   OH221266   4.116   4.493   3.139
 7130TIP3    H121267   4.103   4.486   3.233
 7130TIP3    H221268   4.199   4.540   3.130
 7131TIP3   OH221269   4.826   3.452   4.190
 7131TIP3    H121270   4.795   3.473   4.278
 7131TIP3    H221271   4.918   3.475   4.191
 7132TIP3   OH221272   8.977   3.836   6.500
 7132TIP3    H121273   9.038   3.887   6.447
 7132TIP3    H221274   9.018   3.750   6.509
 7133TIP3   OH221275   3.168   4.391   3.027
 7133TIP3    H121276   3.238   4.327   3.018
 7133TIP3    H221277   3.160   4.429   2.939
 7134TIP3   OH221278   4.679   8.481   2.951
 7134TIP3    H121279   4.689   8.576   2.960
 7134TIP3    H221280   4.749   8.445   3.007
 7135TIP3   OH221281   1.002   1.843   7.091
 7135TIP3    H121282   1.001   1.857   7.185
 7135TIP3    H221283   1.087   1.876   7.062
 7136TIP3   OH221284   6.711   1.697   0.236
 7136TIP3    H121285   6.800   1.723   0.213
 7136TIP3    H221286   6.675   1.772   0.283
 7137TIP3   OH221287   5.010   2.787   3.630
 7137TIP3    H121288   5.013   2.838   3.550
 7137TIP3    H221289   4.942   2.829   3.683
 7138TIP3   OH221290   9.526   6.188   4.907
 7138TIP3    H121291   9.524   6.097   4.934
 7138TIP3    H221292   9.505   6.237   4.986
 7139TIP3   OH221293   1.892   8.071   4.372
 7139TIP3    H121294   1.922   8.124   4.445
 7139TIP3    H221295   1.966   8.015   4.350
 7140TIP3   OH221296   4.355   5.994   1.969
 7140TIP3    H121297   4.427   5.969   2.027
 7140TIP3    H221298   4.276   5.962   2.012
 7141TIP3   OH221299   4.427   3.589   4.813
 7141TIP3    H121300   4.336   3.575   4.839
 7141TIP3    H221301   4.463   3.647   4.881
 7142TIP3   OH221302   8.463   3.710   0.642
 7142TIP3    H121303   8.443   3.741   0.554
 7142TIP3    H221304   8.533   3.767   0.673
 7143TIP3   OH221305   6.481   3.260   6.812
 7143TIP3    H121306   6.486   3.277   6.718
 7143TIP3    H221307   6.571   3.238   6.837
 7144TIP3   OH221308   2.063   1.054   5.584
 7144TIP3    H121309   2.056   1.029   5.492
 7144TIP3    H221310   2.092   0.974   5.629
 7145TIP3   OH221311   3.223   7.449   3.900
 7145TIP3    H121312   3.210   7.355   3.892
 7145TIP3    H221313   3.305   7.458   3.948
 7146TIP3   OH221314   4.631   1.082   1.237
 7146TIP3    H121315   4.558   1.026   1.265
 7146TIP3    H221316   4.609   1.168   1.272
 7147TIP3   OH221317   1.169   6.646   3.967
 7147TIP3    H121318   1.158   6.720   3.908
 7147TIP3    H221319   1.240   6.595   3.929
 7148TIP3   OH221320   0.150   2.628   4.694
 7148TIP3    H121321   0.141   2.622   4.599
 7148TIP3    H221322   0.155   2.536   4.723
 7149TIP3   OH221323   2.389   3.785   4.150
 7149TIP3    H121324   2.419   3.875   4.134
 7149TIP3    H221325   2.315   3.774   4.091
 7150TIP3   OH221326   7.058   2.332   3.311
 7150TIP3    H121327   7.106   2.414   3.321
 7150TIP3    H221328   6.966   2.357   3.313
 7151TIP3   OH221329   6.181   3.143   6.909
 7151TIP3    H121330   6.106   3.084   6.898
 7151TIP3    H221331   6.143   3.231   6.900
 7152TIP3   OH221332   6.109   6.937   2.074
 7152TIP3    H121333   6.179   6.878   2.045
 7152TIP3    H221334   6.110   7.008   2.009
 7153TIP3   OH221335   2.871   6.496   2.186
 7153TIP3    H121336   2.855   6.419   2.131
 7153TIP3    H221337   2.784   6.534   2.199
 7154TIP3   OH221338   5.029   7.523   0.472
 7154TIP3    H121339   5.101   7.462   0.488
 7154TIP3    H221340   4.966   7.473   0.420
 7155TIP3   OH221341   2.174   1.218   4.577
 7155TIP3    H121342   2.238   1.250   4.513
 7155TIP3    H221343   2.127   1.297   4.605
 7156TIP3   OH221344   6.891   0.499   6.126
 7156TIP3    H121345   6.852   0.482   6.212
 7156TIP3    H221346   6.816   0.508   6.067
 7157TIP3   OH221347   5.717   3.789   0.338
 7157TIP3    H121348   5.700   3.805   0.245
 7157TIP3    H221349   5.801   3.831   0.355
 7158TIP3   OH221350   5.547   8.068   7.313
 7158TIP3    H121351   5.490   8.135   7.274
 7158TIP3    H221352   5.588   8.025   7.238
 7159TIP3   OH221353   1.084   2.065   3.174
 7159TIP3    H121354   1.014   2.057   3.109
 7159TIP3    H221355   1.037   2.087   3.255
 7160TIP3   OH221356   0.695   4.273   2.776
 7160TIP3    H121357   0.682   4.341   2.843
 7160TIP3    H221358   0.718   4.322   2.697
 7161TIP3   OH221359   9.057   7.342   5.364
 7161TIP3    H121360   9.062   7.308   5.453
 7161TIP3    H221361   8.976   7.307   5.329
 7162TIP3   OH221362   4.929   1.237   1.315
 7162TIP3    H121363   5.000   1.298   1.295
 7162TIP3    H221364   4.852   1.274   1.271
 7163TIP3   OH221365   2.556   4.052   7.297
 7163TIP3    H121366   2.650   4.046   7.314
 7163TIP3    H221367   2.538   4.146   7.294
 7164TIP3   OH221368   0.498   2.407   7.809
 7164TIP3    H121369   0.465   2.410   7.719
 7164TIP3    H221370   0.430   2.362   7.858
 7165TIP3   OH221371   5.583   1.942   0.367
 7165TIP3    H121372   5.667   1.959   0.411
 7165TIP3    H221373   5.583   2.001   0.292
 7166TIP3   OH221374   9.190   1.686   1.248
 7166TIP3    H121375   9.217   1.638   1.169
 7166TIP3    H221376   9.213   1.627   1.320
 7167TIP3   OH221377   3.795   0.480   6.648
 7167TIP3    H121378   3.843   0.478   6.565
 7167TIP3    H221379   3.788   0.573   6.670
 7168TIP3   OH221380   3.415   5.757   6.469
 7168TIP3    H121381   3.336   5.716   6.504
 7168TIP3    H221382   3.471   5.771   6.545
 7169TIP3   OH221383   4.691   4.687   2.189
 7169TIP3    H121384   4.596   4.682   2.204
 7169TIP3    H221385   4.727   4.721   2.270
 7170TIP3   OH221386   4.642   1.136   7.196
 7170TIP3    H121387   4.673   1.166   7.110
 7170TIP3    H221388   4.700   1.179   7.259
 7171TIP3   OH221389   3.988   5.718   4.520
 7171TIP3    H121390   3.912   5.731   4.463
 7171TIP3    H221391   4.058   5.767   4.476
 7172TIP3   OH221392   3.741   6.330   0.603
 7172TIP3    H121393   3.686   6.355   0.529
 7172TIP3    H221394   3.772   6.413   0.639
 7173TIP3   OH221395   3.150   4.959   4.799
 7173TIP3    H121396   3.130   5.053   4.791
 7173TIP3    H221397   3.210   4.954   4.874
 7174TIP3   OH221398   6.764   2.418   4.394
 7174TIP3    H121399   6.733   2.350   4.454
 7174TIP3    H221400   6.799   2.487   4.452
 7175TIP3   OH221401   5.441   7.705   6.837
 7175TIP3    H121402   5.532   7.690   6.864
 7175TIP3    H221403   5.445   7.783   6.781
 7176TIP3   OH221404   4.038   3.063   0.996
 7176TIP3    H121405   4.067   2.981   1.035
 7176TIP3    H221406   4.095   3.076   0.921
 7177TIP3   OH221407   3.518   6.331   1.554
 7177TIP3    H121408   3.514   6.285   1.470
 7177TIP3    H221409   3.534   6.423   1.531
 7178TIP3   OH221410   5.166   7.110   1.720
 7178TIP3    H121411   5.076   7.122   1.690
 7178TIP3    H221412   5.169   7.020   1.753
 7179TIP3   OH221413   0.334   1.955   4.512
 7179TIP3    H121414   0.246   1.991   4.520
 7179TIP3    H221415   0.320   1.860   4.508
 7180TIP3   OH221416   4.885   6.692   0.816
 7180TIP3    H121417   4.929   6.661   0.895
 7180TIP3    H221418   4.847   6.776   0.842
 7181TIP3   OH221419   2.920   3.904   0.185
 7181TIP3    H121420   2.880   3.935   0.104
 7181TIP3    H221421   2.852   3.915   0.251
 7182TIP3   OH221422   3.046   6.030   3.464
 7182TIP3    H121423   2.965   5.991   3.430
 7182TIP3    H221424   3.064   6.103   3.405
 7183TIP3   OH221425   0.267   0.791   6.894
 7183TIP3    H121426   0.179   0.754   6.909
 7183TIP3    H221427   0.257   0.884   6.913
 7184TIP3   OH221428   9.167   2.224   1.545
 7184TIP3    H121429   9.110   2.152   1.570
 7184TIP3    H221430   9.149   2.238   1.452
 7185TIP3   OH221431   1.912   1.981   0.604
 7185TIP3    H121432   1.887   2.028   0.525
 7185TIP3    H221433   2.000   2.014   0.625
 7186TIP3   OH221434   7.322   3.447   7.195
 7186TIP3    H121435   7.299   3.362   7.232
 7186TIP3    H221436   7.328   3.506   7.270
 7187TIP3   OH221437   0.303   7.701   0.818
 7187TIP3    H121438   0.215   7.700   0.857
 7187TIP3    H221439   0.347   7.626   0.856
 7188TIP3   OH221440   3.364   0.551   0.044
 7188TIP3    H121441   3.391   0.462   0.067
 7188TIP3    H221442   3.316   0.541  -0.038
 7189TIP3   OH221443   0.607   1.574   3.303
 7189TIP3    H121444   0.542   1.641   3.321
 7189TIP3    H221445   0.632   1.541   3.389
 7190TIP3   OH221446   4.241   7.904   2.066
 7190TIP3    H121447   4.174   7.972   2.068
 7190TIP3    H221448   4.253   7.879   2.158
 7191TIP3   OH221449   0.285   2.652   4.949
 7191TIP3    H121450   0.247   2.657   4.861
 7191TIP3    H221451   0.327   2.737   4.962
 7192TIP3   OH221452   6.990   5.578   1.459
 7192TIP3    H121453   7.003   5.614   1.371
 7192TIP3    H221454   7.008   5.484   1.449
 7193TIP3   OH221455   1.528   7.653   6.104
 7193TIP3    H121456   1.524   7.593   6.178
 7193TIP3    H221457   1.613   7.635   6.063
 7194TIP3   OH221458   2.798   6.685   7.124
 7194TIP3    H121459   2.876   6.658   7.173
 7194TIP3    H221460   2.769   6.605   7.080
 7195TIP3   OH221461   2.607   5.225   0.205
 7195TIP3    H121462   2.684   5.175   0.233
 7195TIP3    H221463   2.537   5.194   0.262
 7196TIP3   OH221464   7.393   0.040   6.854
 7196TIP3    H121465   7.459   0.031   6.785
 7196TIP3    H221466   7.439   0.085   6.926
 7197TIP3   OH221467   4.939   5.487   5.680
 7197TIP3    H121468   4.952   5.435   5.759
 7197TIP3    H221469   5.004   5.558   5.687
 7198TIP3   OH221470   7.797   8.348   5.802
 7198TIP3    H121471   7.876   8.337   5.855
 7198TIP3    H221472   7.820   8.415   5.738
 7199TIP3   OH221473   1.218   7.405   2.146
 7199TIP3    H121474   1.292   7.441   2.194
 7199TIP3    H221475   1.239   7.420   2.054
 7200TIP3   OH221476   3.839   1.833   5.832
 7200TIP3    H121477   3.768   1.870   5.778
 7200TIP3    H221478   3.909   1.815   5.770
 7201TIP3   OH221479   4.418   4.112   3.391
 7201TIP3    H121480   4.397   4.053   3.464
 7201TIP3    H221481   4.485   4.065   3.341
 7202TIP3   OH221482   0.555   7.013   3.661
 7202TIP3    H121483   0.531   7.020   3.754
 7202TIP3    H221484   0.472   6.996   3.616
 7203TIP3   OH221485   1.116   8.106   1.601
 7203TIP3    H121486   1.155   8.054   1.530
 7203TIP3    H221487   1.044   8.052   1.633
 7204TIP3   OH221488   4.129   2.055   4.800
 7204TIP3    H121489   4.155   1.976   4.753
 7204TIP3    H221490   4.210   2.104   4.812
 7205TIP3   OH221491   2.933   7.240   6.409
 7205TIP3    H121492   2.850   7.232   6.457
 7205TIP3    H221493   3.000   7.221   6.474
 7206TIP3   OH221494   6.030   5.732   2.247
 7206TIP3    H121495   6.098   5.779   2.294
 7206TIP3    H221496   6.076   5.687   2.176
 7207TIP3   OH221497   8.646   3.608   6.345
 7207TIP3    H121498   8.691   3.691   6.327
 7207TIP3    H221499   8.560   3.634   6.379
 7208TIP3   OH221500   3.094   7.188   4.785
 7208TIP3    H121501   3.097   7.093   4.795
 7208TIP3    H221502   3.083   7.222   4.874
 7209TIP3   OH221503   7.547   0.089   1.227
 7209TIP3    H121504   7.628   0.137   1.245
 7209TIP3    H221505   7.527   0.108   1.135
 7210TIP3   OH221506   3.061   6.721   0.140
 7210TIP3    H121507   3.002   6.666   0.089
 7210TIP3    H221508   3.146   6.678   0.134
 7211TIP3   OH221509   3.486   5.480   7.130
 7211TIP3    H121510   3.562   5.451   7.080
 7211TIP3    H221511   3.423   5.508   7.064
 7212TIP3   OH221512   0.026   6.108   1.580
 7212TIP3    H121513   0.065   6.163   1.648
 7212TIP3    H221514  -0.010   6.171   1.517
 7213TIP3   OH221515   2.458   3.609   5.969
 7213TIP3    H121516   2.540   3.651   5.995
 7213TIP3    H221517   2.392   3.652   6.023
 7214TIP3   OH221518   1.189   4.621   3.620
 7214TIP3    H121519   1.193   4.605   3.715
 7214TIP3    H221520   1.166   4.536   3.583
 7215TIP3   OH221521   6.267   5.920   0.183
 7215TIP3    H121522   6.259   5.924   0.088
 7215TIP3    H221523   6.187   5.875   0.212
 7216TIP3   OH221524   5.596   5.806   4.071
 7216TIP3    H121525   5.682   5.820   4.031
 7216TIP3    H221526   5.607   5.831   4.163
 7217TIP3   OH221527   5.135   7.636   4.063
 7217TIP3    H121528   5.152   7.602   4.151
 7217TIP3    H221529   5.043   7.664   4.066
 7218TIP3   OH221530   1.643   3.194   5.482
 7218TIP3    H121531   1.563   3.146   5.505
 7218TIP3    H221532   1.713   3.132   5.500
 7219TIP3   OH221533   2.005   6.581   5.813
 7219TIP3    H121534   1.929   6.524   5.797
 7219TIP3    H221535   2.047   6.545   5.891
 7220TIP3   OH221536   3.130   1.880   3.944
 7220TIP3    H121537   3.186   1.802   3.946
 7220TIP3    H221538   3.129   1.911   4.034
 7221TIP3   OH221539   5.145   5.379   4.352
 7221TIP3    H121540   5.097   5.317   4.407
 7221TIP3    H221541   5.102   5.374   4.267
 7222TIP3   OH221542   9.516   3.289   7.577
 7222TIP3    H121543   9.598   3.339   7.579
 7222TIP3    H221544   9.464   3.332   7.510
 7223TIP3   OH221545   4.897   5.038   5.416
 7223TIP3    H121546   4.865   5.080   5.496
 7223TIP3    H221547   4.992   5.039   5.425
 7224TIP3   OH221548   6.114   4.745   0.666
 7224TIP3    H121549   6.074   4.754   0.753
 7224TIP3    H221550   6.069   4.671   0.627
 7225TIP3   OH221551   8.985   1.244   3.921
 7225TIP3    H121552   9.026   1.158   3.914
 7225TIP3    H221553   8.926   1.236   3.996
 7226TIP3   OH221554   2.062   8.333   1.514
 7226TIP3    H121555   2.058   8.343   1.419
 7226TIP3    H221556   1.991   8.272   1.535
 7227TIP3   OH221557   8.700   3.310   0.518
 7227TIP3    H121558   8.767   3.369   0.555
 7227TIP3    H221559   8.633   3.305   0.586
 7228TIP3   OH221560   1.673   0.518   3.940
 7228TIP3    H121561   1.668   0.530   4.034
 7228TIP3    H221562   1.755   0.472   3.925
 7229TIP3   OH221563   6.259   2.115   5.857
 7229TIP3    H121564   6.253   2.020   5.866
 7229TIP3    H221565   6.187   2.148   5.911
 7230TIP3   OH221566   3.841   7.540   5.330
 7230TIP3    H121567   3.776   7.530   5.261
 7230TIP3    H221568   3.831   7.461   5.384
 7231TIP3   OH221569   0.499   7.469   1.475
 7231TIP3    H121570   0.497   7.525   1.397
 7231TIP3    H221571   0.573   7.501   1.526
 7232TIP3   OH221572   6.210   8.995   2.679
 7232TIP3    H121573   6.138   9.054   2.701
 7232TIP3    H221574   6.222   8.941   2.757
 7233TIP3   OH221575   8.103   5.826   1.231
 7233TIP3    H121576   8.098   5.741   1.189
 7233TIP3    H221577   8.086   5.809   1.324
 7234TIP3   OH221578   3.558   5.887   6.685
 7234TIP3    H121579   3.602   5.970   6.701
 7234TIP3    H221580   3.598   5.826   6.748
 7235TIP3   OH221581   1.965   4.455   2.156
 7235TIP3    H121582   1.909   4.383   2.129
 7235TIP3    H221583   1.907   4.531   2.161
 7236TIP3   OH221584   7.488   2.021   4.937
 7236TIP3    H121585   7.525   1.974   5.011
 7236TIP3    H221586   7.402   2.050   4.967
 7237TIP3   OH221587   8.308   2.866   5.304
 7237TIP3    H121588   8.265   2.805   5.246
 7237TIP3    H221589   8.382   2.818   5.340
 7238TIP3   OH221590   7.398   8.874   4.118
 7238TIP3    H121591   7.351   8.956   4.134
 7238TIP3    H221592   7.383   8.855   4.026
 7239TIP3   OH221593   5.459   3.311   6.484
 7239TIP3    H121594   5.546   3.326   6.446
 7239TIP3    H221595   5.454   3.216   6.495
 7240TIP3   OH221596   4.965   8.166   6.309
 7240TIP3    H121597   4.943   8.183   6.217
 7240TIP3    H221598   4.988   8.252   6.344
 7241TIP3   OH221599   7.276   7.398   5.090
 7241TIP3    H121600   7.291   7.330   5.024
 7241TIP3    H221601   7.359   7.446   5.095
 7242TIP3   OH221602   7.331   4.926   6.242
 7242TIP3    H121603   7.387   4.906   6.167
 7242TIP3    H221604   7.290   4.842   6.264
 7243TIP3   OH221605   2.563   1.881   0.422
 7243TIP3    H121606   2.652   1.914   0.433
 7243TIP3    H221607   2.540   1.844   0.507
 7244TIP3   OH221608   2.216   0.650   7.162
 7244TIP3    H121609   2.177   0.595   7.093
 7244TIP3    H221610   2.309   0.650   7.141
 7245TIP3   OH221611   1.947   3.164   7.411
 7245TIP3    H121612   1.901   3.101   7.466
 7245TIP3    H221613   2.029   3.120   7.388
 7246TIP3   OH221614   8.510   2.261   2.379
 7246TIP3    H121615   8.443   2.327   2.398
 7246TIP3    H221616   8.519   2.263   2.284
 7247TIP3   OH221617   9.238   1.462   5.013
 7247TIP3    H121618   9.329   1.433   5.023
 7247TIP3    H221619   9.241   1.557   5.026
 7248TIP3   OH221620   1.482   3.523   5.017
 7248TIP3    H121621   1.469   3.554   4.928
 7248TIP3    H221622   1.394   3.517   5.054
 7249TIP3   OH221623   8.087   7.456   0.838
 7249TIP3    H121624   8.108   7.433   0.748
 7249TIP3    H221625   8.088   7.551   0.840
 7250TIP3   OH221626   3.073   8.766   2.831
 7250TIP3    H121627   3.166   8.776   2.850
 7250TIP3    H221628   3.042   8.854   2.814
 7251TIP3   OH221629   5.832   8.222   3.900
 7251TIP3    H121630   5.853   8.144   3.849
 7251TIP3    H221631   5.741   8.241   3.879
 7252TIP3   OH221632   6.693   0.691   5.457
 7252TIP3    H121633   6.645   0.650   5.385
 7252TIP3    H221634   6.778   0.648   5.457
 7253TIP3   OH221635   2.039   5.207   6.534
 7253TIP3    H121636   2.090   5.242   6.606
 7253TIP3    H221637   1.955   5.253   6.539
 7254TIP3   OH221638   1.681   5.330   2.381
 7254TIP3    H121639   1.717   5.308   2.295
 7254TIP3    H221640   1.658   5.245   2.419
 7255TIP3   OH221641   6.283   7.828   3.896
 7255TIP3    H121642   6.279   7.870   3.811
 7255TIP3    H221643   6.203   7.774   3.900
 7256TIP3   OH221644   2.735   8.277   3.664
 7256TIP3    H121645   2.819   8.260   3.706
 7256TIP3    H221646   2.723   8.204   3.604
 7257TIP3   OH221647   9.267   5.896   5.109
 7257TIP3    H121648   9.181   5.938   5.112
 7257TIP3    H221649   9.318   5.939   5.177
 7258TIP3   OH221650   7.190   1.119   3.843
 7258TIP3    H121651   7.250   1.047   3.864
 7258TIP3    H221652   7.133   1.084   3.775
 7259TIP3   OH221653   5.819   2.873   0.238
 7259TIP3    H121654   5.852   2.962   0.224
 7259TIP3    H221655   5.895   2.824   0.271
 7260TIP3   OH221656   3.346   3.569   1.840
 7260TIP3    H121657   3.421   3.628   1.837
 7260TIP3    H221658   3.348   3.524   1.755
 7261TIP3   OH221659   3.464   0.878   6.690
 7261TIP3    H121660   3.385   0.928   6.714
 7261TIP3    H221661   3.449   0.853   6.599
 7262TIP3   OH221662   1.791   0.276   5.436
 7262TIP3    H121663   1.884   0.284   5.416
 7262TIP3    H221664   1.747   0.323   5.366
 7263TIP3   OH221665   1.201   8.350   3.433
 7263TIP3    H121666   1.185   8.380   3.344
 7263TIP3    H221667   1.167   8.420   3.489
 7264TIP3   OH221668   4.469   2.674   1.819
 7264TIP3    H121669   4.381   2.648   1.847
 7264TIP3    H221670   4.459   2.695   1.726
 7265TIP3   OH221671   9.212   8.370   4.233
 7265TIP3    H121672   9.206   8.434   4.303
 7265TIP3    H221673   9.217   8.285   4.277
 7266TIP3   OH221674   6.437   4.425   5.873
 7266TIP3    H121675   6.406   4.426   5.782
 7266TIP3    H221676   6.524   4.386   5.868
 7267TIP3   OH221677   6.185   2.465   1.639
 7267TIP3    H121678   6.176   2.370   1.633
 7267TIP3    H221679   6.167   2.484   1.731
 7268TIP3   OH221680   4.248   1.556   3.001
 7268TIP3    H121681   4.265   1.507   3.082
 7268TIP3    H221682   4.321   1.618   2.995
 7269TIP3   OH221683   3.740   0.601   4.594
 7269TIP3    H121684   3.691   0.643   4.665
 7269TIP3    H221685   3.800   0.541   4.639
 7270TIP3   OH221686   5.228   3.715   7.768
 7270TIP3    H121687   5.192   3.739   7.683
 7270TIP3    H221688   5.269   3.630   7.754
 7271TIP3   OH221689   4.560   8.256   2.456
 7271TIP3    H121690   4.590   8.223   2.371
 7271TIP3    H221691   4.640   8.289   2.498
 7272TIP3   OH221692   4.963   2.312   1.961
 7272TIP3    H121693   5.040   2.262   1.987
 7272TIP3    H221694   4.895   2.246   1.944
 7273TIP3   OH221695   9.001   1.163   3.077
 7273TIP3    H121696   8.950   1.242   3.058
 7273TIP3    H221697   8.935   1.099   3.105
 7274TIP3   OH221698   4.856   6.957   2.867
 7274TIP3    H121699   4.947   6.982   2.882
 7274TIP3    H221700   4.805   7.026   2.910
 7275TIP3   OH221701   4.094   2.176   0.646
 7275TIP3    H121702   4.088   2.188   0.741
 7275TIP3    H221703   4.055   2.090   0.630
 7276TIP3   OH221704   7.457   2.977   6.148
 7276TIP3    H121705   7.398   2.982   6.224
 7276TIP3    H221706   7.456   3.066   6.112
 7277TIP3   OH221707   9.283   0.260   4.079
 7277TIP3    H121708   9.250   0.240   3.991
 7277TIP3    H221709   9.375   0.284   4.065
 7278TIP3   OH221710   5.662   3.946   2.544
 7278TIP3    H121711   5.574   3.984   2.543
 7278TIP3    H221712   5.676   3.915   2.455
 7279TIP3   OH221713   3.108   4.416   0.019
 7279TIP3    H121714   3.061   4.341   0.054
 7279TIP3    H221715   3.086   4.417  -0.075
 7280TIP3   OH221716   1.425   7.240   1.872
 7280TIP3    H121717   1.466   7.208   1.792
 7280TIP3    H221718   1.488   7.219   1.941
 7281TIP3   OH221719   4.315   4.348   4.578
 7281TIP3    H121720   4.235   4.389   4.609
 7281TIP3    H221721   4.291   4.313   4.492
 7282TIP3   OH221722   3.592   3.755   2.745
 7282TIP3    H121723   3.518   3.798   2.787
 7282TIP3    H221724   3.616   3.685   2.805
 7283TIP3   OH221725   3.273   1.008   5.457
 7283TIP3    H121726   3.227   0.934   5.496
 7283TIP3    H221727   3.204   1.061   5.417
 7284TIP3   OH221728   5.360   8.480   1.450
 7284TIP3    H121729   5.447   8.443   1.464
 7284TIP3    H221730   5.356   8.554   1.510
 7285TIP3   OH221731   0.708   0.448   3.692
 7285TIP3    H121732   0.647   0.520   3.711
 7285TIP3    H221733   0.665   0.370   3.729
 7286TIP3   OH221734   6.603   4.404   1.161
 7286TIP3    H121735   6.513   4.383   1.134
 7286TIP3    H221736   6.603   4.499   1.171
 7287TIP3   OH221737   5.580   5.573   2.380
 7287TIP3    H121738   5.555   5.482   2.396
 7287TIP3    H221739   5.672   5.577   2.409
 7288TIP3   OH221740   7.173   8.459   4.068
 7288TIP3    H121741   7.159   8.365   4.061
 7288TIP3    H221742   7.089   8.498   4.044
 7289TIP3   OH221743   8.872   6.533   4.115
 7289TIP3    H121744   8.825   6.475   4.175
 7289TIP3    H221745   8.820   6.613   4.113
 7290TIP3   OH221746   4.283   6.584   7.310
 7290TIP3    H121747   4.351   6.565   7.375
 7290TIP3    H221748   4.220   6.513   7.319
 7291TIP3   OH221749   6.980   4.536   1.743
 7291TIP3    H121750   6.940   4.458   1.781
 7291TIP3    H221751   6.960   4.606   1.805
 7292TIP3   OH221752   6.712   6.756   2.923
 7292TIP3    H121753   6.626   6.731   2.957
 7292TIP3    H221754   6.744   6.822   2.985
 7293TIP3   OH221755   0.621   4.921   5.825
 7293TIP3    H121756   0.640   4.860   5.896
 7293TIP3    H221757   0.667   5.001   5.848
 7294TIP3   OH221758   0.116   4.325   4.545
 7294TIP3    H121759   0.102   4.324   4.450
 7294TIP3    H221760   0.173   4.401   4.560
 7295TIP3   OH221761   5.596   6.740   1.475
 7295TIP3    H121762   5.596   6.812   1.538
 7295TIP3    H221763   5.675   6.691   1.494
 7296TIP3   OH221764   4.934   1.476   0.207
 7296TIP3    H121765   4.930   1.488   0.112
 7296TIP3    H221766   4.978   1.392   0.220
 7297TIP3   OH221767   4.754   0.051   3.158
 7297TIP3    H121768   4.788  -0.037   3.177
 7297TIP3    H221769   4.830   0.100   3.128
 7298TIP3   OH221770   6.335   5.272   6.923
 7298TIP3    H121771   6.334   5.221   6.842
 7298TIP3    H221772   6.392   5.346   6.903
 7299TIP3   OH221773   3.004   6.361   3.827
 7299TIP3    H121774   2.955   6.280   3.843
 7299TIP3    H221775   3.023   6.395   3.914
 7300TIP3   OH221776   7.360   7.608   2.108
 7300TIP3    H121777   7.411   7.664   2.049
 7300TIP3    H221778   7.417   7.533   2.124
 7301TIP3   OH221779   6.086   6.760   0.397
 7301TIP3    H121780   6.044   6.722   0.475
 7301TIP3    H221781   6.174   6.784   0.427
 7302TIP3   OH221782   3.897   5.183   7.072
 7302TIP3    H121783   3.850   5.128   7.135
 7302TIP3    H221784   3.909   5.126   6.995
 7303TIP3   OH221785   0.867   5.637   1.359
 7303TIP3    H121786   0.944   5.691   1.375
 7303TIP3    H221787   0.902   5.558   1.316
 7304TIP3   OH221788   8.807   3.674   5.973
 7304TIP3    H121789   8.752   3.606   6.013
 7304TIP3    H221790   8.888   3.671   6.023
 7305TIP3   OH221791   0.126   7.846   3.930
 7305TIP3    H121792   0.086   7.831   3.845
 7305TIP3    H221793   0.082   7.785   3.989
 7306TIP3   OH221794   0.625   7.513   5.457
 7306TIP3    H121795   0.598   7.597   5.494
 7306TIP3    H221796   0.720   7.512   5.466
 7307TIP3   OH221797   1.753   5.424   0.054
 7307TIP3    H121798   1.793   5.469   0.128
 7307TIP3    H221799   1.683   5.371   0.092
 7308TIP3   OH221800   5.656   2.689   1.491
 7308TIP3    H121801   5.677   2.688   1.398
 7308TIP3    H221802   5.560   2.684   1.494
 7309TIP3   OH221803   0.740   1.585   7.039
 7309TIP3    H121804   0.693   1.555   7.117
 7309TIP3    H221805   0.826   1.543   7.044
 7310TIP3   OH221806   3.201   7.858   3.970
 7310TIP3    H121807   3.123   7.848   3.915
 7310TIP3    H221808   3.272   7.824   3.916
 7311TIP3   OH221809   6.166   6.551   0.246
 7311TIP3    H121810   6.146   6.636   0.285
 7311TIP3    H221811   6.163   6.566   0.152
 7312TIP3   OH221812   8.532   4.019   4.014
 7312TIP3    H121813   8.500   4.108   4.004
 7312TIP3    H221814   8.507   3.975   3.932
 7313TIP3   OH221815   6.864   8.329   3.528
 7313TIP3    H121816   6.824   8.409   3.561
 7313TIP3    H221817   6.952   8.357   3.499
 7314TIP3   OH221818   9.100   0.629   5.074
 7314TIP3    H121819   9.038   0.581   5.018
 7314TIP3    H221820   9.109   0.575   5.152
 7315TIP3   OH221821   1.058   2.705   3.061
 7315TIP3    H121822   1.102   2.735   2.981
 7315TIP3    H221823   1.130   2.681   3.120
 7316TIP3   OH221824   6.356   1.878   7.311
 7316TIP3    H121825   6.279   1.822   7.301
 7316TIP3    H221826   6.386   1.893   7.221
 7317TIP3   OH221827   9.106   0.967   0.838
 7317TIP3    H121828   9.157   0.887   0.851
 7317TIP3    H221829   9.147   1.031   0.896
 7318TIP3   OH221830   5.795   3.713   5.066
 7318TIP3    H121831   5.778   3.772   5.140
 7318TIP3    H221832   5.708   3.689   5.034
 7319TIP3   OH221833   7.303   8.632   4.254
 7319TIP3    H121834   7.266   8.563   4.200
 7319TIP3    H221835   7.317   8.705   4.194
 7320TIP3   OH221836   5.487   3.792   6.221
 7320TIP3    H121837   5.453   3.757   6.304
 7320TIP3    H221838   5.513   3.882   6.243
 7321TIP3   OH221839   3.433   0.725   5.045
 7321TIP3    H121840   3.496   0.698   4.977
 7321TIP3    H221841   3.397   0.807   5.012
 7322TIP3   OH221842   3.426   3.253   2.200
 7322TIP3    H121843   3.488   3.217   2.135
 7322TIP3    H221844   3.413   3.343   2.172
 7323TIP3   OH221845   1.407   7.272   3.288
 7323TIP3    H121846   1.376   7.181   3.286
 7323TIP3    H221847   1.485   7.270   3.343
 7324TIP3   OH221848   1.642   5.234   1.205
 7324TIP3    H121849   1.694   5.219   1.126
 7324TIP3    H221850   1.552   5.222   1.177
 7325TIP3   OH221851   6.098   3.642   5.676
 7325TIP3    H121852   6.096   3.547   5.668
 7325TIP3    H221853   6.138   3.658   5.762
 7326TIP3   OH221854   7.635   0.874   1.004
 7326TIP3    H121855   7.568   0.870   0.936
 7326TIP3    H221856   7.591   0.913   1.080
 7327TIP3   OH221857   1.664   5.316   4.711
 7327TIP3    H121858   1.571   5.298   4.721
 7327TIP3    H221859   1.703   5.231   4.690
 7328TIP3   OH221860   2.275   4.518   1.838
 7328TIP3    H121861   2.216   4.449   1.807
 7328TIP3    H221862   2.221   4.597   1.837
 7329TIP3   OH221863   2.351   1.549   7.216
 7329TIP3    H121864   2.429   1.544   7.161
 7329TIP3    H221865   2.286   1.495   7.171
 7330TIP3   OH221866   3.946   6.793   1.340
 7330TIP3    H121867   3.894   6.754   1.410
 7330TIP3    H221868   3.892   6.785   1.262
 7331TIP3   OH221869   2.291   3.114   4.909
 7331TIP3    H121870   2.211   3.148   4.948
 7331TIP3    H221871   2.288   3.020   4.925
 7332TIP3   OH221872   6.717   3.296   2.523
 7332TIP3    H121873   6.778   3.355   2.567
 7332TIP3    H221874   6.761   3.211   2.522
 7333TIP3   OH221875   6.872   6.702   3.468
 7333TIP3    H121876   6.853   6.627   3.411
 7333TIP3    H221877   6.805   6.767   3.445
 7334TIP3   OH221878   1.576   6.724   1.048
 7334TIP3    H121879   1.598   6.786   1.117
 7334TIP3    H221880   1.636   6.745   0.977
 7335TIP3   OH221881   5.808   2.512   0.965
 7335TIP3    H121882   5.719   2.539   0.990
 7335TIP3    H221883   5.851   2.492   1.048
 7336TIP3   OH221884   2.601   5.542   2.477
 7336TIP3    H121885   2.690   5.571   2.454
 7336TIP3    H221886   2.558   5.621   2.510
 7337TIP3   OH221887   7.500   3.357   6.301
 7337TIP3    H121888   7.421   3.320   6.262
 7337TIP3    H221889   7.534   3.417   6.234
 7338TIP3   OH221890   1.846   4.618   4.172
 7338TIP3    H121891   1.905   4.622   4.097
 7338TIP3    H221892   1.841   4.526   4.195
 7339TIP3   OH221893   7.024   6.520   7.653
 7339TIP3    H121894   7.044   6.513   7.746
 7339TIP3    H221895   7.057   6.607   7.628
 7340TIP3   OH221896   9.118   7.534   2.857
 7340TIP3    H121897   9.101   7.441   2.865
 7340TIP3    H221898   9.149   7.545   2.767
 7341TIP3   OH221899   6.710   0.600   1.963
 7341TIP3    H121900   6.762   0.641   2.032
 7341TIP3    H221901   6.671   0.522   2.004
 7342TIP3   OH221902   8.431   0.553   1.313
 7342TIP3    H121903   8.526   0.550   1.315
 7342TIP3    H221904   8.409   0.586   1.226
 7343TIP3   OH221905   2.136   4.656   0.433
 7343TIP3    H121906   2.197   4.717   0.474
 7343TIP3    H221907   2.049   4.691   0.453
 7344TIP3   OH221908   1.174   8.083   1.855
 7344TIP3    H121909   1.112   8.014   1.879
 7344TIP3    H221910   1.157   8.100   1.762
 7345TIP3   OH221911   2.812   8.659   0.187
 7345TIP3    H121912   2.760   8.652   0.267
 7345TIP3    H221913   2.806   8.573   0.147
 7346TIP3   OH221914   7.362   3.620   7.762
 7346TIP3    H121915   7.298   3.639   7.831
 7346TIP3    H221916   7.441   3.666   7.789
 7347TIP3   OH221917   9.306   2.032   3.763
 7347TIP3    H121918   9.222   2.076   3.776
 7347TIP3    H221919   9.371   2.101   3.777
 7348TIP3   OH221920   5.528   0.892   7.666
 7348TIP3    H121921   5.434   0.874   7.661
 7348TIP3    H221922   5.563   0.859   7.584
 7349TIP3   OH221923   2.404   5.368   5.327
 7349TIP3    H121924   2.352   5.317   5.389
 7349TIP3    H221925   2.408   5.314   5.248
 7350TIP3   OH221926   5.675   1.207   6.490
 7350TIP3    H121927   5.658   1.133   6.548
 7350TIP3    H221928   5.591   1.252   6.483
 7351TIP3   OH221929   9.377   0.353   2.366
 7351TIP3    H121930   9.338   0.404   2.437
 7351TIP3    H221931   9.440   0.295   2.410
 7352TIP3   OH221932   0.749   7.194   5.350
 7352TIP3    H121933   0.773   7.101   5.343
 7352TIP3    H221934   0.732   7.207   5.443
 7353TIP3   OH221935   3.450   5.184   2.872
 7353TIP3    H121936   3.525   5.128   2.852
 7353TIP3    H221937   3.426   5.161   2.961
 7354TIP3   OH221938   8.796   0.311   1.584
 7354TIP3    H121939   8.779   0.335   1.493
 7354TIP3    H221940   8.857   0.237   1.579
 7355TIP3   OH221941   9.340   4.070   6.053
 7355TIP3    H121942   9.363   4.022   5.973
 7355TIP3    H221943   9.418   4.066   6.107
 7356TIP3   OH221944   8.837   7.361   0.193
 7356TIP3    H121945   8.912   7.325   0.147
 7356TIP3    H221946   8.780   7.395   0.124
 7357TIP3   OH221947   6.274   3.878   6.326
 7357TIP3    H121948   6.277   3.824   6.246
 7357TIP3    H221949   6.246   3.817   6.395
 7358TIP3   OH221950   4.873   0.418   6.170
 7358TIP3    H121951   4.918   0.351   6.118
 7358TIP3    H221952   4.814   0.460   6.109
 7359TIP3   OH221953   5.063   7.657   2.866
 7359TIP3    H121954   4.991   7.699   2.912
 7359TIP3    H221955   5.135   7.720   2.870
 7360TIP3   OH221956   1.609   4.128   7.099
 7360TIP3    H121957   1.561   4.061   7.148
 7360TIP3    H221958   1.542   4.175   7.050
 7361TIP3   OH221959   9.338   2.849   1.820
 7361TIP3    H121960   9.394   2.853   1.898
 7361TIP3    H221961   9.374   2.914   1.760
 7362TIP3   OH221962   4.457   6.958   0.329
 7362TIP3    H121963   4.419   6.876   0.362
 7362TIP3    H221964   4.403   6.981   0.254
 7363TIP3   OH221965   0.594   1.525   3.815
 7363TIP3    H121966   0.616   1.609   3.855
 7363TIP3    H221967   0.498   1.523   3.814
 7364TIP3   OH221968   9.512   1.336   2.154
 7364TIP3    H121969   9.427   1.316   2.115
 7364TIP3    H221970   9.537   1.420   2.114
 7365TIP3   OH221971   0.535   3.035   1.503
 7365TIP3    H121972   0.617   2.989   1.488
 7365TIP3    H221973   0.541   3.113   1.448
 7366TIP3   OH221974   0.783   4.919   3.305
 7366TIP3    H121975   0.830   4.950   3.227
 7366TIP3    H221976   0.830   4.841   3.333
 7367TIP3   OH221977   7.074   2.421   7.517
 7367TIP3    H121978   7.105   2.406   7.607
 7367TIP3    H221979   7.106   2.509   7.496
 7368TIP3   OH221980   0.929   1.757   6.312
 7368TIP3    H121981   1.015   1.770   6.271
 7368TIP3    H221982   0.920   1.662   6.320
 7369TIP3   OH221983   0.356   2.231   1.073
 7369TIP3    H121984   0.278   2.215   1.021
 7369TIP3    H221985   0.389   2.144   1.095
 7370TIP3   OH221986   5.235   3.005   4.680
 7370TIP3    H121987   5.225   3.100   4.680
 7370TIP3    H221988   5.314   2.989   4.629
 7371TIP3   OH221989   8.674   8.852   3.871
 7371TIP3    H121990   8.592   8.900   3.880
 7371TIP3    H221991   8.725   8.876   3.949
 7372TIP3   OH221992   1.320   5.511   5.042
 7372TIP3    H121993   1.387   5.562   5.086
 7372TIP3    H221994   1.304   5.437   5.100
 7373TIP3   OH221995   0.880   7.696   7.580
 7373TIP3    H121996   0.962   7.699   7.531
 7373TIP3    H221997   0.831   7.625   7.538
 7374TIP3   OH221998   1.642   1.562   2.653
 7374TIP3    H121999   1.714   1.618   2.683
 7374TIP3    H222000   1.563   1.605   2.686
 7375TIP3   OH222001   2.122   6.194   6.610
 7375TIP3    H122002   2.175   6.208   6.689
 7375TIP3    H222003   2.115   6.281   6.570
 7376TIP3   OH222004   1.867   0.976   4.167
 7376TIP3    H122005   1.772   0.979   4.179
 7376TIP3    H222006   1.901   1.040   4.230
 7377TIP3   OH222007   0.664   2.718   3.740
 7377TIP3    H122008   0.614   2.715   3.659
 7377TIP3    H222009   0.730   2.649   3.730
 7378TIP3   OH222010   0.281   5.283   1.585
 7378TIP3    H122011   0.217   5.256   1.519
 7378TIP3    H222012   0.356   5.225   1.571
 7379TIP3   OH222013   1.195   4.086   7.638
 7379TIP3    H122014   1.231   4.000   7.617
 7379TIP3    H222015   1.160   4.118   7.555
 7380TIP3   OH222016   7.131   2.188   7.339
 7380TIP3    H122017   7.080   2.152   7.266
 7380TIP3    H222018   7.076   2.257   7.374
 7381TIP3   OH222019   2.337   3.118   5.397
 7381TIP3    H122020   2.248   3.133   5.363
 7381TIP3    H222021   2.327   3.120   5.492
 7382TIP3   OH222022   5.850   7.914   6.057
 7382TIP3    H122023   5.821   7.989   6.109
 7382TIP3    H222024   5.833   7.939   5.967
 7383TIP3   OH222025   5.678   3.384   5.607
 7383TIP3    H122026   5.613   3.352   5.670
 7383TIP3    H222027   5.677   3.479   5.616
 7384TIP3   OH222028   3.720   2.172   0.547
 7384TIP3    H122029   3.813   2.160   0.564
 7384TIP3    H222030   3.699   2.105   0.482
 7385TIP3   OH222031   6.276   8.026   2.228
 7385TIP3    H122032   6.355   8.064   2.190
 7385TIP3    H222033   6.308   7.964   2.293
 7386TIP3   OH222034   9.246   1.741   5.016
 7386TIP3    H122035   9.202   1.824   5.037
 7386TIP3    H222036   9.335   1.767   4.993
 7387TIP3   OH222037   6.023   8.665   0.571
 7387TIP3    H122038   5.993   8.575   0.564
 7387TIP3    H222039   6.116   8.658   0.591
 7388TIP3   OH222040   8.703   7.192   5.535
 7388TIP3    H122041   8.703   7.102   5.568
 7388TIP3    H222042   8.614   7.205   5.502
 7389TIP3   OH222043   3.105   1.074   6.533
 7389TIP3    H122044   3.151   1.080   6.449
 7389TIP3    H222045   3.012   1.083   6.510
 7390TIP3   OH222046   3.851   4.085   5.177
 7390TIP3    H122047   3.783   4.153   5.176
 7390TIP3    H222048   3.933   4.133   5.164
 7391TIP3   OH222049   5.439   0.562   2.183
 7391TIP3    H122050   5.434   0.494   2.116
 7391TIP3    H222051   5.513   0.536   2.238
 7392TIP3   OH222052   3.414   2.741   2.372
 7392TIP3    H122053   3.328   2.773   2.345
 7392TIP3    H222054   3.475   2.809   2.344
 7393TIP3   OH222055   9.561   2.789   2.291
 7393TIP3    H122056   9.635   2.736   2.263
 7393TIP3    H222057   9.530   2.745   2.371
 7394TIP3   OH222058   1.603   2.974   4.530
 7394TIP3    H122059   1.565   2.939   4.611
 7394TIP3    H222060   1.642   3.058   4.556
 7395TIP3   OH222061   8.011   8.580   3.219
 7395TIP3    H122062   7.973   8.493   3.235
 7395TIP3    H222063   8.073   8.592   3.291
 7396TIP3   OH222064   6.897   0.872   6.087
 7396TIP3    H122065   6.969   0.934   6.084
 7396TIP3    H222066   6.867   0.866   5.996
 7397TIP3   OH222067   2.572   2.504   5.861
 7397TIP3    H122068   2.506   2.537   5.922
 7397TIP3    H222069   2.533   2.516   5.775
 7398TIP3   OH222070   2.281   5.531   0.158
 7398TIP3    H122071   2.238   5.475   0.222
 7398TIP3    H222072   2.375   5.521   0.177
 7399TIP3   OH222073   1.157   0.950   5.111
 7399TIP3    H122074   1.224   0.991   5.055
 7399TIP3    H222075   1.097   1.022   5.132
 7400TIP3   OH222076   3.732   3.487   6.350
 7400TIP3    H122077   3.712   3.511   6.440
 7400TIP3    H222078   3.751   3.570   6.306
 7401TIP3   OH222079   4.536   4.118   1.976
 7401TIP3    H122080   4.493   4.051   2.029
 7401TIP3    H222081   4.468   4.150   1.918
 7402TIP3   OH222082   6.627   7.640   3.287
 7402TIP3    H122083   6.720   7.635   3.264
 7402TIP3    H222084   6.624   7.695   3.366
 7403TIP3   OH222085   8.602   7.080   2.727
 7403TIP3    H122086   8.598   7.175   2.714
 7403TIP3    H222087   8.695   7.060   2.729
 7404TIP3   OH222088   4.112   3.808   6.389
 7404TIP3    H122089   4.109   3.874   6.458
 7404TIP3    H222090   4.051   3.740   6.420
 7405TIP3   OH222091   7.790   0.160   1.887
 7405TIP3    H122092   7.773   0.242   1.933
 7405TIP3    H222093   7.746   0.171   1.802
 7406TIP3   OH222094   5.061   1.194   1.825
 7406TIP3    H122095   5.156   1.199   1.833
 7406TIP3    H222096   5.029   1.213   1.914
 7407TIP3   OH222097   4.154   2.790   6.751
 7407TIP3    H122098   4.241   2.806   6.716
 7407TIP3    H222099   4.140   2.696   6.738
 7408TIP3   OH222100   4.958   8.578   3.010
 7408TIP3    H122101   5.046   8.566   3.046
 7408TIP3    H222102   4.933   8.666   3.038
 7409TIP3   OH222103   2.278   3.666   7.067
 7409TIP3    H122104   2.337   3.591   7.072
 7409TIP3    H222105   2.315   3.731   7.126
 7410TIP3   OH222106   6.523   5.644   5.674
 7410TIP3    H122107   6.515   5.668   5.767
 7410TIP3    H222108   6.597   5.695   5.642
 7411TIP3   OH222109   0.305   2.802   6.903
 7411TIP3    H122110   0.299   2.884   6.952
 7411TIP3    H222111   0.215   2.769   6.899
 7412TIP3   OH222112   8.307   2.004   1.331
 7412TIP3    H122113   8.353   2.008   1.415
 7412TIP3    H222114   8.321   2.090   1.292
 7413TIP3   OH222115   6.930   5.726   7.280
 7413TIP3    H122116   6.987   5.802   7.267
 7413TIP3    H222117   6.951   5.694   7.367
 7414TIP3   OH222118   4.164   3.298   4.702
 7414TIP3    H122119   4.236   3.237   4.721
 7414TIP3    H222120   4.200   3.384   4.721
 7415TIP3   OH222121   2.341   3.819   0.094
 7415TIP3    H122122   2.372   3.733   0.122
 7415TIP3    H222123   2.249   3.804   0.070
 7416TIP3   OH222124   2.700   7.589   6.344
 7416TIP3    H122125   2.711   7.677   6.307
 7416TIP3    H222126   2.726   7.530   6.273
 7417TIP3   OH222127   8.124   0.540   6.659
 7417TIP3    H122128   8.090   0.479   6.724
 7417TIP3    H222129   8.213   0.560   6.690
 7418TIP3   OH222130   7.475   2.849   1.454
 7418TIP3    H122131   7.504   2.890   1.372
 7418TIP3    H222132   7.416   2.778   1.426
 7419TIP3   OH222133   7.126   7.709   6.085
 7419TIP3    H122134   7.218   7.719   6.061
 7419TIP3    H222135   7.078   7.757   6.017
 7420TIP3   OH222136   9.550   5.117   5.888
 7420TIP3    H122137   9.603   5.048   5.850
 7420TIP3    H222138   9.613   5.182   5.918
 7421TIP3   OH222139   5.382   2.206   2.193
 7421TIP3    H122140   5.320   2.170   2.257
 7421TIP3    H222141   5.456   2.147   2.195
 7422TIP3   OH222142   1.612   0.879   3.135
 7422TIP3    H122143   1.521   0.904   3.117
 7422TIP3    H222144   1.619   0.878   3.230
 7423TIP3   OH222145   2.885   6.365   5.188
 7423TIP3    H122146   2.846   6.299   5.245
 7423TIP3    H222147   2.944   6.316   5.131
 7424TIP3   OH222148   4.261   7.502   1.245
 7424TIP3    H122149   4.189   7.483   1.306
 7424TIP3    H222150   4.219   7.515   1.160
 7425TIP3   OH222151   0.535   5.240   4.074
 7425TIP3    H122152   0.502   5.301   4.008
 7425TIP3    H222153   0.613   5.201   4.034
 7426TIP3   OH222154   2.352   2.559   4.542
 7426TIP3    H122155   2.352   2.594   4.453
 7426TIP3    H222156   2.373   2.466   4.532
 7427TIP3   OH222157   5.019   0.896   6.155
 7427TIP3    H122158   5.008   0.847   6.236
 7427TIP3    H222159   5.076   0.840   6.101
 7428TIP3   OH222160   4.656   0.367   4.641
 7428TIP3    H122161   4.639   0.458   4.666
 7428TIP3    H222162   4.735   0.344   4.689
 7429TIP3   OH222163   0.948   2.366   6.712
 7429TIP3    H122164   0.916   2.285   6.751
 7429TIP3    H222165   0.982   2.417   6.785
 7430TIP3   OH222166   0.031   2.423   4.226
 7430TIP3    H122167  -0.031   2.370   4.275
 7430TIP3    H222168  -0.022   2.496   4.193
 7431TIP3   OH222169   4.082   8.639   5.852
 7431TIP3    H122170   4.122   8.552   5.855
 7431TIP3    H222171   4.000   8.629   5.901
 7432TIP3   OH222172   2.155   6.499   4.093
 7432TIP3    H122173   2.100   6.572   4.120
 7432TIP3    H222174   2.108   6.421   4.122
 7433TIP3   OH222175   8.151   5.352   4.975
 7433TIP3    H122176   8.221   5.294   5.003
 7433TIP3    H222177   8.154   5.351   4.880
 7434TIP3   OH222178   1.217   5.308   5.222
 7434TIP3    H122179   1.149   5.291   5.157
 7434TIP3    H222180   1.170   5.347   5.296
 7435TIP3   OH222181   4.362   2.464   1.520
 7435TIP3    H122182   4.392   2.530   1.457
 7435TIP3    H222183   4.272   2.490   1.541
 7436TIP3   OH222184   6.873   3.202   3.193
 7436TIP3    H122185   6.862   3.252   3.274
 7436TIP3    H222186   6.953   3.237   3.154
 7437TIP3   OH222187   9.475   1.687   7.002
 7437TIP3    H122188   9.562   1.658   7.029
 7437TIP3    H222189   9.461   1.645   6.917
 7438TIP3   OH222190   4.957   5.305   7.690
 7438TIP3    H122191   4.955   5.401   7.687
 7438TIP3    H222192   4.878   5.281   7.739
 7439TIP3   OH222193   0.313   5.463   0.170
 7439TIP3    H122194   0.217   5.469   0.173
 7439TIP3    H222195   0.331   5.372   0.147
 7440TIP3   OH222196   8.567   0.299   1.741
 7440TIP3    H122197   8.486   0.250   1.724
 7440TIP3    H222198   8.617   0.291   1.660
 7441TIP3   OH222199   1.903   1.050   0.233
 7441TIP3    H122200   1.808   1.051   0.223
 7441TIP3    H222201   1.918   1.073   0.325
 7442TIP3   OH222202   0.959   3.412   1.166
 7442TIP3    H122203   0.962   3.481   1.232
 7442TIP3    H222204   1.037   3.427   1.113
 7443TIP3   OH222205   2.877   8.077   4.974
 7443TIP3    H122206   2.806   8.023   4.939
 7443TIP3    H222207   2.940   8.083   4.902
 7444TIP3   OH222208   9.210   3.910   7.665
 7444TIP3    H122209   9.190   3.899   7.758
 7444TIP3    H222210   9.233   3.822   7.634
 7445TIP3   OH222211   5.669   0.530   5.715
 7445TIP3    H122212   5.591   0.580   5.739
 7445TIP3    H222213   5.657   0.444   5.755
 7446TIP3   OH222214   6.092   6.091   1.793
 7446TIP3    H122215   6.080   6.178   1.756
 7446TIP3    H222216   6.177   6.095   1.837
 7447TIP3   OH222217   9.529   8.894   5.783
 7447TIP3    H122218   9.505   8.979   5.820
 7447TIP3    H222219   9.511   8.903   5.690
 7448TIP3   OH222220   9.148   5.659   1.608
 7448TIP3    H122221   9.217   5.710   1.566
 7448TIP3    H222222   9.154   5.682   1.701
 7449TIP3   OH222223   3.058   8.486   2.766
 7449TIP3    H122224   3.066   8.578   2.788
 7449TIP3    H222225   2.964   8.474   2.748
 7450TIP3   OH222226   1.127   0.089   0.899
 7450TIP3    H122227   1.104  -0.004   0.908
 7450TIP3    H222228   1.222   0.092   0.915
 7451TIP3   OH222229   4.230   0.647   3.852
 7451TIP3    H122230   4.193   0.672   3.936
 7451TIP3    H222231   4.289   0.575   3.872
 7452TIP3   OH222232   1.391   2.057   5.018
 7452TIP3    H122233   1.389   2.124   5.087
 7452TIP3    H222234   1.371   2.105   4.938
 7453TIP3   OH222235   0.217   1.457   0.783
 7453TIP3    H122236   0.287   1.513   0.751
 7453TIP3    H222237   0.261   1.397   0.843
 7454TIP3   OH222238   8.786   4.533   2.916
 7454TIP3    H122239   8.771   4.569   3.004
 7454TIP3    H222240   8.857   4.587   2.881
 7455TIP3   OH222241   5.508   4.623   5.117
 7455TIP3    H122242   5.578   4.677   5.082
 7455TIP3    H222243   5.532   4.534   5.092
 7456TIP3   OH222244   1.283   5.978   2.682
 7456TIP3    H122245   1.203   6.029   2.698
 7456TIP3    H222246   1.259   5.919   2.611
 7457TIP3   OH222247   2.580   2.480   1.423
 7457TIP3    H122248   2.609   2.477   1.331
 7457TIP3    H222249   2.659   2.499   1.473
 7458TIP3   OH222250   2.205   1.416   2.831
 7458TIP3    H122251   2.198   1.455   2.744
 7458TIP3    H222252   2.115   1.400   2.858
 7459TIP3   OH222253   6.641   8.597   4.638
 7459TIP3    H122254   6.722   8.545   4.634
 7459TIP3    H222255   6.670   8.685   4.659
 7460TIP3   OH222256   6.667   2.052   7.330
 7460TIP3    H122257   6.725   2.023   7.259
 7460TIP3    H222258   6.724   2.057   7.407
 7461TIP3   OH222259   4.118   3.073   3.178
 7461TIP3    H122260   4.079   3.146   3.224
 7461TIP3    H222261   4.044   3.022   3.144
 7462TIP3   OH222262   1.751   2.262   2.065
 7462TIP3    H122263   1.761   2.331   2.000
 7462TIP3    H222264   1.823   2.276   2.127
 7463TIP3   OH222265   1.792   0.486   1.036
 7463TIP3    H122266   1.730   0.499   0.964
 7463TIP3    H222267   1.741   0.444   1.105
 7464TIP3   OH222268   7.272   2.265   0.003
 7464TIP3    H122269   7.329   2.336   0.031
 7464TIP3    H222270   7.332   2.198  -0.031
 7465TIP3   OH222271   9.045   1.491   5.792
 7465TIP3    H122272   9.110   1.543   5.744
 7465TIP3    H222273   8.963   1.509   5.748
 7466TIP3   OH222274   3.018   1.996   4.510
 7466TIP3    H122275   3.059   2.031   4.589
 7466TIP3    H222276   3.084   1.938   4.472
 7467TIP3   OH222277   4.420   3.492   6.648
 7467TIP3    H122278   4.332   3.507   6.681
 7467TIP3    H222279   4.433   3.562   6.584
 7468TIP3   OH222280   0.926   1.991   4.104
 7468TIP3    H122281   0.975   2.038   4.037
 7468TIP3    H222282   0.836   1.988   4.071
 7469TIP3   OH222283   5.544   3.189   4.660
 7469TIP3    H122284   5.501   3.256   4.713
 7469TIP3    H222285   5.630   3.178   4.701
 7470TIP3   OH222286   7.910   3.514   2.888
 7470TIP3    H122287   7.854   3.443   2.918
 7470TIP3    H222288   7.911   3.505   2.792
 7471TIP3   OH222289   6.751   0.115   2.824
 7471TIP3    H122290   6.755   0.195   2.877
 7471TIP3    H222291   6.806   0.134   2.748
 7472TIP3   OH222292   8.457   0.631   5.022
 7472TIP3    H122293   8.382   0.605   4.969
 7472TIP3    H222294   8.419   0.663   5.104
 7473TIP3   OH222295   3.453   8.841   6.172
 7473TIP3    H122296   3.467   8.781   6.245
 7473TIP3    H222297   3.454   8.928   6.212
 7474TIP3   OH222298   4.682   6.973   7.632
 7474TIP3    H122299   4.647   7.059   7.653
 7474TIP3    H222300   4.776   6.986   7.620
 7475TIP3   OH222301   1.767   7.774   3.758
 7475TIP3    H122302   1.802   7.690   3.727
 7475TIP3    H222303   1.707   7.803   3.689
 7476TIP3   OH222304   1.459   6.659   1.392
 7476TIP3    H122305   1.491   6.612   1.314
 7476TIP3    H222306   1.539   6.688   1.436
 7477TIP3   OH222307   0.185   1.691   5.571
 7477TIP3    H122308   0.274   1.699   5.538
 7477TIP3    H222309   0.192   1.631   5.645
 7478TIP3   OH222310   7.085   0.704   7.463
 7478TIP3    H122311   7.115   0.617   7.438
 7478TIP3    H222312   6.999   0.712   7.421
 7479TIP3   OH222313   9.513   3.328   6.624
 7479TIP3    H122314   9.608   3.318   6.629
 7479TIP3    H222315   9.492   3.316   6.531
 7480TIP3   OH222316   7.358   4.220   6.315
 7480TIP3    H122317   7.276   4.263   6.338
 7480TIP3    H222318   7.424   4.264   6.369
 7481TIP3   OH222319   3.430   4.497   0.826
 7481TIP3    H122320   3.397   4.434   0.891
 7481TIP3    H222321   3.465   4.569   0.878
 7482TIP3   OH222322   3.608   1.254   3.860
 7482TIP3    H122323   3.636   1.236   3.949
 7482TIP3    H222324   3.527   1.206   3.849
 7483TIP3   OH222325   0.301   1.799   6.540
 7483TIP3    H122326   0.296   1.892   6.564
 7483TIP3    H222327   0.281   1.798   6.446
 7484TIP3   OH222328   7.604   0.597   3.386
 7484TIP3    H122329   7.612   0.670   3.448
 7484TIP3    H222330   7.693   0.560   3.380
 7485TIP3   OH222331   1.896   4.804   4.631
 7485TIP3    H122332   1.955   4.729   4.627
 7485TIP3    H222333   1.850   4.803   4.547
 7486TIP3   OH222334   2.185   4.394   1.602
 7486TIP3    H122335   2.263   4.341   1.617
 7486TIP3    H222336   2.112   4.334   1.617
 7487TIP3   OH222337   2.251   1.800   7.239
 7487TIP3    H122338   2.289   1.714   7.257
 7487TIP3    H222339   2.226   1.833   7.325
 7488TIP3   OH222340   5.442   7.337   3.445
 7488TIP3    H122341   5.393   7.402   3.395
 7488TIP3    H222342   5.428   7.254   3.399
 7489TIP3   OH222343   1.776   6.947   7.091
 7489TIP3    H122344   1.800   6.854   7.091
 7489TIP3    H222345   1.682   6.948   7.107
 7490TIP3   OH222346   3.655   7.630   4.679
 7490TIP3    H122347   3.669   7.631   4.774
 7490TIP3    H222348   3.562   7.610   4.669
 7491TIP3   OH222349   1.939   7.154   4.355
 7491TIP3    H122350   1.908   7.178   4.268
 7491TIP3    H222351   1.999   7.225   4.380
 7492TIP3   OH222352   6.498   8.242   4.536
 7492TIP3    H122353   6.428   8.187   4.572
 7492TIP3    H222354   6.479   8.330   4.569
 7493TIP3   OH222355   0.655   0.533   1.529
 7493TIP3    H122356   0.566   0.503   1.547
 7493TIP3    H222357   0.644   0.605   1.466
 7494TIP3   OH222358   6.096   0.148   1.543
 7494TIP3    H122359   6.052   0.076   1.498
 7494TIP3    H222360   6.184   0.149   1.504
 7495TIP3   OH222361   7.769   2.441   0.378
 7495TIP3    H122362   7.730   2.358   0.353
 7495TIP3    H222363   7.711   2.474   0.448
 7496TIP3   OH222364   0.126   7.128   1.958
 7496TIP3    H122365   0.115   7.119   2.052
 7496TIP3    H222366   0.164   7.215   1.946
 7497TIP3   OH222367   3.828   1.033   3.333
 7497TIP3    H122368   3.919   1.061   3.327
 7497TIP3    H222369   3.798   1.068   3.417
 7498TIP3   OH222370   5.654   2.231   5.103
 7498TIP3    H122371   5.728   2.178   5.133
 7498TIP3    H222372   5.590   2.167   5.071
 7499TIP3   OH222373   3.568   3.242   6.048
 7499TIP3    H122374   3.617   3.192   6.113
 7499TIP3    H222375   3.554   3.328   6.089
 7500TIP3   OH222376   4.340   5.466   0.432
 7500TIP3    H122377   4.314   5.548   0.392
 7500TIP3    H222378   4.352   5.406   0.359
 7501TIP3   OH222379   0.970   8.403   1.689
 7501TIP3    H122380   1.055   8.361   1.702
 7501TIP3    H222381   0.983   8.493   1.720
 7502TIP3   OH222382   4.370   7.103   4.843
 7502TIP3    H122383   4.361   7.042   4.916
 7502TIP3    H222384   4.459   7.139   4.852
 7503TIP3   OH222385   3.036   1.786   2.418
 7503TIP3    H122386   3.132   1.782   2.421
 7503TIP3    H222387   3.017   1.850   2.350
 7504TIP3   OH222388   9.476   4.761   0.491
 7504TIP3    H122389   9.413   4.764   0.563
 7504TIP3    H222390   9.464   4.674   0.453
 7505TIP3   OH222391   0.010   0.768   6.933
 7505TIP3    H122392  -0.029   0.856   6.931
 7505TIP3    H222393  -0.005   0.733   6.845
 7506TIP3   OH222394   3.019   2.143   6.563
 7506TIP3    H122395   3.113   2.149   6.550
 7506TIP3    H222396   3.008   2.091   6.643
 7507TIP3   OH222397   4.219   4.307   2.159
 7507TIP3    H122398   4.298   4.318   2.106
 7507TIP3    H222399   4.252   4.297   2.248
 7508TIP3   OH222400   6.173   7.010   4.636
 7508TIP3    H122401   6.193   7.089   4.585
 7508TIP3    H222402   6.109   7.038   4.700
 7509TIP3   OH222403   3.512   7.949   6.778
 7509TIP3    H122404   3.539   8.020   6.720
 7509TIP3    H222405   3.419   7.965   6.794
 7510TIP3   OH222406   1.454   4.525   2.700
 7510TIP3    H122407   1.440   4.460   2.769
 7510TIP3    H222408   1.533   4.496   2.654
 7511TIP3   OH222409   4.854   7.962   7.599
 7511TIP3    H122410   4.776   7.950   7.652
 7511TIP3    H222411   4.842   7.904   7.524
 7512TIP3   OH222412   2.757   8.398   4.691
 7512TIP3    H122413   2.712   8.408   4.775
 7512TIP3    H222414   2.687   8.398   4.626
 7513TIP3   OH222415   6.206   4.467   7.030
 7513TIP3    H122416   6.120   4.430   7.050
 7513TIP3    H222417   6.258   4.391   7.002
 7514TIP3   OH222418   1.377   1.461   2.036
 7514TIP3    H122419   1.335   1.375   2.041
 7514TIP3    H222420   1.409   1.468   1.946
 7515TIP3   OH222421   2.988   2.310   3.492
 7515TIP3    H122422   2.927   2.311   3.419
 7515TIP3    H222423   2.962   2.234   3.544
 7516TIP3   OH222424   7.025   1.809   1.947
 7516TIP3    H122425   7.074   1.855   2.015
 7516TIP3    H222426   6.944   1.860   1.937
 7517TIP3   OH222427   2.733   5.571   2.745
 7517TIP3    H122428   2.725   5.661   2.714
 7517TIP3    H222429   2.663   5.523   2.700
 7518TIP3   OH222430   4.125   3.486   5.530
 7518TIP3    H122431   4.039   3.493   5.570
 7518TIP3    H222432   4.185   3.477   5.604
 7519TIP3   OH222433   3.551   1.975   6.773
 7519TIP3    H122434   3.541   1.971   6.678
 7519TIP3    H222435   3.533   1.885   6.803
 7520TIP3   OH222436   0.854   5.427   0.812
 7520TIP3    H122437   0.908   5.350   0.792
 7520TIP3    H222438   0.914   5.487   0.857
 7521TIP3   OH222439   7.179   3.179   1.108
 7521TIP3    H122440   7.129   3.134   1.040
 7521TIP3    H222441   7.120   3.182   1.183
 7522TIP3   OH222442   6.686   2.862   5.345
 7522TIP3    H122443   6.667   2.921   5.418
 7522TIP3    H222444   6.778   2.879   5.324
 7523TIP3   OH222445   4.939   3.073   4.483
 7523TIP3    H122446   5.008   3.117   4.433
 7523TIP3    H222447   4.930   3.125   4.563
 7524TIP3   OH222448   8.583   4.294   7.690
 7524TIP3    H122449   8.654   4.232   7.675
 7524TIP3    H222450   8.538   4.299   7.605
 7525TIP3   OH222451   2.951   2.451   4.790
 7525TIP3    H122452   2.945   2.546   4.795
 7525TIP3    H222453   3.024   2.429   4.849
 7526TIP3   OH222454   8.455   3.539   5.719
 7526TIP3    H122455   8.524   3.599   5.743
 7526TIP3    H222456   8.402   3.587   5.655
 7527TIP3   OH222457   5.164   7.966   4.459
 7527TIP3    H122458   5.149   7.976   4.553
 7527TIP3    H222459   5.102   7.897   4.432
 7528TIP3   OH222460   2.601   5.178   5.585
 7528TIP3    H122461   2.641   5.239   5.523
 7528TIP3    H222462   2.553   5.115   5.530
 7529TIP3   OH222463   6.972   4.914   3.948
 7529TIP3    H122464   7.006   4.825   3.943
 7529TIP3    H222465   6.989   4.951   3.862
 7530TIP3   OH222466   7.697   6.030   1.373
 7530TIP3    H122467   7.649   6.102   1.332
 7530TIP3    H222468   7.763   6.005   1.309
 7531TIP3   OH222469   2.277   5.640   6.745
 7531TIP3    H122470   2.258   5.732   6.728
 7531TIP3    H222471   2.369   5.630   6.720
 7532TIP3   OH222472   1.355   7.029   4.247
 7532TIP3    H122473   1.273   7.079   4.247
 7532TIP3    H222474   1.328   6.939   4.232
 7533TIP3   OH222475   2.992   3.462   0.914
 7533TIP3    H122476   2.908   3.468   0.869
 7533TIP3    H222477   3.042   3.538   0.882
 7534TIP3   OH222478   3.078   2.828   6.297
 7534TIP3    H122479   3.003   2.787   6.253
 7534TIP3    H222480   3.049   2.839   6.387
 7535TIP3   OH222481   4.045   5.910   3.939
 7535TIP3    H122482   4.022   5.828   3.895
 7535TIP3    H222483   3.973   5.925   4.001
 7536TIP3   OH222484   1.484   1.066   1.032
 7536TIP3    H122485   1.578   1.047   1.029
 7536TIP3    H222486   1.453   1.021   1.110
 7537TIP3   OH222487   0.831   2.628   3.202
 7537TIP3    H122488   0.852   2.536   3.190
 7537TIP3    H222489   0.892   2.674   3.144
 7538TIP3   OH222490   5.808   0.775   0.888
 7538TIP3    H122491   5.785   0.757   0.797
 7538TIP3    H222492   5.875   0.710   0.909
 7539TIP3   OH222493   7.386   0.849   3.545
 7539TIP3    H122494   7.443   0.825   3.618
 7539TIP3    H222495   7.417   0.935   3.518
 7540TIP3   OH222496   6.144   8.576   2.714
 7540TIP3    H122497   6.195   8.633   2.771
 7540TIP3    H222498   6.187   8.583   2.628
 7541TIP3   OH222499   6.141   2.229   6.574
 7541TIP3    H122500   6.117   2.242   6.666
 7541TIP3    H222501   6.118   2.311   6.531
 7542TIP3   OH222502   3.527   3.540   0.851
 7542TIP3    H122503   3.576   3.468   0.891
 7542TIP3    H222504   3.484   3.583   0.925
 7543TIP3   OH222505   0.581   0.338   6.057
 7543TIP3    H122506   0.624   0.344   6.143
 7543TIP3    H222507   0.490   0.316   6.078
 7544TIP3   OH222508   2.150   8.118   7.429
 7544TIP3    H122509   2.110   8.105   7.515
 7544TIP3    H222510   2.228   8.172   7.447
 7545TIP3   OH222511   5.574   3.161   1.682
 7545TIP3    H122512   5.566   3.149   1.587
 7545TIP3    H222513   5.658   3.121   1.705
 7546TIP3   OH222514   2.988   2.310   5.920
 7546TIP3    H122515   2.893   2.307   5.932
 7546TIP3    H222516   2.999   2.355   5.836
 7547TIP3   OH222517   3.788   1.781   6.819
 7547TIP3    H122518   3.716   1.733   6.861
 7547TIP3    H222519   3.778   1.762   6.725
 7548TIP3   OH222520   4.988   0.031   6.233
 7548TIP3    H122521   4.927   0.014   6.161
 7548TIP3    H222522   4.932   0.045   6.309
 7549TIP3   OH222523   0.470   4.185   1.953
 7549TIP3    H122524   0.493   4.245   1.882
 7549TIP3    H222525   0.520   4.217   2.029
 7550TIP3   OH222526   1.554   6.555   4.808
 7550TIP3    H122527   1.576   6.642   4.776
 7550TIP3    H222528   1.490   6.571   4.877
 7551TIP3   OH222529   2.572   2.503   3.222
 7551TIP3    H122530   2.532   2.525   3.305
 7551TIP3    H222531   2.568   2.584   3.171
 7552TIP3   OH222532   6.408   3.122   5.607
 7552TIP3    H122533   6.355   3.117   5.528
 7552TIP3    H222534   6.489   3.077   5.584
 7553TIP3   OH222535   4.980   5.756   2.066
 7553TIP3    H122536   5.046   5.686   2.073
 7553TIP3    H222537   5.006   5.805   1.988
 7554TIP3   OH222538   9.173   3.998   2.574
 7554TIP3    H122539   9.144   3.929   2.514
 7554TIP3    H222540   9.264   4.013   2.551
 7555TIP3   OH222541   8.674   5.856   0.088
 7555TIP3    H122542   8.613   5.928   0.072
 7555TIP3    H222543   8.703   5.829   0.000
 7556TIP3   OH222544   8.869   6.581   5.411
 7556TIP3    H122545   8.780   6.550   5.396
 7556TIP3    H222546   8.911   6.510   5.460
 7557TIP3   OH222547   4.447   1.810   3.326
 7557TIP3    H122548   4.397   1.760   3.263
 7557TIP3    H222549   4.512   1.748   3.360
 7558TIP3   OH222550   7.355   8.763   4.551
 7558TIP3    H122551   7.274   8.713   4.563
 7558TIP3    H222552   7.370   8.805   4.636
 7559TIP3   OH222553   9.480   3.533   7.130
 7559TIP3    H122554   9.461   3.565   7.042
 7559TIP3    H222555   9.563   3.486   7.122
 7560TIP3   OH222556   4.687   3.062   0.864
 7560TIP3    H122557   4.760   3.121   0.886
 7560TIP3    H222558   4.623   3.077   0.933
 7561TIP3   OH222559   1.344   8.320   6.589
 7561TIP3    H122560   1.388   8.236   6.575
 7561TIP3    H222561   1.253   8.303   6.565
 7562TIP3   OH222562   4.953   2.473   1.217
 7562TIP3    H122563   4.872   2.431   1.247
 7562TIP3    H222564   4.990   2.411   1.155
 7563TIP3   OH222565   4.351   5.109   2.686
 7563TIP3    H122566   4.264   5.070   2.696
 7563TIP3    H222567   4.342   5.168   2.612
 7564TIP3   OH222568   3.335   8.336   1.350
 7564TIP3    H122569   3.327   8.416   1.298
 7564TIP3    H222570   3.376   8.273   1.291
 7565TIP3   OH222571   4.194   8.148   7.254
 7565TIP3    H122572   4.158   8.206   7.187
 7565TIP3    H222573   4.177   8.059   7.221
 7566TIP3   OH222574   6.361   7.127   5.925
 7566TIP3    H122575   6.433   7.125   5.987
 7566TIP3    H222576   6.348   7.035   5.901
 7567TIP3   OH222577   3.737   7.365   7.327
 7567TIP3    H122578   3.819   7.367   7.377
 7567TIP3    H222579   3.682   7.301   7.373
 7568TIP3   OH222580   4.671   6.604   2.796
 7568TIP3    H122581   4.619   6.612   2.875
 7568TIP3    H222582   4.608   6.588   2.726
 7569TIP3   OH222583   4.316   1.128   5.073
 7569TIP3    H122584   4.405   1.143   5.106
 7569TIP3    H222585   4.319   1.157   4.982
 7570TIP3   OH222586   7.559   8.398   5.234
 7570TIP3    H122587   7.482   8.342   5.224
 7570TIP3    H222588   7.523   8.485   5.252
 7571TIP3   OH222589   8.810   1.581   6.532
 7571TIP3    H122590   8.885   1.580   6.592
 7571TIP3    H222591   8.754   1.510   6.562
 7572TIP3   OH222592   1.925   4.971   6.693
 7572TIP3    H122593   1.911   5.001   6.604
 7572TIP3    H222594   1.886   4.883   6.695
 7573TIP3   OH222595   1.948   8.936   0.989
 7573TIP3    H122596   1.870   8.918   1.041
 7573TIP3    H222597   1.929   8.901   0.902
 7574TIP3   OH222598   5.184   7.189   7.536
 7574TIP3    H122599   5.152   7.114   7.487
 7574TIP3    H222600   5.237   7.151   7.606
 7575TIP3   OH222601   5.742   6.672   4.873
 7575TIP3    H122602   5.754   6.639   4.784
 7575TIP3    H222603   5.829   6.704   4.899
 7576TIP3   OH222604   0.052   2.068   0.689
 7576TIP3    H122605  -0.015   2.085   0.623
 7576TIP3    H222606   0.134   2.068   0.640
 7577TIP3   OH222607   4.295   0.237   6.132
 7577TIP3    H122608   4.388   0.219   6.118
 7577TIP3    H222609   4.254   0.222   6.046
 7578TIP3   OH222610   2.134   8.164   5.550
 7578TIP3    H122611   2.175   8.101   5.491
 7578TIP3    H222612   2.078   8.216   5.493
 7579TIP3   OH222613   8.122   2.422   3.185
 7579TIP3    H122614   8.093   2.403   3.274
 7579TIP3    H222615   8.069   2.364   3.130
 7580TIP3   OH222616   6.762   4.583   6.671
 7580TIP3    H122617   6.831   4.535   6.626
 7580TIP3    H222618   6.805   4.664   6.700
 7581TIP3   OH222619   6.379   4.507   4.547
 7581TIP3    H122620   6.290   4.533   4.524
 7581TIP3    H222621   6.412   4.462   4.469
 7582TIP3   OH222622   5.758   2.105   1.635
 7582TIP3    H122623   5.745   2.036   1.570
 7582TIP3    H222624   5.836   2.077   1.684
 7583TIP3   OH222625   7.070   8.115   5.035
 7583TIP3    H122626   7.029   8.192   5.075
 7583TIP3    H222627   7.005   8.046   5.047
 7584TIP3   OH222628   6.370   1.522   7.699
 7584TIP3    H122629   6.319   1.550   7.623
 7584TIP3    H222630   6.305   1.486   7.760
 7585TIP3   OH222631   5.893   5.589   5.081
 7585TIP3    H122632   5.810   5.635   5.091
 7585TIP3    H222633   5.868   5.497   5.066
 7586TIP3   OH222634   3.056   2.353   7.260
 7586TIP3    H122635   3.006   2.291   7.207
 7586TIP3    H222636   3.032   2.439   7.226
 7587TIP3   OH222637   6.587   7.416   3.513
 7587TIP3    H122638   6.573   7.451   3.602
 7587TIP3    H222639   6.600   7.494   3.459
 7588TIP3   OH222640   1.642   8.053   4.791
 7588TIP3    H122641   1.586   8.107   4.845
 7588TIP3    H222642   1.726   8.050   4.838
 7589TIP3   OH222643   2.750   7.834   6.242
 7589TIP3    H122644   2.807   7.878   6.305
 7589TIP3    H222645   2.793   7.847   6.158
 7590TIP3   OH222646   8.904   4.654   3.798
 7590TIP3    H122647   8.860   4.689   3.720
 7590TIP3    H222648   8.939   4.731   3.843
 7591TIP3   OH222649   2.168   8.541   3.297
 7591TIP3    H122650   2.157   8.538   3.392
 7591TIP3    H222651   2.079   8.549   3.263
 7592TIP3   OH222652   9.280   6.145   1.038
 7592TIP3    H122653   9.317   6.057   1.034
 7592TIP3    H222654   9.198   6.134   1.087
 7593TIP3   OH222655   1.955   2.556   3.727
 7593TIP3    H122656   2.040   2.512   3.718
 7593TIP3    H222657   1.975   2.648   3.713
 7594TIP3   OH222658   4.048   7.405   4.930
 7594TIP3    H122659   4.128   7.399   4.981
 7594TIP3    H222660   3.998   7.326   4.954
 7595TIP3   OH222661   1.239   4.504   2.371
 7595TIP3    H122662   1.219   4.491   2.463
 7595TIP3    H222663   1.196   4.430   2.326
 7596TIP3   OH222664   8.556   4.973   3.742
 7596TIP3    H122665   8.650   4.992   3.735
 7596TIP3    H222666   8.546   4.885   3.706
 7597TIP3   OH222667   7.115   8.969   7.219
 7597TIP3    H122668   7.143   8.891   7.267
 7597TIP3    H222669   7.080   8.935   7.136
 7598TIP3   OH222670   3.174   1.431   3.702
 7598TIP3    H122671   3.231   1.507   3.702
 7598TIP3    H222672   3.091   1.463   3.665
 7599TIP3   OH222673   2.520   1.901   4.102
 7599TIP3    H122674   2.454   1.832   4.099
 7599TIP3    H222675   2.566   1.886   4.185
 7600TIP3   OH222676   6.728   4.913   1.149
 7600TIP3    H122677   6.823   4.920   1.158
 7600TIP3    H222678   6.698   5.002   1.135
 7601TIP3   OH222679   2.659   2.236   7.577
 7601TIP3    H122680   2.620   2.258   7.493
 7601TIP3    H222681   2.671   2.320   7.621
 7602TIP3   OH222682   2.597   1.574   5.798
 7602TIP3    H122683   2.690   1.553   5.786
 7602TIP3    H222684   2.587   1.585   5.893
 7603TIP3   OH222685   6.945   7.887   7.523
 7603TIP3    H122686   6.993   7.964   7.553
 7603TIP3    H222687   6.988   7.864   7.440
 7604TIP3   OH222688   0.657   6.417   3.471
 7604TIP3    H122689   0.602   6.483   3.512
 7604TIP3    H222690   0.743   6.459   3.461
 7605TIP3   OH222691   9.333   4.567   6.462
 7605TIP3    H122692   9.263   4.607   6.411
 7605TIP3    H222693   9.288   4.510   6.524
 7606TIP3   OH222694   5.692   2.956   3.012
 7606TIP3    H122695   5.618   2.906   2.979
 7606TIP3    H222696   5.680   2.956   3.107
 7607TIP3   OH222697   5.022   2.549   2.667
 7607TIP3    H122698   5.103   2.498   2.671
 7607TIP3    H222699   5.026   2.607   2.742
 7608TIP3   OH222700   3.827   1.667   4.289
 7608TIP3    H122701   3.902   1.644   4.234
 7608TIP3    H222702   3.812   1.760   4.272
 7609TIP3   OH222703   2.226   6.056   5.499
 7609TIP3    H122704   2.315   6.056   5.535
 7609TIP3    H222705   2.169   6.054   5.576
 7610TIP3   OH222706   7.837   5.349   1.391
 7610TIP3    H122707   7.791   5.270   1.362
 7610TIP3    H222708   7.893   5.319   1.462
 7611TIP3   OH222709   0.759   8.267   0.136
 7611TIP3    H122710   0.725   8.196   0.192
 7611TIP3    H222711   0.847   8.282   0.169
 7612TIP3   OH222712   6.558   6.241   5.392
 7612TIP3    H122713   6.481   6.271   5.345
 7612TIP3    H222714   6.529   6.162   5.438
 7613TIP3   OH222715   6.215   3.667   0.494
 7613TIP3    H122716   6.151   3.602   0.522
 7613TIP3    H222717   6.286   3.617   0.455
 7614TIP3   OH222718   0.547   0.638   3.345
 7614TIP3    H122719   0.494   0.657   3.422
 7614TIP3    H222720   0.507   0.687   3.274
 7615TIP3   OH222721   2.611   0.039   3.618
 7615TIP3    H122722   2.640  -0.028   3.680
 7615TIP3    H222723   2.605   0.119   3.671
 7616TIP3   OH222724   3.622   3.351   2.765
 7616TIP3    H122725   3.639   3.282   2.829
 7616TIP3    H222726   3.692   3.415   2.780
 7617TIP3   OH222727   6.507   6.551   2.550
 7617TIP3    H122728   6.569   6.514   2.613
 7617TIP3    H222729   6.423   6.549   2.596
 7618TIP3   OH222730   7.853   0.256   1.554
 7618TIP3    H122731   7.902   0.329   1.591
 7618TIP3    H222732   7.784   0.297   1.501
 7619TIP3   OH222733   5.915   2.792   3.984
 7619TIP3    H122734   5.941   2.860   3.922
 7619TIP3    H222735   5.991   2.733   3.987
 7620TIP3   OH222736   4.382   6.487   3.737
 7620TIP3    H122737   4.306   6.502   3.681
 7620TIP3    H222738   4.383   6.393   3.752
 7621TIP3   OH222739   4.395   0.657   2.405
 7621TIP3    H122740   4.342   0.637   2.482
 7621TIP3    H222741   4.362   0.742   2.374
 7622TIP3   OH222742   2.196   2.727   0.756
 7622TIP3    H122743   2.184   2.817   0.725
 7622TIP3    H222744   2.290   2.721   0.773
 7623TIP3   OH222745   7.087   8.634   1.711
 7623TIP3    H122746   7.182   8.647   1.714
 7623TIP3    H222747   7.072   8.584   1.631
 7624TIP3   OH222748   2.263   7.333   7.708
 7624TIP3    H122749   2.248   7.244   7.740
 7624TIP3    H222750   2.196   7.345   7.639
 7625TIP3   OH222751   9.255   4.211   6.613
 7625TIP3    H122752   9.317   4.232   6.543
 7625TIP3    H222753   9.170   4.237   6.578
 7626TIP3   OH222754   8.705   0.692   4.922
 7626TIP3    H122755   8.615   0.688   4.954
 7626TIP3    H222756   8.735   0.780   4.945
 7627TIP3   OH222757   6.074   2.789   0.965
 7627TIP3    H122758   5.995   2.766   0.917
 7627TIP3    H222759   6.118   2.853   0.908
 7628TIP3   OH222760   3.573   7.099   7.251
 7628TIP3    H122761   3.548   7.007   7.259
 7628TIP3    H222762   3.615   7.104   7.164
 7629TIP3   OH222763   3.441   7.103   5.108
 7629TIP3    H122764   3.486   7.175   5.063
 7629TIP3    H222765   3.379   7.069   5.044
 7630TIP3   OH222766   3.758   6.284   7.401
 7630TIP3    H122767   3.662   6.282   7.400
 7630TIP3    H222768   3.783   6.264   7.311
 7631TIP3   OH222769   5.714   2.783   3.526
 7631TIP3    H122770   5.682   2.774   3.436
 7631TIP3    H222771   5.676   2.708   3.572
 7632TIP3   OH222772   0.829   8.750   6.408
 7632TIP3    H122773   0.807   8.665   6.446
 7632TIP3    H222774   0.746   8.798   6.406
 7633TIP3   OH222775   1.523   3.889   4.402
 7633TIP3    H122776   1.455   3.955   4.390
 7633TIP3    H222777   1.562   3.879   4.316
 7634TIP3   OH222778   3.923   8.964   6.093
 7634TIP3    H122779   3.891   8.875   6.079
 7634TIP3    H222780   3.888   8.988   6.179
 7635TIP3   OH222781   6.213   4.573   1.059
 7635TIP3    H122782   6.283   4.564   0.995
 7635TIP3    H222783   6.254   4.554   1.143
 7636TIP3   OH222784   4.780   0.226   7.708
 7636TIP3    H122785   4.713   0.294   7.702
 7636TIP3    H222786   4.827   0.232   7.625
 7637TIP3   OH222787   6.212   8.741   0.192
 7637TIP3    H122788   6.197   8.829   0.225
 7637TIP3    H222789   6.254   8.754   0.106
 7638TIP3   OH222790   4.362   5.428   3.318
 7638TIP3    H122791   4.421   5.367   3.274
 7638TIP3    H222792   4.296   5.372   3.359
 7639TIP3   OH222793   3.102   3.368   7.406
 7639TIP3    H122794   3.109   3.390   7.499
 7639TIP3    H222795   3.163   3.429   7.363
 7640TIP3   OH222796   2.913   8.976   2.890
 7640TIP3    H122797   2.898   9.010   2.978
 7640TIP3    H222798   2.898   9.050   2.832
 7641TIP3   OH222799   5.100   0.770   3.671
 7641TIP3    H122800   5.095   0.839   3.605
 7641TIP3    H222801   5.025   0.785   3.729
 7642TIP3   OH222802   2.352   2.847   4.120
 7642TIP3    H122803   2.276   2.888   4.161
 7642TIP3    H222804   2.319   2.809   4.039
 7643TIP3   OH222805   6.706   6.650   3.820
 7643TIP3    H122806   6.676   6.559   3.822
 7643TIP3    H222807   6.642   6.695   3.766
 7644TIP3   OH222808   0.536   9.008   4.696
 7644TIP3    H122809   0.448   9.020   4.733
 7644TIP3    H222810   0.555   8.915   4.709
 7645TIP3   OH222811   9.116   8.847   2.952
 7645TIP3    H122812   9.083   8.763   2.919
 7645TIP3    H222813   9.158   8.888   2.876
 7646TIP3   OH222814   2.593   5.205   4.816
 7646TIP3    H122815   2.573   5.277   4.875
 7646TIP3    H222816   2.689   5.202   4.814
 7647TIP3   OH222817   2.087   1.981   4.638
 7647TIP3    H122818   2.174   1.975   4.677
 7647TIP3    H222819   2.102   2.023   4.553
 7648TIP3   OH222820   8.885   8.947   1.224
 7648TIP3    H122821   8.971   8.977   1.193
 7648TIP3    H222822   8.863   8.873   1.166
 7649TIP3   OH222823   4.996   1.836   5.124
 7649TIP3    H122824   5.076   1.883   5.146
 7649TIP3    H222825   4.983   1.775   5.197
 7650TIP3   OH222826   7.601   4.596   2.077
 7650TIP3    H122827   7.694   4.619   2.081
 7650TIP3    H222828   7.600   4.503   2.056
 7651TIP3   OH222829   9.251   4.736   3.318
 7651TIP3    H122830   9.304   4.809   3.352
 7651TIP3    H222831   9.215   4.695   3.397
 7652TIP3   OH222832   2.456   5.625   1.949
 7652TIP3    H122833   2.504   5.701   1.917
 7652TIP3    H222834   2.520   5.576   2.001
 7653TIP3   OH222835   5.495   0.280   6.145
 7653TIP3    H122836   5.406   0.247   6.130
 7653TIP3    H222837   5.533   0.217   6.206
 7654TIP3   OH222838   5.127   0.633   5.042
 7654TIP3    H122839   5.161   0.721   5.060
 7654TIP3    H222840   5.087   0.606   5.125
 7655TIP3   OH222841   8.111   0.752   2.136
 7655TIP3    H122842   8.029   0.771   2.181
 7655TIP3    H222843   8.087   0.688   2.069
 7656TIP3   OH222844   9.226   5.261   3.720
 7656TIP3    H122845   9.308   5.225   3.756
 7656TIP3    H222846   9.246   5.280   3.629
 7657TIP3   OH222847   6.283   5.242   6.368
 7657TIP3    H122848   6.326   5.284   6.293
 7657TIP3    H222849   6.276   5.312   6.433
 7658TIP3   OH222850   4.516   1.532   7.689
 7658TIP3    H122851   4.476   1.599   7.633
 7658TIP3    H222852   4.607   1.559   7.698
 7659TIP3   OH222853   2.843   8.077   0.547
 7659TIP3    H122854   2.931   8.090   0.583
 7659TIP3    H222855   2.788   8.059   0.623
 7660TIP3   OH222856   7.677   8.264   6.852
 7660TIP3    H122857   7.584   8.257   6.872
 7660TIP3    H222858   7.681   8.316   6.772
 7661TIP3   OH222859   3.648   1.376   2.792
 7661TIP3    H122860   3.713   1.389   2.724
 7661TIP3    H222861   3.699   1.360   2.872
 7662TIP3   OH222862   2.672   0.063   3.345
 7662TIP3    H122863   2.648   0.066   3.437
 7662TIP3    H222864   2.589   0.046   3.299
 7663TIP3   OH222865   7.415   2.105   7.232
 7663TIP3    H122866   7.401   2.175   7.295
 7663TIP3    H222867   7.329   2.091   7.191
 7664TIP3   OH222868   1.097   8.643   2.729
 7664TIP3    H122869   1.069   8.571   2.672
 7664TIP3    H222870   1.097   8.719   2.671
 7665TIP3   OH222871   8.625   1.016   6.839
 7665TIP3    H122872   8.587   0.960   6.772
 7665TIP3    H222873   8.705   0.971   6.866
 7666TIP3   OH222874   9.530   1.494   0.030
 7666TIP3    H122875   9.434   1.498   0.026
 7666TIP3    H222876   9.553   1.540   0.111
 7667TIP3   OH222877   8.496   4.010   6.539
 7667TIP3    H122878   8.564   3.955   6.500
 7667TIP3    H222879   8.498   4.091   6.488
 7668TIP3   OH222880   8.360   4.384   2.146
 7668TIP3    H122881   8.295   4.315   2.136
 7668TIP3    H222882   8.408   4.384   2.062
 7669TIP3   OH222883   1.423   5.022   4.735
 7669TIP3    H122884   1.357   4.962   4.698
 7669TIP3    H222885   1.504   4.997   4.691
 7670TIP3   OH222886   2.949   4.188   0.111
 7670TIP3    H122887   2.900   4.259   0.153
 7670TIP3    H222888   2.886   4.150   0.049
 7671TIP3   OH222889   1.071   4.012   6.898
 7671TIP3    H122890   1.095   3.982   6.985
 7671TIP3    H222891   1.096   3.940   6.840
 7672TIP3   OH222892   0.817   7.708   2.095
 7672TIP3    H122893   0.812   7.804   2.099
 7672TIP3    H222894   0.844   7.682   2.183
 7673TIP3   OH222895   0.274   4.557   6.018
 7673TIP3    H122896   0.210   4.556   5.947
 7673TIP3    H222897   0.349   4.509   5.984
 7674TIP3   OH222898   2.066   3.196   5.370
 7674TIP3    H122899   2.076   3.218   5.463
 7674TIP3    H222900   1.974   3.172   5.361
 7675TIP3   OH222901   7.748   3.553   1.537
 7675TIP3    H122902   7.703   3.628   1.499
 7675TIP3    H222903   7.781   3.584   1.621
 7676TIP3   OH222904   2.013   2.692   6.225
 7676TIP3    H122905   1.939   2.752   6.219
 7676TIP3    H222906   2.054   2.713   6.308
 7677TIP3   OH222907   3.573   0.191   6.510
 7677TIP3    H122908   3.608   0.111   6.549
 7677TIP3    H222909   3.513   0.226   6.576
 7678TIP3   OH222910   6.128   2.487   0.332
 7678TIP3    H122911   6.218   2.464   0.308
 7678TIP3    H222912   6.074   2.453   0.260
 7679TIP3   OH222913   2.363   0.582   6.737
 7679TIP3    H122914   2.268   0.593   6.735
 7679TIP3    H222915   2.377   0.502   6.789
 7680TIP3   OH222916   1.406   1.544   7.554
 7680TIP3    H122917   1.310   1.548   7.553
 7680TIP3    H222918   1.427   1.468   7.498
 7681TIP3   OH222919   4.723   0.975   4.355
 7681TIP3    H122920   4.816   0.970   4.376
 7681TIP3    H222921   4.708   1.068   4.334
 7682TIP3   OH222922   0.287   6.510   5.417
 7682TIP3    H122923   0.236   6.432   5.440
 7682TIP3    H222924   0.277   6.569   5.492
 7683TIP3   OH222925   8.269   4.569   2.341
 7683TIP3    H122926   8.308   4.509   2.277
 7683TIP3    H222927   8.194   4.607   2.295
 7684TIP3   OH222928   3.606   3.546   5.516
 7684TIP3    H122929   3.618   3.640   5.511
 7684TIP3    H222930   3.563   3.531   5.600
 7685TIP3   OH222931   7.367   5.078   3.646
 7685TIP3    H122932   7.403   5.129   3.573
 7685TIP3    H222933   7.315   5.010   3.603
 7686TIP3   OH222934   0.268   3.581   5.687
 7686TIP3    H122935   0.342   3.580   5.626
 7686TIP3    H222936   0.266   3.493   5.724
 7687TIP3   OH222937   2.756   5.201   4.347
 7687TIP3    H122938   2.824   5.161   4.401
 7687TIP3    H222939   2.686   5.224   4.409
 7688TIP3   OH222940   4.193   5.374   1.043
 7688TIP3    H122941   4.266   5.427   1.011
 7688TIP3    H222942   4.212   5.286   1.012
 7689TIP3   OH222943   8.594   8.096   2.926
 7689TIP3    H122944   8.607   8.008   2.891
 7689TIP3    H222945   8.570   8.081   3.018
 7690TIP3   OH222946   1.081   6.982   2.616
 7690TIP3    H122947   1.000   7.005   2.569
 7690TIP3    H222948   1.085   6.887   2.612
 7691TIP3   OH222949   8.281   6.704   4.032
 7691TIP3    H122950   8.318   6.781   3.989
 7691TIP3    H222951   8.345   6.635   4.019
 7692TIP3   OH222952   7.799   2.150   2.361
 7692TIP3    H122953   7.811   2.056   2.371
 7692TIP3    H222954   7.712   2.160   2.323
 7693TIP3   OH222955   6.636   4.965   3.800
 7693TIP3    H122956   6.637   4.901   3.728
 7693TIP3    H222957   6.661   5.047   3.758
 7694TIP3   OH222958   3.889   6.169   0.409
 7694TIP3    H122959   3.875   6.230   0.481
 7694TIP3    H222960   3.981   6.180   0.385
 7695TIP3   OH222961   8.454   8.720   6.109
 7695TIP3    H122962   8.433   8.812   6.089
 7695TIP3    H222963   8.518   8.725   6.180
 7696TIP3   OH222964   5.543   3.444   0.153
 7696TIP3    H122965   5.522   3.499   0.229
 7696TIP3    H222966   5.497   3.487   0.080
 7697TIP3   OH222967   0.474   4.303   4.260
 7697TIP3    H122968   0.460   4.209   4.251
 7697TIP3    H222969   0.411   4.343   4.199
 7698TIP3   OH222970   4.612   5.759   5.864
 7698TIP3    H122971   4.537   5.706   5.893
 7698TIP3    H222972   4.647   5.712   5.789
 7699TIP3   OH222973   3.348   4.873   1.701
 7699TIP3    H122974   3.392   4.788   1.706
 7699TIP3    H222975   3.317   4.879   1.611
 7700TIP3   OH222976   1.233   7.291   0.868
 7700TIP3    H122977   1.276   7.347   0.803
 7700TIP3    H222978   1.243   7.338   0.951
 7701TIP3   OH222979   4.688   8.496   0.601
 7701TIP3    H122980   4.600   8.527   0.621
 7701TIP3    H222981   4.675   8.406   0.570
 7702TIP3   OH222982   9.447   2.539   0.276
 7702TIP3    H122983   9.509   2.468   0.260
 7702TIP3    H222984   9.379   2.527   0.210
 7703TIP3   OH222985   4.279   7.417   5.088
 7703TIP3    H122986   4.349   7.464   5.043
 7703TIP3    H222987   4.325   7.356   5.145
 7704TIP3   OH222988   9.275   8.224   2.360
 7704TIP3    H122989   9.213   8.181   2.301
 7704TIP3    H222990   9.259   8.317   2.349
 7705TIP3   OH222991   5.663   3.160   5.343
 7705TIP3    H122992   5.752   3.141   5.373
 7705TIP3    H222993   5.674   3.227   5.277
 7706TIP3   OH222994   2.449   6.882   6.636
 7706TIP3    H122995   2.457   6.973   6.607
 7706TIP3    H222996   2.407   6.888   6.722
 7707TIP3   OH222997   0.631   3.818   3.038
 7707TIP3    H122998   0.654   3.742   2.984
 7707TIP3    H222999   0.702   3.824   3.102
 7708TIP3   OH223000   9.127   6.515   0.170
 7708TIP3    H123001   9.198   6.577   0.187
 7708TIP3    H223002   9.104   6.528   0.078
 7709TIP3   OH223003   5.881   7.153   0.265
 7709TIP3    H123004   5.922   7.166   0.350
 7709TIP3    H223005   5.834   7.070   0.273
 7710TIP3   OH223006   1.934   5.259   2.482
 7710TIP3    H123007   1.999   5.279   2.415
 7710TIP3    H223008   1.852   5.291   2.446
 7711TIP3   OH223009   1.377   1.713   6.784
 7711TIP3    H123010   1.373   1.636   6.840
 7711TIP3    H223011   1.468   1.741   6.788
 7712TIP3   OH223012   0.130   6.124   0.094
 7712TIP3    H123013   0.112   6.082   0.010
 7712TIP3    H223014   0.066   6.087   0.154
 7713TIP3   OH223015   4.622   2.247   6.145
 7713TIP3    H123016   4.571   2.182   6.193
 7713TIP3    H223017   4.579   2.252   6.059
 7714TIP3   OH223018   4.625   0.253   6.128
 7714TIP3    H123019   4.584   0.258   6.214
 7714TIP3    H223020   4.629   0.343   6.098
 7715TIP3   OH223021   3.966   7.480   5.820
 7715TIP3    H123022   3.917   7.562   5.825
 7715TIP3    H223023   4.040   7.499   5.763
 7716TIP3   OH223024   1.981   1.834   7.786
 7716TIP3    H123025   1.901   1.870   7.747
 7716TIP3    H223026   2.014   1.904   7.842
 7717TIP3   OH223027   7.494   4.892   4.096
 7717TIP3    H123028   7.573   4.863   4.143
 7717TIP3    H223029   7.522   4.900   4.005
 7718TIP3   OH223030   2.675   5.713   1.487
 7718TIP3    H123031   2.745   5.655   1.458
 7718TIP3    H223032   2.697   5.798   1.449
 7719TIP3   OH223033   4.981   0.605   5.981
 7719TIP3    H123034   4.990   0.632   5.890
 7719TIP3    H223035   4.910   0.658   6.016
 7720TIP3   OH223036   5.935   5.984   1.154
 7720TIP3    H123037   5.994   5.923   1.110
 7720TIP3    H223038   5.992   6.035   1.212
 7721TIP3   OH223039   5.136   4.561   0.153
 7721TIP3    H123040   5.133   4.508   0.074
 7721TIP3    H223041   5.048   4.553   0.191
 7722TIP3   OH223042   6.441   7.727   1.576
 7722TIP3    H123043   6.428   7.644   1.530
 7722TIP3    H223044   6.353   7.762   1.588
 7723TIP3   OH223045   4.895   6.967   5.218
 7723TIP3    H123046   4.862   6.920   5.295
 7723TIP3    H223047   4.967   6.913   5.185
 7724TIP3   OH223048   3.617   7.459   3.272
 7724TIP3    H123049   3.686   7.522   3.294
 7724TIP3    H223050   3.546   7.480   3.332
 7725TIP3   OH223051   7.685   5.250   5.950
 7725TIP3    H123052   7.722   5.316   6.008
 7725TIP3    H223053   7.617   5.208   6.003
 7726TIP3   OH223054   6.327   5.099   0.264
 7726TIP3    H123055   6.304   5.007   0.274
 7726TIP3    H223056   6.266   5.145   0.321
 7727TIP3   OH223057   5.598   2.772   6.556
 7727TIP3    H123058   5.558   2.708   6.499
 7727TIP3    H223059   5.691   2.772   6.531
 7728TIP3   OH223060   2.012   5.128   5.828
 7728TIP3    H123061   1.968   5.164   5.751
 7728TIP3    H223062   2.099   5.168   5.826
 7729TIP3   OH223063   1.573   4.268   5.301
 7729TIP3    H123064   1.542   4.351   5.266
 7729TIP3    H223065   1.572   4.280   5.396
 7730TIP3   OH223066   8.212   2.352   3.643
 7730TIP3    H123067   8.239   2.404   3.718
 7730TIP3    H223068   8.269   2.274   3.646
 7731TIP3   OH223069   3.601   0.418   1.706
 7731TIP3    H123070   3.517   0.416   1.751
 7731TIP3    H223071   3.645   0.495   1.741
 7732TIP3   OH223072   2.360   6.184   7.102
 7732TIP3    H123073   2.337   6.206   7.193
 7732TIP3    H223074   2.328   6.259   7.051
 7733TIP3   OH223075   3.641   0.442   3.835
 7733TIP3    H123076   3.591   0.457   3.915
 7733TIP3    H223077   3.727   0.480   3.852
 7734TIP3   OH223078   4.653   8.995   6.050
 7734TIP3    H123079   4.578   8.984   6.109
 7734TIP3    H223080   4.615   9.028   5.969
 7735TIP3   OH223081   3.681   1.907   0.744
 7735TIP3    H123082   3.689   1.814   0.766
 7735TIP3    H223083   3.705   1.953   0.824
 7736TIP3   OH223084   6.791   8.176   2.263
 7736TIP3    H123085   6.711   8.218   2.296
 7736TIP3    H223086   6.851   8.248   2.247
 7737TIP3   OH223087   0.841   2.489   3.756
 7737TIP3    H123088   0.873   2.422   3.696
 7737TIP3    H223089   0.891   2.474   3.837
 7738TIP3   OH223090   2.590   4.188   3.285
 7738TIP3    H123091   2.552   4.197   3.197
 7738TIP3    H223092   2.554   4.106   3.318
 7739TIP3   OH223093   9.331   6.250   7.032
 7739TIP3    H123094   9.398   6.290   6.976
 7739TIP3    H223095   9.253   6.246   6.977
 7740TIP3   OH223096   1.247   4.741   5.418
 7740TIP3    H123097   1.294   4.788   5.486
 7740TIP3    H223098   1.238   4.804   5.347
 7741TIP3   OH223099   8.893   2.843   2.103
 7741TIP3    H123100   8.944   2.841   2.183
 7741TIP3    H223101   8.851   2.756   2.099
 7742TIP3   OH223102   1.910   1.410   0.739
 7742TIP3    H123103   1.870   1.327   0.765
 7742TIP3    H223104   1.900   1.467   0.815
 7743TIP3   OH223105   2.699   3.489   6.037
 7743TIP3    H123106   2.606   3.464   6.032
 7743TIP3    H223107   2.711   3.517   6.127
 7744TIP3   OH223108   6.304   4.560   1.311
 7744TIP3    H123109   6.380   4.511   1.341
 7744TIP3    H223110   6.321   4.650   1.338
 7745TIP3   OH223111   2.822   5.363   4.578
 7745TIP3    H123112   2.843   5.363   4.672
 7745TIP3    H223113   2.907   5.357   4.535
 7746TIP3   OH223114   1.534   6.698   2.142
 7746TIP3    H123115   1.541   6.789   2.172
 7746TIP3    H223116   1.491   6.652   2.214
 7747TIP3   OH223117   3.289   0.987   7.368
 7747TIP3    H123118   3.209   1.039   7.362
 7747TIP3    H223119   3.292   0.959   7.459
 7748TIP3   OH223120   2.494   5.997   6.521
 7748TIP3    H123121   2.586   6.021   6.510
 7748TIP3    H223122   2.453   6.020   6.438
 7749TIP3   OH223123   1.676   8.824   7.330
 7749TIP3    H123124   1.603   8.864   7.281
 7749TIP3    H223125   1.647   8.826   7.421
 7750TIP3   OH223126   1.306   5.218   6.222
 7750TIP3    H123127   1.389   5.263   6.201
 7750TIP3    H223128   1.241   5.288   6.224
 7751TIP3   OH223129   5.135   1.024   3.525
 7751TIP3    H123130   5.143   1.105   3.475
 7751TIP3    H223131   5.190   1.038   3.602
 7752TIP3   OH223132   3.646   7.075   7.643
 7752TIP3    H123133   3.673   7.030   7.563
 7752TIP3    H223134   3.665   7.168   7.625
 7753TIP3   OH223135   3.512   5.369   6.565
 7753TIP3    H123136   3.451   5.330   6.502
 7753TIP3    H223137   3.465   5.444   6.600
 7754TIP3   OH223138   4.086   3.052   6.504
 7754TIP3    H123139   3.992   3.053   6.523
 7754TIP3    H223140   4.101   2.970   6.457
 7755TIP3   OH223141   7.463   5.570   6.712
 7755TIP3    H123142   7.407   5.617   6.774
 7755TIP3    H223143   7.537   5.629   6.697
 7756TIP3   OH223144   8.990   7.496   0.409
 7756TIP3    H123145   8.917   7.471   0.352
 7756TIP3    H223146   8.949   7.536   0.485
 7757TIP3   OH223147   8.356   1.408   5.757
 7757TIP3    H123148   8.437   1.358   5.744
 7757TIP3    H223149   8.308   1.399   5.675
 7758TIP3   OH223150   2.717   8.289   0.363
 7758TIP3    H123151   2.637   8.249   0.328
 7758TIP3    H223152   2.745   8.229   0.432
 7759TIP3   OH223153   6.111   4.195   7.490
 7759TIP3    H123154   6.192   4.243   7.473
 7759TIP3    H223155   6.116   4.119   7.432
 7760TIP3   OH223156   9.437   3.487   5.869
 7760TIP3    H123157   9.369   3.430   5.905
 7760TIP3    H223158   9.408   3.506   5.780
 7761TIP3   OH223159   1.851   5.882   3.893
 7761TIP3    H123160   1.765   5.898   3.932
 7761TIP3    H223161   1.845   5.922   3.806
 7762TIP3   OH223162   1.951   1.628   3.589
 7762TIP3    H123163   1.908   1.648   3.506
 7762TIP3    H223164   2.040   1.602   3.565
 7763TIP3   OH223165   7.180   8.624   4.711
 7763TIP3    H123166   7.087   8.617   4.732
 7763TIP3    H223167   7.218   8.543   4.746
 7764TIP3   OH223168   4.661   1.249   3.103
 7764TIP3    H123169   4.675   1.159   3.071
 7764TIP3    H223170   4.588   1.282   3.051
 7765TIP3   OH223171   6.299   7.383   0.644
 7765TIP3    H123172   6.276   7.476   0.640
 7765TIP3    H223173   6.305   7.364   0.737
 7766TIP3   OH223174   1.383   3.846   7.770
 7766TIP3    H123175   1.341   3.842   7.684
 7766TIP3    H223176   1.368   3.760   7.808
 7767TIP3   OH223177   4.844   2.419   7.513
 7767TIP3    H123178   4.862   2.513   7.520
 7767TIP3    H223179   4.921   2.382   7.471
 7768TIP3   OH223180   8.958   3.521   5.805
 7768TIP3    H123181   9.029   3.579   5.776
 7768TIP3    H223182   8.904   3.575   5.862
 7769TIP3   OH223183   3.839   3.846   2.449
 7769TIP3    H123184   3.818   3.934   2.417
 7769TIP3    H223185   3.768   3.791   2.417
 7770TIP3   OH223186   7.734   7.007   1.674
 7770TIP3    H123187   7.665   7.060   1.715
 7770TIP3    H223188   7.789   6.979   1.747
 7771TIP3   OH223189   8.721   6.930   5.593
 7771TIP3    H123190   8.784   6.918   5.664
 7771TIP3    H223191   8.646   6.875   5.618
 7772TIP3   OH223192   0.560   3.895   5.553
 7772TIP3    H123193   0.532   3.969   5.498
 7772TIP3    H223194   0.559   3.930   5.642
 7773TIP3   OH223195   8.566   2.345   0.568
 7773TIP3    H123196   8.577   2.273   0.505
 7773TIP3    H223197   8.596   2.309   0.651
 7774TIP3   OH223198   6.981   6.463   0.915
 7774TIP3    H123199   6.969   6.531   0.982
 7774TIP3    H223200   7.037   6.398   0.958
 7775TIP3   OH223201   3.677   8.144   4.947
 7775TIP3    H123202   3.659   8.087   4.872
 7775TIP3    H223203   3.613   8.119   5.013
 7776TIP3   OH223204   8.658   3.780   1.674
 7776TIP3    H123205   8.613   3.699   1.696
 7776TIP3    H223206   8.702   3.762   1.591
 7777TIP3   OH223207   7.680   8.427   2.325
 7777TIP3    H123208   7.655   8.350   2.377
 7777TIP3    H223209   7.770   8.446   2.353
 7778TIP3   OH223210   9.056   6.718   3.655
 7778TIP3    H123211   8.963   6.715   3.680
 7778TIP3    H223212   9.061   6.791   3.592
 7779TIP3   OH223213   0.967   6.644   1.619
 7779TIP3    H123214   1.044   6.642   1.561
 7779TIP3    H223215   1.002   6.621   1.705
 7780TIP3   OH223216   0.499   4.836   3.631
 7780TIP3    H123217   0.464   4.901   3.691
 7780TIP3    H223218   0.431   4.769   3.626
 7781TIP3   OH223219   5.450   8.503   5.811
 7781TIP3    H123220   5.448   8.434   5.745
 7781TIP3    H223221   5.515   8.474   5.874
 7782TIP3   OH223222   5.397   7.413   2.516
 7782TIP3    H123223   5.386   7.373   2.603
 7782TIP3    H223224   5.433   7.342   2.462
 7783TIP3   OH223225   8.751   8.025   0.782
 7783TIP3    H123226   8.809   7.979   0.721
 7783TIP3    H223227   8.769   8.117   0.766
 7784TIP3   OH223228   4.241   5.078   0.977
 7784TIP3    H123229   4.279   5.062   0.891
 7784TIP3    H223230   4.183   5.004   0.992
 7785TIP3   OH223231   3.934   5.371   1.424
 7785TIP3    H123232   3.937   5.438   1.355
 7785TIP3    H223233   3.856   5.394   1.475
 7786TIP3   OH223234   2.000   1.750   5.526
 7786TIP3    H123235   1.977   1.755   5.433
 7786TIP3    H223236   1.941   1.812   5.568
 7787TIP3   OH223237   2.917   4.451   7.675
 7787TIP3    H123238   2.976   4.479   7.604
 7787TIP3    H223239   2.898   4.531   7.723
 7788TIP3   OH223240   7.121   6.081   0.422
 7788TIP3    H123241   7.114   6.075   0.327
 7788TIP3    H223242   7.074   6.161   0.444
 7789TIP3   OH223243   2.685   0.284   0.611
 7789TIP3    H123244   2.755   0.346   0.633
 7789TIP3    H223245   2.731   0.203   0.590
 7790TIP3   OH223246   2.115   3.909   7.523
 7790TIP3    H123247   2.028   3.895   7.560
 7790TIP3    H223248   2.176   3.890   7.594
 7791TIP3   OH223249   4.414   0.802   0.355
 7791TIP3    H123250   4.406   0.780   0.262
 7791TIP3    H223251   4.509   0.806   0.370
 7792TIP3   OH223252   1.329   7.880   7.188
 7792TIP3    H123253   1.286   7.903   7.271
 7792TIP3    H223254   1.265   7.903   7.121
 7793TIP3   OH223255   7.537   2.604   7.350
 7793TIP3    H123256   7.518   2.514   7.378
 7793TIP3    H223257   7.608   2.596   7.287
 7794TIP3   OH223258   5.118   4.428   1.728
 7794TIP3    H123259   5.148   4.381   1.806
 7794TIP3    H223260   5.023   4.431   1.738
 7795TIP3   OH223261   7.486   4.319   3.488
 7795TIP3    H123262   7.532   4.266   3.553
 7795TIP3    H223263   7.519   4.408   3.502
 7796TIP3   OH223264   0.886   1.508   2.821
 7796TIP3    H123265   0.825   1.546   2.758
 7796TIP3    H223266   0.876   1.561   2.900
 7797TIP3   OH223267   7.894   6.127   7.524
 7797TIP3    H123268   7.905   6.145   7.431
 7797TIP3    H223269   7.964   6.176   7.567
 7798TIP3   OH223270   6.661   1.709   5.074
 7798TIP3    H123271   6.745   1.741   5.106
 7798TIP3    H223272   6.684   1.647   5.004
 7799TIP3   OH223273   4.986   8.485   3.379
 7799TIP3    H123274   4.956   8.444   3.460
 7799TIP3    H223275   4.947   8.572   3.380
 7800TIP3   OH223276   4.913   2.214   3.767
 7800TIP3    H123277   4.873   2.189   3.851
 7800TIP3    H223278   4.996   2.166   3.765
 7801TIP3   OH223279   0.527   6.605   5.603
 7801TIP3    H123280   0.561   6.644   5.522
 7801TIP3    H223281   0.465   6.538   5.573
 7802TIP3   OH223282   9.437   7.074   4.976
 7802TIP3    H123283   9.515   7.067   5.031
 7802TIP3    H223284   9.364   7.059   5.036
 7803TIP3   OH223285   6.870   3.364   0.293
 7803TIP3    H123286   6.884   3.289   0.351
 7803TIP3    H223287   6.958   3.391   0.267
 7804TIP3   OH223288   6.562   8.042   5.576
 7804TIP3    H123289   6.488   8.023   5.635
 7804TIP3    H223290   6.587   8.132   5.599
 7805TIP3   OH223291   6.386   2.488   5.657
 7805TIP3    H123292   6.453   2.509   5.592
 7805TIP3    H223293   6.383   2.393   5.659
 7806TIP3   OH223294   8.979   5.101   0.240
 7806TIP3    H123295   9.048   5.062   0.293
 7806TIP3    H223296   8.975   5.047   0.161
 7807TIP3   OH223297   8.690   1.736   0.996
 7807TIP3    H123298   8.730   1.822   1.011
 7807TIP3    H223299   8.652   1.712   1.080
 7808TIP3   OH223300   1.655   5.533   3.455
 7808TIP3    H123301   1.677   5.618   3.494
 7808TIP3    H223302   1.705   5.531   3.373
 7809TIP3   OH223303   0.790   5.671   5.053
 7809TIP3    H123304   0.754   5.667   4.965
 7809TIP3    H223305   0.876   5.629   5.046
 7810TIP3   OH223306   3.804   0.790   2.892
 7810TIP3    H123307   3.860   0.827   2.961
 7810TIP3    H223308   3.727   0.757   2.938
 7811TIP3   OH223309   7.887   6.243   2.209
 7811TIP3    H123310   7.878   6.191   2.289
 7811TIP3    H223311   7.951   6.311   2.231
 7812TIP3   OH223312   8.322   5.919   7.341
 7812TIP3    H123313   8.315   5.824   7.326
 7812TIP3    H223314   8.404   5.944   7.299
 7813TIP3   OH223315   6.530   6.772   2.024
 7813TIP3    H123316   6.564   6.835   1.960
 7813TIP3    H223317   6.562   6.688   1.993
 7814TIP3   OH223318   2.675   3.175   6.328
 7814TIP3    H123319   2.644   3.260   6.297
 7814TIP3    H223320   2.606   3.144   6.386
 7815TIP3   OH223321   8.028   0.747   1.540
 7815TIP3    H123322   8.075   0.831   1.544
 7815TIP3    H223323   7.968   0.757   1.466
 7816TIP3   OH223324   6.444   4.121   2.788
 7816TIP3    H123325   6.536   4.120   2.762
 7816TIP3    H223326   6.418   4.029   2.788
 7817TIP3   OH223327   2.613   7.467   5.677
 7817TIP3    H123328   2.678   7.535   5.660
 7817TIP3    H223329   2.541   7.488   5.617
 7818TIP3   OH223330   9.060   8.134   1.096
 7818TIP3    H123331   8.977   8.087   1.091
 7818TIP3    H223332   9.119   8.072   1.138
 7819TIP3   OH223333   6.928   0.810   3.876
 7819TIP3    H123334   7.001   0.795   3.937
 7819TIP3    H223335   6.935   0.740   3.812
 7820TIP3   OH223336   0.904   7.852   3.345
 7820TIP3    H123337   0.828   7.817   3.391
 7820TIP3    H223338   0.979   7.818   3.394
 7821TIP3   OH223339   4.544   5.128   4.579
 7821TIP3    H123340   4.485   5.203   4.585
 7821TIP3    H223341   4.489   5.052   4.600
 7822TIP3   OH223342   1.715   6.416   2.316
 7822TIP3    H123343   1.647   6.453   2.372
 7822TIP3    H223344   1.682   6.329   2.294
 7823TIP3   OH223345   0.604   2.591   5.899
 7823TIP3    H123346   0.646   2.615   5.817
 7823TIP3    H223347   0.570   2.673   5.934
 7824TIP3   OH223348   2.982   7.940   4.703
 7824TIP3    H123349   2.908   7.879   4.707
 7824TIP3    H223350   2.954   8.007   4.641
 7825TIP3   OH223351   8.456   5.490   4.657
 7825TIP3    H123352   8.440   5.427   4.587
 7825TIP3    H223353   8.508   5.443   4.722
 7826TIP3   OH223354   7.414   1.766   1.972
 7826TIP3    H123355   7.357   1.840   1.951
 7826TIP3    H223356   7.499   1.806   1.992
 7827TIP3   OH223357   3.948   3.161   4.235
 7827TIP3    H123358   3.902   3.084   4.266
 7827TIP3    H223359   3.934   3.227   4.304
 7828TIP3   OH223360   2.438   1.892   6.119
 7828TIP3    H123361   2.359   1.909   6.169
 7828TIP3    H223362   2.418   1.813   6.069
 7829TIP3   OH223363   3.382   8.754   7.513
 7829TIP3    H123364   3.441   8.829   7.526
 7829TIP3    H223365   3.406   8.718   7.428
 7830TIP3   OH223366   5.854   7.696   3.234
 7830TIP3    H123367   5.815   7.763   3.291
 7830TIP3    H223368   5.786   7.629   3.226
 7831TIP3   OH223369   6.668   0.588   6.738
 7831TIP3    H123370   6.738   0.651   6.721
 7831TIP3    H223371   6.705   0.503   6.713
 7832TIP3   OH223372   3.506   4.512   6.936
 7832TIP3    H123373   3.466   4.589   6.894
 7832TIP3    H223374   3.498   4.442   6.871
 7833TIP3   OH223375   6.446   3.537   7.316
 7833TIP3    H123376   6.387   3.596   7.270
 7833TIP3    H223377   6.476   3.476   7.249
 7834TIP3   OH223378   1.420   4.115   2.182
 7834TIP3    H123379   1.461   4.030   2.164
 7834TIP3    H223380   1.404   4.153   2.096
 7835TIP3   OH223381   3.494   8.391   3.480
 7835TIP3    H123382   3.528   8.315   3.528
 7835TIP3    H223383   3.572   8.437   3.450
 7836TIP3   OH223384   9.508   8.566   7.142
 7836TIP3    H123385   9.466   8.636   7.093
 7836TIP3    H223386   9.584   8.542   7.089
 7837TIP3   OH223387   0.858   6.736   4.737
 7837TIP3    H123388   0.833   6.681   4.664
 7837TIP3    H223389   0.953   6.746   4.728
 7838TIP3   OH223390   3.329   2.149   5.643
 7838TIP3    H123391   3.401   2.087   5.652
 7838TIP3    H223392   3.264   2.121   5.708
 7839TIP3   OH223393   3.207   2.399   4.874
 7839TIP3    H123394   3.209   2.320   4.928
 7839TIP3    H223395   3.258   2.463   4.924
 7840TIP3   OH223396   9.415   0.117   5.934
 7840TIP3    H123397   9.447   0.197   5.893
 7840TIP3    H223398   9.491   0.081   5.980
 7841TIP3   OH223399   2.157   6.839   0.756
 7841TIP3    H123400   2.220   6.873   0.820
 7841TIP3    H223401   2.091   6.907   0.748
 7842TIP3   OH223402   7.430   2.421   2.324
 7842TIP3    H123403   7.455   2.395   2.235
 7842TIP3    H223404   7.392   2.342   2.362
 7843TIP3   OH223405   2.799   2.551   3.518
 7843TIP3    H123406   2.826   2.580   3.432
 7843TIP3    H223407   2.835   2.462   3.526
 7844TIP3   OH223408   0.280   8.563   4.614
 7844TIP3    H123409   0.215   8.571   4.685
 7844TIP3    H223410   0.328   8.484   4.635
 7845TIP3   OH223411   9.472   6.625   2.597
 7845TIP3    H123412   9.552   6.630   2.544
 7845TIP3    H223413   9.406   6.588   2.538
 7846TIP3   OH223414   2.514   3.877   2.209
 7846TIP3    H123415   2.545   3.966   2.192
 7846TIP3    H223416   2.441   3.889   2.270
 7847TIP3   OH223417   0.082   3.793   2.633
 7847TIP3    H123418   0.173   3.822   2.636
 7847TIP3    H223419   0.032   3.868   2.665
 7848TIP3   OH223420   5.885   1.465   1.206
 7848TIP3    H123421   5.884   1.446   1.300
 7848TIP3    H223422   5.962   1.419   1.173
 7849TIP3   OH223423   7.987   8.474   2.343
 7849TIP3    H123424   7.970   8.560   2.381
 7849TIP3    H223425   8.066   8.443   2.387
 7850TIP3   OH223426   7.296   2.982   6.394
 7850TIP3    H123427   7.360   3.013   6.458
 7850TIP3    H223428   7.274   2.894   6.422
 7851TIP3   OH223429   8.832   0.705   6.381
 7851TIP3    H123430   8.882   0.689   6.460
 7851TIP3    H223431   8.740   0.695   6.407
 7852TIP3   OH223432   8.656   7.594   7.531
 7852TIP3    H123433   8.739   7.549   7.515
 7852TIP3    H223434   8.680   7.685   7.548
 7853TIP3   OH223435   8.734   3.652   2.053
 7853TIP3    H123436   8.767   3.716   1.990
 7853TIP3    H223437   8.653   3.691   2.087
 7854TIP3   OH223438   4.253   8.285   2.469
 7854TIP3    H123439   4.343   8.283   2.499
 7854TIP3    H223440   4.244   8.369   2.424
 7855TIP3   OH223441   4.798   2.753   0.513
 7855TIP3    H123442   4.829   2.662   0.515
 7855TIP3    H223443   4.817   2.787   0.600
 7856TIP3   OH223444   1.917   6.723   4.393
 7856TIP3    H123445   1.915   6.766   4.307
 7856TIP3    H223446   1.869   6.640   4.379
 7857TIP3   OH223447   8.539   0.439   1.985
 7857TIP3    H123448   8.558   0.390   1.906
 7857TIP3    H223449   8.583   0.390   2.055
 7858TIP3   OH223450   2.549   7.308   4.126
 7858TIP3    H123451   2.539   7.294   4.220
 7858TIP3    H223452   2.589   7.395   4.119
 7859TIP3   OH223453   8.988   4.265   0.508
 7859TIP3    H123454   9.056   4.277   0.573
 7859TIP3    H223455   8.940   4.188   0.538
 7860TIP3   OH223456   6.179   5.161   5.852
 7860TIP3    H123457   6.255   5.199   5.896
 7860TIP3    H223458   6.202   5.160   5.760
 7861TIP3   OH223459   4.602   5.359   2.814
 7861TIP3    H123460   4.627   5.342   2.723
 7861TIP3    H223461   4.514   5.395   2.809
 7862TIP3   OH223462   1.763   6.170   4.618
 7862TIP3    H123463   1.684   6.206   4.657
 7862TIP3    H223464   1.815   6.140   4.693
 7863TIP3   OH223465   2.586   5.998   7.081
 7863TIP3    H123466   2.591   6.053   7.159
 7863TIP3    H223467   2.554   5.914   7.112
 7864TIP3   OH223468   4.142   7.348   2.347
 7864TIP3    H123469   4.224   7.366   2.392
 7864TIP3    H223470   4.154   7.383   2.259
 7865TIP3   OH223471   4.006   5.645   0.326
 7865TIP3    H123472   3.971   5.563   0.292
 7865TIP3    H223473   3.951   5.713   0.286
 7866TIP3   OH223474   4.189   2.143   7.242
 7866TIP3    H123475   4.155   2.206   7.306
 7866TIP3    H223476   4.274   2.178   7.216
 7867TIP3   OH223477   8.083   3.397   7.597
 7867TIP3    H123478   8.138   3.450   7.539
 7867TIP3    H223479   8.000   3.387   7.550
 7868TIP3   OH223480   1.730   7.908   5.867
 7868TIP3    H123481   1.722   7.921   5.961
 7868TIP3    H223482   1.653   7.950   5.830
 7869TIP3   OH223483   2.032   8.002   5.823
 7869TIP3    H123484   1.946   7.995   5.781
 7869TIP3    H223485   2.013   8.016   5.916
 7870TIP3   OH223486   8.540   4.734   4.962
 7870TIP3    H123487   8.627   4.697   4.948
 7870TIP3    H223488   8.481   4.659   4.962
 7871TIP3   OH223489   8.855   6.172   3.507
 7871TIP3    H123490   8.804   6.119   3.568
 7871TIP3    H223491   8.946   6.154   3.529
 7872TIP3   OH223492   4.943   4.294   7.598
 7872TIP3    H123493   4.961   4.200   7.602
 7872TIP3    H223494   4.981   4.322   7.516
 7873TIP3   OH223495   6.986   2.638   2.787
 7873TIP3    H123496   7.045   2.708   2.815
 7873TIP3    H223497   6.932   2.621   2.865
 7874TIP3   OH223498   1.579   1.813   0.930
 7874TIP3    H123499   1.553   1.751   0.862
 7874TIP3    H223500   1.504   1.816   0.990
 7875TIP3   OH223501   8.543   3.283   2.612
 7875TIP3    H123502   8.553   3.193   2.645
 7875TIP3    H223503   8.508   3.272   2.523
 7876TIP3   OH223504   5.719   2.847   5.242
 7876TIP3    H123505   5.625   2.862   5.257
 7876TIP3    H223506   5.734   2.878   5.153
 7877TIP3   OH223507   8.164   1.315   2.324
 7877TIP3    H123508   8.120   1.230   2.323
 7877TIP3    H223509   8.156   1.347   2.234
 7878TIP3   OH223510   9.440   2.594   6.056
 7878TIP3    H123511   9.390   2.512   6.047
 7878TIP3    H223512   9.527   2.565   6.081
 7879TIP3   OH223513   1.534   2.286   6.342
 7879TIP3    H123514   1.615   2.264   6.388
 7879TIP3    H223515   1.471   2.303   6.412
 7880TIP3   OH223516   6.282   0.466   4.114
 7880TIP3    H123517   6.210   0.529   4.117
 7880TIP3    H223518   6.286   0.430   4.202
 7881TIP3   OH223519   4.862   4.215   4.320
 7881TIP3    H123520   4.862   4.249   4.231
 7881TIP3    H223521   4.894   4.125   4.312
 7882TIP3   OH223522   5.414   4.871   5.603
 7882TIP3    H123523   5.481   4.940   5.606
 7882TIP3    H223524   5.353   4.894   5.673
 7883TIP3   OH223525   1.991   5.387   5.957
 7883TIP3    H123526   2.030   5.426   6.036
 7883TIP3    H223527   2.056   5.323   5.928
 7884TIP3   OH223528   5.794   6.544   4.638
 7884TIP3    H123529   5.839   6.573   4.558
 7884TIP3    H223530   5.701   6.545   4.614
 7885TIP3   OH223531   0.080   2.483   1.940
 7885TIP3    H123532   0.058   2.440   2.023
 7885TIP3    H223533   0.156   2.538   1.961
 7886TIP3   OH223534   5.632   2.112   5.819
 7886TIP3    H123535   5.587   2.182   5.771
 7886TIP3    H223536   5.638   2.041   5.756
 7887TIP3   OH223537   1.555   5.337   6.203
 7887TIP3    H123538   1.563   5.426   6.170
 7887TIP3    H223539   1.581   5.282   6.129
 7888TIP3   OH223540   3.761   6.119   2.590
 7888TIP3    H123541   3.705   6.073   2.653
 7888TIP3    H223542   3.814   6.050   2.550
 7889TIP3   OH223543   1.906   0.441   5.016
 7889TIP3    H123544   1.897   0.442   5.111
 7889TIP3    H223545   1.883   0.529   4.988
 7890TIP3   OH223546   5.244   3.237   6.215
 7890TIP3    H123547   5.269   3.239   6.122
 7890TIP3    H223548   5.284   3.315   6.252
 7891TIP3   OH223549   4.432   6.360   1.474
 7891TIP3    H123550   4.428   6.267   1.451
 7891TIP3    H223551   4.521   6.386   1.450
 7892TIP3   OH223552   1.940   6.414   1.602
 7892TIP3    H123553   1.974   6.488   1.553
 7892TIP3    H223554   1.916   6.349   1.536
 7893TIP3   OH223555   6.534   5.346   7.510
 7893TIP3    H123556   6.445   5.381   7.511
 7893TIP3    H223557   6.588   5.416   7.545
 7894TIP3   OH223558   3.766   5.413   2.136
 7894TIP3    H123559   3.801   5.346   2.077
 7894TIP3    H223560   3.778   5.495   2.087
 7895TIP3   OH223561   5.240   5.390   3.224
 7895TIP3    H123562   5.265   5.443   3.300
 7895TIP3    H223563   5.183   5.447   3.172
 7896TIP3   OH223564   8.302   4.682   4.143
 7896TIP3    H123565   8.371   4.649   4.085
 7896TIP3    H223566   8.232   4.709   4.083
 7897TIP3   OH223567   6.295   5.453   0.174
 7897TIP3    H123568   6.287   5.490   0.086
 7897TIP3    H223569   6.371   5.394   0.168
 7898TIP3   OH223570   1.467   8.475   2.092
 7898TIP3    H123571   1.375   8.499   2.079
 7898TIP3    H223572   1.476   8.467   2.187
 7899TIP3   OH223573   9.189   6.056   0.423
 7899TIP3    H123574   9.120   5.991   0.411
 7899TIP3    H223575   9.260   6.026   0.367
 7900TIP3   OH223576   8.382   3.778   0.366
 7900TIP3    H123577   8.315   3.709   0.369
 7900TIP3    H223578   8.355   3.834   0.293
 7901TIP3   OH223579   1.490   4.461   5.769
 7901TIP3    H123580   1.440   4.430   5.844
 7901TIP3    H223581   1.582   4.453   5.796
 7902TIP3   OH223582   5.395   4.566   5.633
 7902TIP3    H123583   5.330   4.609   5.689
 7902TIP3    H223584   5.425   4.636   5.574
 7903TIP3   OH223585   0.052   3.461   2.447
 7903TIP3    H123586   0.040   3.434   2.537
 7903TIP3    H223587  -0.001   3.399   2.396
 7904TIP3   OH223588   1.308   3.167   6.205
 7904TIP3    H123589   1.228   3.187   6.253
 7904TIP3    H223590   1.279   3.121   6.126
 7905TIP3   OH223591   0.429   6.914   4.196
 7905TIP3    H123592   0.417   6.979   4.266
 7905TIP3    H223593   0.522   6.891   4.201
 7906TIP3   OH223594   9.419   8.380   6.665
 7906TIP3    H123595   9.382   8.456   6.711
 7906TIP3    H223596   9.462   8.417   6.588
 7907TIP3   OH223597   6.669   7.212   4.886
 7907TIP3    H123598   6.578   7.216   4.859
 7907TIP3    H223599   6.703   7.300   4.871
 7908TIP3   OH223600   4.054   6.546   4.031
 7908TIP3    H123601   4.083   6.475   3.974
 7908TIP3    H223602   4.033   6.618   3.971
 7909TIP3   OH223603   9.176   2.621   4.843
 7909TIP3    H123604   9.103   2.654   4.896
 7909TIP3    H223605   9.217   2.554   4.897
 7910TIP3   OH223606   1.719   3.104   6.544
 7910TIP3    H123607   1.643   3.100   6.487
 7910TIP3    H223608   1.793   3.115   6.484
 7911TIP3   OH223609   1.173   2.871   0.974
 7911TIP3    H123610   1.253   2.832   1.008
 7911TIP3    H223611   1.124   2.798   0.938
 7912TIP3   OH223612   8.427   0.348   2.697
 7912TIP3    H123613   8.343   0.314   2.727
 7912TIP3    H223614   8.446   0.421   2.755
 7913TIP3   OH223615   0.325   7.139   2.200
 7913TIP3    H123616   0.263   7.080   2.243
 7913TIP3    H223617   0.291   7.227   2.215
 7914TIP3   OH223618   2.074   4.708   5.093
 7914TIP3    H123619   2.156   4.751   5.067
 7914TIP3    H223620   2.047   4.659   5.015
 7915TIP3   OH223621   7.314   2.995   6.943
 7915TIP3    H123622   7.285   2.912   6.906
 7915TIP3    H223623   7.238   3.053   6.934
 7916TIP3   OH223624   1.976   8.644   0.207
 7916TIP3    H123625   2.070   8.630   0.191
 7916TIP3    H223626   1.945   8.559   0.238
 7917TIP3   OH223627   7.261   7.957   6.281
 7917TIP3    H123628   7.318   7.918   6.347
 7917TIP3    H223629   7.320   8.009   6.227
 7918TIP3   OH223630   5.767   8.214   7.405
 7918TIP3    H123631   5.685   8.168   7.389
 7918TIP3    H223632   5.774   8.276   7.333
 7919TIP3   OH223633   0.584   7.175   7.111
 7919TIP3    H123634   0.516   7.151   7.048
 7919TIP3    H223635   0.664   7.178   7.059
 7920TIP3   OH223636   2.804   7.151   4.916
 7920TIP3    H123637   2.843   7.076   4.961
 7920TIP3    H223638   2.727   7.173   4.969
 7921TIP3   OH223639   7.506   3.768   6.497
 7921TIP3    H123640   7.570   3.711   6.454
 7921TIP3    H223641   7.423   3.747   6.454
 7922TIP3   OH223642   5.397   5.899   2.951
 7922TIP3    H123643   5.321   5.884   2.895
 7922TIP3    H223644   5.372   5.975   3.005
 7923TIP3   OH223645   4.248   1.897   1.375
 7923TIP3    H123646   4.248   1.881   1.281
 7923TIP3    H223647   4.168   1.947   1.391
 7924TIP3   OH223648   8.082   6.681   5.428
 7924TIP3    H123649   8.003   6.688   5.374
 7924TIP3    H223650   8.080   6.591   5.462
 7925TIP3   OH223651   3.038   3.025   1.328
 7925TIP3    H123652   3.105   2.976   1.279
 7925TIP3    H223653   3.077   3.039   1.414
 7926TIP3   OH223654   2.963   4.074   7.203
 7926TIP3    H123655   2.934   4.155   7.244
 7926TIP3    H223656   2.924   4.076   7.115
 7927TIP3   OH223657   6.242   4.299   2.338
 7927TIP3    H123658   6.215   4.210   2.315
 7927TIP3    H223659   6.163   4.351   2.325
 7928TIP3   OH223660   2.947   1.353   7.192
 7928TIP3    H123661   3.006   1.321   7.125
 7928TIP3    H223662   2.870   1.384   7.144
 7929TIP3   OH223663   7.696   3.304   7.765
 7929TIP3    H123664   7.737   3.235   7.817
 7929TIP3    H223665   7.727   3.288   7.675
 7930TIP3   OH223666   2.551   1.544   7.549
 7930TIP3    H123667   2.458   1.520   7.545
 7930TIP3    H223668   2.560   1.613   7.484
 7931TIP3   OH223669   9.413   6.064   5.329
 7931TIP3    H123670   9.460   6.133   5.375
 7931TIP3    H223671   9.326   6.063   5.369
 7932TIP3   OH223672   6.104   5.749   5.110
 7932TIP3    H123673   6.021   5.711   5.080
 7932TIP3    H223674   6.090   5.844   5.104
 7933TIP3   OH223675   9.528   5.697   1.101
 7933TIP3    H123676   9.516   5.738   1.187
 7933TIP3    H223677   9.467   5.623   1.101
 7934TIP3   OH223678   8.736   3.316   4.865
 7934TIP3    H123679   8.708   3.408   4.866
 7934TIP3    H223680   8.716   3.285   4.777
 7935TIP3   OH223681   3.966   5.941   5.012
 7935TIP3    H123682   3.989   5.876   4.946
 7935TIP3    H223683   4.046   5.954   5.063
 7936TIP3   OH223684   8.753   2.350   2.638
 7936TIP3    H123685   8.822   2.284   2.628
 7936TIP3    H223686   8.686   2.307   2.691
 7937TIP3   OH223687   0.672   2.014   5.483
 7937TIP3    H123688   0.738   1.985   5.547
 7937TIP3    H223689   0.723   2.041   5.407
 7938TIP3   OH223690   5.040   0.393   4.968
 7938TIP3    H123691   5.113   0.335   4.991
 7938TIP3    H223692   5.073   0.482   4.986
 7939TIP3   OH223693   9.304   1.610   4.124
 7939TIP3    H123694   9.379   1.664   4.151
 7939TIP3    H223695   9.338   1.554   4.054
 7940TIP3   OH223696   1.367   1.564   4.297
 7940TIP3    H123697   1.433   1.503   4.265
 7940TIP3    H223698   1.291   1.509   4.318
 7941TIP3   OH223699   0.833   4.416   2.172
 7941TIP3    H123700   0.879   4.352   2.226
 7941TIP3    H223701   0.758   4.443   2.224
 7942TIP3   OH223702   7.817   3.902   5.212
 7942TIP3    H123703   7.853   3.864   5.292
 7942TIP3    H223704   7.821   3.996   5.227
 7943TIP3   OH223705   3.972   1.672   4.651
 7943TIP3    H123706   4.023   1.593   4.638
 7943TIP3    H223707   4.037   1.742   4.659
 7944TIP3   OH223708   6.547   7.872   2.041
 7944TIP3    H123709   6.536   7.832   1.955
 7944TIP3    H223710   6.476   7.836   2.094
 7945TIP3   OH223711   9.107   2.816   0.263
 7945TIP3    H123712   9.137   2.784   0.178
 7945TIP3    H223713   9.183   2.805   0.320
 7946TIP3   OH223714   3.361   5.560   6.710
 7946TIP3    H123715   3.350   5.524   6.798
 7946TIP3    H223716   3.298   5.632   6.706
 7947TIP3   OH223717   2.261   2.542   5.034
 7947TIP3    H123718   2.340   2.588   5.005
 7947TIP3    H223719   2.280   2.514   5.123
 7948TIP3   OH223720   0.580   8.176   0.940
 7948TIP3    H123721   0.537   8.091   0.951
 7948TIP3    H223722   0.616   8.196   1.026
 7949TIP3   OH223723   0.509   7.736   7.446
 7949TIP3    H123724   0.458   7.817   7.443
 7949TIP3    H223725   0.574   7.747   7.377
 7950TIP3   OH223726   4.174   7.257   7.063
 7950TIP3    H123727   4.213   7.200   6.996
 7950TIP3    H223728   4.084   7.227   7.070
 7951TIP3   OH223729   3.735   2.162   6.854
 7951TIP3    H123730   3.690   2.241   6.825
 7951TIP3    H223731   3.673   2.091   6.837
 7952TIP3   OH223732   8.760   4.066   1.309
 7952TIP3    H123733   8.685   4.092   1.361
 7952TIP3    H223734   8.826   4.134   1.327
 7953TIP3   OH223735   3.523   0.886   2.017
 7953TIP3    H123736   3.569   0.926   2.091
 7953TIP3    H223737   3.504   0.959   1.958
 7954TIP3   OH223738   7.853   2.207   6.528
 7954TIP3    H123739   7.862   2.279   6.591
 7954TIP3    H223740   7.858   2.128   6.581
 7955TIP3   OH223741   2.691   1.359   4.518
 7955TIP3    H123742   2.705   1.303   4.442
 7955TIP3    H223743   2.755   1.328   4.582
 7956TIP3   OH223744   2.518   7.904   6.348
 7956TIP3    H123745   2.543   7.897   6.440
 7956TIP3    H223746   2.591   7.864   6.300
 7957TIP3   OH223747   2.337   7.484   3.361
 7957TIP3    H123748   2.285   7.551   3.316
 7957TIP3    H223749   2.362   7.526   3.444
 7958TIP3   OH223750   2.987   5.785   1.394
 7958TIP3    H123751   2.900   5.805   1.358
 7958TIP3    H223752   3.031   5.735   1.325
 7959TIP3   OH223753   6.929   6.653   6.915
 7959TIP3    H123754   6.960   6.563   6.902
 7959TIP3    H223755   6.963   6.701   6.839
 7960TIP3   OH223756   5.374   7.861   5.683
 7960TIP3    H123757   5.423   7.926   5.732
 7960TIP3    H223758   5.435   7.832   5.614
 7961TIP3   OH223759   2.309   6.273   7.531
 7961TIP3    H123760   2.307   6.361   7.493
 7961TIP3    H223761   2.218   6.256   7.555
 7962TIP3   OH223762   3.746   0.489   1.470
 7962TIP3    H123763   3.679   0.443   1.520
 7962TIP3    H223764   3.822   0.491   1.528
 7963TIP3   OH223765   6.725   1.749   5.991
 7963TIP3    H123766   6.793   1.790   5.939
 7963TIP3    H223767   6.648   1.748   5.935
 7964TIP3   OH223768   1.237   1.851   4.804
 7964TIP3    H123769   1.292   1.789   4.853
 7964TIP3    H223770   1.299   1.898   4.748
 7965TIP3   OH223771   0.706   8.444   3.609
 7965TIP3    H123772   0.773   8.475   3.670
 7965TIP3    H223773   0.624   8.480   3.642
 7966TIP3   OH223774   6.657   3.863   0.416
 7966TIP3    H123775   6.566   3.881   0.442
 7966TIP3    H223776   6.700   3.837   0.497
 7967TIP3   OH223777   0.594   2.946   7.408
 7967TIP3    H123778   0.689   2.952   7.399
 7967TIP3    H223779   0.567   2.891   7.334
 7968TIP3   OH223780   3.067   3.020   5.646
 7968TIP3    H123781   3.012   3.024   5.724
 7968TIP3    H223782   3.035   3.091   5.590
 7969TIP3   OH223783   7.453   3.220   5.972
 7969TIP3    H123784   7.460   3.284   5.901
 7969TIP3    H223785   7.360   3.221   5.996
 7970TIP3   OH223786   4.393   2.609   3.066
 7970TIP3    H123787   4.403   2.535   3.006
 7970TIP3    H223788   4.473   2.607   3.119
 7971TIP3   OH223789   8.630   1.296   5.840
 7971TIP3    H123790   8.696   1.334   5.782
 7971TIP3    H223791   8.662   1.317   5.928
 7972TIP3   OH223792   2.705   7.849   7.416
 7972TIP3    H123793   2.669   7.913   7.477
 7972TIP3    H223794   2.735   7.777   7.471
 7973TIP3   OH223795   9.275   2.208   0.633
 7973TIP3    H123796   9.299   2.296   0.659
 7973TIP3    H223797   9.188   2.216   0.594
 7974TIP3   OH223798   9.497   7.917   5.259
 7974TIP3    H123799   9.451   7.904   5.343
 7974TIP3    H223800   9.495   7.831   5.218
 7975TIP3   OH223801   6.389   5.040   2.593
 7975TIP3    H123802   6.361   5.123   2.631
 7975TIP3    H223803   6.333   5.029   2.517
 7976TIP3   OH223804   8.670   5.599   6.857
 7976TIP3    H123805   8.627   5.527   6.902
 7976TIP3    H223806   8.599   5.658   6.831
 7977TIP3   OH223807   5.655   0.216   3.529
 7977TIP3    H123808   5.592   0.277   3.568
 7977TIP3    H223809   5.600   0.153   3.483
 7978TIP3   OH223810   6.068   1.827   4.564
 7978TIP3    H123811   6.084   1.747   4.614
 7978TIP3    H223812   6.135   1.888   4.593
 7979TIP3   OH223813   3.856   7.975   5.404
 7979TIP3    H123814   3.827   7.939   5.320
 7979TIP3    H223815   3.846   7.903   5.466
 7980TIP3   OH223816   8.482   7.376   7.690
 7980TIP3    H123817   8.518   7.372   7.601
 7980TIP3    H223818   8.558   7.387   7.747
 7981TIP3   OH223819   2.378   7.508   6.728
 7981TIP3    H123820   2.440   7.474   6.792
 7981TIP3    H223821   2.430   7.522   6.649
 7982TIP3   OH223822   0.332   8.697   1.804
 7982TIP3    H123823   0.350   8.787   1.777
 7982TIP3    H223824   0.394   8.644   1.754
 7983TIP3   OH223825   7.503   5.285   4.036
 7983TIP3    H123826   7.486   5.260   4.127
 7983TIP3    H223827   7.429   5.341   4.012
 7984TIP3   OH223828   1.690   1.786   0.330
 7984TIP3    H123829   1.633   1.819   0.261
 7984TIP3    H223830   1.667   1.838   0.407
 7985TIP3   OH223831   6.337   1.457   2.355
 7985TIP3    H123832   6.300   1.369   2.359
 7985TIP3    H223833   6.420   1.450   2.402
 7986TIP3   OH223834   0.501   2.892   5.285
 7986TIP3    H123835   0.545   2.846   5.213
 7986TIP3    H223836   0.408   2.873   5.271
 7987TIP3   OH223837   4.818   1.111   0.203
 7987TIP3    H123838   4.877   1.085   0.132
 7987TIP3    H223839   4.793   1.029   0.245
 7988TIP3   OH223840   1.908   5.076   5.017
 7988TIP3    H123841   1.947   5.134   4.951
 7988TIP3    H223842   1.815   5.072   4.993
 7989TIP3   OH223843   1.140   0.997  -0.004
 7989TIP3    H123844   1.203   1.013   0.066
 7989TIP3    H223845   1.107   0.909   0.012
 7990TIP3   OH223846   0.603   4.346   7.310
 7990TIP3    H123847   0.546   4.318   7.238
 7990TIP3    H223848   0.683   4.296   7.299
 7991TIP3   OH223849   8.260   0.597   0.463
 7991TIP3    H123850   8.204   0.656   0.513
 7991TIP3    H223851   8.343   0.597   0.510
 7992TIP3   OH223852   8.604   8.964   4.789
 7992TIP3    H123853   8.569   8.893   4.735
 7992TIP3    H223854   8.527   9.009   4.822
 7993TIP3   OH223855   1.113   5.947   3.722
 7993TIP3    H123856   1.194   5.895   3.721
 7993TIP3    H223857   1.136   6.025   3.774
 7994TIP3   OH223858   5.737   5.201   0.951
 7994TIP3    H123859   5.751   5.120   1.000
 7994TIP3    H223860   5.722   5.267   1.018
 7995TIP3   OH223861   6.924   0.853   3.022
 7995TIP3    H123862   6.844   0.904   3.026
 7995TIP3    H223863   6.943   0.832   3.114
 7996TIP3   OH223864   0.835   4.955   7.513
 7996TIP3    H123865   0.803   4.948   7.603
 7996TIP3    H223866   0.927   4.978   7.522
 7997TIP3   OH223867   5.735   3.903   2.287
 7997TIP3    H123868   5.653   3.933   2.247
 7997TIP3    H223869   5.790   3.877   2.213
 7998TIP3   OH223870   1.214   5.808   1.921
 7998TIP3    H123871   1.185   5.759   1.845
 7998TIP3    H223872   1.163   5.889   1.919
 7999TIP3   OH223873   2.731   8.606   4.134
 7999TIP3    H123874   2.636   8.620   4.138
 7999TIP3    H223875   2.759   8.609   4.226
 8000TIP3   OH223876   1.629   4.831   3.456
 8000TIP3    H123877   1.627   4.885   3.377
 8000TIP3    H223878   1.698   4.870   3.510
 8001TIP3   OH223879   6.421   4.570   5.229
 8001TIP3    H123880   6.357   4.606   5.291
 8001TIP3    H223881   6.377   4.494   5.191
 8002TIP3   OH223882   0.128   7.697   5.384
 8002TIP3    H123883   0.109   7.720   5.293
 8002TIP3    H223884   0.175   7.773   5.419
 8003TIP3   OH223885   1.399   0.253   1.529
 8003TIP3    H123886   1.314   0.295   1.543
 8003TIP3    H223887   1.447   0.314   1.473
 8004TIP3   OH223888   4.407   2.106   4.172
 8004TIP3    H123889   4.380   2.181   4.120
 8004TIP3    H223890   4.479   2.067   4.123
 8005TIP3   OH223891   1.080   0.183   1.737
 8005TIP3    H123892   1.101   0.116   1.672
 8005TIP3    H223893   1.102   0.142   1.821
 8006TIP3   OH223894   6.764   6.938   4.800
 8006TIP3    H123895   6.670   6.919   4.798
 8006TIP3    H223896   6.773   7.010   4.863
 8007TIP3   OH223897   6.825   3.231   1.698
 8007TIP3    H123898   6.770   3.239   1.620
 8007TIP3    H223899   6.763   3.221   1.770
 8008TIP3   OH223900   1.794   8.242   1.622
 8008TIP3    H123901   1.713   8.293   1.631
 8008TIP3    H223902   1.767   8.164   1.574
 8009TIP3   OH223903   4.114   1.468   4.350
 8009TIP3    H123904   4.152   1.435   4.431
 8009TIP3    H223905   4.186   1.465   4.287
 8010TIP3   OH223906   4.140   6.483   5.506
 8010TIP3    H123907   4.084   6.552   5.543
 8010TIP3    H223908   4.229   6.518   5.513
 8011TIP3   OH223909   0.081   2.702   0.406
 8011TIP3    H123910   0.094   2.656   0.489
 8011TIP3    H223911   0.021   2.646   0.356
 8012TIP3   OH223912   9.042   0.766   2.248
 8012TIP3    H123913   9.035   0.707   2.173
 8012TIP3    H223914   8.996   0.721   2.319
 8013TIP3   OH223915   4.301   8.513   4.047
 8013TIP3    H123916   4.231   8.579   4.046
 8013TIP3    H223917   4.308   8.488   4.140
 8014TIP3   OH223918   1.493   0.499   2.135
 8014TIP3    H123919   1.489   0.544   2.051
 8014TIP3    H223920   1.409   0.517   2.176
 8015TIP3   OH223921   2.826   6.648   1.021
 8015TIP3    H123922   2.891   6.581   1.044
 8015TIP3    H223923   2.773   6.608   0.953
 8016TIP3   OH223924   4.571   4.013   3.087
 8016TIP3    H123925   4.598   3.921   3.086
 8016TIP3    H223926   4.649   4.061   3.112
 8017TIP3   OH223927   7.754   1.140   0.702
 8017TIP3    H123928   7.744   1.231   0.677
 8017TIP3    H223929   7.777   1.095   0.620
 8018TIP3   OH223930   7.192   7.433   1.610
 8018TIP3    H123931   7.262   7.426   1.675
 8018TIP3    H223932   7.234   7.414   1.527
 8019TIP3   OH223933   8.073   0.527   3.840
 8019TIP3    H123934   8.004   0.556   3.781
 8019TIP3    H223935   8.138   0.597   3.838
 8020TIP3   OH223936   0.096   2.581   7.380
 8020TIP3    H123937   0.079   2.516   7.448
 8020TIP3    H223938   0.014   2.630   7.373
 8021TIP3   OH223939   8.618   7.292   6.462
 8021TIP3    H123940   8.635   7.289   6.368
 8021TIP3    H223941   8.686   7.237   6.500
 8022TIP3   OH223942   5.995   5.229   3.337
 8022TIP3    H123943   5.920   5.259   3.286
 8022TIP3    H223944   6.059   5.203   3.272
 8023TIP3   OH223945   0.934   2.893   1.133
 8023TIP3    H123946   1.003   2.946   1.093
 8023TIP3    H223947   0.855   2.915   1.083
 8024TIP3   OH223948   7.689   4.181   2.224
 8024TIP3    H123949   7.770   4.179   2.275
 8024TIP3    H223950   7.625   4.221   2.283
 8025TIP3   OH223951   0.048   2.161   2.916
 8025TIP3    H123952   0.073   2.115   2.836
 8025TIP3    H223953  -0.039   2.196   2.896
 8026TIP3   OH223954   9.148   4.658   3.005
 8026TIP3    H123955   9.153   4.753   3.001
 8026TIP3    H223956   9.105   4.633   2.923
 8027TIP3   OH223957   8.569   3.144   0.745
 8027TIP3    H123958   8.555   3.239   0.744
 8027TIP3    H223959   8.522   3.112   0.669
 8028TIP3   OH223960   5.980   1.197   3.510
 8028TIP3    H123961   5.903   1.172   3.459
 8028TIP3    H223962   6.046   1.219   3.443
 8029TIP3   OH223963   4.127   7.597   0.991
 8029TIP3    H123964   4.080   7.680   0.991
 8029TIP3    H223965   4.103   7.555   0.908
 8030TIP3   OH223966   1.715   2.213   7.254
 8030TIP3    H123967   1.785   2.275   7.276
 8030TIP3    H223968   1.644   2.235   7.314
 8031TIP3   OH223969   6.241   7.631   7.215
 8031TIP3    H123970   6.222   7.703   7.274
 8031TIP3    H223971   6.171   7.633   7.150
 8032TIP3   OH223972   6.436   1.168   7.218
 8032TIP3    H123973   6.407   1.246   7.264
 8032TIP3    H223974   6.499   1.127   7.277
 8033TIP3   OH223975   6.371   0.117   3.859
 8033TIP3    H123976   6.437   0.184   3.845
 8033TIP3    H223977   6.293   0.165   3.888
 8034TIP3   OH223978   3.558   5.221   7.637
 8034TIP3    H123979   3.523   5.299   7.680
 8034TIP3    H223980   3.576   5.250   7.547
 8035TIP3   OH223981   7.692   4.016   0.087
 8035TIP3    H123982   7.650   3.931   0.100
 8035TIP3    H223983   7.623   4.070   0.046
 8036TIP3   OH223984   2.744   7.102   4.070
 8036TIP3    H123985   2.682   7.049   4.019
 8036TIP3    H223986   2.695   7.182   4.091
 8037TIP3   OH223987   2.650   2.058   2.805
 8037TIP3    H123988   2.736   2.050   2.764
 8037TIP3    H223989   2.639   1.977   2.855
 8038TIP3   OH223990   6.647   0.314   0.177
 8038TIP3    H123991   6.553   0.325   0.158
 8038TIP3    H223992   6.685   0.288   0.093
 8039TIP3   OH223993   7.456   4.466   6.819
 8039TIP3    H123994   7.422   4.521   6.749
 8039TIP3    H223995   7.385   4.404   6.838
 8040TIP3   OH223996   8.267   1.493   6.230
 8040TIP3    H123997   8.325   1.481   6.155
 8040TIP3    H223998   8.218   1.572   6.211
 8041TIP3   OH223999   3.051   6.249   7.412
 8041TIP3    H124000   3.111   6.319   7.385
 8041TIP3    H224001   3.037   6.265   7.506
 8042TIP3   OH224002   4.883   8.640   2.745
 8042TIP3    H124003   4.831   8.566   2.714
 8042TIP3    H224004   4.919   8.610   2.829
 8043TIP3   OH224005   3.807   4.591   2.777
 8043TIP3    H124006   3.747   4.603   2.850
 8043TIP3    H224007   3.894   4.601   2.815
 8044TIP3   OH224008   1.077   2.436   1.937
 8044TIP3    H124009   1.163   2.455   1.900
 8044TIP3    H224010   1.015   2.476   1.877
 8045TIP3   OH224011   5.634   3.017   3.326
 8045TIP3    H124012   5.625   3.078   3.399
 8045TIP3    H224013   5.545   3.006   3.292
 8046TIP3   OH224014   2.201   5.509   2.086
 8046TIP3    H124015   2.283   5.465   2.111
 8046TIP3    H224016   2.228   5.574   2.022
 8047TIP3   OH224017   0.129   7.177   6.807
 8047TIP3    H124018   0.121   7.094   6.760
 8047TIP3    H224019   0.057   7.177   6.869
 8048TIP3   OH224020   2.184   5.626   7.099
 8048TIP3    H124021   2.222   5.710   7.073
 8048TIP3    H224022   2.179   5.631   7.194
 8049TIP3   OH224023   4.399   4.401   0.471
 8049TIP3    H124024   4.455   4.382   0.547
 8049TIP3    H224025   4.343   4.324   0.462
 8050TIP3   OH224026   5.145   1.266   7.102
 8050TIP3    H124027   5.081   1.217   7.050
 8050TIP3    H224028   5.155   1.216   7.182
 8051TIP3   OH224029   2.551   8.987   4.403
 8051TIP3    H124030   2.556   9.001   4.497
 8051TIP3    H224031   2.635   8.946   4.380
 8052TIP3   OH224032   2.536   6.978   0.114
 8052TIP3    H124033   2.550   6.884   0.111
 8052TIP3    H224034   2.462   6.990   0.173
 8053TIP3   OH224035   2.312   5.967   4.863
 8053TIP3    H124036   2.375   5.944   4.795
 8053TIP3    H224037   2.359   6.029   4.919
 8054TIP3   OH224038   1.333   1.727   2.386
 8054TIP3    H124039   1.348   1.635   2.365
 8054TIP3    H224040   1.361   1.736   2.477
 8055TIP3   OH224041   6.713   3.827   7.144
 8055TIP3    H124042   6.626   3.823   7.185
 8055TIP3    H224043   6.715   3.912   7.100
 8056TIP3   OH224044   2.776   8.620   4.419
 8056TIP3    H124045   2.836   8.552   4.450
 8056TIP3    H224046   2.717   8.635   4.493
 8057TIP3   OH224047   5.116   3.862   0.353
 8057TIP3    H124048   5.129   3.885   0.261
 8057TIP3    H224049   5.200   3.883   0.395
 8058TIP3   OH224050   2.911   8.571   3.056
 8058TIP3    H124051   2.990   8.624   3.050
 8058TIP3    H224052   2.839   8.634   3.047
 8059TIP3   OH224053   3.522   2.596   3.029
 8059TIP3    H124054   3.514   2.687   3.058
 8059TIP3    H224055   3.530   2.602   2.934
 8060TIP3   OH224056   5.635   0.766   4.665
 8060TIP3    H124057   5.688   0.837   4.630
 8060TIP3    H224058   5.641   0.697   4.598
 8061TIP3   OH224059   8.684   2.595   2.817
 8061TIP3    H124060   8.740   2.672   2.808
 8061TIP3    H224061   8.743   2.526   2.846
 8062TIP3   OH224062   7.808   5.672   2.825
 8062TIP3    H124063   7.749   5.712   2.761
 8062TIP3    H224064   7.894   5.709   2.805
 8063TIP3   OH224065   3.247   4.428   1.222
 8063TIP3    H124066   3.192   4.406   1.297
 8063TIP3    H224067   3.299   4.502   1.251
 8064TIP3   OH224068   6.920   2.623   4.518
 8064TIP3    H124069   6.958   2.649   4.435
 8064TIP3    H224070   6.984   2.651   4.584
 8065TIP3   OH224071   0.854   8.120   7.212
 8065TIP3    H124072   0.790   8.096   7.145
 8065TIP3    H224073   0.917   8.176   7.166
 8066TIP3   OH224074   7.903   4.688   0.543
 8066TIP3    H124075   7.814   4.716   0.566
 8066TIP3    H224076   7.952   4.692   0.625
 8067TIP3   OH224077   2.719   2.399   7.146
 8067TIP3    H124078   2.694   2.490   7.133
 8067TIP3    H224079   2.812   2.396   7.122
 8068TIP3   OH224080   6.334   0.452   2.971
 8068TIP3    H124081   6.341   0.356   2.963
 8068TIP3    H224082   6.342   0.483   2.881
 8069TIP3   OH224083   2.763   5.396   6.242
 8069TIP3    H124084   2.711   5.458   6.191
 8069TIP3    H224085   2.712   5.315   6.240
 8070TIP3   OH224086   7.144   3.867   1.963
 8070TIP3    H124087   7.146   3.847   1.869
 8070TIP3    H224088   7.205   3.940   1.973
 8071TIP3   OH224089   2.536   1.081   5.701
 8071TIP3    H124090   2.600   1.152   5.689
 8071TIP3    H224091   2.492   1.103   5.783
 8072TIP3   OH224092   7.662   3.426   2.272
 8072TIP3    H124093   7.571   3.424   2.301
 8072TIP3    H224094   7.681   3.518   2.255
 8073TIP3   OH224095   6.906   3.471   1.858
 8073TIP3    H124096   6.892   3.393   1.806
 8073TIP3    H224097   6.862   3.541   1.809
 8074TIP3   OH224098   5.125   8.572   4.040
 8074TIP3    H124099   5.069   8.562   4.117
 8074TIP3    H224100   5.207   8.530   4.065
 8075TIP3   OH224101   2.711   5.002   2.094
 8075TIP3    H124102   2.759   4.980   2.174
 8075TIP3    H224103   2.628   5.039   2.125
 8076TIP3   OH224104   5.782   7.870   4.880
 8076TIP3    H124105   5.820   7.909   4.801
 8076TIP3    H224106   5.740   7.790   4.849
 8077TIP3   OH224107   3.997   6.235   3.659
 8077TIP3    H124108   3.922   6.176   3.674
 8077TIP3    H224109   3.957   6.315   3.624
 8078TIP3   OH224110   0.363   8.521   0.364
 8078TIP3    H124111   0.324   8.438   0.336
 8078TIP3    H224112   0.447   8.524   0.319
 8079TIP3   OH224113   9.063   5.525   3.038
 8079TIP3    H124114   9.125   5.561   2.973
 8079TIP3    H224115   9.101   5.441   3.063
 8080TIP3   OH224116   5.869   6.921   5.091
 8080TIP3    H124117   5.929   6.865   5.041
 8080TIP3    H224118   5.902   6.917   5.181
 8081TIP3   OH224119   6.423   4.690   5.594
 8081TIP3    H124120   6.471   4.612   5.567
 8081TIP3    H224121   6.337   4.657   5.619
 8082TIP3   OH224122   6.668   8.920   1.957
 8082TIP3    H124123   6.616   8.893   1.882
 8082TIP3    H224124   6.756   8.886   1.939
 8083TIP3   OH224125   4.851   7.709   5.586
 8083TIP3    H124126   4.812   7.742   5.667
 8083TIP3    H224127   4.941   7.740   5.588
 8084TIP3   OH224128   3.065   8.256   2.008
 8084TIP3    H124129   3.093   8.215   1.926
 8084TIP3    H224130   3.139   8.244   2.067
 8085TIP3   OH224131   6.871   0.632   1.739
 8085TIP3    H124132   6.851   0.538   1.740
 8085TIP3    H224133   6.840   0.663   1.824
 8086TIP3   OH224134   8.262   4.651   4.419
 8086TIP3    H124135   8.262   4.624   4.327
 8086TIP3    H224136   8.282   4.571   4.467
 8087TIP3   OH224137   6.792   5.892   3.805
 8087TIP3    H124138   6.710   5.941   3.799
 8087TIP3    H224139   6.845   5.941   3.869
 8088TIP3   OH224140   1.364   5.073   5.016
 8088TIP3    H124141   1.361   5.061   4.921
 8088TIP3    H224142   1.273   5.068   5.044
 8089TIP3   OH224143   0.072   6.633   0.324
 8089TIP3    H124144   0.121   6.699   0.275
 8089TIP3    H224145   0.137   6.593   0.382
 8090TIP3   OH224146   4.367   6.373   6.507
 8090TIP3    H124147   4.451   6.329   6.492
 8090TIP3    H224148   4.342   6.406   6.420
 8091TIP3   OH224149   8.440   8.047   7.061
 8091TIP3    H124150   8.410   8.108   6.993
 8091TIP3    H224151   8.449   7.963   7.016
 8092TIP3   OH224152   8.526   4.065   1.484
 8092TIP3    H124153   8.558   4.044   1.571
 8092TIP3    H224154   8.430   4.063   1.492
 8093TIP3   OH224155   3.557   8.989   5.912
 8093TIP3    H124156   3.518   9.008   5.827
 8093TIP3    H224157   3.558   8.893   5.917
 8094TIP3   OH224158   7.144   2.598   1.601
 8094TIP3    H124159   7.200   2.658   1.651
 8094TIP3    H224160   7.200   2.524   1.582
 8095TIP3   OH224161   9.414   6.933   2.301
 8095TIP3    H124162   9.421   6.933   2.396
 8095TIP3    H224163   9.326   6.966   2.284
 8096TIP3   OH224164   3.787   6.956   7.424
 8096TIP3    H124165   3.781   6.965   7.329
 8096TIP3    H224166   3.758   6.866   7.441
 8097TIP3   OH224167   5.536   5.202   1.210
 8097TIP3    H124168   5.487   5.284   1.207
 8097TIP3    H224169   5.539   5.178   1.302
 8098TIP3   OH224170   8.772   8.339   4.474
 8098TIP3    H124171   8.689   8.302   4.506
 8098TIP3    H224172   8.759   8.350   4.380
 8099TIP3   OH224173   5.359   1.229   5.977
 8099TIP3    H124174   5.419   1.173   6.027
 8099TIP3    H224175   5.356   1.311   6.027
 8100TIP3   OH224176   8.272   8.364   2.213
 8100TIP3    H124177   8.340   8.400   2.270
 8100TIP3    H224178   8.282   8.411   2.131
 8101TIP3   OH224179   4.028   3.975   0.836
 8101TIP3    H124180   4.088   4.049   0.849
 8101TIP3    H224181   3.949   4.014   0.798
 8102TIP3   OH224182   9.232   7.644   6.835
 8102TIP3    H124183   9.164   7.601   6.886
 8102TIP3    H224184   9.212   7.737   6.842
 8103TIP3   OH224185   0.442   8.065   2.470
 8103TIP3    H124186   0.377   8.093   2.406
 8103TIP3    H224187   0.511   8.131   2.464
 8104TIP3   OH224188   0.782   2.890   1.375
 8104TIP3    H124189   0.836   2.909   1.298
 8104TIP3    H224190   0.826   2.936   1.446
 8105TIP3   OH224191   5.539   5.040   5.911
 8105TIP3    H124192   5.530   4.965   5.971
 8105TIP3    H224193   5.630   5.036   5.881
 8106TIP3   OH224194   1.042   5.613   2.843
 8106TIP3    H124195   1.079   5.647   2.924
 8106TIP3    H224196   0.950   5.640   2.845
 8107TIP3   OH224197   2.895   1.106   0.824
 8107TIP3    H124198   2.879   1.012   0.833
 8107TIP3    H224199   2.953   1.127   0.898
 8108TIP3   OH224200   6.708   3.763   2.745
 8108TIP3    H124201   6.655   3.685   2.757
 8108TIP3    H224202   6.701   3.783   2.651
 8109TIP3   OH224203   8.287   0.469   1.676
 8109TIP3    H124204   8.342   0.546   1.656
 8109TIP3    H224205   8.277   0.471   1.771
 8110TIP3   OH224206   1.308   3.818   7.512
 8110TIP3    H124207   1.344   3.729   7.518
 8110TIP3    H224208   1.349   3.855   7.434
 8111TIP3   OH224209   6.636   2.473   6.807
 8111TIP3    H124210   6.545   2.453   6.782
 8111TIP3    H224211   6.687   2.403   6.766
 8112TIP3   OH224212   4.170   4.728   5.579
 8112TIP3    H124213   4.082   4.691   5.589
 8112TIP3    H224214   4.224   4.680   5.642
 8113TIP3   OH224215   6.955   2.650   1.365
 8113TIP3    H124216   7.034   2.631   1.416
 8113TIP3    H224217   6.885   2.655   1.430
 8114TIP3   OH224218   6.426   3.348   2.365
 8114TIP3    H124219   6.367   3.280   2.397
 8114TIP3    H224220   6.513   3.321   2.396
 8115TIP3   OH224221   7.303   1.765   4.059
 8115TIP3    H124222   7.281   1.672   4.071
 8115TIP3    H224223   7.345   1.790   4.142
 8116TIP3   OH224224   3.861   0.711   5.382
 8116TIP3    H124225   3.772   0.721   5.348
 8116TIP3    H224226   3.915   0.767   5.325
 8117TIP3   OH224227   3.736   6.082   0.986
 8117TIP3    H124228   3.650   6.047   0.967
 8117TIP3    H224229   3.724   6.177   0.987
 8118TIP3   OH224230   9.390   8.770   6.989
 8118TIP3    H124231   9.315   8.788   6.933
 8118TIP3    H224232   9.436   8.853   6.995
 8119TIP3   OH224233   6.397   2.647   2.560
 8119TIP3    H124234   6.360   2.735   2.574
 8119TIP3    H224235   6.323   2.594   2.531
 8120TIP3   OH224236   6.077   3.311   6.360
 8120TIP3    H124237   6.022   3.233   6.361
 8120TIP3    H224238   6.048   3.363   6.435
 8121TIP3   OH224239   2.588   4.489   0.058
 8121TIP3    H124240   2.562   4.537  -0.020
 8121TIP3    H224241   2.535   4.409   0.055
 8122TIP3   OH224242   9.505   7.325   1.477
 8122TIP3    H124243   9.534   7.254   1.534
 8122TIP3    H224244   9.559   7.317   1.399
 8123TIP3   OH224245   3.269   2.414   0.358
 8123TIP3    H124246   3.236   2.379   0.276
 8123TIP3    H224247   3.361   2.387   0.360
 8124TIP3   OH224248   2.442   7.457   3.755
 8124TIP3    H124249   2.471   7.512   3.827
 8124TIP3    H224250   2.518   7.452   3.697
 8125TIP3   OH224251   7.353   4.601   7.052
 8125TIP3    H124252   7.266   4.571   7.077
 8125TIP3    H224253   7.369   4.560   6.967
 8126TIP3   OH224254   3.098   6.271   0.883
 8126TIP3    H124255   3.111   6.219   0.804
 8126TIP3    H224256   3.116   6.361   0.855
 8127TIP3   OH224257   5.471   5.278   5.560
 8127TIP3    H124258   5.376   5.278   5.566
 8127TIP3    H224259   5.497   5.365   5.589
 8128TIP3   OH224260   2.572   0.252   3.831
 8128TIP3    H124261   2.588   0.343   3.808
 8128TIP3    H224262   2.614   0.241   3.916
 8129TIP3   OH224263   6.807   7.269   3.000
 8129TIP3    H124264   6.848   7.351   2.973
 8129TIP3    H224265   6.758   7.292   3.080
 8130TIP3   OH224266   8.406   6.620   3.152
 8130TIP3    H124267   8.435   6.565   3.225
 8130TIP3    H224268   8.385   6.704   3.193
 8131TIP3   OH224269   4.463   2.442   3.635
 8131TIP3    H124270   4.415   2.514   3.676
 8131TIP3    H224271   4.555   2.460   3.655
 8132TIP3   OH224272   0.959   7.353   3.355
 8132TIP3    H124273   0.974   7.412   3.429
 8132TIP3    H224274   0.865   7.357   3.339
 8133TIP3   OH224275   3.951   4.125   1.850
 8133TIP3    H124276   3.934   4.173   1.932
 8133TIP3    H224277   4.009   4.182   1.800
 8134TIP3   OH224278   5.196   2.333   6.727
 8134TIP3    H124279   5.223   2.242   6.715
 8134TIP3    H224280   5.117   2.343   6.674
 8135TIP3   OH224281   9.515   8.841   5.500
 8135TIP3    H124282   9.580   8.893   5.453
 8135TIP3    H224283   9.438   8.897   5.505
 8136TIP3   OH224284   7.781   5.887   6.229
 8136TIP3    H124285   7.864   5.930   6.247
 8136TIP3    H224286   7.715   5.955   6.240
 8137TIP3   OH224287   1.004   0.524   6.320
 8137TIP3    H124288   0.913   0.504   6.343
 8137TIP3    H224289   1.021   0.610   6.358
 8138TIP3   OH224290   8.624   4.715   5.960
 8138TIP3    H124291   8.636   4.807   5.938
 8138TIP3    H224292   8.595   4.717   6.052
 8139TIP3   OH224293   6.847   7.079   7.606
 8139TIP3    H124294   6.802   7.133   7.670
 8139TIP3    H224295   6.783   7.012   7.581
 8140TIP3   OH224296   7.764   6.567   7.574
 8140TIP3    H124297   7.851   6.598   7.599
 8140TIP3    H224298   7.719   6.553   7.657
 8141TIP3   OH224299   8.483   0.599   2.870
 8141TIP3    H124300   8.431   0.581   2.948
 8141TIP3    H224301   8.472   0.693   2.856
 8142TIP3   OH224302   4.384   5.314   7.392
 8142TIP3    H124303   4.333   5.251   7.443
 8142TIP3    H224304   4.354   5.302   7.302
 8143TIP3   OH224305   6.996   0.429   0.494
 8143TIP3    H124306   6.944   0.432   0.414
 8143TIP3    H224307   6.936   0.458   0.563
 8144TIP3   OH224308   8.659   2.982   5.270
 8144TIP3    H124309   8.742   3.019   5.240
 8144TIP3    H224310   8.616   2.952   5.190
 8145TIP3   OH224311   2.925   2.539   0.676
 8145TIP3    H124312   2.846   2.573   0.634
 8145TIP3    H224313   2.893   2.490   0.752
 8146TIP3   OH224314   8.243   7.853   6.282
 8146TIP3    H124315   8.215   7.852   6.374
 8146TIP3    H224316   8.163   7.838   6.232
 8147TIP3   OH224317   9.122   0.327   4.800
 8147TIP3    H124318   9.124   0.232   4.794
 8147TIP3    H224319   9.034   0.347   4.833
 8148TIP3   OH224320   4.165   4.951   5.180
 8148TIP3    H124321   4.167   4.982   5.271
 8148TIP3    H224322   4.215   5.016   5.131
 8149TIP3   OH224323   1.225   1.948   6.750
 8149TIP3    H124324   1.141   1.935   6.707
 8149TIP3    H224325   1.244   1.863   6.792
 8150TIP3   OH224326   2.453   8.870   2.423
 8150TIP3    H124327   2.462   8.806   2.352
 8150TIP3    H224328   2.529   8.853   2.480
 8151TIP3   OH224329   6.760   3.166   0.020
 8151TIP3    H124330   6.686   3.187   0.076
 8151TIP3    H224331   6.776   3.072   0.035
 8152TIP3   OH224332   6.146   1.833   2.110
 8152TIP3    H124333   6.230   1.791   2.089
 8152TIP3    H224334   6.097   1.767   2.159
 8153TIP3   OH224335   0.664   3.581   6.282
 8153TIP3    H124336   0.720   3.531   6.223
 8153TIP3    H224337   0.665   3.532   6.364
 8154TIP3   OH224338   0.380   1.014   6.258
 8154TIP3    H124339   0.323   1.058   6.322
 8154TIP3    H224340   0.327   0.941   6.225
 8155TIP3   OH224341   2.303   2.175   6.387
 8155TIP3    H124342   2.364   2.187   6.314
 8155TIP3    H224343   2.294   2.262   6.424
 8156TIP3   OH224344   9.169   7.997   2.674
 8156TIP3    H124345   9.092   7.998   2.617
 8156TIP3    H224346   9.136   8.026   2.759
 8157TIP3   OH224347   3.547   1.115   6.309
 8157TIP3    H124348   3.580   1.068   6.386
 8157TIP3    H224349   3.490   1.053   6.264
 8158TIP3   OH224350   2.192   6.618   7.701
 8158TIP3    H124351   2.235   6.670   7.633
 8158TIP3    H224352   2.170   6.535   7.659
 8159TIP3   OH224353   0.674   3.299   6.342
 8159TIP3    H124354   0.641   3.239   6.409
 8159TIP3    H224355   0.654   3.257   6.259
 8160TIP3   OH224356   3.848   5.624   1.962
 8160TIP3    H124357   3.826   5.665   1.878
 8160TIP3    H224358   3.942   5.638   1.971
 8161TIP3   OH224359   5.362   3.067   3.234
 8161TIP3    H124360   5.324   3.126   3.299
 8161TIP3    H224361   5.290   3.008   3.210
 8162TIP3   OH224362   1.333   4.366   7.791
 8162TIP3    H124363   1.398   4.311   7.746
 8162TIP3    H224364   1.288   4.305   7.849
 8163TIP3   OH224365   3.370   7.665   3.253
 8163TIP3    H124366   3.389   7.628   3.339
 8163TIP3    H224367   3.304   7.608   3.216
 8164TIP3   OH224368   6.426   6.032   5.503
 8164TIP3    H124369   6.392   6.010   5.416
 8164TIP3    H224370   6.364   5.991   5.564
 8165TIP3   OH224371   5.889   3.384   3.053
 8165TIP3    H124372   5.804   3.415   3.023
 8165TIP3    H224373   5.869   3.314   3.115
 8166TIP3   OH224374   0.107   3.602   0.721
 8166TIP3    H124375   0.047   3.578   0.650
 8166TIP3    H224376   0.053   3.601   0.800
 8167TIP3   OH224377   3.332   0.086   0.443
 8167TIP3    H124378   3.394   0.095   0.515
 8167TIP3    H224379   3.329  -0.007   0.425
 8168TIP3   OH224380   7.389   0.364   0.639
 8168TIP3    H124381   7.395   0.352   0.544
 8168TIP3    H224382   7.353   0.282   0.671
 8169TIP3   OH224383   6.676   8.163   0.162
 8169TIP3    H124384   6.719   8.240   0.199
 8169TIP3    H224385   6.648   8.190   0.075
 8170TIP3   OH224386   6.973   7.561   6.613
 8170TIP3    H124387   6.969   7.598   6.525
 8170TIP3    H224388   7.053   7.509   6.614
 8171TIP3   OH224389   8.030   1.096   6.395
 8171TIP3    H124390   8.052   1.016   6.348
 8171TIP3    H224391   8.108   1.150   6.389
 8172TIP3   OH224392   4.974   2.549   0.829
 8172TIP3    H124393   5.027   2.488   0.778
 8172TIP3    H224394   4.891   2.503   0.841
 8173TIP3   OH224395   2.726   7.580   0.672
 8173TIP3    H124396   2.731   7.577   0.577
 8173TIP3    H224397   2.650   7.526   0.694
 8174TIP3   OH224398   1.204   3.375   3.172
 8174TIP3    H124399   1.177   3.465   3.155
 8174TIP3    H224400   1.191   3.364   3.266
 8175TIP3   OH224401   6.775   1.912   1.851
 8175TIP3    H124402   6.763   1.990   1.796
 8175TIP3    H224403   6.785   1.840   1.789
 8176TIP3   OH224404   4.511   6.119   3.458
 8176TIP3    H124405   4.504   6.053   3.527
 8176TIP3    H224406   4.427   6.116   3.413
 8177TIP3   OH224407   0.893   7.909   0.415
 8177TIP3    H124408   0.895   7.889   0.321
 8177TIP3    H224409   0.919   7.828   0.458
 8178TIP3   OH224410   2.873   2.719   7.268
 8178TIP3    H124411   2.786   2.727   7.306
 8178TIP3    H224412   2.859   2.672   7.185
 8179TIP3   OH224413   5.833   5.509   0.581
 8179TIP3    H124414   5.829   5.419   0.615
 8179TIP3    H224415   5.781   5.507   0.500
 8180TIP3   OH224416   5.992   3.431   6.590
 8180TIP3    H124417   5.974   3.508   6.643
 8180TIP3    H224418   5.966   3.357   6.645
 8181TIP3   OH224419   0.684   7.907   4.043
 8181TIP3    H124420   0.724   7.826   4.010
 8181TIP3    H224421   0.671   7.890   4.137
 8182TIP3   OH224422   2.804   3.648   1.499
 8182TIP3    H124423   2.779   3.721   1.443
 8182TIP3    H224424   2.770   3.570   1.454
 8183TIP3   OH224425   3.992   6.995   4.648
 8183TIP3    H124426   3.945   6.987   4.566
 8183TIP3    H224427   4.071   7.045   4.626
 8184TIP3   OH224428   3.869   2.207   4.161
 8184TIP3    H124429   3.907   2.292   4.181
 8184TIP3    H224430   3.896   2.151   4.234
 8185TIP3   OH224431   5.233   8.998   3.721
 8185TIP3    H124432   5.170   8.933   3.689
 8185TIP3    H224433   5.315   8.975   3.677
 8186TIP3   OH224434   3.713   3.801   1.002
 8186TIP3    H124435   3.730   3.832   1.091
 8186TIP3    H224436   3.750   3.713   1.000
 8187TIP3   OH224437   4.132   8.483   4.561
 8187TIP3    H124438   4.048   8.442   4.543
 8187TIP3    H224439   4.118   8.576   4.542
 8188TIP3   OH224440   1.016   7.295   7.332
 8188TIP3    H124441   1.085   7.241   7.294
 8188TIP3    H224442   0.977   7.240   7.400
 8189TIP3   OH224443   5.218   3.672   2.913
 8189TIP3    H124444   5.143   3.702   2.862
 8189TIP3    H224445   5.294   3.692   2.859
 8190TIP3   OH224446   5.908   6.919   6.672
 8190TIP3    H124447   5.934   6.897   6.761
 8190TIP3    H224448   5.991   6.922   6.623
 8191TIP3   OH224449   5.058   0.693   5.402
 8191TIP3    H124450   5.101   0.614   5.368
 8191TIP3    H224451   5.055   0.679   5.497
 8192TIP3   OH224452   1.388   7.430   5.540
 8192TIP3    H124453   1.392   7.466   5.451
 8192TIP3    H224454   1.295   7.433   5.563
 8193TIP3   OH224455   7.491   2.078   6.501
 8193TIP3    H124456   7.429   2.151   6.493
 8193TIP3    H224457   7.555   2.109   6.565
 8194TIP3   OH224458   4.905   8.164   1.611
 8194TIP3    H124459   4.879   8.077   1.642
 8194TIP3    H224460   4.957   8.147   1.533
 8195TIP3   OH224461   6.948   7.522   2.292
 8195TIP3    H124462   6.955   7.427   2.292
 8195TIP3    H224463   7.001   7.550   2.218
 8196TIP3   OH224464   6.063   3.001   1.855
 8196TIP3    H124465   6.045   3.014   1.948
 8196TIP3    H224466   6.125   3.071   1.833
 8197TIP3   OH224467   4.512   6.195   4.858
 8197TIP3    H124468   4.586   6.134   4.871
 8197TIP3    H224469   4.485   6.217   4.947
 8198TIP3   OH224470   5.677   5.495   6.859
 8198TIP3    H124471   5.685   5.402   6.882
 8198TIP3    H224472   5.652   5.495   6.767
 8199TIP3   OH224473   2.979   5.098   5.362
 8199TIP3    H124474   2.961   5.152   5.286
 8199TIP3    H224475   2.896   5.052   5.379
 8200TIP3   OH224476   4.045   6.139   5.858
 8200TIP3    H124477   4.018   6.085   5.932
 8200TIP3    H224478   4.004   6.098   5.782
 8201TIP3   OH224479   2.707   5.018   6.469
 8201TIP3    H124480   2.677   5.101   6.506
 8201TIP3    H224481   2.662   4.951   6.522
 8202TIP3   OH224482   8.993   1.156   0.016
 8202TIP3    H124483   9.042   1.168   0.098
 8202TIP3    H224484   9.014   1.066  -0.011
 8203TIP3   OH224485   1.896   8.466   3.762
 8203TIP3    H124486   1.868   8.545   3.716
 8203TIP3    H224487   1.981   8.445   3.724
 8204TIP3   OH224488   2.429   4.374   6.318
 8204TIP3    H124489   2.520   4.399   6.304
 8204TIP3    H224490   2.434   4.290   6.365
 8205TIP3   OH224491   4.951   7.922   2.473
 8205TIP3    H124492   5.015   7.989   2.497
 8205TIP3    H224493   4.886   7.923   2.543
 8206TIP3   OH224494   6.982   0.773   7.739
 8206TIP3    H124495   6.976   0.866   7.715
 8206TIP3    H224496   7.011   0.730   7.658
 8207TIP3   OH224497   0.332   1.275   3.504
 8207TIP3    H124498   0.344   1.295   3.597
 8207TIP3    H224499   0.302   1.184   3.502
 8208TIP3   OH224500   8.411   8.034   2.042
 8208TIP3    H124501   8.425   7.973   2.115
 8208TIP3    H224502   8.500   8.059   2.015
 8209TIP3   OH224503   7.661   1.197   1.993
 8209TIP3    H124504   7.582   1.238   1.959
 8209TIP3    H224505   7.634   1.107   2.014
 8210TIP3   OH224506   0.252   0.364   6.122
 8210TIP3    H124507   0.190   0.414   6.068
 8210TIP3    H224508   0.233   0.392   6.211
 8211TIP3   OH224509   4.204   6.560   2.803
 8211TIP3    H124510   4.247   6.531   2.884
 8211TIP3    H224511   4.123   6.602   2.833
 8212TIP3   OH224512   5.706   8.554   7.159
 8212TIP3    H124513   5.714   8.613   7.234
 8212TIP3    H224514   5.767   8.483   7.178
 8213TIP3   OH224515   1.937   2.879   1.772
 8213TIP3    H124516   1.986   2.880   1.854
 8213TIP3    H224517   1.907   2.970   1.761
 8214TIP3   OH224518   7.814   6.724   2.089
 8214TIP3    H124519   7.819   6.649   2.030
 8214TIP3    H224520   7.849   6.797   2.039
 8215TIP3   OH224521   3.609   7.020   3.679
 8215TIP3    H124522   3.644   7.109   3.679
 8215TIP3    H224523   3.562   7.013   3.762
 8216TIP3   OH224524   3.855   5.489   6.456
 8216TIP3    H124525   3.822   5.544   6.385
 8216TIP3    H224526   3.878   5.551   6.526
 8217TIP3   OH224527   8.390   2.392   3.069
 8217TIP3    H124528   8.303   2.425   3.093
 8217TIP3    H224529   8.448   2.467   3.081
 8218TIP3   OH224530   2.780   3.959   1.737
 8218TIP3    H124531   2.758   3.874   1.775
 8218TIP3    H224532   2.875   3.955   1.722
 8219TIP3   OH224533   3.345   6.749   3.464
 8219TIP3    H124534   3.411   6.689   3.498
 8219TIP3    H224535   3.359   6.749   3.369
 8220TIP3   OH224536   5.579   0.584   3.796
 8220TIP3    H124537   5.562   0.527   3.721
 8220TIP3    H224538   5.576   0.526   3.871
 8221TIP3   OH224539   2.856   3.055   7.617
 8221TIP3    H124540   2.856   3.045   7.522
 8221TIP3    H224541   2.802   3.132   7.633
 8222TIP3   OH224542   9.214   3.003   5.365
 8222TIP3    H124543   9.238   2.997   5.272
 8222TIP3    H224544   9.135   2.949   5.373
 8223TIP3   OH224545   4.417   5.604   1.854
 8223TIP3    H124546   4.330   5.575   1.826
 8223TIP3    H224547   4.467   5.613   1.773
 8224TIP3   OH224548   2.146   7.691   2.677
 8224TIP3    H124549   2.158   7.705   2.771
 8224TIP3    H224550   2.051   7.690   2.664
 8225TIP3   OH224551   8.751   4.515   2.138
 8225TIP3    H124552   8.697   4.449   2.181
 8225TIP3    H224553   8.833   4.470   2.116
 8226TIP3   OH224554   1.658   0.915   6.484
 8226TIP3    H124555   1.713   0.990   6.462
 8226TIP3    H224556   1.569   0.948   6.481
 8227TIP3   OH224557   3.075   7.088   3.168
 8227TIP3    H124558   3.002   7.118   3.114
 8227TIP3    H224559   3.137   7.162   3.168
 8228TIP3   OH224560   4.705   1.966   7.657
 8228TIP3    H124561   4.794   1.957   7.691
 8228TIP3    H224562   4.689   2.060   7.655
 8229TIP3   OH224563   3.506   6.478   2.212
 8229TIP3    H124564   3.536   6.405   2.265
 8229TIP3    H224565   3.561   6.552   2.238
 8230TIP3   OH224566   0.713   8.654   2.906
 8230TIP3    H124567   0.680   8.662   2.816
 8230TIP3    H224568   0.675   8.572   2.937
 8231TIP3   OH224569   0.558   3.034   7.101
 8231TIP3    H124570   0.642   3.062   7.135
 8231TIP3    H224571   0.566   2.939   7.091
 8232TIP3   OH224572   0.664   8.106   5.164
 8232TIP3    H124573   0.606   8.076   5.094
 8232TIP3    H224574   0.675   8.029   5.220
 8233TIP3   OH224575   3.836   2.518   2.033
 8233TIP3    H124576   3.816   2.586   2.097
 8233TIP3    H224577   3.926   2.492   2.052
 8234TIP3   OH224578   8.178   1.089   0.247
 8234TIP3    H124579   8.195   1.065   0.156
 8234TIP3    H224580   8.232   1.167   0.262
 8235TIP3   OH224581   4.008   1.933   4.471
 8235TIP3    H124582   4.022   1.861   4.410
 8235TIP3    H224583   4.095   1.974   4.479
 8236TIP3   OH224584   2.944   4.017   2.929
 8236TIP3    H124585   3.001   4.055   2.863
 8236TIP3    H224586   2.959   4.071   3.007
 8237TIP3   OH224587   8.998   4.932   1.897
 8237TIP3    H124588   9.020   4.881   1.819
 8237TIP3    H224589   8.924   4.986   1.870
 8238TIP3   OH224590   5.132   1.818   0.357
 8238TIP3    H124591   5.185   1.884   0.400
 8238TIP3    H224592   5.132   1.743   0.417
 8239TIP3   OH224593   0.317   1.837   7.449
 8239TIP3    H124594   0.233   1.818   7.492
 8239TIP3    H224595   0.299   1.830   7.356
 8240TIP3   OH224596   8.803   6.440   4.456
 8240TIP3    H124597   8.719   6.437   4.502
 8240TIP3    H224598   8.869   6.431   4.525
 8241TIP3   OH224599   6.279   2.269   1.245
 8241TIP3    H124600   6.196   2.223   1.236
 8241TIP3    H224601   6.255   2.355   1.279
 8242TIP3   OH224602   2.141   8.147   0.397
 8242TIP3    H124603   2.163   8.229   0.440
 8242TIP3    H224604   2.217   8.127   0.343
 8243TIP3   OH224605   7.017   5.465   0.075
 8243TIP3    H124606   6.990   5.553   0.050
 8243TIP3    H224607   7.003   5.412  -0.004
 8244TIP3   OH224608   0.328   3.521   2.437
 8244TIP3    H124609   0.373   3.484   2.513
 8244TIP3    H224610   0.235   3.515   2.459
 8245TIP3   OH224611   2.300   4.576   2.848
 8245TIP3    H124612   2.355   4.621   2.784
 8245TIP3    H224613   2.305   4.484   2.823
 8246TIP3   OH224614   4.832   5.023   3.131
 8246TIP3    H124615   4.788   5.100   3.167
 8246TIP3    H224616   4.760   4.968   3.099
 8247TIP3   OH224617   3.636   4.901   0.076
 8247TIP3    H124618   3.547   4.875   0.100
 8247TIP3    H224619   3.690   4.825   0.094
 8248TIP3   OH224620   6.146   4.280   7.768
 8248TIP3    H124621   6.142   4.277   7.672
 8248TIP3    H224622   6.229   4.323   7.787
 8249TIP3   OH224623   2.930   5.140   7.542
 8249TIP3    H124624   2.896   5.210   7.486
 8249TIP3    H224625   2.877   5.063   7.520
 8250TIP3   OH224626   2.519   5.374   7.555
 8250TIP3    H124627   2.547   5.393   7.645
 8250TIP3    H224628   2.530   5.279   7.546
 8251TIP3   OH224629   3.395   6.165   5.643
 8251TIP3    H124630   3.468   6.192   5.586
 8251TIP3    H224631   3.426   6.084   5.683
 8252TIP3   OH224632   1.739   7.817   6.299
 8252TIP3    H124633   1.792   7.776   6.367
 8252TIP3    H224634   1.700   7.744   6.252
 8253TIP3   OH224635   6.827   2.565   4.089
 8253TIP3    H124636   6.771   2.540   4.016
 8253TIP3    H224637   6.840   2.484   4.138
 8254TIP3   OH224638   5.337   3.642   3.257
 8254TIP3    H124639   5.318   3.548   3.255
 8254TIP3    H224640   5.424   3.650   3.217
 8255TIP3   OH224641   6.828   0.013   1.167
 8255TIP3    H124642   6.837  -0.076   1.134
 8255TIP3    H224643   6.912   0.032   1.209
 8256TIP3   OH224644   7.434   3.301   5.196
 8256TIP3    H124645   7.397   3.339   5.275
 8256TIP3    H224646   7.517   3.262   5.225
 8257TIP3   OH224647   9.404   8.049   2.533
 8257TIP3    H124648   9.354   8.104   2.473
 8257TIP3    H224649   9.344   8.032   2.605
 8258TIP3   OH224650   4.064   4.706   0.718
 8258TIP3    H124651   4.084   4.761   0.794
 8258TIP3    H224652   4.094   4.618   0.743
 8259TIP3   OH224653   5.520   5.582   6.360
 8259TIP3    H124654   5.456   5.652   6.375
 8259TIP3    H224655   5.593   5.626   6.316
 8260TIP3   OH224656   6.329   6.788   6.910
 8260TIP3    H124657   6.252   6.737   6.937
 8260TIP3    H224658   6.403   6.730   6.928
 8261TIP3   OH224659   3.615   1.026   1.567
 8261TIP3    H124660   3.598   1.091   1.499
 8261TIP3    H224661   3.710   1.014   1.566
 8262TIP3   OH224662   7.761   4.792   2.759
 8262TIP3    H124663   7.773   4.882   2.731
 8262TIP3    H224664   7.667   4.778   2.755
 8263TIP3   OH224665   7.529   8.070   4.054
 8263TIP3    H124666   7.503   8.017   4.129
 8263TIP3    H224667   7.449   8.079   4.002
 8264TIP3   OH224668   7.414   4.170   6.622
 8264TIP3    H124669   7.498   4.134   6.648
 8264TIP3    H224670   7.374   4.200   6.703
 8265TIP3   OH224671   1.584   5.063   2.857
 8265TIP3    H124672   1.614   5.118   2.784
 8265TIP3    H224673   1.587   4.974   2.823
 8266TIP3   OH224674   6.429   5.690   7.064
 8266TIP3    H124675   6.477   5.619   7.108
 8266TIP3    H224676   6.481   5.768   7.082
 8267TIP3   OH224677   0.019   6.999   0.181
 8267TIP3    H124678   0.013   7.082   0.135
 8267TIP3    H224679  -0.054   6.947   0.147
 8268TIP3   OH224680   2.539   0.929   7.331
 8268TIP3    H124681   2.625   0.893   7.309
 8268TIP3    H224682   2.502   0.955   7.247
 8269TIP3   OH224683   0.905   0.200   5.105
 8269TIP3    H124684   0.934   0.288   5.082
 8269TIP3    H224685   0.955   0.142   5.049
 8270TIP3   OH224686   8.652   6.525   7.460
 8270TIP3    H124687   8.559   6.534   7.439
 8270TIP3    H224688   8.654   6.498   7.552
 8271TIP3   OH224689   1.731   6.942   2.948
 8271TIP3    H124690   1.784   6.914   3.023
 8271TIP3    H224691   1.684   6.863   2.922
 8272TIP3   OH224692   1.125   2.708   4.160
 8272TIP3    H124693   1.107   2.656   4.238
 8272TIP3    H224694   1.149   2.794   4.193
 8273TIP3   OH224695   7.827   4.956   3.779
 8273TIP3    H124696   7.776   4.998   3.848
 8273TIP3    H224697   7.912   5.000   3.783
 8274TIP3   OH224698   2.291   5.032   1.213
 8274TIP3    H124699   2.276   4.966   1.145
 8274TIP3    H224700   2.371   5.004   1.256
 8275TIP3   OH224701   5.741   4.037   1.565
 8275TIP3    H124702   5.830   4.070   1.547
 8275TIP3    H224703   5.726   4.058   1.657
 8276TIP3   OH224704   9.424   0.405   3.218
 8276TIP3    H124705   9.352   0.375   3.273
 8276TIP3    H224706   9.436   0.497   3.241
 8277TIP3   OH224707   4.483   6.471   7.541
 8277TIP3    H124708   4.534   6.523   7.602
 8277TIP3    H224709   4.393   6.475   7.575
 8278TIP3   OH224710   5.234   4.330   3.901
 8278TIP3    H124711   5.245   4.405   3.960
 8278TIP3    H224712   5.171   4.273   3.946
 8279TIP3   OH224713   4.373   1.536   6.904
 8279TIP3    H124714   4.421   1.526   6.822
 8279TIP3    H224715   4.434   1.505   6.971
 8280TIP3   OH224716   8.758   2.111   5.929
 8280TIP3    H124717   8.823   2.180   5.917
 8280TIP3    H224718   8.739   2.079   5.841
 8281TIP3   OH224719   6.222   7.551   6.842
 8281TIP3    H124720   6.155   7.619   6.843
 8281TIP3    H224721   6.296   7.592   6.795
 8282TIP3   OH224722   9.025   7.480   5.841
 8282TIP3    H124723   8.977   7.445   5.766
 8282TIP3    H224724   9.115   7.452   5.826
 8283TIP3   OH224725   2.132   7.072   6.485
 8283TIP3    H124726   2.148   7.164   6.508
 8283TIP3    H224727   2.102   7.032   6.566
 8284TIP3   OH224728   3.369   0.161   5.626
 8284TIP3    H124729   3.385   0.131   5.536
 8284TIP3    H224730   3.381   0.083   5.680
 8285TIP3   OH224731   3.114   3.812   5.297
 8285TIP3    H124732   3.128   3.905   5.316
 8285TIP3    H224733   3.165   3.766   5.364
 8286TIP3   OH224734   2.468   4.451   2.373
 8286TIP3    H124735   2.397   4.498   2.328
 8286TIP3    H224736   2.425   4.373   2.409
 8287TIP3   OH224737   3.050   5.583   1.872
 8287TIP3    H124738   3.070   5.570   1.779
 8287TIP3    H224739   3.132   5.613   1.910
 8288TIP3   OH224740   4.819   8.821   0.780
 8288TIP3    H124741   4.895   8.879   0.771
 8288TIP3    H224742   4.855   8.733   0.781
 8289TIP3   OH224743   5.563   8.714   2.809
 8289TIP3    H124744   5.625   8.696   2.739
 8289TIP3    H224745   5.479   8.682   2.776
 8290TIP3   OH224746   1.975   7.234   2.537
 8290TIP3    H124747   2.066   7.225   2.566
 8290TIP3    H224748   1.927   7.170   2.589
 8291TIP3   OH224749   4.125   1.388   5.718
 8291TIP3    H124750   4.130   1.352   5.629
 8291TIP3    H224751   4.152   1.316   5.774
 8292TIP3   OH224752   1.537   2.696   4.996
 8292TIP3    H124753   1.628   2.668   5.010
 8292TIP3    H224754   1.500   2.629   4.939
 8293TIP3   OH224755   0.471   0.891   7.375
 8293TIP3    H124756   0.383   0.921   7.394
 8293TIP3    H224757   0.499   0.941   7.299
 8294TIP3   OH224758   8.746   8.807   7.545
 8294TIP3    H124759   8.765   8.893   7.583
 8294TIP3    H224760   8.816   8.751   7.578
 8295TIP3   OH224761   4.176   3.786   2.923
 8295TIP3    H124762   4.224   3.857   2.964
 8295TIP3    H224763   4.130   3.828   2.850
 8296TIP3   OH224764   5.226   4.910   0.375
 8296TIP3    H124765   5.168   4.972   0.419
 8296TIP3    H224766   5.291   4.887   0.442
 8297TIP3   OH224767   7.851   8.214   1.480
 8297TIP3    H124768   7.801   8.210   1.399
 8297TIP3    H224769   7.878   8.124   1.497
 8298TIP3   OH224770   2.617   8.887   1.201
 8298TIP3    H124771   2.602   8.804   1.157
 8298TIP3    H224772   2.530   8.925   1.214
 8299TIP3   OH224773   1.243   0.571   2.828
 8299TIP3    H124774   1.305   0.625   2.876
 8299TIP3    H224775   1.234   0.492   2.882
 8300TIP3   OH224776   2.699   7.422   6.080
 8300TIP3    H124777   2.771   7.478   6.051
 8300TIP3    H224778   2.624   7.451   6.029
 8301TIP3   OH224779   8.170   8.579   2.995
 8301TIP3    H124780   8.200   8.491   2.972
 8301TIP3    H224781   8.121   8.568   3.077
 8302TIP3   OH224782   0.734   5.529   7.476
 8302TIP3    H124783   0.761   5.457   7.419
 8302TIP3    H224784   0.770   5.608   7.436
 8303TIP3   OH224785   0.535   7.003   1.032
 8303TIP3    H124786   0.528   7.098   1.025
 8303TIP3    H224787   0.525   6.972   0.942
 8304TIP3   OH224788   9.277   1.802   0.684
 8304TIP3    H124789   9.232   1.722   0.709
 8304TIP3    H224790   9.368   1.789   0.711
 8305TIP3   OH224791   0.859   4.726   0.032
 8305TIP3    H124792   0.921   4.655   0.049
 8305TIP3    H224793   0.891   4.800   0.082
 8306TIP3   OH224794   3.438   7.912   4.216
 8306TIP3    H124795   3.469   7.824   4.237
 8306TIP3    H224796   3.440   7.917   4.120
 8307TIP3   OH224797   4.631   5.431   0.425
 8307TIP3    H124798   4.555   5.381   0.395
 8307TIP3    H224799   4.596   5.515   0.452
 8308TIP3   OH224800   8.037   7.584   6.707
 8308TIP3    H124801   7.948   7.592   6.741
 8308TIP3    H224802   8.030   7.521   6.635
 8309TIP3   OH224803   6.597   1.054   6.135
 8309TIP3    H124804   6.641   1.023   6.215
 8309TIP3    H224805   6.656   1.028   6.064
 8310TIP3   OH224806   4.298   3.260   2.438
 8310TIP3    H124807   4.362   3.286   2.372
 8310TIP3    H224808   4.279   3.341   2.486
 8311TIP3   OH224809   2.649   2.253   2.120
 8311TIP3    H124810   2.681   2.241   2.209
 8311TIP3    H224811   2.721   2.296   2.074
 8312TIP3   OH224812   3.015   4.470   4.836
 8312TIP3    H124813   3.046   4.418   4.910
 8312TIP3    H224814   2.957   4.411   4.788
 8313TIP3   OH224815   6.411   0.676   6.685
 8313TIP3    H124816   6.504   0.662   6.705
 8313TIP3    H224817   6.409   0.699   6.592
 8314TIP3   OH224818   2.636   2.277   2.634
 8314TIP3    H124819   2.649   2.226   2.713
 8314TIP3    H224820   2.609   2.364   2.666
 8315TIP3   OH224821   5.326   5.826   7.481
 8315TIP3    H124822   5.296   5.771   7.408
 8315TIP3    H224823   5.360   5.764   7.545
 8316TIP3   OH224824   3.863   7.367   3.050
 8316TIP3    H124825   3.945   7.409   3.023
 8316TIP3    H224826   3.842   7.409   3.134
 8317TIP3   OH224827   4.803   1.832   2.359
 8317TIP3    H124828   4.895   1.848   2.383
 8317TIP3    H224829   4.784   1.898   2.293
 8318TIP3   OH224830   5.498   4.152   4.687
 8318TIP3    H124831   5.510   4.128   4.596
 8318TIP3    H224832   5.524   4.243   4.692
 8319TIP3   OH224833   7.132   7.879   1.184
 8319TIP3    H124834   7.139   7.809   1.249
 8319TIP3    H224835   7.179   7.846   1.108
 8320TIP3   OH224836   6.260   3.518   3.696
 8320TIP3    H124837   6.236   3.611   3.694
 8320TIP3    H224838   6.327   3.513   3.764
 8321TIP3   OH224839   6.521   5.891   1.975
 8321TIP3    H124840   6.583   5.818   1.964
 8321TIP3    H224841   6.571   5.958   2.022
 8322TIP3   OH224842   6.077   0.977   6.676
 8322TIP3    H124843   6.115   0.893   6.701
 8322TIP3    H224844   5.985   0.957   6.659
 8323TIP3   OH224845   1.858   7.567   4.384
 8323TIP3    H124846   1.808   7.637   4.343
 8323TIP3    H224847   1.830   7.487   4.339
 8324TIP3   OH224848   4.750   1.812   0.416
 8324TIP3    H124849   4.841   1.839   0.402
 8324TIP3    H224850   4.698   1.887   0.388
 8325TIP3   OH224851   0.611   4.909   7.672
 8325TIP3    H124852   0.558   4.988   7.662
 8325TIP3    H224853   0.551   4.845   7.712
 8326TIP3   OH224854   5.684   3.882   6.441
 8326TIP3    H124855   5.637   3.944   6.385
 8326TIP3    H224856   5.766   3.865   6.396
 8327TIP3   OH224857   3.440   0.523   4.346
 8327TIP3    H124858   3.345   0.511   4.348
 8327TIP3    H224859   3.454   0.608   4.388
 8328TIP3   OH224860   3.931   6.137   7.229
 8328TIP3    H124861   3.895   6.057   7.265
 8328TIP3    H224862   3.983   6.109   7.154
 8329TIP3   OH224863   7.464   3.230   2.997
 8329TIP3    H124864   7.508   3.267   3.073
 8329TIP3    H224865   7.381   3.197   3.031
 8330TIP3   OH224866   8.133   7.940   7.811
 8330TIP3    H124867   8.052   7.902   7.845
 8330TIP3    H224868   8.131   8.031   7.840
 8331TIP3   OH224869   9.228   4.157   5.514
 8331TIP3    H124870   9.251   4.075   5.470
 8331TIP3    H224871   9.177   4.206   5.450
 8332TIP3   OH224872   0.990   1.088   6.026
 8332TIP3    H124873   0.988   1.133   6.110
 8332TIP3    H224874   0.915   1.123   5.978
 8333TIP3   OH224875   4.762   2.118   4.795
 8333TIP3    H124876   4.758   2.097   4.702
 8333TIP3    H224877   4.818   2.051   4.833
 8334TIP3   OH224878   5.295   5.034   2.292
 8334TIP3    H124879   5.365   5.099   2.283
 8334TIP3    H224880   5.232   5.075   2.351
 8335TIP3   OH224881   4.929   1.200   2.839
 8335TIP3    H124882   4.969   1.148   2.768
 8335TIP3    H224883   5.004   1.242   2.882
 8336TIP3   OH224884   8.282   5.726   4.360
 8336TIP3    H124885   8.224   5.700   4.289
 8336TIP3    H224886   8.290   5.647   4.414
 8337TIP3   OH224887   0.448   2.483   4.788
 8337TIP3    H124888   0.438   2.537   4.866
 8337TIP3    H224889   0.369   2.428   4.787
 8338TIP3   OH224890   4.651   1.534   7.376
 8338TIP3    H124891   4.558   1.550   7.393
 8338TIP3    H224892   4.696   1.607   7.419
 8339TIP3   OH224893   5.053   6.455   1.651
 8339TIP3    H124894   5.140   6.425   1.626
 8339TIP3    H224895   5.051   6.446   1.747
 8340TIP3   OH224896   1.672   6.253   3.132
 8340TIP3    H124897   1.597   6.207   3.095
 8340TIP3    H224898   1.698   6.199   3.207
 8341TIP3   OH224899   2.935   3.570   3.117
 8341TIP3    H124900   3.017   3.599   3.077
 8341TIP3    H224901   2.873   3.640   3.097
 8342TIP3   OH224902   3.685   6.494   4.339
 8342TIP3    H124903   3.591   6.478   4.326
 8342TIP3    H224904   3.714   6.419   4.391
 8343TIP3   OH224905   3.707   2.086   6.015
 8343TIP3    H124906   3.704   1.992   6.035
 8343TIP3    H224907   3.637   2.099   5.950
 8344TIP3   OH224908   9.086   5.270   0.020
 8344TIP3    H124909   9.111   5.204  -0.045
 8344TIP3    H224910   9.023   5.226   0.077
 8345TIP3   OH224911   0.583   7.728   5.645
 8345TIP3    H124912   0.615   7.782   5.717
 8345TIP3    H224913   0.585   7.786   5.569
 8346TIP3   OH224914   7.014   7.129   4.452
 8346TIP3    H124915   6.969   7.196   4.400
 8346TIP3    H224916   6.946   7.063   4.469
 8347TIP3   OH224917   0.279   5.466   6.534
 8347TIP3    H124918   0.282   5.456   6.439
 8347TIP3    H224919   0.186   5.476   6.555
 8348TIP3   OH224920   6.684   8.941   5.914
 8348TIP3    H124921   6.659   8.953   5.822
 8348TIP3    H224922   6.752   9.006   5.929
 8349TIP3   OH224923   1.273   6.095   6.258
 8349TIP3    H124924   1.337   6.146   6.308
 8349TIP3    H224925   1.306   6.005   6.260
 8350TIP3   OH224926   1.614   1.526   3.211
 8350TIP3    H124927   1.651   1.494   3.293
 8350TIP3    H224928   1.637   1.459   3.146
 8351TIP3   OH224929   5.257   2.003   0.183
 8351TIP3    H124930   5.210   1.933   0.228
 8351TIP3    H224931   5.199   2.027   0.110
 8352TIP3   OH224932   6.123   4.147   6.531
 8352TIP3    H124933   6.189   4.107   6.587
 8352TIP3    H224934   6.165   4.153   6.445
 8353TIP3   OH224935   1.982   1.812   5.829
 8353TIP3    H124936   1.996   1.756   5.753
 8353TIP3    H224937   1.956   1.751   5.899
 8354TIP3   OH224938   7.584   4.899   5.914
 8354TIP3    H124939   7.498   4.861   5.928
 8354TIP3    H224940   7.569   4.971   5.854
 8355TIP3   OH224941   0.272   1.597   5.958
 8355TIP3    H124942   0.342   1.533   5.972
 8355TIP3    H224943   0.206   1.574   6.023
 8356TIP3   OH224944   6.134   2.499   1.342
 8356TIP3    H124945   6.137   2.493   1.438
 8356TIP3    H224946   6.130   2.593   1.325
 8357TIP3   OH224947   7.952   0.638   7.172
 8357TIP3    H124948   7.930   0.713   7.227
 8357TIP3    H224949   8.017   0.671   7.110
 8358TIP3   OH224950   7.142   4.369   0.069
 8358TIP3    H124951   7.089   4.299   0.030
 8358TIP3    H224952   7.224   4.367   0.020
 8359TIP3   OH224953   8.680   5.678   4.120
 8359TIP3    H124954   8.684   5.601   4.176
 8359TIP3    H224955   8.658   5.750   4.180
 8360TIP3   OH224956   2.594   6.939   4.942
 8360TIP3    H124957   2.515   6.889   4.965
 8360TIP3    H224958   2.665   6.875   4.947
 8361TIP3   OH224959   5.837   4.218   7.534
 8361TIP3    H124960   5.928   4.227   7.505
 8361TIP3    H224961   5.833   4.131   7.573
 8362TIP3   OH224962   6.518   3.845   4.596
 8362TIP3    H124963   6.423   3.845   4.608
 8362TIP3    H224964   6.532   3.786   4.523
 8363TIP3   OH224965   6.923   7.540   7.197
 8363TIP3    H124966   6.903   7.565   7.107
 8363TIP3    H224967   6.849   7.484   7.223
 8364TIP3   OH224968   2.745   7.219   1.135
 8364TIP3    H124969   2.797   7.154   1.182
 8364TIP3    H224970   2.655   7.203   1.163
 8365TIP3   OH224971   3.846   5.421   0.230
 8365TIP3    H124972   3.766   5.451   0.273
 8365TIP3    H224973   3.817   5.354   0.168
 8366TIP3   OH224974   4.796   7.244   2.278
 8366TIP3    H124975   4.763   7.265   2.191
 8366TIP3    H224976   4.832   7.156   2.270
 8367TIP3   OH224977   9.538   4.570   1.526
 8367TIP3    H124978   9.488   4.577   1.444
 8367TIP3    H224979   9.626   4.600   1.503
 8368TIP3   OH224980   8.258   3.840   5.117
 8368TIP3    H124981   8.277   3.849   5.023
 8368TIP3    H224982   8.196   3.767   5.121
 8369TIP3   OH224983   8.465   5.933   2.170
 8369TIP3    H124984   8.476   5.840   2.151
 8369TIP3    H224985   8.375   5.940   2.204
 8370TIP3   OH224986   1.472   7.106   1.608
 8370TIP3    H124987   1.421   7.026   1.624
 8370TIP3    H224988   1.415   7.160   1.554
 8371TIP3   OH224989   5.620   5.910   0.991
 8371TIP3    H124990   5.535   5.869   1.005
 8371TIP3    H224991   5.645   5.884   0.902
 8372TIP3   OH224992   6.587   1.288   5.012
 8372TIP3    H124993   6.570   1.303   4.919
 8372TIP3    H224994   6.558   1.368   5.055
 8373TIP3   OH224995   1.503   8.186   0.907
 8373TIP3    H124996   1.425   8.236   0.884
 8373TIP3    H224997   1.469   8.107   0.950
 8374TIP3   OH224998   4.717   4.978   3.562
 8374TIP3    H124999   4.669   4.945   3.638
 8374TIP3    H225000   4.658   5.044   3.525
 8375TIP3   OH225001   6.434   7.412   4.888
 8375TIP3    H125002   6.386   7.336   4.922
 8375TIP3    H225003   6.487   7.441   4.961
 8376TIP3   OH225004   7.034   4.714   6.068
 8376TIP3    H125005   7.100   4.732   6.135
 8376TIP3    H225006   7.041   4.788   6.007
 8377TIP3   OH225007   8.042   5.622   6.336
 8377TIP3    H125008   8.072   5.583   6.418
 8377TIP3    H225009   7.954   5.654   6.355
 8378TIP3   OH225010   0.645   1.820   1.001
 8378TIP3    H125011   0.700   1.844   0.927
 8378TIP3    H225012   0.648   1.725   1.005
 8379TIP3   OH225013   4.273   0.912   2.343
 8379TIP3    H125014   4.185   0.881   2.365
 8379TIP3    H225015   4.286   0.989   2.397
 8380TIP3   OH225016   8.565   7.647   2.667
 8380TIP3    H125017   8.479   7.669   2.630
 8380TIP3    H225018   8.621   7.633   2.591
 8381TIP3   OH225019   4.362   8.400   0.934
 8381TIP3    H125020   4.410   8.451   1.000
 8381TIP3    H225021   4.274   8.437   0.934
 8382TIP3   OH225022   8.031   4.751   6.384
 8382TIP3    H125023   8.042   4.839   6.350
 8382TIP3    H225024   7.974   4.761   6.461
 8383TIP3   OH225025   6.684   1.227   5.490
 8383TIP3    H125026   6.770   1.219   5.448
 8383TIP3    H225027   6.646   1.139   5.484
 8384TIP3   OH225028   0.238   6.553   0.720
 8384TIP3    H125029   0.143   6.566   0.718
 8384TIP3    H225030   0.249   6.459   0.735
 8385TIP3   OH225031   2.211   0.328   2.144
 8385TIP3    H125032   2.187   0.247   2.190
 8385TIP3    H225033   2.128   0.362   2.111
 8386TIP3   OH225034   1.373   0.995   7.035
 8386TIP3    H125035   1.392   1.030   7.122
 8386TIP3    H225036   1.309   0.925   7.051
 8387TIP3   OH225037   6.776   1.032   2.641
 8387TIP3    H125038   6.692   0.989   2.661
 8387TIP3    H225039   6.799   0.999   2.554
 8388TIP3   OH225040   3.132   1.985   5.310
 8388TIP3    H125041   3.213   2.035   5.299
 8388TIP3    H225042   3.153   1.898   5.274
 8389TIP3   OH225043   3.311   8.157   7.595
 8389TIP3    H125044   3.405   8.154   7.615
 8389TIP3    H225045   3.273   8.086   7.646
 8390TIP3   OH225046   3.956   1.098   7.638
 8390TIP3    H125047   3.983   1.009   7.662
 8390TIP3    H225048   3.862   1.091   7.620
 8391TIP3   OH225049   0.855   2.508   1.757
 8391TIP3    H125050   0.804   2.495   1.837
 8391TIP3    H225051   0.816   2.448   1.694
 8392TIP3   OH225052   2.451   6.056   1.503
 8392TIP3    H125053   2.498   6.044   1.586
 8392TIP3    H225054   2.411   5.971   1.485
 8393TIP3   OH225055   4.494   4.199   4.705
 8393TIP3    H125056   4.419   4.225   4.652
 8393TIP3    H225057   4.545   4.279   4.717
 8394TIP3   OH225058   4.008   5.703   5.843
 8394TIP3    H125059   4.005   5.785   5.793
 8394TIP3    H225060   3.940   5.713   5.910
 8395TIP3   OH225061   7.199   4.417   1.984
 8395TIP3    H125062   7.121   4.400   2.037
 8395TIP3    H225063   7.220   4.509   2.000
 8396TIP3   OH225064   1.400   7.727   3.692
 8396TIP3    H125065   1.375   7.653   3.747
 8396TIP3    H225066   1.427   7.688   3.609
 8397TIP3   OH225067   5.186   7.250   4.304
 8397TIP3    H125068   5.093   7.236   4.320
 8397TIP3    H225069   5.189   7.318   4.237
 8398TIP3   OH225070   5.192   5.949   5.251
 8398TIP3    H125071   5.163   5.925   5.339
 8398TIP3    H225072   5.210   5.866   5.208
 8399TIP3   OH225073   4.664   6.175   0.701
 8399TIP3    H125074   4.665   6.247   0.764
 8399TIP3    H225075   4.649   6.097   0.754
 8400TIP3   OH225076   5.186   2.983   6.394
 8400TIP3    H125077   5.224   3.032   6.321
 8400TIP3    H225078   5.092   2.979   6.374
 8401TIP3   OH225079   0.728   7.356   1.201
 8401TIP3    H125080   0.723   7.367   1.106
 8401TIP3    H225081   0.674   7.427   1.236
 8402TIP3   OH225082   0.710   4.819   2.141
 8402TIP3    H125083   0.722   4.807   2.047
 8402TIP3    H225084   0.616   4.831   2.152
 8403TIP3   OH225085   6.992   8.904   6.999
 8403TIP3    H125086   6.924   8.921   6.933
 8403TIP3    H225087   6.978   8.813   7.023
 8404TIP3   OH225088   4.342   3.559   2.489
 8404TIP3    H125089   4.307   3.607   2.414
 8404TIP3    H225090   4.434   3.546   2.469
 8405TIP3   OH225091   4.021   3.499   2.669
 8405TIP3    H125092   4.024   3.466   2.579
 8405TIP3    H225093   4.048   3.590   2.663
 8406TIP3   OH225094   6.779   7.588   0.798
 8406TIP3    H125095   6.776   7.657   0.732
 8406TIP3    H225096   6.812   7.511   0.751
 8407TIP3   OH225097   0.643   4.172   6.953
 8407TIP3    H125098   0.586   4.184   6.877
 8407TIP3    H225099   0.706   4.243   6.947
 8408TIP3   OH225100   0.064   2.829   3.124
 8408TIP3    H125101  -0.031   2.824   3.115
 8408TIP3    H225102   0.093   2.737   3.124
 8409TIP3   OH225103   2.946   7.081   5.378
 8409TIP3    H125104   2.995   7.077   5.296
 8409TIP3    H225105   2.887   7.155   5.367
 8410TIP3   OH225106   4.448   2.074   7.476
 8410TIP3    H125107   4.507   2.120   7.536
 8410TIP3    H225108   4.367   2.125   7.477
 8411TIP3   OH225109   9.506   5.670   7.751
 8411TIP3    H125110   9.440   5.738   7.759
 8411TIP3    H225111   9.589   5.715   7.767
 8412TIP3   OH225112   1.033   0.310   0.731
 8412TIP3    H125113   1.074   0.259   0.801
 8412TIP3    H225114   1.103   0.322   0.667
 8413TIP3   OH225115   3.489   0.403   5.695
 8413TIP3    H125116   3.474   0.407   5.790
 8413TIP3    H225117   3.461   0.315   5.670
 8414TIP3   OH225118   2.020   4.953   0.398
 8414TIP3    H125119   1.981   4.902   0.470
 8414TIP3    H225120   2.078   5.015   0.441
 8415TIP3   OH225121   3.764   4.187   6.789
 8415TIP3    H125122   3.778   4.108   6.842
 8415TIP3    H225123   3.852   4.210   6.757
 8416TIP3   OH225124   6.120   6.562   2.952
 8416TIP3    H125125   6.056   6.563   2.880
 8416TIP3    H225126   6.172   6.483   2.936
 8417TIP3   OH225127   8.500   1.554   4.358
 8417TIP3    H125128   8.487   1.572   4.265
 8417TIP3    H225129   8.445   1.618   4.403
 8418TIP3   OH225130   9.424   2.614   4.393
 8418TIP3    H125131   9.391   2.554   4.326
 8418TIP3    H225132   9.345   2.645   4.439
 8419TIP3   OH225133   4.011   0.019   3.404
 8419TIP3    H125134   3.922  -0.006   3.381
 8419TIP3    H225135   4.064  -0.056   3.379
 8420TIP3   OH225136   0.685   2.468   2.812
 8420TIP3    H125137   0.772   2.501   2.788
 8420TIP3    H225138   0.635   2.546   2.832
 8421TIP3   OH225139   0.717   8.838   6.795
 8421TIP3    H125140   0.787   8.779   6.767
 8421TIP3    H225141   0.660   8.784   6.850
 8422TIP3   OH225142   7.646   7.808   3.948
 8422TIP3    H125143   7.742   7.811   3.941
 8422TIP3    H225144   7.628   7.840   4.036
 8423TIP3   OH225145   4.257   7.434   7.610
 8423TIP3    H125146   4.183   7.455   7.667
 8423TIP3    H225147   4.317   7.508   7.621
 8424TIP3   OH225148   2.390   1.757   6.839
 8424TIP3    H125149   2.406   1.847   6.810
 8424TIP3    H225150   2.464   1.707   6.805
 8425TIP3   OH225151   8.624   4.064   2.985
 8425TIP3    H125152   8.682   4.047   3.060
 8425TIP3    H225153   8.679   4.111   2.922
 8426TIP3   OH225154   3.688   2.464   0.442
 8426TIP3    H125155   3.696   2.373   0.471
 8426TIP3    H225156   3.601   2.492   0.469
 8427TIP3   OH225157   1.464   7.092   5.853
 8427TIP3    H125158   1.430   7.006   5.831
 8427TIP3    H225159   1.553   7.092   5.818
 8428TIP3   OH225160   8.779   6.816   2.547
 8428TIP3    H125161   8.795   6.891   2.605
 8428TIP3    H225162   8.727   6.852   2.475
 8429TIP3   OH225163   2.114   7.231   7.185
 8429TIP3    H125164   2.206   7.253   7.176
 8429TIP3    H225165   2.094   7.250   7.277
 8430TIP3   OH225166   5.264   6.887   7.661
 8430TIP3    H125167   5.351   6.923   7.644
 8430TIP3    H225168   5.245   6.912   7.752
 8431TIP3   OH225169   8.008   2.182   2.728
 8431TIP3    H125170   8.096   2.195   2.691
 8431TIP3    H225171   7.993   2.087   2.718
 8432TIP3   OH225172   6.997   6.625   0.503
 8432TIP3    H125173   6.956   6.607   0.419
 8432TIP3    H225174   6.969   6.714   0.525
 8433TIP3   OH225175   6.343   2.547   5.910
 8433TIP3    H125176   6.370   2.542   5.818
 8433TIP3    H225177   6.250   2.522   5.909
 8434TIP3   OH225178   8.144   3.338   5.553
 8434TIP3    H125179   8.194   3.282   5.612
 8434TIP3    H225180   8.161   3.301   5.466
 8435TIP3   OH225181   3.422   4.590   5.488
 8435TIP3    H125182   3.459   4.503   5.479
 8435TIP3    H225183   3.353   4.594   5.422
 8436TIP3   OH225184   2.671   3.231   5.086
 8436TIP3    H125185   2.629   3.195   5.164
 8436TIP3    H225186   2.725   3.303   5.119
 8437TIP3   OH225187   4.884   6.714   0.411
 8437TIP3    H125188   4.930   6.645   0.458
 8437TIP3    H225189   4.932   6.794   0.432
 8438TIP3   OH225190   2.636   7.262   1.456
 8438TIP3    H125191   2.621   7.348   1.416
 8438TIP3    H225192   2.583   7.202   1.405
 8439TIP3   OH225193   1.967   7.700   5.899
 8439TIP3    H125194   2.054   7.683   5.862
 8439TIP3    H225195   1.983   7.765   5.967
 8440TIP3   OH225196   5.309   1.119   7.786
 8440TIP3    H125197   5.374   1.098   7.853
 8440TIP3    H225198   5.299   1.214   7.791
 8441TIP3   OH225199   7.407   7.848   1.843
 8441TIP3    H125200   7.393   7.892   1.927
 8441TIP3    H225201   7.447   7.765   1.865
 8442TIP3   OH225202   7.282   4.310   4.671
 8442TIP3    H125203   7.219   4.352   4.613
 8442TIP3    H225204   7.265   4.348   4.757
 8443TIP3   OH225205   7.745   3.217   0.396
 8443TIP3    H125206   7.652   3.212   0.373
 8443TIP3    H225207   7.786   3.148   0.345
 8444TIP3   OH225208   8.439   7.954   0.107
 8444TIP3    H125209   8.465   7.947   0.015
 8444TIP3    H225210   8.344   7.963   0.104
 8445TIP3   OH225211   6.163   1.355   1.902
 8445TIP3    H125212   6.239   1.313   1.942
 8445TIP3    H225213   6.136   1.422   1.965
 8446TIP3   OH225214   2.644   1.929   6.694
 8446TIP3    H125215   2.728   1.884   6.686
 8446TIP3    H225216   2.630   1.939   6.788
 8447TIP3   OH225217   3.665   4.291   5.129
 8447TIP3    H125218   3.582   4.335   5.112
 8447TIP3    H225219   3.707   4.286   5.043
 8448TIP3   OH225220   0.521   2.090   6.046
 8448TIP3    H125221   0.474   2.147   5.984
 8448TIP3    H225222   0.489   2.118   6.132
 8449TIP3   OH225223   0.131   0.494   6.362
 8449TIP3    H125224   0.075   0.560   6.403
 8449TIP3    H225225   0.214   0.499   6.411
 8450TIP3   OH225226   8.069   1.032   1.836
 8450TIP3    H125227   8.119   0.953   1.813
 8450TIP3    H225228   7.997   1.001   1.891
 8451TIP3   OH225229   8.191   6.264   0.540
 8451TIP3    H125230   8.240   6.299   0.614
 8451TIP3    H225231   8.100   6.281   0.561
 8452TIP3   OH225232   8.099   0.182   5.229
 8452TIP3    H125233   8.142   0.123   5.167
 8452TIP3    H225234   8.099   0.267   5.186
 8453TIP3   OH225235   6.899   6.174   6.405
 8453TIP3    H125236   6.838   6.216   6.466
 8453TIP3    H225237   6.934   6.246   6.353
 8454TIP3   OH225238   0.839   2.355   1.236
 8454TIP3    H125239   0.753   2.367   1.195
 8454TIP3    H225240   0.886   2.435   1.217
 8455TIP3   OH225241   2.797   5.693   7.002
 8455TIP3    H125242   2.879   5.737   6.979
 8455TIP3    H225243   2.731   5.735   6.947
 8456TIP3   OH225244   1.381   6.806   2.816
 8456TIP3    H125245   1.387   6.791   2.721
 8456TIP3    H225246   1.454   6.756   2.852
 8457TIP3   OH225247   6.521   4.763   4.882
 8457TIP3    H125248   6.530   4.681   4.931
 8457TIP3    H225249   6.440   4.802   4.917
 8458TIP3   OH225250   0.042   0.927   4.035
 8458TIP3    H125251  -0.003   0.843   4.037
 8458TIP3    H225252  -0.028   0.992   4.029
 8459TIP3   OH225253   3.297   6.918   6.685
 8459TIP3    H125254   3.365   6.879   6.741
 8459TIP3    H225255   3.227   6.940   6.746
 8460TIP3   OH225256   1.423   7.385   7.160
 8460TIP3    H125257   1.441   7.477   7.178
 8460TIP3    H225258   1.455   7.371   7.071
 8461TIP3   OH225259   2.630   2.710   3.920
 8461TIP3    H125260   2.644   2.616   3.936
 8461TIP3    H225261   2.657   2.752   4.002
 8462TIP3   OH225262   5.406   3.517   7.702
 8462TIP3    H125263   5.425   3.453   7.633
 8462TIP3    H225264   5.490   3.532   7.744
 8463TIP3   OH225265   5.191   1.502   5.689
 8463TIP3    H125266   5.224   1.547   5.767
 8463TIP3    H225267   5.154   1.420   5.722
 8464TIP3   OH225268   0.789   2.385   0.053
 8464TIP3    H125269   0.744   2.469   0.044
 8464TIP3    H225270   0.835   2.373  -0.030
 8465TIP3   OH225271   6.861   3.359   3.485
 8465TIP3    H125272   6.827   3.384   3.571
 8465TIP3    H225273   6.948   3.399   3.482
 8466TIP3   OH225274   8.054   1.736   1.358
 8466TIP3    H125275   7.960   1.724   1.374
 8466TIP3    H225276   8.091   1.756   1.444
 8467TIP3   OH225277   9.178   1.208   4.897
 8467TIP3    H125278   9.257   1.196   4.845
 8467TIP3    H225279   9.195   1.286   4.950
 8468TIP3   OH225280   1.426   0.838   4.679
 8468TIP3    H125281   1.518   0.814   4.686
 8468TIP3    H225282   1.379   0.755   4.680
 8469TIP3   OH225283   7.979   7.754   2.220
 8469TIP3    H125284   8.069   7.735   2.248
 8469TIP3    H225285   7.985   7.767   2.125
 8470TIP3   OH225286   1.388   6.540   1.072
 8470TIP3    H125287   1.321   6.595   1.031
 8470TIP3    H225288   1.466   6.595   1.073
 8471TIP3   OH225289   0.952   6.312   6.343
 8471TIP3    H125290   0.870   6.277   6.380
 8471TIP3    H225291   1.020   6.284   6.405
 8472TIP3   OH225292   4.332   6.560   5.086
 8472TIP3    H125293   4.343   6.632   5.148
 8472TIP3    H225294   4.327   6.603   5.001
 8473TIP3   OH225295   2.514   5.180   4.565
 8473TIP3    H125296   2.493   5.087   4.566
 8473TIP3    H225297   2.559   5.195   4.648
 8474TIP3   OH225298   8.260   2.403   2.048
 8474TIP3    H125299   8.166   2.408   2.028
 8474TIP3    H225300   8.301   2.377   1.966
 8475TIP3   OH225301   7.819   8.528   0.610
 8475TIP3    H125302   7.865   8.536   0.527
 8475TIP3    H225303   7.778   8.613   0.624
 8476TIP3   OH225304   5.420   5.746   2.571
 8476TIP3    H125305   5.485   5.745   2.501
 8476TIP3    H225306   5.470   5.721   2.649
 8477TIP3   OH225307   4.720   3.117   3.261
 8477TIP3    H125308   4.727   3.176   3.336
 8477TIP3    H225309   4.678   3.039   3.297
 8478TIP3   OH225310   1.124   4.415   4.721
 8478TIP3    H125311   1.190   4.439   4.656
 8478TIP3    H225312   1.064   4.357   4.674
 8479TIP3   OH225313   4.528   5.521   1.087
 8479TIP3    H125314   4.623   5.522   1.102
 8479TIP3    H225315   4.518   5.491   0.997
 8480TIP3   OH225316   3.479   8.039   7.324
 8480TIP3    H125317   3.525   8.011   7.245
 8480TIP3    H225318   3.541   8.096   7.369
 8481TIP3   OH225319   8.238   5.127   6.620
 8481TIP3    H125320   8.213   5.145   6.529
 8481TIP3    H225321   8.214   5.206   6.668
 8482TIP3   OH225322   2.076   0.424   5.261
 8482TIP3    H125323   2.086   0.403   5.354
 8482TIP3    H225324   2.134   0.362   5.216
 8483TIP3   OH225325   3.526   2.158   3.353
 8483TIP3    H125326   3.551   2.154   3.445
 8483TIP3    H225327   3.440   2.201   3.354
 8484TIP3   OH225328   9.067   0.501   0.014
 8484TIP3    H125329   9.029   0.418   0.042
 8484TIP3    H225330   9.016   0.525  -0.064
 8485TIP3   OH225331   6.462   4.597   2.746
 8485TIP3    H125332   6.450   4.690   2.765
 8485TIP3    H225333   6.376   4.558   2.760
 8486TIP3   OH225334   0.257   2.368   2.880
 8486TIP3    H125335   0.187   2.305   2.898
 8486TIP3    H225336   0.223   2.421   2.807
 8487TIP3   OH225337   9.232   7.567   6.236
 8487TIP3    H125338   9.219   7.590   6.328
 8487TIP3    H225339   9.147   7.536   6.206
 8488TIP3   OH225340   5.069   1.859   2.349
 8488TIP3    H125341   5.076   1.954   2.340
 8488TIP3    H225342   5.115   1.824   2.273
 8489TIP3   OH225343   1.626   1.091   0.271
 8489TIP3    H125344   1.574   1.015   0.246
 8489TIP3    H225345   1.593   1.162   0.215
 8490TIP3   OH225346   6.400   0.628   5.522
 8490TIP3    H125347   6.495   0.641   5.518
 8490TIP3    H225348   6.386   0.584   5.606
 8491TIP3   OH225349   8.303   6.952   2.899
 8491TIP3    H125350   8.388   6.966   2.940
 8491TIP3    H225351   8.244   6.933   2.972
 8492TIP3   OH225352   1.706   7.360   2.817
 8492TIP3    H125353   1.655   7.279   2.820
 8492TIP3    H225354   1.660   7.414   2.752
 8493TIP3   OH225355   7.018   4.069   0.038
 8493TIP3    H125356   7.028   3.978   0.012
 8493TIP3    H225357   7.040   4.070   0.131
 8494TIP3   OH225358   4.289   4.660   7.101
 8494TIP3    H125359   4.376   4.694   7.121
 8494TIP3    H225360   4.257   4.714   7.029
 8495TIP3   OH225361   6.378   0.715   3.350
 8495TIP3    H125362   6.325   0.643   3.383
 8495TIP3    H225363   6.424   0.678   3.274
 8496TIP3   OH225364   1.825   6.667   0.439
 8496TIP3    H125365   1.859   6.690   0.526
 8496TIP3    H225366   1.904   6.649   0.387
 8497TIP3   OH225367   3.265   8.111   2.595
 8497TIP3    H125368   3.247   8.190   2.645
 8497TIP3    H225369   3.229   8.128   2.508
 8498TIP3   OH225370   5.240   4.822   2.987
 8498TIP3    H125371   5.255   4.744   2.934
 8498TIP3    H225372   5.303   4.886   2.953
 8499TIP3   OH225373   1.962   0.044   4.819
 8499TIP3    H125374   1.934   0.092   4.896
 8499TIP3    H225375   1.890  -0.015   4.799
 8500TIP3   OH225376   0.778   4.668   7.719
 8500TIP3    H125377   0.849   4.672   7.655
 8500TIP3    H225378   0.706   4.718   7.679
 8501TIP3   OH225379   5.366   1.452   4.464
 8501TIP3    H125380   5.333   1.382   4.408
 8501TIP3    H225381   5.447   1.480   4.421
 8502TIP3   OH225382   0.328   8.963   1.673
 8502TIP3    H125383   0.319   8.992   1.764
 8502TIP3    H225384   0.304   9.040   1.621
 8503TIP3   OH225385   4.264   2.548   4.822
 8503TIP3    H125386   4.172   2.528   4.810
 8503TIP3    H225387   4.300   2.553   4.733
 8504TIP3   OH225388   7.075   6.226   1.028
 8504TIP3    H125389   7.118   6.170   0.963
 8504TIP3    H225390   7.140   6.233   1.098
 8505TIP3   OH225391   8.915   6.126   6.244
 8505TIP3    H125392   8.832   6.105   6.201
 8505TIP3    H225393   8.982   6.095   6.183
 8506TIP3   OH225394   8.146   3.086   1.020
 8506TIP3    H125395   8.199   3.146   0.967
 8506TIP3    H225396   8.165   3.110   1.110
 8507TIP3   OH225397   5.100   3.299   2.987
 8507TIP3    H125398   5.083   3.241   3.062
 8507TIP3    H225399   5.065   3.251   2.912
 8508TIP3   OH225400   8.717   6.317   5.719
 8508TIP3    H125401   8.678   6.387   5.667
 8508TIP3    H225402   8.652   6.247   5.717
 8509TIP3   OH225403   3.445   8.478   1.631
 8509TIP3    H125404   3.521   8.450   1.579
 8509TIP3    H225405   3.393   8.530   1.570
 8510TIP3   OH225406   1.399   4.362   6.713
 8510TIP3    H125407   1.413   4.371   6.808
 8510TIP3    H225408   1.311   4.397   6.698
 8511TIP3   OH225409   3.272   8.327   2.755
 8511TIP3    H125410   3.198   8.388   2.764
 8511TIP3    H225411   3.304   8.316   2.845
 8512TIP3   OH225412   1.968   3.223   3.320
 8512TIP3    H125413   1.908   3.149   3.323
 8512TIP3    H225414   1.922   3.290   3.271
 8513TIP3   OH225415   4.191   6.031   0.261
 8513TIP3    H125416   4.264   5.975   0.235
 8513TIP3    H225417   4.229   6.119   0.264
 8514TIP3   OH225418   1.376   1.945   5.727
 8514TIP3    H125419   1.418   1.862   5.750
 8514TIP3    H225420   1.393   2.002   5.802
 8515TIP3   OH225421   5.744   1.362   6.240
 8515TIP3    H125422   5.758   1.289   6.301
 8515TIP3    H225423   5.688   1.326   6.172
 8516TIP3   OH225424   7.484   1.439   1.452
 8516TIP3    H125425   7.552   1.417   1.516
 8516TIP3    H225426   7.513   1.398   1.371
 8517TIP3   OH225427   5.703   7.678   5.677
 8517TIP3    H125428   5.649   7.603   5.653
 8517TIP3    H225429   5.777   7.674   5.617
 8518TIP3   OH225430   3.137   1.200   2.548
 8518TIP3    H125431   3.186   1.246   2.480
 8518TIP3    H225432   3.191   1.208   2.626
 8519TIP3   OH225433   0.566   2.230   0.096
 8519TIP3    H125434   0.644   2.279   0.071
 8519TIP3    H225435   0.592   2.138   0.088
 8520TIP3   OH225436   1.936   2.567   5.987
 8520TIP3    H125437   1.868   2.627   5.956
 8520TIP3    H225438   1.972   2.610   6.065
 8521TIP3   OH225439   6.524   8.887   2.785
 8521TIP3    H125440   6.601   8.941   2.767
 8521TIP3    H225441   6.512   8.835   2.706
 8522TIP3   OH225442   7.499   1.958   6.086
 8522TIP3    H125443   7.535   2.024   6.027
 8522TIP3    H225444   7.463   1.890   6.028
 8523TIP3   OH225445   9.212   4.500   1.120
 8523TIP3    H125446   9.180   4.587   1.146
 8523TIP3    H225447   9.139   4.462   1.071
 8524TIP3   OH225448   0.767   3.968   7.087
 8524TIP3    H125449   0.694   3.907   7.103
 8524TIP3    H225450   0.727   4.040   7.039
 8525TIP3   OH225451   4.521   2.642   2.297
 8525TIP3    H125452   4.557   2.595   2.372
 8525TIP3    H225453   4.542   2.587   2.221
 8526TIP3   OH225454   0.269   0.686   5.439
 8526TIP3    H125455   0.329   0.645   5.377
 8526TIP3    H225456   0.206   0.616   5.461
 8527TIP3   OH225457   3.625   5.479   1.417
 8527TIP3    H125458   3.559   5.536   1.456
 8527TIP3    H225459   3.657   5.528   1.342
 8528TIP3   OH225460   4.146   6.085   0.761
 8528TIP3    H125461   4.099   6.145   0.819
 8528TIP3    H225462   4.238   6.102   0.778
 8529TIP3   OH225463   9.111   0.456   1.471
 8529TIP3    H125464   9.076   0.386   1.526
 8529TIP3    H225465   9.179   0.414   1.418
 8530TIP3   OH225466   5.299   7.908   6.998
 8530TIP3    H125467   5.349   7.831   6.972
 8530TIP3    H225468   5.250   7.880   7.076
 8531TIP3   OH225469   7.245   3.092   3.498
 8531TIP3    H125470   7.180   3.024   3.520
 8531TIP3    H225471   7.203   3.142   3.428
 8532TIP3   OH225472   1.049   5.373   4.175
 8532TIP3    H125473   1.086   5.381   4.263
 8532TIP3    H225474   1.125   5.380   4.117
 8533TIP3   OH225475   6.571   3.756   3.148
 8533TIP3    H125476   6.585   3.690   3.217
 8533TIP3    H225477   6.516   3.711   3.083
 8534TIP3   OH225478   1.880   7.938   5.553
 8534TIP3    H125479   1.929   7.939   5.470
 8534TIP3    H225480   1.810   8.001   5.540
 8535TIP3   OH225481   3.904   4.670   7.347
 8535TIP3    H125482   3.996   4.695   7.341
 8535TIP3    H225483   3.900   4.584   7.305
 8536TIP3   OH225484   1.662   1.880   4.206
 8536TIP3    H125485   1.638   1.829   4.128
 8536TIP3    H225486   1.747   1.918   4.184
 8537TIP3   OH225487   8.666   7.384   6.230
 8537TIP3    H125488   8.693   7.385   6.138
 8537TIP3    H225489   8.577   7.420   6.229
 8538TIP3   OH225490   5.295   2.259   7.238
 8538TIP3    H125491   5.334   2.238   7.153
 8538TIP3    H225492   5.289   2.354   7.239
 8539TIP3   OH225493   3.600   0.714   4.790
 8539TIP3    H125494   3.519   0.754   4.757
 8539TIP3    H225495   3.658   0.788   4.807
 8540TIP3   OH225496   7.074   7.000   7.103
 8540TIP3    H125497   7.034   7.087   7.104
 8540TIP3    H225498   7.059   6.968   7.014
 8541TIP3   OH225499   6.930   0.338   1.388
 8541TIP3    H125500   6.988   0.409   1.414
 8541TIP3    H225501   6.955   0.317   1.298
 8542TIP3   OH225502   2.192   4.427   5.173
 8542TIP3    H125503   2.148   4.512   5.165
 8542TIP3    H225504   2.180   4.386   5.087
 8543TIP3   OH225505   6.296   8.741   2.181
 8543TIP3    H125506   6.257   8.787   2.107
 8543TIP3    H225507   6.373   8.793   2.204
 8544TIP3   OH225508   8.190   2.138   4.751
 8544TIP3    H125509   8.144   2.116   4.670
 8544TIP3    H225510   8.216   2.229   4.740
 8545TIP3   OH225511   7.485   7.855   6.958
 8545TIP3    H125512   7.573   7.875   6.989
 8545TIP3    H225513   7.489   7.762   6.933
 8546TIP3   OH225514   9.000   5.594   7.236
 8546TIP3    H125515   9.078   5.646   7.253
 8546TIP3    H225516   8.982   5.606   7.143
 8547TIP3   OH225517   1.503   8.940   7.148
 8547TIP3    H125518   1.563   8.885   7.098
 8547TIP3    H225519   1.492   9.019   7.095
 8548TIP3   OH225520   8.454   7.566   2.118
 8548TIP3    H125521   8.548   7.552   2.113
 8548TIP3    H225522   8.416   7.479   2.103
 8549TIP3   OH225523   2.892   6.857   5.538
 8549TIP3    H125524   2.913   6.939   5.495
 8549TIP3    H225525   2.810   6.874   5.585
 8550TIP3   OH225526   8.931   6.418   1.068
 8550TIP3    H125527   8.896   6.345   1.017
 8550TIP3    H225528   8.899   6.404   1.156
 8551TIP3   OH225529   1.166   7.996   6.360
 8551TIP3    H125530   1.240   7.969   6.305
 8551TIP3    H225531   1.194   7.978   6.449
 8552TIP3   OH225532   7.463   6.225   3.288
 8552TIP3    H125533   7.392   6.171   3.323
 8552TIP3    H225534   7.478   6.192   3.200
 8553TIP3   OH225535   0.779   2.118   5.260
 8553TIP3    H125536   0.791   2.079   5.173
 8553TIP3    H225537   0.840   2.192   5.262
 8554TIP3   OH225538   4.585   6.533   4.769
 8554TIP3    H125539   4.526   6.458   4.772
 8554TIP3    H225540   4.612   6.540   4.678
 8555TIP3   OH225541   6.692   9.022   6.263
 8555TIP3    H125542   6.634   8.953   6.294
 8555TIP3    H225543   6.634   9.085   6.219
 8556TIP3   OH225544   8.621   0.928   7.378
 8556TIP3    H125545   8.677   0.880   7.318
 8556TIP3    H225546   8.540   0.943   7.329
 8557TIP3   OH225547   1.757   4.767   4.380
 8557TIP3    H125548   1.692   4.806   4.321
 8557TIP3    H225549   1.805   4.706   4.324
 8558TIP3   OH225550   5.797   8.531   2.168
 8558TIP3    H125551   5.815   8.472   2.241
 8558TIP3    H225552   5.869   8.595   2.170
 8559TIP3   OH225553   4.583   3.118   2.926
 8559TIP3    H125554   4.490   3.137   2.941
 8559TIP3    H225555   4.584   3.069   2.844
 8560TIP3   OH225556   3.926   8.181   6.892
 8560TIP3    H125557   3.862   8.204   6.824
 8560TIP3    H225558   4.008   8.168   6.845
 8561TIP3   OH225559   8.901   2.325   6.496
 8561TIP3    H125560   8.837   2.338   6.565
 8561TIP3    H225561   8.907   2.410   6.453
 8562TIP3   OH225562   4.459   5.673   0.035
 8562TIP3    H125563   4.399   5.658  -0.039
 8562TIP3    H225564   4.519   5.599   0.033
 8563TIP3   OH225565   8.166   0.836   7.428
 8563TIP3    H125566   8.208   0.922   7.433
 8563TIP3    H225567   8.095   0.848   7.365
 8564TIP3   OH225568   1.330   0.948   2.420
 8564TIP3    H125569   1.322   1.043   2.428
 8564TIP3    H225570   1.294   0.927   2.334
 8565TIP3   OH225571   1.794   4.005   2.183
 8565TIP3    H125572   1.709   3.985   2.221
 8565TIP3    H225573   1.814   3.929   2.128
 8566TIP3   OH225574   2.021   7.749   1.089
 8566TIP3    H125575   2.028   7.845   1.083
 8566TIP3    H225576   2.110   7.718   1.070
 8567TIP3   OH225577   1.722   6.883   4.160
 8567TIP3    H125578   1.656   6.925   4.106
 8567TIP3    H225579   1.800   6.938   4.151
 8568TIP3   OH225580   7.037   8.227   2.674
 8568TIP3    H125581   6.983   8.279   2.615
 8568TIP3    H225582   7.084   8.291   2.728
 8569TIP3   OH225583   8.855   8.903   2.287
 8569TIP3    H125584   8.781   8.955   2.256
 8569TIP3    H225585   8.828   8.873   2.374
 8570TIP3   OH225586   5.471   3.777   2.808
 8570TIP3    H125587   5.491   3.870   2.816
 8570TIP3    H225588   5.551   3.738   2.773
 8571TIP3   OH225589   4.301   7.245   1.829
 8571TIP3    H125590   4.264   7.252   1.741
 8571TIP3    H225591   4.386   7.288   1.823
 8572TIP3   OH225592   6.296   8.704   2.889
 8572TIP3    H125593   6.237   8.721   2.962
 8572TIP3    H225594   6.381   8.739   2.917
 8573TIP3   OH225595   4.804   6.200   6.875
 8573TIP3    H125596   4.824   6.270   6.814
 8573TIP3    H225597   4.845   6.226   6.958
 8574TIP3   OH225598   3.353   7.587   5.616
 8574TIP3    H125599   3.435   7.632   5.599
 8574TIP3    H225600   3.342   7.529   5.541
 8575TIP3   OH225601   6.444   7.196   1.215
 8575TIP3    H125602   6.395   7.114   1.205
 8575TIP3    H225603   6.498   7.183   1.293
 8576TIP3   OH225604   5.748   4.858   1.739
 8576TIP3    H125605   5.775   4.920   1.671
 8576TIP3    H225606   5.696   4.909   1.800
 8577TIP3   OH225607   4.101   1.166   7.138
 8577TIP3    H125608   4.022   1.140   7.183
 8577TIP3    H225609   4.083   1.254   7.105
 8578TIP3   OH225610   1.390   8.376   2.678
 8578TIP3    H125611   1.387   8.355   2.585
 8578TIP3    H225612   1.445   8.309   2.717
 8579TIP3   OH225613   7.369   8.475   0.719
 8579TIP3    H125614   7.364   8.412   0.647
 8579TIP3    H225615   7.357   8.422   0.798
 8580TIP3   OH225616   0.553   0.030   7.526
 8580TIP3    H125617   0.498   0.089   7.475
 8580TIP3    H225618   0.498  -0.047   7.542
 8581TIP3   OH225619   2.048   8.382   1.229
 8581TIP3    H125620   2.063   8.474   1.207
 8581TIP3    H225621   2.083   8.333   1.154
 8582TIP3   OH225622   5.814   8.294   7.113
 8582TIP3    H125623   5.792   8.203   7.090
 8582TIP3    H225624   5.901   8.288   7.152
 8583TIP3   OH225625   8.449   8.122   4.811
 8583TIP3    H125626   8.428   8.121   4.904
 8583TIP3    H225627   8.405   8.045   4.775
 8584TIP3   OH225628   3.201   0.481   1.818
 8584TIP3    H125629   3.212   0.576   1.823
 8584TIP3    H225630   3.204   0.452   1.909
 8585TIP3   OH225631   2.357   6.828   1.023
 8585TIP3    H125632   2.445   6.835   0.985
 8585TIP3    H225633   2.343   6.734   1.034
 8586TIP3   OH225634   2.583   5.890   3.873
 8586TIP3    H125635   2.646   5.825   3.842
 8586TIP3    H225636   2.619   5.974   3.843
 8587TIP3   OH225637   2.320   6.121   2.833
 8587TIP3    H125638   2.366   6.204   2.817
 8587TIP3    H225639   2.257   6.142   2.902
 8588TIP3   OH225640   0.372   5.099   4.945
 8588TIP3    H125641   0.458   5.059   4.958
 8588TIP3    H225642   0.390   5.193   4.944
 8589TIP3   OH225643   3.352   3.938   0.315
 8589TIP3    H125644   3.303   3.994   0.256
 8589TIP3    H225645   3.396   3.998   0.375
 8590TIP3   OH225646   6.798   7.459   1.980
 8590TIP3    H125647   6.754   7.386   1.937
 8590TIP3    H225648   6.878   7.473   1.928
 8591TIP3   OH225649   3.171   5.758   3.391
 8591TIP3    H125650   3.127   5.842   3.401
 8591TIP3    H225651   3.120   5.698   3.446
 8592TIP3   OH225652   2.713   0.706   2.089
 8592TIP3    H125653   2.709   0.722   2.183
 8592TIP3    H225654   2.718   0.793   2.050
 8593TIP3   OH225655   3.482   5.200   5.635
 8593TIP3    H125656   3.555   5.153   5.594
 8593TIP3    H225657   3.404   5.157   5.601
 8594TIP3   OH225658   7.769   2.028   4.324
 8594TIP3    H125659   7.816   2.068   4.397
 8594TIP3    H225660   7.744   2.102   4.268
 8595TIP3   OH225661   8.555   2.733   0.605
 8595TIP3    H125662   8.500   2.702   0.533
 8595TIP3    H225663   8.528   2.681   0.680
 8596TIP3   OH225664   4.824   6.593   2.298
 8596TIP3    H125665   4.740   6.567   2.259
 8596TIP3    H225666   4.802   6.628   2.384
 8597TIP3   OH225667   2.099   5.493   7.564
 8597TIP3    H125668   2.009   5.526   7.553
 8597TIP3    H225669   2.132   5.540   7.641
 8598TIP3   OH225670   2.326   7.626   6.470
 8598TIP3    H125671   2.331   7.681   6.548
 8598TIP3    H225672   2.299   7.686   6.400
 8599TIP3   OH225673   6.001   5.251   6.262
 8599TIP3    H125674   5.996   5.224   6.170
 8599TIP3    H225675   6.094   5.247   6.283
 8600TIP3   OH225676   6.709   0.534   3.742
 8600TIP3    H125677   6.792   0.539   3.695
 8600TIP3    H225678   6.732   0.552   3.833
 8601TIP3   OH225679   6.927   5.897   3.251
 8601TIP3    H125680   6.884   5.887   3.166
 8601TIP3    H225681   6.984   5.973   3.241
 8602TIP3   OH225682   4.484   0.711   1.182
 8602TIP3    H125683   4.455   0.620   1.172
 8602TIP3    H225684   4.414   0.762   1.141
 8603TIP3   OH225685   7.742   1.225   4.588
 8603TIP3    H125686   7.670   1.162   4.591
 8603TIP3    H225687   7.756   1.242   4.495
 8604TIP3   OH225688   5.393   8.161   0.528
 8604TIP3    H125689   5.428   8.239   0.571
 8604TIP3    H225690   5.330   8.125   0.590
 8605TIP3   OH225691   5.349   0.269   4.155
 8605TIP3    H125692   5.437   0.241   4.180
 8605TIP3    H225693   5.306   0.289   4.238
 8606TIP3   OH225694   5.856   7.532   4.464
 8606TIP3    H125695   5.894   7.447   4.440
 8606TIP3    H225696   5.762   7.516   4.469
 8607TIP3   OH225697   6.709   0.232   1.024
 8607TIP3    H125698   6.761   0.254   0.946
 8607TIP3    H225699   6.754   0.156   1.061
 8608TIP3   OH225700   4.298   8.410   1.773
 8608TIP3    H125701   4.368   8.415   1.838
 8608TIP3    H225702   4.260   8.498   1.771
 8609TIP3   OH225703   9.103   1.022   7.814
 8609TIP3    H125704   9.141   1.110   7.814
 8609TIP3    H225705   9.176   0.965   7.838
 8610TIP3   OH225706   5.181   2.955   2.022
 8610TIP3    H125707   5.258   3.002   1.989
 8610TIP3    H225708   5.155   3.003   2.100
 8611TIP3   OH225709   3.768   8.870   4.659
 8611TIP3    H125710   3.834   8.851   4.726
 8611TIP3    H225711   3.814   8.856   4.576
 8612TIP3   OH225712   6.070   3.312   4.269
 8612TIP3    H125713   6.137   3.252   4.303
 8612TIP3    H225714   6.083   3.393   4.318
 8613TIP3   OH225715   9.188   2.120   1.945
 8613TIP3    H125716   9.135   2.057   1.993
 8613TIP3    H225717   9.148   2.205   1.964
 8614TIP3   OH225718   0.080   8.936   3.703
 8614TIP3    H125719   0.130   8.879   3.762
 8614TIP3    H225720  -0.002   8.889   3.688
 8615TIP3   OH225721   8.664   1.017   5.484
 8615TIP3    H125722   8.738   1.077   5.478
 8615TIP3    H225723   8.593   1.071   5.521
 8616TIP3   OH225724   8.181   8.777   7.117
 8616TIP3    H125725   8.089   8.752   7.111
 8616TIP3    H225726   8.226   8.714   7.061
 8617TIP3   OH225727   7.530   6.067   5.049
 8617TIP3    H125728   7.538   6.126   5.123
 8617TIP3    H225729   7.613   6.019   5.046
 8618TIP3   OH225730   3.987   4.639   4.288
 8618TIP3    H125731   3.927   4.622   4.360
 8618TIP3    H225732   4.004   4.733   4.292
 8619TIP3   OH225733   0.119   2.562   5.363
 8619TIP3    H125734   0.047   2.533   5.420
 8619TIP3    H225735   0.197   2.555   5.418
 8620TIP3   OH225736   9.158   8.547   7.390
 8620TIP3    H125737   9.251   8.543   7.368
 8620TIP3    H225738   9.156   8.573   7.482
 8621TIP3   OH225739   5.659   6.219   5.722
 8621TIP3    H125740   5.646   6.147   5.661
 8621TIP3    H225741   5.749   6.209   5.752
 8622TIP3   OH225742   7.768   7.719   0.735
 8622TIP3    H125743   7.774   7.779   0.661
 8622TIP3    H225744   7.849   7.734   0.784
 8623TIP3   OH225745   4.660   7.886   7.792
 8623TIP3    H125746   4.668   7.952   7.861
 8623TIP3    H225747   4.668   7.803   7.838
 8624TIP3   OH225748   8.062   4.008   0.256
 8624TIP3    H125749   8.141   3.962   0.229
 8624TIP3    H225750   8.013   4.021   0.175
 8625TIP3   OH225751   2.911   2.718   4.799
 8625TIP3    H125752   2.978   2.783   4.777
 8625TIP3    H225753   2.835   2.744   4.746
 8626TIP3   OH225754   2.671   1.268   7.122
 8626TIP3    H125755   2.626   1.337   7.074
 8626TIP3    H225756   2.669   1.192   7.063
 8627TIP3   OH225757   7.647   1.092   6.590
 8627TIP3    H125758   7.568   1.073   6.640
 8627TIP3    H225759   7.641   1.035   6.513
 8628TIP3   OH225760   5.821   9.024   5.747
 8628TIP3    H125761   5.784   8.969   5.816
 8628TIP3    H225762   5.748   9.080   5.720
 8629TIP3   OH225763   0.640   6.394   7.693
 8629TIP3    H125764   0.670   6.322   7.637
 8629TIP3    H225765   0.545   6.389   7.690
 8630TIP3   OH225766   3.045   7.315   1.872
 8630TIP3    H125767   3.083   7.352   1.793
 8630TIP3    H225768   3.010   7.391   1.920
 8631TIP3   OH225769   7.150   0.276   6.614
 8631TIP3    H125770   7.107   0.192   6.598
 8631TIP3    H225771   7.086   0.327   6.664
 8632TIP3   OH225772   1.630   7.728   1.246
 8632TIP3    H125773   1.713   7.758   1.284
 8632TIP3    H225774   1.654   7.696   1.159
 8633TIP3   OH225775   9.073   5.777   6.453
 8633TIP3    H125776   9.026   5.698   6.480
 8633TIP3    H225777   9.049   5.789   6.361
 8634TIP3   OH225778   9.248   1.643   5.936
 8634TIP3    H125779   9.280   1.672   5.851
 8634TIP3    H225780   9.155   1.629   5.924
 8635TIP3   OH225781   0.899   3.399   5.824
 8635TIP3    H125782   0.835   3.460   5.788
 8635TIP3    H225783   0.962   3.387   5.753
 8636TIP3   OH225784   9.245   8.743   0.846
 8636TIP3    H125785   9.274   8.696   0.767
 8636TIP3    H225786   9.152   8.725   0.852
 8637TIP3   OH225787   8.597   1.457   4.734
 8637TIP3    H125788   8.657   1.501   4.675
 8637TIP3    H225789   8.523   1.517   4.742
 8638TIP3   OH225790   2.380   0.358   7.164
 8638TIP3    H125791   2.313   0.376   7.098
 8638TIP3    H225792   2.414   0.272   7.141
 8639TIP3   OH225793   8.715   4.536   5.251
 8639TIP3    H125794   8.717   4.630   5.267
 8639TIP3    H225795   8.622   4.514   5.250
 8640TIP3   OH225796   5.522   4.229   7.737
 8640TIP3    H125797   5.531   4.133   7.737
 8640TIP3    H225798   5.605   4.261   7.701
 8641TIP3   OH225799   5.460   4.565   7.008
 8641TIP3    H125800   5.536   4.588   6.954
 8641TIP3    H225801   5.391   4.547   6.944
 8642TIP3   OH225802   1.542   1.626   3.626
 8642TIP3    H125803   1.564   1.575   3.704
 8642TIP3    H225804   1.516   1.561   3.561
 8643TIP3   OH225805   6.268   4.098   3.348
 8643TIP3    H125806   6.209   4.151   3.294
 8643TIP3    H225807   6.315   4.043   3.285
 8644TIP3   OH225808   7.358   7.797   0.280
 8644TIP3    H125809   7.301   7.728   0.316
 8644TIP3    H225810   7.310   7.828   0.203
 8645TIP3   OH225811   7.883   7.035   2.082
 8645TIP3    H125812   7.970   7.012   2.114
 8645TIP3    H225813   7.882   7.002   1.992
 8646TIP3   OH225814   1.985   0.157   5.789
 8646TIP3    H125815   1.913   0.158   5.726
 8646TIP3    H225816   2.030   0.074   5.772
 8647TIP3   OH225817   5.518   7.112   6.123
 8647TIP3    H125818   5.486   7.182   6.179
 8647TIP3    H225819   5.611   7.131   6.111
 8648TIP3   OH225820   5.529   9.017   5.410
 8648TIP3    H125821   5.459   9.068   5.369
 8648TIP3    H225822   5.490   8.931   5.425
 8649TIP3   OH225823   2.517   4.014   4.081
 8649TIP3    H125824   2.590   4.062   4.042
 8649TIP3    H225825   2.467   4.081   4.128
 8650TIP3   OH225826   4.279   3.186   1.532
 8650TIP3    H125827   4.266   3.141   1.448
 8650TIP3    H225828   4.202   3.242   1.542
 8651TIP3   OH225829   2.291   5.581   1.247
 8651TIP3    H125830   2.231   5.531   1.302
 8651TIP3    H225831   2.241   5.598   1.167
 8652TIP3   OH225832   6.584   3.393   7.625
 8652TIP3    H125833   6.569   3.486   7.644
 8652TIP3    H225834   6.565   3.348   7.707
 8653TIP3   OH225835   3.401   0.498   1.302
 8653TIP3    H125836   3.369   0.445   1.376
 8653TIP3    H225837   3.478   0.543   1.337
 8654TIP3   OH225838   3.940   1.008   2.468
 8654TIP3    H125839   3.991   1.079   2.429
 8654TIP3    H225840   3.850   1.040   2.468
 8655TIP3   OH225841   0.541   8.182   2.898
 8655TIP3    H125842   0.466   8.228   2.860
 8655TIP3    H225843   0.610   8.189   2.832
 8656TIP3   OH225844   7.927   2.066   1.682
 8656TIP3    H125845   7.893   1.976   1.686
 8656TIP3    H225846   7.887   2.109   1.758
 8657TIP3   OH225847   2.600   6.674   6.362
 8657TIP3    H125848   2.568   6.709   6.445
 8657TIP3    H225849   2.635   6.750   6.316
 8658TIP3   OH225850   4.189   1.610   2.006
 8658TIP3    H125851   4.150   1.690   1.971
 8658TIP3    H225852   4.212   1.558   1.928
 8659TIP3   OH225853   4.950   7.070   2.104
 8659TIP3    H125854   5.010   6.996   2.091
 8659TIP3    H225855   5.008   7.146   2.108
 8660TIP3   OH225856   3.765   8.116   5.629
 8660TIP3    H125857   3.747   8.206   5.601
 8660TIP3    H225858   3.815   8.078   5.556
 8661TIP3   OH225859   2.424   5.523   6.394
 8661TIP3    H125860   2.494   5.560   6.448
 8661TIP3    H225861   2.417   5.432   6.422
 8662TIP3   OH225862   8.620   5.938   1.609
 8662TIP3    H125863   8.668   5.857   1.596
 8662TIP3    H225864   8.546   5.913   1.665
 8663TIP3   OH225865   2.039   6.283   1.190
 8663TIP3    H125866   2.076   6.372   1.190
 8663TIP3    H225867   2.082   6.239   1.262
 8664TIP3   OH225868   7.236   6.499   4.359
 8664TIP3    H125869   7.266   6.581   4.320
 8664TIP3    H225870   7.240   6.435   4.287
 8665TIP3   OH225871   7.967   0.923   7.277
 8665TIP3    H125872   8.032   0.979   7.235
 8665TIP3    H225873   7.889   0.977   7.285
 8666TIP3   OH225874   7.240   7.726   7.054
 8666TIP3    H125875   7.249   7.643   7.009
 8666TIP3    H225876   7.327   7.766   7.046
 8667TIP3   OH225877   7.497   1.551   3.096
 8667TIP3    H125878   7.503   1.642   3.123
 8667TIP3    H225879   7.430   1.550   3.028
 8668TIP3   OH225880   6.084   0.574   7.684
 8668TIP3    H125881   6.128   0.544   7.604
 8668TIP3    H225882   6.087   0.498   7.743
 8669TIP3   OH225883   8.971   3.893   1.404
 8669TIP3    H125884   9.047   3.951   1.396
 8669TIP3    H225885   8.907   3.927   1.341
 8670TIP3   OH225886   6.163   5.084   2.388
 8670TIP3    H125887   6.161   5.119   2.299
 8670TIP3    H225888   6.195   4.995   2.378
 8671TIP3   OH225889   9.220   6.927   5.618
 8671TIP3    H125890   9.219   6.949   5.525
 8671TIP3    H225891   9.305   6.959   5.649
 8672TIP3   OH225892   6.312   8.440   0.703
 8672TIP3    H125893   6.383   8.387   0.740
 8672TIP3    H225894   6.307   8.517   0.759
 8673TIP3   OH225895   1.340   0.480   5.200
 8673TIP3    H125896   1.359   0.442   5.114
 8673TIP3    H225897   1.260   0.437   5.229
 8674TIP3   OH225898   2.440   7.639   2.232
 8674TIP3    H125899   2.450   7.696   2.156
 8674TIP3    H225900   2.360   7.590   2.214
 8675TIP3   OH225901   8.122   3.930   3.259
 8675TIP3    H125902   8.127   3.994   3.188
 8675TIP3    H225903   8.097   3.982   3.336
 8676TIP3   OH225904   5.210   8.645   5.837
 8676TIP3    H125905   5.298   8.607   5.825
 8676TIP3    H225906   5.154   8.595   5.777
 8677TIP3   OH225907   9.493   2.477   5.552
 8677TIP3    H125908   9.470   2.548   5.612
 8677TIP3    H225909   9.494   2.398   5.606
 8678TIP3   OH225910   4.880   8.345   3.165
 8678TIP3    H125911   4.940   8.394   3.109
 8678TIP3    H225912   4.911   8.362   3.254
 8679TIP3   OH225913   8.708   4.372   7.374
 8679TIP3    H125914   8.802   4.367   7.357
 8679TIP3    H225915   8.689   4.466   7.371
 8680TIP3   OH225916   4.693   6.721   5.226
 8680TIP3    H125917   4.699   6.728   5.131
 8680TIP3    H225918   4.741   6.641   5.248
 8681TIP3   OH225919   8.421   5.727   6.788
 8681TIP3    H125920   8.400   5.774   6.708
 8681TIP3    H225921   8.413   5.792   6.858
 8682TIP3   OH225922   2.963   2.165   3.741
 8682TIP3    H125923   3.002   2.091   3.788
 8682TIP3    H225924   2.868   2.148   3.744
 8683TIP3   OH225925   5.500   5.491   5.729
 8683TIP3    H125926   5.482   5.421   5.792
 8683TIP3    H225927   5.514   5.569   5.783
 8684TIP3   OH225928   8.138   0.382   5.063
 8684TIP3    H125929   8.102   0.470   5.052
 8684TIP3    H225930   8.161   0.355   4.975
 8685TIP3   OH225931   3.345   1.929   3.320
 8685TIP3    H125932   3.383   1.842   3.307
 8685TIP3    H225933   3.421   1.986   3.332
 8686TIP3   OH225934   6.157   8.168   1.068
 8686TIP3    H125935   6.066   8.193   1.055
 8686TIP3    H225936   6.153   8.092   1.127
 8687TIP3   OH225937   5.141   7.394   3.910
 8687TIP3    H125938   5.146   7.487   3.931
 8687TIP3    H225939   5.214   7.355   3.958
 8688TIP3   OH225940   4.684   0.888   7.507
 8688TIP3    H125941   4.657   0.877   7.599
 8688TIP3    H225942   4.618   0.946   7.470
 8689TIP3   OH225943   2.943   5.597   3.374
 8689TIP3    H125944   2.880   5.612   3.444
 8689TIP3    H225945   2.889   5.584   3.296
 8690TIP3   OH225946   7.945   7.458   3.742
 8690TIP3    H125947   7.885   7.530   3.720
 8690TIP3    H225948   7.988   7.436   3.659
 8691TIP3   OH225949   1.958   1.912   3.905
 8691TIP3    H125950   1.972   1.833   3.956
 8691TIP3    H225951   1.883   1.892   3.849
 8692TIP3   OH225952   6.850   7.468   5.530
 8692TIP3    H125953   6.827   7.490   5.440
 8692TIP3    H225954   6.846   7.551   5.577
 8693TIP3   OH225955   7.510   7.814   4.493
 8693TIP3    H125956   7.524   7.800   4.586
 8693TIP3    H225957   7.457   7.740   4.465
 8694TIP3   OH225958   6.951   2.168   6.450
 8694TIP3    H125959   6.927   2.169   6.357
 8694TIP3    H225960   7.016   2.099   6.457
 8695TIP3   OH225961   6.399   4.542   0.283
 8695TIP3    H125962   6.388   4.476   0.352
 8695TIP3    H225963   6.314   4.543   0.239
 8696TIP3   OH225964   9.248   5.145   6.447
 8696TIP3    H125965   9.173   5.128   6.504
 8696TIP3    H225966   9.279   5.058   6.422
 8697TIP3   OH225967   2.088   5.913   4.077
 8697TIP3    H125968   2.123   5.824   4.069
 8697TIP3    H225969   1.998   5.906   4.044
 8698TIP3   OH225970   6.332   1.997   0.624
 8698TIP3    H125971   6.321   1.994   0.719
 8698TIP3    H225972   6.361   1.909   0.600
 8699TIP3   OH225973   5.359   3.114   5.701
 8699TIP3    H125974   5.327   3.046   5.760
 8699TIP3    H225975   5.428   3.071   5.650
 8700TIP3   OH225976   1.091   5.712   6.399
 8700TIP3    H125977   1.127   5.798   6.381
 8700TIP3    H225978   1.065   5.715   6.491
 8701TIP3   OH225979   5.399   0.634   5.518
 8701TIP3    H125980   5.383   0.723   5.548
 8701TIP3    H225981   5.412   0.641   5.424
 8702TIP3   OH225982   4.580   5.555   1.624
 8702TIP3    H125983   4.612   5.631   1.576
 8702TIP3    H225984   4.591   5.482   1.562
 8703TIP3   OH225985   5.813   6.338   1.510
 8703TIP3    H125986   5.742   6.328   1.574
 8703TIP3    H225987   5.774   6.390   1.440
 8704TIP3   OH225988   8.193   6.485   6.549
 8704TIP3    H125989   8.159   6.557   6.602
 8704TIP3    H225990   8.221   6.526   6.468
 8705TIP3   OH225991   0.012   6.995   4.138
 8705TIP3    H125992   0.011   7.077   4.187
 8705TIP3    H225993  -0.053   7.008   4.068
 8706TIP3   OH225994   5.206   3.135   7.594
 8706TIP3    H125995   5.254   3.052   7.591
 8706TIP3    H225996   5.236   3.178   7.674
 8707TIP3   OH225997   4.662   0.839   7.216
 8707TIP3    H125998   4.674   0.933   7.226
 8707TIP3    H225999   4.741   0.801   7.254
 8708TIP3   OH226000   9.470   3.989   3.725
 8708TIP3    H126001   9.549   3.935   3.728
 8708TIP3    H226002   9.502   4.079   3.724
 8709TIP3   OH226003   6.620   2.029   6.182
 8709TIP3    H126004   6.677   1.956   6.206
 8709TIP3    H226005   6.572   2.051   6.262
 8710TIP3   OH226006   4.363   8.511   7.408
 8710TIP3    H126007   4.342   8.554   7.325
 8710TIP3    H226008   4.424   8.441   7.383
 8711TIP3   OH226009   1.667   3.837   4.168
 8711TIP3    H126010   1.747   3.861   4.215
 8711TIP3    H226011   1.694   3.832   4.076
 8712TIP3   OH226012   4.155   5.889   4.395
 8712TIP3    H126013   4.188   5.885   4.306
 8712TIP3    H226014   4.148   5.982   4.415
 8713TIP3   OH226015   8.083   8.366   4.153
 8713TIP3    H126016   8.174   8.360   4.123
 8713TIP3    H226017   8.085   8.331   4.242
 8714TIP3   OH226018   4.027   8.031   7.474
 8714TIP3    H126019   4.002   7.991   7.391
 8714TIP3    H226020   4.074   8.111   7.449
 8715TIP3   OH226021   8.724   8.381   2.453
 8715TIP3    H126022   8.810   8.340   2.460
 8715TIP3    H226023   8.739   8.473   2.475
 8716TIP3   OH226024   6.057   7.650   2.532
 8716TIP3    H126025   5.966   7.666   2.506
 8716TIP3    H226026   6.090   7.735   2.559
 8717TIP3   OH226027   3.092   8.804   7.121
 8717TIP3    H126028   3.180   8.776   7.098
 8717TIP3    H226029   3.062   8.855   7.046
 8718TIP3   OH226030   6.554   7.194   0.648
 8718TIP3    H126031   6.644   7.200   0.617
 8718TIP3    H226032   6.549   7.254   0.722
 8719TIP3   OH226033   4.357   8.880   0.870
 8719TIP3    H126034   4.424   8.830   0.917
 8719TIP3    H226035   4.353   8.838   0.783
 8720TIP3   OH226036   4.530   2.873   3.324
 8720TIP3    H126037   4.452   2.920   3.353
 8720TIP3    H226038   4.511   2.781   3.346
 8721TIP3   OH226039   4.434   7.519   6.391
 8721TIP3    H126040   4.445   7.558   6.304
 8721TIP3    H226041   4.398   7.589   6.445
 8722TIP3   OH226042   5.994   8.362   2.731
 8722TIP3    H126043   6.014   8.306   2.656
 8722TIP3    H226044   6.043   8.443   2.714
 8723TIP3   OH226045   9.426   8.321   5.525
 8723TIP3    H126046   9.520   8.337   5.519
 8723TIP3    H226047   9.410   8.313   5.619
 8724TIP3   OH226048   5.732   5.611   6.088
 8724TIP3    H126049   5.663   5.677   6.096
 8724TIP3    H226050   5.794   5.633   6.157
 8725TIP3   OH226051   7.616   6.602   7.305
 8725TIP3    H126052   7.590   6.509   7.306
 8725TIP3    H226053   7.710   6.600   7.323
 8726TIP3   OH226054   9.167   3.800   1.736
 8726TIP3    H126055   9.230   3.767   1.800
 8726TIP3    H226056   9.183   3.749   1.657
 8727TIP3   OH226057   4.390   0.642   7.517
 8727TIP3    H126058   4.298   0.650   7.543
 8727TIP3    H226059   4.440   0.667   7.594
 8728TIP3   OH226060   5.277   5.532   6.730
 8728TIP3    H126061   5.334   5.608   6.740
 8728TIP3    H226062   5.190   5.564   6.751
 8729TIP3   OH226063   5.371   6.935   7.161
 8729TIP3    H126064   5.387   7.025   7.131
 8729TIP3    H226065   5.331   6.892   7.086
 8730TIP3   OH226066   5.854   6.592   5.197
 8730TIP3    H126067   5.949   6.596   5.188
 8730TIP3    H226068   5.840   6.544   5.279
 8731TIP3   OH226069   8.481   5.442   1.912
 8731TIP3    H126070   8.555   5.413   1.964
 8731TIP3    H226071   8.484   5.388   1.833
 8732TIP3   OH226072   4.827   7.615   5.319
 8732TIP3    H126073   4.836   7.671   5.396
 8732TIP3    H226074   4.866   7.532   5.344
 8733TIP3   OH226075   4.496   8.014   3.256
 8733TIP3    H126076   4.479   8.090   3.200
 8733TIP3    H226077   4.486   8.047   3.345
 8734TIP3   OH226078   3.496   8.711   7.260
 8734TIP3    H126079   3.586   8.718   7.228
 8734TIP3    H226080   3.444   8.758   7.195
 8735TIP3   OH226081   9.369   7.953   3.279
 8735TIP3    H126082   9.348   7.864   3.248
 8735TIP3    H226083   9.457   7.969   3.245
 8736TIP3   OH226084   5.975   3.020   6.616
 8736TIP3    H126085   6.037   2.956   6.651
 8736TIP3    H226086   5.991   3.019   6.521
 8737TIP3   OH226087   7.599   3.664   4.816
 8737TIP3    H126088   7.548   3.584   4.826
 8737TIP3    H226089   7.534   3.735   4.817
 8738TIP3   OH226090   8.543   3.446   5.353
 8738TIP3    H126091   8.588   3.385   5.411
 8738TIP3    H226092   8.595   3.526   5.357
 8739TIP3   OH226093   0.989   5.351   7.187
 8739TIP3    H126094   1.036   5.370   7.106
 8739TIP3    H226095   0.921   5.419   7.192
 8740TIP3   OH226096   3.494   0.945   0.003
 8740TIP3    H126097   3.415   0.998   0.009
 8740TIP3    H226098   3.467   0.858   0.032
 8741TIP3   OH226099   1.450   1.901   4.639
 8741TIP3    H126100   1.427   1.893   4.546
 8741TIP3    H226101   1.526   1.844   4.650
 8742TIP3   OH226102   2.858   5.102   7.257
 8742TIP3    H126103   2.796   5.153   7.206
 8742TIP3    H226104   2.804   5.037   7.303
 8743TIP3   OH226105   9.534   4.250   0.917
 8743TIP3    H126106   9.464   4.189   0.940
 8743TIP3    H226107   9.591   4.200   0.859
 8744TIP3   OH226108   5.552   5.548   0.948
 8744TIP3    H126109   5.486   5.551   1.017
 8744TIP3    H226110   5.635   5.547   0.995
 8745TIP3   OH226111   8.576   8.074   7.314
 8745TIP3    H126112   8.544   8.076   7.223
 8745TIP3    H226113   8.567   7.983   7.340
 8746TIP3   OH226114   3.675   8.743   5.867
 8746TIP3    H126115   3.730   8.819   5.851
 8746TIP3    H226116   3.706   8.678   5.803
 8747TIP3   OH226117   9.303   6.179   0.749
 8747TIP3    H126118   9.285   6.177   0.843
 8747TIP3    H226119   9.353   6.259   0.736
 8748TIP3   OH226120   4.329   1.141   0.956
 8748TIP3    H126121   4.285   1.206   0.902
 8748TIP3    H226122   4.420   1.171   0.962
 8749TIP3   OH226123   6.181   7.980   6.592
 8749TIP3    H126124   6.154   7.955   6.681
 8749TIP3    H226125   6.154   7.907   6.537
 8750TIP3   OH226126   0.327   3.725   1.851
 8750TIP3    H126127   0.346   3.743   1.943
 8750TIP3    H226128   0.356   3.803   1.804
 8751TIP3   OH226129   1.211   6.685   0.897
 8751TIP3    H126130   1.293   6.682   0.848
 8751TIP3    H226131   1.186   6.777   0.898
 8752TIP3   OH226132   3.871   8.482   6.720
 8752TIP3    H126133   3.907   8.479   6.631
 8752TIP3    H226134   3.794   8.425   6.717
 8753TIP3   OH226135   8.263   3.305   7.242
 8753TIP3    H126136   8.262   3.344   7.154
 8753TIP3    H226137   8.352   3.270   7.251
 8754TIP3   OH226138   4.708   2.813   2.157
 8754TIP3    H126139   4.653   2.742   2.188
 8754TIP3    H226140   4.670   2.838   2.073
 8755TIP3   OH226141   4.736   2.365   2.290
 8755TIP3    H126142   4.796   2.420   2.340
 8755TIP3    H226143   4.729   2.284   2.341
 8756TIP3   OH226144   0.976   5.113   3.506
 8756TIP3    H126145   1.008   5.042   3.562
 8756TIP3    H226146   0.894   5.081   3.470
 8757TIP3   OH226147   5.156   7.117   5.391
 8757TIP3    H126148   5.184   7.027   5.374
 8757TIP3    H226149   5.208   7.170   5.331
 8758TIP3   OH226150   3.573   8.988   7.441
 8758TIP3    H126151   3.606   8.912   7.394
 8758TIP3    H226152   3.639   9.056   7.426
 8759TIP3   OH226153   7.368   0.738   7.816
 8759TIP3    H126154   7.455   0.701   7.831
 8759TIP3    H226155   7.383   0.810   7.754
 8760TIP3   OH226156   4.195   0.366   4.256
 8760TIP3    H126157   4.115   0.418   4.248
 8760TIP3    H226158   4.165   0.275   4.260
 8761TIP3   OH226159   5.068   8.800   2.381
 8761TIP3    H126160   5.106   8.712   2.378
 8761TIP3    H226161   5.040   8.810   2.472
 8762TIP3   OH226162   3.670   8.655   7.036
 8762TIP3    H126163   3.741   8.708   7.072
 8762TIP3    H226164   3.647   8.698   6.953
 8763TIP3   OH226165   8.684   2.969   2.330
 8763TIP3    H126166   8.729   2.889   2.355
 8763TIP3    H226167   8.617   2.941   2.268
 8764TIP3   OH226168   7.624   8.368   4.278
 8764TIP3    H126169   7.556   8.311   4.242
 8764TIP3    H226170   7.597   8.457   4.254
 8765TIP3   OH226171   2.926   2.235   4.116
 8765TIP3    H126172   2.954   2.311   4.065
 8765TIP3    H226173   2.952   2.256   4.206
 8766TIP3   OH226174   7.999   6.464   6.110
 8766TIP3    H126175   7.920   6.412   6.099
 8766TIP3    H226176   7.968   6.552   6.132
 8767TIP3   OH226177   9.163   8.488   7.697
 8767TIP3    H126178   9.110   8.556   7.740
 8767TIP3    H226179   9.228   8.464   7.763
 8768TIP3   OH226180   1.433   4.996   6.305
 8768TIP3    H126181   1.409   4.975   6.395
 8768TIP3    H226182   1.386   5.076   6.285
 8769TIP3   OH226183   2.449   5.224   5.081
 8769TIP3    H126184   2.507   5.150   5.099
 8769TIP3    H226185   2.369   5.184   5.046
 8770TIP3   OH226186   1.224   2.214   6.868
 8770TIP3    H126187   1.203   2.260   6.787
 8770TIP3    H226188   1.316   2.189   6.860
 8771TIP3   OH226189   5.540   8.478   5.049
 8771TIP3    H126190   5.580   8.552   5.095
 8771TIP3    H226191   5.449   8.478   5.079
 8772TIP3   OH226192   7.000   2.989   4.241
 8772TIP3    H126193   7.004   3.008   4.335
 8772TIP3    H226194   6.928   3.043   4.209
 8773TIP3   OH226195   6.010   3.909   3.894
 8773TIP3    H126196   5.949   3.941   3.961
 8773TIP3    H226197   5.999   3.970   3.821
 8774TIP3   OH226198   5.638   0.768   1.971
 8774TIP3    H126199   5.590   0.694   1.933
 8774TIP3    H226200   5.576   0.807   2.032
 8775TIP3   OH226201   7.682   4.108   4.270
 8775TIP3    H126202   7.614   4.096   4.336
 8775TIP3    H226203   7.638   4.149   4.196
 8776TIP3   OH226204   4.175   4.860   1.319
 8776TIP3    H126205   4.120   4.934   1.346
 8776TIP3    H226206   4.156   4.848   1.226
 8777TIP3   OH226207   6.935   3.632   0.063
 8777TIP3    H126208   6.871   3.570   0.027
 8777TIP3    H226209   6.992   3.578   0.118
 8778TIP3   OH226210   2.850   5.704   4.394
 8778TIP3    H126211   2.908   5.661   4.457
 8778TIP3    H226212   2.788   5.636   4.368
 8779TIP3   OH226213   8.547   2.266   2.879
 8779TIP3    H126214   8.472   2.315   2.913
 8779TIP3    H226215   8.622   2.298   2.929
 8780TIP3   OH226216   5.028   4.229   3.070
 8780TIP3    H126217   5.065   4.313   3.041
 8780TIP3    H226218   5.069   4.212   3.155
 8781TIP3   OH226219   4.657   4.881   6.202
 8781TIP3    H126220   4.586   4.888   6.266
 8781TIP3    H226221   4.704   4.801   6.226
 8782TIP3   OH226222   6.613   6.492   1.977
 8782TIP3    H126223   6.542   6.475   1.915
 8782TIP3    H226224   6.663   6.411   1.979
 8783TIP3   OH226225   1.679   6.828   4.940
 8783TIP3    H126226   1.746   6.892   4.916
 8783TIP3    H226227   1.616   6.831   4.869
 8784TIP3   OH226228   0.069   8.549   1.573
 8784TIP3    H126229   0.121   8.589   1.504
 8784TIP3    H226230   0.040   8.623   1.626
 8785TIP3   OH226231   5.977   5.533   1.791
 8785TIP3    H126232   6.062   5.531   1.747
 8785TIP3    H226233   5.978   5.614   1.841
 8786TIP3   OH226234   1.707   6.494   1.726
 8786TIP3    H126235   1.622   6.455   1.703
 8786TIP3    H226236   1.771   6.439   1.682
 8787TIP3   OH226237   4.814   7.154   3.613
 8787TIP3    H126238   4.800   7.155   3.708
 8787TIP3    H226239   4.814   7.061   3.589
 8788TIP3   OH226240   7.947   0.546   4.280
 8788TIP3    H126241   7.874   0.593   4.240
 8788TIP3    H226242   7.919   0.531   4.370
 8789TIP3   OH226243   7.493   5.970   1.567
 8789TIP3    H126244   7.554   5.965   1.494
 8789TIP3    H226245   7.529   5.909   1.632
 8790TIP3   OH226246   6.186   0.639   3.100
 8790TIP3    H126247   6.231   0.573   3.047
 8790TIP3    H226248   6.158   0.591   3.178
 8791TIP3   OH226249   2.681   7.203   7.278
 8791TIP3    H126250   2.729   7.139   7.331
 8791TIP3    H226251   2.604   7.155   7.247
 8792TIP3   OH226252   1.781   6.679   7.095
 8792TIP3    H126253   1.761   6.640   7.010
 8792TIP3    H226254   1.717   6.641   7.155
 8793TIP3   OH226255   6.686   0.659   1.543
 8793TIP3    H126256   6.652   0.572   1.564
 8793TIP3    H226257   6.750   0.677   1.611
 8794TIP3   OH226258   9.440   2.356   6.249
 8794TIP3    H126259   9.406   2.270   6.224
 8794TIP3    H226260   9.517   2.369   6.193
 8795TIP3   OH226261   0.406   4.833   4.766
 8795TIP3    H126262   0.423   4.803   4.677
 8795TIP3    H226263   0.340   4.902   4.756
 8796TIP3   OH226264   7.471   4.587   7.748
 8796TIP3    H126265   7.555   4.577   7.702
 8796TIP3    H226266   7.411   4.622   7.682
 8797TIP3   OH226267   7.258   7.791   0.016
 8797TIP3    H126268   7.284   7.867  -0.036
 8797TIP3    H226269   7.244   7.722  -0.049
 8798TIP3   OH226270   3.687   4.812   1.800
 8798TIP3    H126271   3.712   4.870   1.728
 8798TIP3    H226272   3.703   4.864   1.879
 8799TIP3   OH226273   9.250   6.838   1.859
 8799TIP3    H126274   9.307   6.841   1.936
 8799TIP3    H226275   9.183   6.773   1.882
 8800TIP3   OH226276   1.751   4.923   6.463
 8800TIP3    H126277   1.802   4.989   6.416
 8800TIP3    H226278   1.689   4.890   6.398
 8801TIP3   OH226279   1.701   2.437   4.006
 8801TIP3    H126280   1.609   2.444   3.979
 8801TIP3    H226281   1.747   2.405   3.929
 8802TIP3   OH226282   3.461   7.536   0.495
 8802TIP3    H126283   3.503   7.577   0.571
 8802TIP3    H226284   3.378   7.582   0.486
 8803TIP3   OH226285   1.177   5.461   6.459
 8803TIP3    H126286   1.098   5.430   6.503
 8803TIP3    H226287   1.149   5.540   6.413
 8804TIP3   OH226288   1.119   6.427   6.680
 8804TIP3    H126289   1.077   6.341   6.673
 8804TIP3    H226290   1.090   6.461   6.765
 8805TIP3   OH226291   2.745   8.389   3.975
 8805TIP3    H126292   2.738   8.464   4.034
 8805TIP3    H226293   2.768   8.427   3.890
 8806TIP3   OH226294   7.243   4.402   2.749
 8806TIP3    H126295   7.244   4.488   2.790
 8806TIP3    H226296   7.168   4.405   2.689
 8807TIP3   OH226297   6.727   5.845   0.922
 8807TIP3    H126298   6.814   5.886   0.915
 8807TIP3    H226299   6.667   5.912   0.890
 8808TIP3   OH226300   4.406   1.476   0.493
 8808TIP3    H126301   4.401   1.494   0.399
 8808TIP3    H226302   4.457   1.548   0.529
 8809TIP3   OH226303   7.148   2.165   7.709
 8809TIP3    H126304   7.163   2.078   7.746
 8809TIP3    H226305   7.193   2.164   7.625
 8810TIP3   OH226306   6.825   1.298   3.684
 8810TIP3    H126307   6.831   1.223   3.743
 8810TIP3    H226308   6.772   1.362   3.732
 8811TIP3   OH226309   3.088   6.588   6.921
 8811TIP3    H126310   3.046   6.620   6.841
 8811TIP3    H226311   3.063   6.495   6.926
 8812TIP3   OH226312   3.314   0.404   1.538
 8812TIP3    H126313   3.337   0.312   1.526
 8812TIP3    H226314   3.322   0.418   1.632
 8813TIP3   OH226315   1.741   6.441   7.340
 8813TIP3    H126316   1.806   6.392   7.289
 8813TIP3    H226317   1.725   6.387   7.417
 8814TIP3   OH226318   0.683   2.632   1.446
 8814TIP3    H126319   0.739   2.710   1.435
 8814TIP3    H226320   0.618   2.639   1.376
 8815TIP3   OH226321   8.553   3.013   1.018
 8815TIP3    H126322   8.571   3.023   0.925
 8815TIP3    H226323   8.512   3.096   1.043
 8816TIP3   OH226324   6.691   2.134   1.754
 8816TIP3    H126325   6.623   2.105   1.694
 8816TIP3    H226326   6.669   2.224   1.775
 8817TIP3   OH226327   8.750   4.583   5.588
 8817TIP3    H126328   8.675   4.533   5.555
 8817TIP3    H226329   8.824   4.551   5.536
 8818TIP3   OH226330   6.452   8.995   7.110
 8818TIP3    H126331   6.361   8.983   7.082
 8818TIP3    H226332   6.483   8.906   7.130
 8819TIP3   OH226333   3.628   0.364   3.090
 8819TIP3    H126334   3.560   0.297   3.099
 8819TIP3    H226335   3.597   0.421   3.020
 8820TIP3   OH226336   8.035   5.929   1.718
 8820TIP3    H126337   7.958   5.924   1.662
 8820TIP3    H226338   8.093   5.991   1.674
 8821TIP3   OH226339   9.365   6.734   7.670
 8821TIP3    H126340   9.406   6.721   7.755
 8821TIP3    H226341   9.307   6.658   7.660
 8822TIP3   OH226342   0.784   7.512   2.808
 8822TIP3    H126343   0.818   7.575   2.746
 8822TIP3    H226344   0.734   7.564   2.871
 8823TIP3   OH226345   1.504   5.346   6.975
 8823TIP3    H126346   1.466   5.260   6.996
 8823TIP3    H226347   1.535   5.380   7.059
 8824TIP3   OH226348   1.469   7.259   4.951
 8824TIP3    H126349   1.550   7.304   4.977
 8824TIP3    H226350   1.444   7.301   4.868
 8825TIP3   OH226351   6.820   5.903   1.732
 8825TIP3    H126352   6.909   5.877   1.707
 8825TIP3    H226353   6.764   5.839   1.689
 8826TIP3   OH226354   7.699   5.135   1.289
 8826TIP3    H126355   7.675   5.049   1.325
 8826TIP3    H226356   7.626   5.158   1.233
 8827TIP3   OH226357   3.936   3.235   3.332
 8827TIP3    H126358   3.951   3.260   3.423
 8827TIP3    H226359   3.886   3.153   3.339
 8828TIP3   OH226360   4.391   7.737   5.833
 8828TIP3    H126361   4.419   7.650   5.804
 8828TIP3    H226362   4.382   7.787   5.752
 8829TIP3   OH226363   5.117   4.684   2.728
 8829TIP3    H126364   5.049   4.739   2.689
 8829TIP3    H226365   5.079   4.656   2.812
 8830TIP3   OH226366   8.452   3.235   1.989
 8830TIP3    H126367   8.525   3.297   1.987
 8830TIP3    H226368   8.377   3.285   1.957
 8831TIP3   OH226369   7.065   1.358   4.215
 8831TIP3    H126370   7.021   1.441   4.235
 8831TIP3    H226371   7.089   1.322   4.301
 8832TIP3   OH226372   5.752   3.879   3.182
 8832TIP3    H126373   5.775   3.922   3.099
 8832TIP3    H226374   5.790   3.936   3.249
 8833TIP3   OH226375   7.648   4.747   0.632
 8833TIP3    H126376   7.628   4.822   0.688
 8833TIP3    H226377   7.562   4.712   0.608
 8834TIP3   OH226378   6.569   3.083   6.250
 8834TIP3    H126379   6.490   3.134   6.231
 8834TIP3    H226380   6.636   3.149   6.268
 8835TIP3   OH226381   0.603   3.773   7.183
 8835TIP3    H126382   0.529   3.830   7.206
 8835TIP3    H226383   0.563   3.692   7.153
 8836TIP3   OH226384   0.103   0.569   6.005
 8836TIP3    H126385   0.089   0.637   5.939
 8836TIP3    H226386   0.039   0.587   6.073
 8837TIP3   OH226387   5.567   4.745   3.053
 8837TIP3    H126388   5.561   4.795   2.972
 8837TIP3    H226389   5.582   4.811   3.121
 8838TIP3   OH226390   9.235   8.116   4.862
 8838TIP3    H126391   9.236   8.209   4.883
 8838TIP3    H226392   9.312   8.103   4.807
 8839TIP3   OH226393   6.059   1.530   0.520
 8839TIP3    H126394   5.981   1.569   0.480
 8839TIP3    H226395   6.069   1.446   0.476
 8840TIP3   OH226396   6.255   7.817   3.094
 8840TIP3    H126397   6.183   7.756   3.079
 8840TIP3    H226398   6.333   7.769   3.068
 8841TIP3   OH226399   6.754   3.290   6.237
 8841TIP3    H126400   6.755   3.328   6.325
 8841TIP3    H226401   6.843   3.257   6.225
 8842TIP3   OH226402   2.032   8.699   4.873
 8842TIP3    H126403   2.014   8.670   4.783
 8842TIP3    H226404   2.027   8.795   4.868
 8843TIP3   OH226405   0.821   2.911   2.953
 8843TIP3    H126406   0.888   2.929   3.019
 8843TIP3    H226407   0.861   2.936   2.870
 8844TIP3   OH226408   0.676   7.652   1.611
 8844TIP3    H126409   0.659   7.724   1.551
 8844TIP3    H226410   0.714   7.693   1.689
 8845TIP3   OH226411   8.007   2.445   3.456
 8845TIP3    H126412   8.079   2.408   3.507
 8845TIP3    H226413   7.947   2.481   3.521
 8846TIP3   OH226414   1.270   5.817   3.978
 8846TIP3    H126415   1.181   5.801   4.007
 8846TIP3    H226416   1.268   5.904   3.940
 8847TIP3   OH226417   1.624   1.870   2.525
 8847TIP3    H126418   1.621   1.942   2.462
 8847TIP3    H226419   1.653   1.795   2.474
 8848TIP3   OH226420   8.747   1.602   1.362
 8848TIP3    H126421   8.776   1.563   1.280
 8848TIP3    H226422   8.772   1.539   1.429
 8849TIP3   OH226423   9.553   1.901   1.672
 8849TIP3    H126424   9.522   1.991   1.683
 8849TIP3    H226425   9.540   1.861   1.759
 8850TIP3   OH226426   2.313   0.211   3.906
 8850TIP3    H126427   2.317   0.140   3.971
 8850TIP3    H226428   2.403   0.219   3.875
 8851TIP3   OH226429   2.414   2.526   5.643
 8851TIP3    H126430   2.361   2.446   5.648
 8851TIP3    H226431   2.492   2.501   5.594
 8852TIP3   OH226432   6.627   1.749   2.632
 8852TIP3    H126433   6.671   1.825   2.593
 8852TIP3    H226434   6.594   1.781   2.715
 8853TIP3   OH226435   8.050   4.545   6.885
 8853TIP3    H126436   8.008   4.459   6.890
 8853TIP3    H226437   8.127   4.530   6.830
 8854TIP3   OH226438   8.979   7.091   2.477
 8854TIP3    H126439   8.996   7.054   2.390
 8854TIP3    H226440   9.038   7.166   2.484
 8855TIP3   OH226441   0.542   3.477   3.729
 8855TIP3    H126442   0.453   3.455   3.701
 8855TIP3    H226443   0.594   3.472   3.650
 8856TIP3   OH226444   0.867   8.400   2.857
 8856TIP3    H126445   0.827   8.399   2.944
 8856TIP3    H226446   0.948   8.449   2.868
 8857TIP3   OH226447   1.923   7.103   0.478
 8857TIP3    H126448   1.830   7.125   0.469
 8857TIP3    H226449   1.964   7.139   0.399
 8858TIP3   OH226450   3.771   8.707   6.139
 8858TIP3    H126451   3.813   8.644   6.081
 8858TIP3    H226452   3.688   8.729   6.096
 8859TIP3   OH226453   6.206   8.113   5.315
 8859TIP3    H126454   6.168   8.032   5.349
 8859TIP3    H226455   6.282   8.084   5.264
 8860TIP3   OH226456   8.504   1.236   5.406
 8860TIP3    H126457   8.542   1.308   5.457
 8860TIP3    H226458   8.469   1.278   5.327
 8861TIP3   OH226459   1.648   5.099   2.570
 8861TIP3    H126460   1.660   5.014   2.527
 8861TIP3    H226461   1.553   5.112   2.573
 8862TIP3   OH226462   8.006   5.681   2.511
 8862TIP3    H126463   8.038   5.600   2.550
 8862TIP3    H226464   7.985   5.658   2.421
 8863TIP3   OH226465   4.190   4.933   4.460
 8863TIP3    H126466   4.181   5.028   4.465
 8863TIP3    H226467   4.119   4.905   4.403
 8864TIP3   OH226468   1.966   5.251   0.156
 8864TIP3    H126469   1.982   5.301   0.077
 8864TIP3    H226470   1.876   5.218   0.146
 8865TIP3   OH226471   0.315   2.495   0.861
 8865TIP3    H126472   0.300   2.421   0.920
 8865TIP3    H226473   0.346   2.455   0.780
 8866TIP3   OH226474   5.580   8.171   6.920
 8866TIP3    H126475   5.592   8.100   6.983
 8866TIP3    H226476   5.585   8.128   6.834
 8867TIP3   OH226477   7.740   0.406   1.961
 8867TIP3    H126478   7.736   0.437   2.051
 8867TIP3    H226479   7.654   0.426   1.924
 8868TIP3   OH226480   8.012   7.800   0.873
 8868TIP3    H126481   7.938   7.834   0.923
 8868TIP3    H226482   8.087   7.850   0.906
 8869TIP3   OH226483   7.393   8.606   4.949
 8869TIP3    H126484   7.449   8.530   4.931
 8869TIP3    H226485   7.416   8.633   5.038
 8870TIP3   OH226486   6.592   5.320   3.114
 8870TIP3    H126487   6.567   5.371   3.192
 8870TIP3    H226488   6.686   5.306   3.123
 8871TIP3   OH226489   4.020   3.834   1.214
 8871TIP3    H126490   4.032   3.761   1.275
 8871TIP3    H226491   4.049   3.799   1.130
 8872TIP3   OH226492   6.321   8.048   4.624
 8872TIP3    H126493   6.262   8.088   4.560
 8872TIP3    H226494   6.274   7.971   4.655
 8873TIP3   OH226495   5.800   4.467   1.100
 8873TIP3    H126496   5.745   4.460   1.178
 8873TIP3    H226497   5.831   4.558   1.101
 8874TIP3   OH226498   2.957   8.001   1.580
 8874TIP3    H126499   2.953   8.061   1.505
 8874TIP3    H226500   3.033   7.946   1.562
 8875TIP3   OH226501   6.678   6.558   4.969
 8875TIP3    H126502   6.763   6.581   5.006
 8875TIP3    H226503   6.615   6.591   5.033
 8876TIP3   OH226504   4.063   6.216   4.876
 8876TIP3    H126505   4.131   6.155   4.848
 8876TIP3    H226506   4.096   6.256   4.956
 8877TIP3   OH226507   2.860   6.059   6.807
 8877TIP3    H126508   2.918   6.121   6.851
 8877TIP3    H226509   2.901   5.973   6.822
 8878TIP3   OH226510   6.510   1.287   4.747
 8878TIP3    H126511   6.482   1.335   4.670
 8878TIP3    H226512   6.577   1.227   4.715
 8879TIP3   OH226513   7.755   5.467   6.080
 8879TIP3    H126514   7.724   5.551   6.044
 8879TIP3    H226515   7.709   5.458   6.164
 8880TIP3   OH226516   7.381   3.504   0.296
 8880TIP3    H126517   7.418   3.440   0.236
 8880TIP3    H226518   7.412   3.476   0.383
 8881TIP3   OH226519   6.751   5.579   3.732
 8881TIP3    H126520   6.832   5.563   3.780
 8881TIP3    H226521   6.772   5.654   3.676
 8882TIP3   OH226522   8.222   6.555   3.640
 8882TIP3    H126523   8.210   6.618   3.569
 8882TIP3    H226524   8.298   6.589   3.689
 8883TIP3   OH226525   4.243   4.644   6.020
 8883TIP3    H126526   4.160   4.604   6.048
 8883TIP3    H226527   4.310   4.583   6.050
 8884TIP3   OH226528   7.475   8.580   1.741
 8884TIP3    H126529   7.550   8.557   1.795
 8884TIP3    H226530   7.422   8.501   1.738
 8885TIP3   OH226531   2.380   3.812   7.268
 8885TIP3    H126532   2.426   3.896   7.266
 8885TIP3    H226533   2.394   3.778   7.357
 8886TIP3   OH226534   2.530   6.987   3.929
 8886TIP3    H126535   2.475   7.052   3.886
 8886TIP3    H226536   2.525   6.910   3.873
 8887TIP3   OH226537   8.917   8.396   0.025
 8887TIP3    H126538   8.960   8.480   0.010
 8887TIP3    H226539   8.825   8.412   0.005
 8888TIP3   OH226540   6.540   1.287   6.363
 8888TIP3    H126541   6.629   1.261   6.342
 8888TIP3    H226542   6.487   1.252   6.291
 8889TIP3   OH226543   1.957   7.141   5.477
 8889TIP3    H126544   2.041   7.096   5.486
 8889TIP3    H226545   1.920   7.105   5.396
 8890TIP3   OH226546   6.092   4.739   7.684
 8890TIP3    H126547   6.098   4.712   7.592
 8890TIP3    H226548   6.154   4.683   7.730
 8891TIP3   OH226549   2.101   4.280   1.854
 8891TIP3    H126550   2.100   4.236   1.939
 8891TIP3    H226551   2.009   4.298   1.834
 8892TIP3   OH226552   5.356   7.721   4.311
 8892TIP3    H126553   5.401   7.640   4.334
 8892TIP3    H226554   5.266   7.707   4.338
 8893TIP3   OH226555   2.945   8.321   7.119
 8893TIP3    H126556   3.015   8.257   7.106
 8893TIP3    H226557   2.989   8.396   7.160
 8894TIP3   OH226558   7.343   4.311   7.590
 8894TIP3    H126559   7.408   4.241   7.596
 8894TIP3    H226560   7.380   4.382   7.641
 8895TIP3   OH226561   8.727   8.172   7.508
 8895TIP3    H126562   8.808   8.188   7.458
 8895TIP3    H226563   8.661   8.154   7.441
 8896TIP3   OH226564   1.862   7.518   2.514
 8896TIP3    H126565   1.848   7.435   2.560
 8896TIP3    H226566   1.801   7.516   2.440
 8897TIP3   OH226567   6.449   7.220   3.765
 8897TIP3    H126568   6.466   7.190   3.676
 8897TIP3    H226569   6.498   7.160   3.821
 8898TIP3   OH226570   2.540   7.783   1.024
 8898TIP3    H126571   2.555   7.811   0.934
 8898TIP3    H226572   2.618   7.733   1.046
 8899TIP3   OH226573   5.275   8.475   3.417
 8899TIP3    H126574   5.197   8.427   3.389
 8899TIP3    H226575   5.294   8.443   3.505
 8900TIP3   OH226576   2.108   2.003   2.428
 8900TIP3    H126577   2.117   2.094   2.456
 8900TIP3    H226578   2.183   1.958   2.466
 8901TIP3   OH226579   2.465   5.819   5.834
 8901TIP3    H126580   2.552   5.840   5.868
 8901TIP3    H226581   2.405   5.849   5.902
 8902TIP3   OH226582   5.568   1.695   0.485
 8902TIP3    H126583   5.558   1.787   0.461
 8902TIP3    H226584   5.554   1.693   0.580
 8903TIP3   OH226585   0.288   6.991   0.803
 8903TIP3    H126586   0.383   6.985   0.790
 8903TIP3    H226587   0.274   7.081   0.833
 8904TIP3   OH226588   1.831   3.500   2.950
 8904TIP3    H126589   1.780   3.563   3.002
 8904TIP3    H226590   1.828   3.419   3.002
 8905TIP3   OH226591   7.010   0.660   4.436
 8905TIP3    H126592   6.958   0.684   4.512
 8905TIP3    H226593   7.042   0.572   4.455
 8906TIP3   OH226594   8.586   0.768   4.652
 8906TIP3    H126595   8.642   0.782   4.576
 8906TIP3    H226596   8.646   0.739   4.721
 8907TIP3   OH226597   3.374   3.387   3.134
 8907TIP3    H126598   3.302   3.444   3.110
 8907TIP3    H226599   3.443   3.406   3.070
 8908TIP3   OH226600   4.079   7.756   5.419
 8908TIP3    H126601   4.102   7.711   5.338
 8908TIP3    H226602   4.134   7.835   5.419
 8909TIP3   OH226603   4.433   8.649   6.794
 8909TIP3    H126604   4.448   8.643   6.700
 8909TIP3    H226605   4.370   8.580   6.813
 8910TIP3   OH226606   2.003   2.387   2.825
 8910TIP3    H126607   2.024   2.300   2.860
 8910TIP3    H226608   1.962   2.370   2.741
 8911TIP3   OH226609   0.464   4.739   4.498
 8911TIP3    H126610   0.487   4.815   4.444
 8911TIP3    H226611   0.545   4.690   4.507
 8912TIP3   OH226612   4.100   8.077   4.295
 8912TIP3    H126613   4.096   7.997   4.347
 8912TIP3    H226614   4.012   8.113   4.298
 8913TIP3   OH226615   5.946   4.591   6.910
 8913TIP3    H126616   5.945   4.508   6.863
 8913TIP3    H226617   5.964   4.567   7.001
 8914TIP3   OH226618   5.678   1.411   7.399
 8914TIP3    H126619   5.690   1.390   7.306
 8914TIP3    H226620   5.704   1.331   7.445
 8915TIP3   OH226621   0.388   6.933   3.441
 8915TIP3    H126622   0.353   6.853   3.401
 8915TIP3    H226623   0.366   7.003   3.379
 8916TIP3   OH226624   6.880   7.998   3.520
 8916TIP3    H126625   6.819   7.962   3.585
 8916TIP3    H226626   6.830   8.064   3.473
 8917TIP3   OH226627   6.190   4.534   6.441
 8917TIP3    H126628   6.248   4.462   6.417
 8917TIP3    H226629   6.246   4.611   6.444
 8918TIP3   OH226630   9.336   0.903   6.543
 8918TIP3    H126631   9.402   0.949   6.491
 8918TIP3    H226632   9.269   0.878   6.480
 8919TIP3   OH226633   7.804   3.477   0.252
 8919TIP3    H126634   7.790   3.404   0.312
 8919TIP3    H226635   7.812   3.436   0.166
 8920TIP3   OH226636   9.560   5.988   7.164
 8920TIP3    H126637   9.655   5.993   7.174
 8920TIP3    H226638   9.527   6.068   7.204
 8921TIP3   OH226639   1.864   6.445   3.105
 8921TIP3    H126640   1.908   6.464   3.188
 8921TIP3    H226641   1.779   6.408   3.132
 8922TIP3   OH226642   4.129   0.712   7.570
 8922TIP3    H126643   4.072   0.637   7.554
 8922TIP3    H226644   4.111   0.771   7.496
 8923TIP3   OH226645   2.517   5.980   5.599
 8923TIP3    H126646   2.490   5.948   5.686
 8923TIP3    H226647   2.592   5.925   5.576
 8924TIP3   OH226648   3.042   6.563   4.973
 8924TIP3    H126649   3.053   6.474   4.939
 8924TIP3    H226650   2.979   6.604   4.914
 8925TIP3   OH226651   9.346   7.221   6.685
 8925TIP3    H126652   9.427   7.212   6.635
 8925TIP3    H226653   9.375   7.223   6.777
 8926TIP3   OH226654   0.368   4.509   6.320
 8926TIP3    H126655   0.353   4.497   6.226
 8926TIP3    H226656   0.463   4.504   6.330
 8927TIP3   OH226657   7.882   8.892   7.677
 8927TIP3    H126658   7.934   8.957   7.724
 8927TIP3    H226659   7.800   8.886   7.727
 8928TIP3   OH226660   7.909   0.802   5.994
 8928TIP3    H126661   7.843   0.862   5.960
 8928TIP3    H226662   7.915   0.732   5.929
 8929TIP3   OH226663   4.988   0.995   0.025
 8929TIP3    H126664   5.063   0.982   0.082
 8929TIP3    H226665   4.977   0.911  -0.020
 8930TIP3   OH226666   6.525   0.333   6.879
 8930TIP3    H126667   6.553   0.412   6.925
 8930TIP3    H226668   6.572   0.336   6.795
 8931TIP3   OH226669   1.387   3.743   6.185
 8931TIP3    H126670   1.325   3.723   6.255
 8931TIP3    H226671   1.362   3.831   6.155
 8932TIP3   OH226672   6.434   4.338   4.346
 8932TIP3    H126673   6.455   4.246   4.359
 8932TIP3    H226674   6.345   4.339   4.312
 8933TIP3   OH226675   1.570   6.200   2.274
 8933TIP3    H126676   1.623   6.124   2.248
 8933TIP3    H226677   1.491   6.194   2.220
 8934TIP3   OH226678   0.236   3.413   1.441
 8934TIP3    H126679   0.256   3.322   1.461
 8934TIP3    H226680   0.234   3.417   1.346
 8935TIP3   OH226681   7.351   8.268   2.238
 8935TIP3    H126682   7.413   8.241   2.306
 8935TIP3    H226683   7.291   8.195   2.230
 8936TIP3   OH226684   4.633   5.949   0.502
 8936TIP3    H126685   4.696   5.997   0.448
 8936TIP3    H226686   4.626   6.002   0.582
 8937TIP3   OH226687   7.637   6.013   3.436
 8937TIP3    H126688   7.551   6.051   3.419
 8937TIP3    H226689   7.619   5.919   3.448
 8938TIP3   OH226690   4.724   8.693   7.486
 8938TIP3    H126691   4.662   8.655   7.548
 8938TIP3    H226692   4.672   8.752   7.432
 8939TIP3   OH226693   6.608   6.071   3.765
 8939TIP3    H126694   6.552   6.147   3.782
 8939TIP3    H226695   6.654   6.094   3.684
 8940TIP3   OH226696   8.495   5.113   2.033
 8940TIP3    H126697   8.407   5.149   2.018
 8940TIP3    H226698   8.543   5.184   2.076
 8941TIP3   OH226699   2.376   5.699   3.610
 8941TIP3    H126700   2.388   5.786   3.571
 8941TIP3    H226701   2.425   5.640   3.553
 8942TIP3   OH226702   0.668   7.133   0.330
 8942TIP3    H126703   0.684   7.145   0.424
 8942TIP3    H226704   0.617   7.210   0.305
 8943TIP3   OH226705   2.728   2.520   2.747
 8943TIP3    H126706   2.749   2.612   2.761
 8943TIP3    H226707   2.787   2.493   2.676
 8944TIP3   OH226708   7.829   5.552   7.603
 8944TIP3    H126709   7.903   5.613   7.610
 8944TIP3    H226710   7.753   5.604   7.633
 8945TIP3   OH226711   1.845   1.515   0.472
 8945TIP3    H126712   1.847   1.510   0.568
 8945TIP3    H226713   1.866   1.606   0.453
 8946TIP3   OH226714   6.043   3.480   2.173
 8946TIP3    H126715   6.030   3.399   2.221
 8946TIP3    H226716   5.956   3.503   2.140
 8947TIP3   OH226717   6.020   6.059   2.686
 8947TIP3    H126718   6.106   6.018   2.676
 8947TIP3    H226719   5.990   6.073   2.597
 8948TIP3   OH226720   8.558   7.344   1.533
 8948TIP3    H126721   8.543   7.386   1.448
 8948TIP3    H226722   8.478   7.362   1.583
 8949TIP3   OH226723   3.899   3.007   4.667
 8949TIP3    H126724   3.814   2.972   4.693
 8949TIP3    H226725   3.939   3.036   4.749
 8950TIP3   OH226726   0.431   2.221   3.279
 8950TIP3    H126727   0.481   2.233   3.199
 8950TIP3    H226728   0.359   2.163   3.255
 8951TIP3   OH226729   3.979   7.837   1.028
 8951TIP3    H126730   3.920   7.865   0.958
 8951TIP3    H226731   3.924   7.837   1.106
 8952TIP3   OH226732   7.446   7.013   4.569
 8952TIP3    H126733   7.507   7.059   4.625
 8952TIP3    H226734   7.475   6.922   4.570
 8953TIP3   OH226735   4.759   0.490   6.797
 8953TIP3    H126736   4.745   0.564   6.856
 8953TIP3    H226737   4.679   0.485   6.745
 8954TIP3   OH226738   1.985   6.777   2.688
 8954TIP3    H126739   2.056   6.797   2.627
 8954TIP3    H226740   2.009   6.693   2.727
 8955TIP3   OH226741   6.925   3.067   5.976
 8955TIP3    H126742   6.959   3.152   6.005
 8955TIP3    H226743   6.840   3.087   5.938
 8956TIP3   OH226744   3.449   2.623   6.899
 8956TIP3    H126745   3.539   2.647   6.918
 8956TIP3    H226746   3.405   2.706   6.879
 8957TIP3   OH226747   6.998   4.767   7.277
 8957TIP3    H126748   7.001   4.719   7.360
 8957TIP3    H226749   6.945   4.845   7.297
 8958TIP3   OH226750   2.166   0.974   2.407
 8958TIP3    H126751   2.111   0.924   2.347
 8958TIP3    H226752   2.248   0.926   2.410
 8959TIP3   OH226753   6.141   3.670   1.209
 8959TIP3    H126754   6.110   3.580   1.218
 8959TIP3    H226755   6.062   3.724   1.219
 8960TIP3   OH226756   3.166   5.343   4.220
 8960TIP3    H126757   3.091   5.291   4.193
 8960TIP3    H226758   3.225   5.341   4.144
 8961TIP3   OH226759   9.092   1.474   6.404
 8961TIP3    H126760   9.061   1.555   6.365
 8961TIP3    H226761   9.148   1.435   6.337
 8962TIP3   OH226762   6.281   5.755   0.761
 8962TIP3    H126763   6.201   5.709   0.735
 8962TIP3    H226764   6.262   5.847   0.741
 8963TIP3   OH226765   7.856   7.806   5.107
 8963TIP3    H126766   7.952   7.802   5.106
 8963TIP3    H226767   7.836   7.888   5.152
 8964TIP3   OH226768   1.060   3.770   2.667
 8964TIP3    H126769   1.004   3.807   2.598
 8964TIP3    H226770   1.002   3.763   2.743
 8965TIP3   OH226771   7.308   1.710   4.843
 8965TIP3    H126772   7.236   1.764   4.810
 8965TIP3    H226773   7.343   1.668   4.765
 8966TIP3   OH226774   1.782   9.023   4.845
 8966TIP3    H126775   1.746   8.973   4.918
 8966TIP3    H226776   1.876   9.023   4.860
 8967TIP3   OH226777   4.027   1.371   4.916
 8967TIP3    H126778   4.120   1.394   4.911
 8967TIP3    H226779   3.987   1.446   4.960
 8968TIP3   OH226780   2.379   2.429   2.778
 8968TIP3    H126781   2.403   2.341   2.805
 8968TIP3    H226782   2.362   2.422   2.684
 8969TIP3   OH226783   7.425   6.184   2.101
 8969TIP3    H126784   7.493   6.229   2.152
 8969TIP3    H226785   7.433   6.092   2.127
 8970TIP3   OH226786   1.361   7.505   1.923
 8970TIP3    H126787   1.377   7.416   1.891
 8970TIP3    H226788   1.447   7.546   1.925
 8971TIP3   OH226789   1.049   6.927   0.934
 8971TIP3    H126790   1.007   6.841   0.929
 8971TIP3    H226791   1.106   6.921   1.011
 8972TIP3   OH226792   3.448   2.715   6.304
 8972TIP3    H126793   3.490   2.674   6.229
 8972TIP3    H226794   3.397   2.788   6.267
 8973TIP3   OH226795   0.771   3.001   6.320
 8973TIP3    H126796   0.763   2.913   6.358
 8973TIP3    H226797   0.734   3.059   6.386
 8974TIP3   OH226798   7.268   1.493   4.058
 8974TIP3    H126799   7.329   1.446   4.115
 8974TIP3    H226800   7.181   1.470   4.091
 8975TIP3   OH226801   0.637   4.699   0.740
 8975TIP3    H126802   0.678   4.635   0.797
 8975TIP3    H226803   0.710   4.746   0.700
 8976TIP3   OH226804   2.265   0.157   0.835
 8976TIP3    H126805   2.324   0.202   0.775
 8976TIP3    H226806   2.178   0.175   0.802
 8977TIP3   OH226807   4.572   5.076   4.205
 8977TIP3    H126808   4.528   5.136   4.265
 8977TIP3    H226809   4.584   4.996   4.255
 8978TIP3   OH226810   3.753   4.595   3.411
 8978TIP3    H126811   3.766   4.573   3.319
 8978TIP3    H226812   3.763   4.691   3.414
 8979TIP3   OH226813   6.665   4.829   6.459
 8979TIP3    H126814   6.671   4.808   6.553
 8979TIP3    H226815   6.656   4.745   6.416
 8980TIP3   OH226816   8.982   5.934   6.862
 8980TIP3    H126817   9.066   5.889   6.854
 8980TIP3    H226818   8.934   5.911   6.783
 8981TIP3   OH226819   3.307   5.027   5.924
 8981TIP3    H126820   3.327   5.070   5.840
 8981TIP3    H226821   3.298   5.099   5.986
 8982TIP3   OH226822   0.781   0.660   6.659
 8982TIP3    H126823   0.787   0.600   6.734
 8982TIP3    H226824   0.772   0.747   6.699
 8983TIP3   OH226825   7.697   4.192   3.649
 8983TIP3    H126826   7.774   4.211   3.702
 8983TIP3    H226827   7.700   4.097   3.636
 8984TIP3   OH226828   0.108   2.775   3.460
 8984TIP3    H126829   0.066   2.719   3.525
 8984TIP3    H226830   0.039   2.836   3.433
 8985TIP3   OH226831   2.994   3.343   5.655
 8985TIP3    H126832   2.939   3.316   5.728
 8985TIP3    H226833   3.010   3.437   5.670
 8986TIP3   OH226834   0.777   6.109   5.338
 8986TIP3    H126835   0.716   6.182   5.332
 8986TIP3    H226836   0.819   6.120   5.424
 8987TIP3   OH226837   6.932   6.543   5.921
 8987TIP3    H126838   6.914   6.547   5.827
 8987TIP3    H226839   6.887   6.464   5.951
 8988TIP3   OH226840   3.840   0.630   2.497
 8988TIP3    H126841   3.800   0.705   2.540
 8988TIP3    H226842   3.870   0.574   2.569
 8989TIP3   OH226843   1.563   7.634   5.347
 8989TIP3    H126844   1.568   7.581   5.267
 8989TIP3    H226845   1.490   7.694   5.330
 8990TIP3   OH226846   8.610   2.178   7.278
 8990TIP3    H126847   8.664   2.233   7.220
 8990TIP3    H226848   8.645   2.196   7.365
 8991TIP3   OH226849   9.561   2.059   5.304
 8991TIP3    H126850   9.615   2.124   5.258
 8991TIP3    H226851   9.623   1.992   5.331
 8992TIP3   OH226852   8.930   1.200   2.631
 8992TIP3    H126853   8.935   1.105   2.636
 8992TIP3    H226854   8.837   1.220   2.639
 8993TIP3   OH226855   8.642   0.805   1.070
 8993TIP3    H126856   8.559   0.825   1.026
 8993TIP3    H226857   8.706   0.796   0.999
 8994TIP3   OH226858   0.902   3.334   4.741
 8994TIP3    H126859   0.962   3.340   4.666
 8994TIP3    H226860   0.859   3.249   4.730
 8995TIP3   OH226861   8.741   1.855   6.518
 8995TIP3    H126862   8.667   1.838   6.460
 8995TIP3    H226863   8.802   1.782   6.502
 8996TIP3   OH226864   5.121   6.835   5.156
 8996TIP3    H126865   5.183   6.908   5.160
 8996TIP3    H226866   5.145   6.779   5.230
 8997TIP3   OH226867   0.091   3.781   5.838
 8997TIP3    H126868   0.155   3.715   5.811
 8997TIP3    H226869   0.115   3.802   5.928
 8998TIP3   OH226870   6.533   2.244   1.382
 8998TIP3    H126871   6.554   2.160   1.339
 8998TIP3    H226872   6.443   2.262   1.355
 8999TIP3   OH226873   5.084   2.782   6.552
 8999TIP3    H126874   5.151   2.842   6.519
 8999TIP3    H226875   5.009   2.796   6.494
 9000TIP3   OH226876   7.683   2.867   5.750
 9000TIP3    H126877   7.656   2.958   5.740
 9000TIP3    H226878   7.669   2.848   5.843
 9001TIP3   OH226879   1.393   5.663   5.381
 9001TIP3    H126880   1.307   5.678   5.342
 9001TIP3    H226881   1.377   5.668   5.476
 9002TIP3   OH226882   4.064   5.371   6.954
 9002TIP3    H126883   4.017   5.310   7.009
 9002TIP3    H226884   4.070   5.451   7.006
 9003TIP3   OH226885   6.247   2.013   3.744
 9003TIP3    H126886   6.163   2.058   3.736
 9003TIP3    H226887   6.231   1.925   3.711
 9004TIP3   OH226888   5.891   7.789   4.588
 9004TIP3    H126889   5.947   7.834   4.524
 9004TIP3    H226890   5.891   7.698   4.558
 9005TIP3   OH226891   4.805   6.540   1.578
 9005TIP3    H126892   4.777   6.569   1.665
 9005TIP3    H226893   4.893   6.506   1.592
 9006TIP3   OH226894   1.072   6.474   2.736
 9006TIP3    H126895   0.995   6.418   2.744
 9006TIP3    H226896   1.136   6.420   2.690
 9007TIP3   OH226897   0.253   0.779   4.474
 9007TIP3    H126898   0.196   0.708   4.444
 9007TIP3    H226899   0.230   0.854   4.418
 9008TIP3   OH226900   2.719   6.652   1.637
 9008TIP3    H126901   2.684   6.651   1.726
 9008TIP3    H226902   2.813   6.664   1.648
 9009TIP3   OH226903   3.681   6.023   2.920
 9009TIP3    H126904   3.616   6.023   2.990
 9009TIP3    H226905   3.690   6.116   2.895
 9010TIP3   OH226906   2.154   8.599   2.167
 9010TIP3    H126907   2.244   8.567   2.167
 9010TIP3    H226908   2.162   8.694   2.161
 9011TIP3   OH226909   8.227   2.221   0.385
 9011TIP3    H126910   8.241   2.154   0.452
 9011TIP3    H226911   8.236   2.304   0.432
 9012TIP3   OH226912   8.248   8.070   1.734
 9012TIP3    H126913   8.298   8.113   1.803
 9012TIP3    H226914   8.235   8.138   1.668
 9013TIP3   OH226915   0.403   6.564   1.919
 9013TIP3    H126916   0.412   6.628   1.849
 9013TIP3    H226917   0.373   6.615   1.995
 9014TIP3   OH226918   7.627   6.314   2.230
 9014TIP3    H126919   7.631   6.311   2.325
 9014TIP3    H226920   7.718   6.314   2.201
 9015TIP3   OH226921   6.363   6.808   6.205
 9015TIP3    H126922   6.302   6.811   6.132
 9015TIP3    H226923   6.309   6.785   6.281
 9016TIP3   OH226924   4.923   0.184   1.568
 9016TIP3    H126925   4.938   0.100   1.523
 9016TIP3    H226926   4.833   0.177   1.601
 9017TIP3   OH226927   2.827   6.357   1.654
 9017TIP3    H126928   2.772   6.354   1.732
 9017TIP3    H226929   2.765   6.359   1.581
 9018TIP3   OH226930   8.519   4.464   5.859
 9018TIP3    H126931   8.530   4.395   5.924
 9018TIP3    H226932   8.545   4.545   5.904
 9019TIP3   OH226933   4.612   0.577   2.970
 9019TIP3    H126934   4.598   0.483   2.968
 9019TIP3    H226935   4.681   0.589   3.035
 9020TIP3   OH226936   8.518   8.091   5.886
 9020TIP3    H126937   8.576   8.113   5.959
 9020TIP3    H226938   8.562   8.017   5.843
 9021TIP3   OH226939   7.936   6.257   5.102
 9021TIP3    H126940   7.892   6.278   5.185
 9021TIP3    H226941   8.016   6.310   5.103
 9022TIP3   OH226942   4.545   2.017   3.027
 9022TIP3    H126943   4.542   2.016   2.932
 9022TIP3    H226944   4.638   2.025   3.048
 9023TIP3   OH226945   9.442   0.954   4.550
 9023TIP3    H126946   9.371   0.992   4.600
 9023TIP3    H226947   9.441   1.001   4.467
 9024TIP3   OH226948   6.427   3.453   3.897
 9024TIP3    H126949   6.359   3.468   3.962
 9024TIP3    H226950   6.508   3.448   3.948
 9025TIP3   OH226951   6.352   7.142   4.919
 9025TIP3    H126952   6.386   7.074   4.860
 9025TIP3    H226953   6.301   7.094   4.984
 9026TIP3   OH226954   5.549   3.432   7.501
 9026TIP3    H126955   5.632   3.425   7.548
 9026TIP3    H226956   5.560   3.508   7.444
 9027TIP3   OH226957   4.607   3.397   0.920
 9027TIP3    H126958   4.661   3.472   0.943
 9027TIP3    H226959   4.600   3.399   0.825
 9028TIP3   OH226960   0.851   2.941   6.018
 9028TIP3    H126961   0.892   3.007   6.074
 9028TIP3    H226962   0.827   2.871   6.078
 9029TIP3   OH226963   4.943   5.919   3.993
 9029TIP3    H126964   4.877   5.926   3.925
 9029TIP3    H226965   4.979   5.831   3.984
 9030TIP3   OH226966   6.620   6.068   0.814
 9030TIP3    H126967   6.700   6.103   0.854
 9030TIP3    H226968   6.558   6.141   0.817
 9031TIP3   OH226969   1.905   8.603   1.647
 9031TIP3    H126970   1.924   8.522   1.599
 9031TIP3    H226971   1.971   8.606   1.717
 9032TIP3   OH226972   5.781   3.957   2.906
 9032TIP3    H126973   5.739   3.900   2.841
 9032TIP3    H226974   5.813   4.032   2.855
 9033TIP3   OH226975   8.214   0.860   2.740
 9033TIP3    H126976   8.245   0.808   2.666
 9033TIP3    H226977   8.180   0.796   2.803
 9034TIP3   OH226978   8.568   4.260   6.442
 9034TIP3    H126979   8.649   4.304   6.415
 9034TIP3    H226980   8.545   4.301   6.525
 9035TIP3   OH226981   2.207   7.306   2.905
 9035TIP3    H126982   2.143   7.240   2.877
 9035TIP3    H226983   2.155   7.384   2.922
 9036TIP3   OH226984   7.258   7.171   2.542
 9036TIP3    H126985   7.203   7.249   2.547
 9036TIP3    H226986   7.208   7.110   2.487
 9037TIP3   OH226987   2.997   0.586   4.737
 9037TIP3    H126988   2.957   0.518   4.791
 9037TIP3    H226989   2.963   0.668   4.774
 9038TIP3   OH226990   9.378   2.273   4.092
 9038TIP3    H126991   9.398   2.181   4.109
 9038TIP3    H226992   9.414   2.290   4.005
 9039TIP3   OH226993   6.702   7.838   4.927
 9039TIP3    H126994   6.706   7.750   4.889
 9039TIP3    H226995   6.655   7.890   4.862
 9040TIP3   OH226996   6.867   0.645   7.059
 9040TIP3    H126997   6.914   0.723   7.029
 9040TIP3    H226998   6.932   0.575   7.052
 9041TIP3   OH226999   9.301   9.020   5.390
 9041TIP3    H127000   9.317   9.040   5.297
 9041TIP3    H227001   9.239   9.087   5.418
 9042TIP3   OH227002   1.555   7.991   4.185
 9042TIP3    H127003   1.480   7.989   4.125
 9042TIP3    H227004   1.631   7.976   4.129
 9043TIP3   OH227005   5.421   5.821   4.321
 9043TIP3    H127006   5.327   5.829   4.334
 9043TIP3    H227007   5.452   5.773   4.398
 9044TIP3   OH227008   1.469   1.692   5.859
 9044TIP3    H127009   1.483   1.642   5.779
 9044TIP3    H227010   1.415   1.635   5.914
 9045TIP3   OH227011   8.246   7.897   0.987
 9045TIP3    H127012   8.268   7.822   1.043
 9045TIP3    H227013   8.218   7.965   1.048
 9046TIP3   OH227014   3.819   8.177   1.745
 9046TIP3    H127015   3.847   8.269   1.738
 9046TIP3    H227016   3.789   8.169   1.836
 9047TIP3   OH227017   0.374   2.751   4.515
 9047TIP3    H127018   0.289   2.720   4.482
 9047TIP3    H227019   0.439   2.704   4.461
 9048TIP3   OH227020   8.056   2.652   1.884
 9048TIP3    H127021   8.057   2.721   1.951
 9048TIP3    H227022   8.006   2.690   1.812
 9049TIP3   OH227023   6.522   0.180   1.366
 9049TIP3    H127024   6.574   0.253   1.399
 9049TIP3    H227025   6.586   0.114   1.339
 9050TIP3   OH227026   5.500   2.449   3.972
 9050TIP3    H127027   5.548   2.486   3.898
 9050TIP3    H227028   5.559   2.459   4.046
 9051TIP3   OH227029   1.163   1.555   2.942
 9051TIP3    H127030   1.222   1.517   2.877
 9051TIP3    H227031   1.078   1.515   2.925
 9052TIP3   OH227032   0.166   2.103   1.314
 9052TIP3    H127033   0.166   2.019   1.270
 9052TIP3    H227034   0.258   2.131   1.315
 9053TIP3   OH227035   3.346   8.391   0.093
 9053TIP3    H127036   3.364   8.437   0.011
 9053TIP3    H227037   3.281   8.446   0.137
 9054TIP3   OH227038   3.307   6.956   7.059
 9054TIP3    H127039   3.333   7.037   7.104
 9054TIP3    H227040   3.254   6.909   7.123
 9055TIP3   OH227041   6.288   4.973   0.593
 9055TIP3    H127042   6.255   5.025   0.519
 9055TIP3    H227043   6.218   4.911   0.612
 9056TIP3   OH227044   6.586   0.517   5.257
 9056TIP3    H127045   6.493   0.511   5.235
 9056TIP3    H227046   6.600   0.448   5.322
 9057TIP3   OH227047   1.583   5.302   3.048
 9057TIP3    H127048   1.669   5.260   3.052
 9057TIP3    H227049   1.541   5.279   3.131
 9058TIP3   OH227050   0.361   8.235   2.199
 9058TIP3    H127051   0.303   8.312   2.203
 9058TIP3    H227052   0.301   8.161   2.189
 9059TIP3   OH227053   6.596   1.794   6.607
 9059TIP3    H127054   6.632   1.745   6.533
 9059TIP3    H227055   6.671   1.839   6.644
 9060TIP3   OH227056   1.378   4.060   6.822
 9060TIP3    H127057   1.334   4.141   6.794
 9060TIP3    H227058   1.447   4.046   6.757
 9061TIP3   OH227059   4.371   3.617   7.082
 9061TIP3    H127060   4.358   3.537   7.032
 9061TIP3    H227061   4.434   3.667   7.030
 9062TIP3   OH227062   3.379   8.305   5.899
 9062TIP3    H127063   3.379   8.401   5.895
 9062TIP3    H227064   3.470   8.281   5.913
 9063TIP3   OH227065   8.684   0.636   6.827
 9063TIP3    H127066   8.635   0.569   6.873
 9063TIP3    H227067   8.618   0.697   6.794
 9064TIP3   OH227068   0.514   2.276   5.837
 9064TIP3    H127069   0.581   2.332   5.875
 9064TIP3    H227070   0.521   2.292   5.743
 9065TIP3   OH227071   3.953   3.426   0.498
 9065TIP3    H127072   3.866   3.466   0.508
 9065TIP3    H227073   3.964   3.372   0.576
 9066TIP3   OH227074   3.296   2.562   5.939
 9066TIP3    H127075   3.309   2.512   5.859
 9066TIP3    H227076   3.382   2.601   5.957
 9067TIP3   OH227077   5.988   3.102   4.122
 9067TIP3    H127078   6.010   3.183   4.167
 9067TIP3    H227079   5.995   3.123   4.029
 9068TIP3   OH227080   2.379   3.919   4.703
 9068TIP3    H127081   2.336   3.838   4.733
 9068TIP3    H227082   2.464   3.890   4.669
 9069TIP3   OH227083   3.437   7.556   6.736
 9069TIP3    H127084   3.342   7.567   6.728
 9069TIP3    H227085   3.451   7.541   6.829
 9070TIP3   OH227086   5.707   0.767   3.960
 9070TIP3    H127087   5.774   0.728   4.017
 9070TIP3    H227088   5.659   0.693   3.924
 9071TIP3   OH227089   2.893   0.963   1.128
 9071TIP3    H127090   2.955   0.898   1.162
 9071TIP3    H227091   2.948   1.028   1.085
 9072TIP3   OH227092   5.274   8.710   4.786
 9072TIP3    H127093   5.324   8.788   4.764
 9072TIP3    H227094   5.267   8.661   4.704
 9073TIP3   OH227095   7.979   8.463   7.295
 9073TIP3    H127096   8.010   8.492   7.210
 9073TIP3    H227097   7.897   8.511   7.308
 9074TIP3   OH227098   6.797   0.204   6.035
 9074TIP3    H127099   6.809   0.194   6.130
 9074TIP3    H227100   6.784   0.115   6.003
 9075TIP3   OH227101   3.566   3.967   2.081
 9075TIP3    H127102   3.658   3.966   2.109
 9075TIP3    H227103   3.559   4.046   2.028
 9076TIP3   OH227104   8.518   5.923   1.300
 9076TIP3    H127105   8.524   5.886   1.389
 9076TIP3    H227106   8.475   5.854   1.249
 9077TIP3   OH227107   9.001   5.440   2.581
 9077TIP3    H127108   8.960   5.420   2.666
 9077TIP3    H227109   9.055   5.363   2.562
 9078TIP3   OH227110   0.647   6.916   7.572
 9078TIP3    H127111   0.741   6.907   7.591
 9078TIP3    H227112   0.615   6.826   7.570
 9079TIP3   OH227113   6.494   6.570   6.534
 9079TIP3    H127114   6.539   6.636   6.586
 9079TIP3    H227115   6.491   6.607   6.446
 9080TIP3   OH227116   3.671   8.440   4.556
 9080TIP3    H127117   3.608   8.377   4.522
 9080TIP3    H227118   3.665   8.430   4.651
 9081TIP3   OH227119   6.160   1.399   7.501
 9081TIP3    H127120   6.081   1.390   7.555
 9081TIP3    H227121   6.185   1.491   7.509
 9082TIP3   OH227122   5.542   1.308   3.521
 9082TIP3    H127123   5.586   1.381   3.563
 9082TIP3    H227124   5.578   1.306   3.432
 9083TIP3   OH227125   1.223   0.165   4.585
 9083TIP3    H127126   1.143   0.218   4.587
 9083TIP3    H227127   1.284   0.216   4.532
 9084TIP3   OH227128   7.312   7.031   1.558
 9084TIP3    H127129   7.337   7.011   1.468
 9084TIP3    H227130   7.360   6.968   1.611
 9085TIP3   OH227131   8.741   3.048   0.407
 9085TIP3    H127132   8.767   3.034   0.316
 9085TIP3    H227133   8.727   3.143   0.413
 9086TIP3   OH227134   5.421   0.343   1.320
 9086TIP3    H127135   5.403   0.429   1.283
 9086TIP3    H227136   5.335   0.303   1.332
 9087TIP3   OH227137   1.176   8.193   5.520
 9087TIP3    H127138   1.151   8.251   5.591
 9087TIP3    H227139   1.222   8.249   5.458
 9088TIP3   OH227140   9.101   8.768   0.521
 9088TIP3    H127141   9.194   8.774   0.543
 9088TIP3    H227142   9.067   8.855   0.542
 9089TIP3   OH227143   0.988   6.284   1.993
 9089TIP3    H127144   0.987   6.353   2.060
 9089TIP3    H227145   0.918   6.308   1.933
 9090TIP3   OH227146   3.767   8.820   6.380
 9090TIP3    H127147   3.715   8.765   6.438
 9090TIP3    H227148   3.773   8.770   6.298
 9091TIP3   OH227149   4.479   4.819   3.265
 9091TIP3    H127150   4.442   4.901   3.295
 9091TIP3    H227151   4.511   4.837   3.177
 9092TIP3   OH227152   1.909   8.319   3.329
 9092TIP3    H127153   1.996   8.282   3.347
 9092TIP3    H227154   1.926   8.412   3.314
 9093TIP3   OH227155   3.554   5.604   1.952
 9093TIP3    H127156   3.518   5.567   1.872
 9093TIP3    H227157   3.643   5.631   1.928
 9094TIP3   OH227158   0.807   7.583   2.364
 9094TIP3    H127159   0.899   7.559   2.359
 9094TIP3    H227160   0.764   7.527   2.298
 9095TIP3   OH227161   6.717   7.750   6.665
 9095TIP3    H127162   6.759   7.798   6.736
 9095TIP3    H227163   6.774   7.674   6.650
 9096TIP3   OH227164   3.479   6.277   7.352
 9096TIP3    H127165   3.472   6.206   7.289
 9096TIP3    H227166   3.448   6.239   7.434
 9097TIP3   OH227167   2.832   8.167   5.396
 9097TIP3    H127168   2.832   8.083   5.442
 9097TIP3    H227169   2.845   8.232   5.465
 9098TIP3   OH227170   2.454   7.975   2.988
 9098TIP3    H127171   2.535   7.942   2.949
 9098TIP3    H227172   2.471   8.068   3.002
 9099TIP3   OH227173   7.846   7.947   0.094
 9099TIP3    H127174   7.755   7.946   0.122
 9099TIP3    H227175   7.842   7.951  -0.002
 9100TIP3   OH227176   6.447   1.148   3.171
 9100TIP3    H127177   6.532   1.134   3.215
 9100TIP3    H227178   6.396   1.199   3.235
 9101TIP3   OH227179   0.911   5.135   1.403
 9101TIP3    H127180   0.970   5.068   1.367
 9101TIP3    H227181   0.941   5.147   1.493
 9102TIP3   OH227182   2.207   7.891   6.265
 9102TIP3    H127183   2.213   7.951   6.339
 9102TIP3    H227184   2.291   7.901   6.219
 9103TIP3   OH227185   9.383   4.836   3.041
 9103TIP3    H127186   9.299   4.867   3.007
 9103TIP3    H227187   9.449   4.890   2.997
 9104TIP3   OH227188   8.579   6.884   1.456
 9104TIP3    H127189   8.585   6.971   1.418
 9104TIP3    H227190   8.487   6.859   1.446
 9105TIP3   OH227191   7.234   1.523   1.326
 9105TIP3    H127192   7.294   1.508   1.399
 9105TIP3    H227193   7.286   1.509   1.248
 9106TIP3   OH227194   4.554   4.220   4.264
 9106TIP3    H127195   4.572   4.157   4.334
 9106TIP3    H227196   4.464   4.248   4.279
 9107TIP3   OH227197   1.454   3.902   1.455
 9107TIP3    H127198   1.415   3.989   1.441
 9107TIP3    H227199   1.524   3.898   1.390
 9108TIP3   OH227200   1.996   8.132   0.802
 9108TIP3    H127201   2.001   8.061   0.738
 9108TIP3    H227202   1.908   8.168   0.791
 9109TIP3   OH227203   7.543   0.067   3.447
 9109TIP3    H127204   7.619   0.035   3.496
 9109TIP3    H227205   7.535   0.159   3.473
 9110TIP3   OH227206   4.742   0.238   1.083
 9110TIP3    H127207   4.790   0.212   1.162
 9110TIP3    H227208   4.800   0.216   1.011
 9111TIP3   OH227209   7.098   3.212   2.357
 9111TIP3    H127210   7.057   3.128   2.335
 9111TIP3    H227211   7.116   3.253   2.273
 9112TIP3   OH227212   0.959   2.326   5.249
 9112TIP3    H127213   0.913   2.390   5.194
 9112TIP3    H227214   1.037   2.373   5.279
 9113TIP3   OH227215   6.811   6.519   1.679
 9113TIP3    H127216   6.901   6.551   1.680
 9113TIP3    H227217   6.758   6.594   1.708
 9114TIP3   OH227218   7.394   7.851   1.573
 9114TIP3    H127219   7.401   7.820   1.663
 9114TIP3    H227220   7.481   7.838   1.536
 9115TIP3   OH227221   2.210   4.999   0.574
 9115TIP3    H127222   2.273   5.071   0.567
 9115TIP3    H227223   2.262   4.924   0.604
 9116TIP3   OH227224   6.126   8.510   0.026
 9116TIP3    H127225   6.169   8.578   0.077
 9116TIP3    H227226   6.075   8.461   0.090
 9117TIP3   OH227227   6.566   6.341   3.266
 9117TIP3    H127228   6.599   6.423   3.302
 9117TIP3    H227229   6.473   6.339   3.292
 9118TIP3   OH227230   4.709   4.374   7.305
 9118TIP3    H127231   4.622   4.394   7.270
 9118TIP3    H227232   4.754   4.458   7.305
 9119TIP3   OH227233   4.910   4.252   2.420
 9119TIP3    H127234   4.873   4.220   2.338
 9119TIP3    H227235   4.949   4.336   2.397
 9120TIP3   OH227236   2.874   1.010   7.421
 9120TIP3    H127237   2.885   0.943   7.352
 9120TIP3    H227238   2.870   0.960   7.502
 9121TIP3   OH227239   6.614   5.157   1.062
 9121TIP3    H127240   6.580   5.244   1.039
 9121TIP3    H227241   6.667   5.132   0.987
 9122TIP3   OH227242   3.382   5.445   1.755
 9122TIP3    H127243   3.332   5.365   1.775
 9122TIP3    H227244   3.362   5.462   1.662
 9123TIP3   OH227245   0.926   4.448   1.237
 9123TIP3    H127246   0.969   4.422   1.319
 9123TIP3    H227247   0.924   4.368   1.185
 9124TIP3   OH227248   7.127   2.104   3.439
 9124TIP3    H127249   7.104   2.190   3.404
 9124TIP3    H227250   7.221   2.097   3.425
 9125TIP3   OH227251   4.098   3.446   1.046
 9125TIP3    H127252   4.086   3.536   1.016
 9125TIP3    H227253   4.151   3.405   0.977
 9126TIP3   OH227254   4.518   8.133   2.708
 9126TIP3    H127255   4.602   8.088   2.696
 9126TIP3    H227256   4.502   8.176   2.624
 9127TIP3   OH227257   8.699   8.232   4.908
 9127TIP3    H127258   8.734   8.153   4.949
 9127TIP3    H227259   8.634   8.200   4.845
 9128TIP3   OH227260   4.296   0.248   6.766
 9128TIP3    H127261   4.311   0.160   6.733
 9128TIP3    H227262   4.383   0.289   6.766
 9129TIP3   OH227263   3.875   2.459   4.208
 9129TIP3    H127264   3.853   2.462   4.302
 9129TIP3    H227265   3.955   2.511   4.201
 9130TIP3   OH227266   2.893   2.729   4.400
 9130TIP3    H127267   2.932   2.659   4.452
 9130TIP3    H227268   2.902   2.701   4.309
 9131TIP3   OH227269   6.138   7.637   7.714
 9131TIP3    H127270   6.219   7.688   7.704
 9131TIP3    H227271   6.109   7.655   7.803
 9132TIP3   OH227272   2.968   0.632   5.646
 9132TIP3    H127273   3.049   0.668   5.610
 9132TIP3    H227274   2.941   0.694   5.713
 9133TIP3   OH227275   8.022   0.513   1.971
 9133TIP3    H127276   7.955   0.446   1.955
 9133TIP3    H227277   8.103   0.464   1.983
 9134TIP3   OH227278   7.566   4.762   5.439
 9134TIP3    H127279   7.633   4.811   5.391
 9134TIP3    H227280   7.615   4.699   5.492
 9135TIP3   OH227281   1.415   7.577   2.238
 9135TIP3    H127282   1.375   7.581   2.324
 9135TIP3    H227283   1.491   7.519   2.248
 9136TIP3   OH227284   2.257   5.880   5.994
 9136TIP3    H127285   2.225   5.935   6.066
 9136TIP3    H227286   2.198   5.805   5.993
 9137TIP3   OH227287   8.457   6.725   5.263
 9137TIP3    H127288   8.392   6.701   5.197
 9137TIP3    H227289   8.455   6.821   5.265
 9138TIP3   OH227290   2.963   4.390   1.046
 9138TIP3    H127291   2.894   4.410   1.111
 9138TIP3    H227292   3.013   4.319   1.087
 9139TIP3   OH227293   0.600   6.144   4.892
 9139TIP3    H127294   0.678   6.138   4.946
 9139TIP3    H227295   0.559   6.227   4.916
 9140TIP3   OH227296   4.774   0.715   2.264
 9140TIP3    H127297   4.710   0.644   2.274
 9140TIP3    H227298   4.843   0.677   2.209
 9141TIP3   OH227299   6.087   2.298   0.557
 9141TIP3    H127300   6.108   2.350   0.479
 9141TIP3    H227301   6.119   2.351   0.630
 9142TIP3   OH227302   5.674   6.772   1.196
 9142TIP3    H127303   5.617   6.833   1.148
 9142TIP3    H227304   5.626   6.754   1.277
 9143TIP3   OH227305   7.083   6.884   3.137
 9143TIP3    H127306   6.989   6.880   3.117
 9143TIP3    H227307   7.122   6.925   3.060
 9144TIP3   OH227308   6.549   1.540   7.265
 9144TIP3    H127309   6.593   1.581   7.191
 9144TIP3    H227310   6.471   1.499   7.227
 9145TIP3   OH227311   9.390   7.475   7.630
 9145TIP3    H127312   9.480   7.464   7.598
 9145TIP3    H227313   9.400   7.500   7.722
 9146TIP3   OH227314   8.272   4.144   2.607
 9146TIP3    H127315   8.248   4.221   2.555
 9146TIP3    H227316   8.217   4.074   2.571
 9147TIP3   OH227317   4.350   2.827   2.410
 9147TIP3    H127318   4.404   2.905   2.420
 9147TIP3    H227319   4.413   2.755   2.410
 9148TIP3   OH227320   7.991   1.975   5.853
 9148TIP3    H127321   8.065   2.027   5.823
 9148TIP3    H227322   7.914   2.027   5.830
 9149TIP3   OH227323   5.378   5.024   1.028
 9149TIP3    H127324   5.474   5.024   1.029
 9149TIP3    H227325   5.353   4.962   1.096
 9150TIP3   OH227326   8.862   8.281   0.746
 9150TIP3    H127327   8.957   8.284   0.738
 9150TIP3    H227328   8.831   8.291   0.656
 9151TIP3   OH227329   1.204   8.004   4.827
 9151TIP3    H127330   1.297   7.980   4.829
 9151TIP3    H227331   1.162   7.939   4.884
 9152TIP3   OH227332   8.193   3.387   4.624
 9152TIP3    H127333   8.149   3.401   4.707
 9152TIP3    H227334   8.286   3.383   4.646
 9153TIP3   OH227335   3.634   5.362   4.687
 9153TIP3    H127336   3.611   5.288   4.744
 9153TIP3    H227337   3.568   5.360   4.617
 9154TIP3   OH227338   0.727   5.708   5.800
 9154TIP3    H127339   0.747   5.671   5.714
 9154TIP3    H227340   0.725   5.633   5.859
 9155TIP3   OH227341   5.136   3.140   1.776
 9155TIP3    H127342   5.138   3.184   1.691
 9155TIP3    H227343   5.205   3.182   1.827
 9156TIP3   OH227344   8.967   0.462   4.437
 9156TIP3    H127345   9.001   0.551   4.439
 9156TIP3    H227346   8.970   0.437   4.345
 9157TIP3   OH227347   8.822   6.291   4.743
 9157TIP3    H127348   8.743   6.334   4.776
 9157TIP3    H227349   8.791   6.232   4.674
 9158TIP3   OH227350   3.322   1.794   1.557
 9158TIP3    H127351   3.381   1.857   1.516
 9158TIP3    H227352   3.357   1.708   1.531
 9159TIP3   OH227353   5.667   3.799   3.731
 9159TIP3    H127354   5.741   3.855   3.708
 9159TIP3    H227355   5.590   3.850   3.708
 9160TIP3   OH227356   4.527   1.333   2.519
 9160TIP3    H127357   4.563   1.352   2.432
 9160TIP3    H227358   4.603   1.339   2.578
 9161TIP3   OH227359   3.289   6.064   1.325
 9161TIP3    H127360   3.374   6.023   1.307
 9161TIP3    H227361   3.246   6.068   1.240
 9162TIP3   OH227362   6.388   6.621   1.659
 9162TIP3    H127363   6.478   6.652   1.652
 9162TIP3    H227364   6.396   6.528   1.681
 9163TIP3   OH227365   4.903   6.555   3.911
 9163TIP3    H127366   4.965   6.559   3.838
 9163TIP3    H227367   4.903   6.463   3.937
 9164TIP3   OH227368   0.500   4.696   5.035
 9164TIP3    H127369   0.487   4.732   4.948
 9164TIP3    H227370   0.413   4.672   5.065
 9165TIP3   OH227371   6.824   6.801   1.292
 9165TIP3    H127372   6.740   6.796   1.339
 9165TIP3    H227373   6.831   6.892   1.265
 9166TIP3   OH227374   1.276   8.776   5.314
 9166TIP3    H127375   1.211   8.758   5.247
 9166TIP3    H227376   1.227   8.821   5.384
 9167TIP3   OH227377   1.696   5.445   4.434
 9167TIP3    H127378   1.787   5.462   4.460
 9167TIP3    H227379   1.669   5.372   4.490
 9168TIP3   OH227380   1.460   0.535   2.461
 9168TIP3    H127381   1.527   0.497   2.404
 9168TIP3    H227382   1.508   0.601   2.512
 9169TIP3   OH227383   8.140   7.752   3.864
 9169TIP3    H127384   8.065   7.702   3.897
 9169TIP3    H227385   8.121   7.842   3.889
 9170TIP3   OH227386   1.521   0.311   0.984
 9170TIP3    H127387   1.591   0.307   1.049
 9170TIP3    H227388   1.551   0.378   0.921
 9171TIP3   OH227389   4.247   2.341   6.924
 9171TIP3    H127390   4.295   2.332   7.007
 9171TIP3    H227391   4.276   2.266   6.872
 9172TIP3   OH227392   9.323   5.143   3.976
 9172TIP3    H127393   9.230   5.140   3.999
 9172TIP3    H227394   9.340   5.236   3.959
 9173TIP3   OH227395   8.474   4.760   2.369
 9173TIP3    H127396   8.403   4.696   2.361
 9173TIP3    H227397   8.485   4.794   2.280
 9174TIP3   OH227398   1.287   2.388   0.065
 9174TIP3    H127399   1.292   2.451  -0.007
 9174TIP3    H227400   1.359   2.412   0.124
 9175TIP3   OH227401   6.407   4.071   2.437
 9175TIP3    H127402   6.499   4.046   2.427
 9175TIP3    H227403   6.398   4.092   2.530
 9176TIP3   OH227404   6.257   4.841   2.282
 9176TIP3    H127405   6.198   4.797   2.220
 9176TIP3    H227406   6.342   4.801   2.267
 9177TIP3   OH227407   4.563   6.583   1.308
 9177TIP3    H127408   4.545   6.618   1.396
 9177TIP3    H227409   4.538   6.654   1.249
 9178TIP3   OH227410   7.153   8.592   2.586
 9178TIP3    H127411   7.148   8.673   2.535
 9178TIP3    H227412   7.247   8.576   2.597
 9179TIP3   OH227413   3.192   3.270   0.974
 9179TIP3    H127414   3.126   3.223   0.924
 9179TIP3    H227415   3.152   3.354   0.996
 9180TIP3   OH227416   2.957   6.752   5.817
 9180TIP3    H127417   2.908   6.755   5.899
 9180TIP3    H227418   2.895   6.785   5.751
 9181TIP3   OH227419   6.008   3.948   0.920
 9181TIP3    H127420   5.940   4.000   0.964
 9181TIP3    H227421   6.065   3.918   0.991
 9182TIP3   OH227422   6.440   2.221   7.267
 9182TIP3    H127423   6.494   2.165   7.322
 9182TIP3    H227424   6.350   2.205   7.297
 9183TIP3   OH227425   2.738   1.504   0.924
 9183TIP3    H127426   2.727   1.573   0.990
 9183TIP3    H227427   2.777   1.431   0.973
 9184TIP3   OH227428   6.443   0.076   6.969
 9184TIP3    H127429   6.446   0.162   6.928
 9184TIP3    H227430   6.493   0.086   7.050
 9185TIP3   OH227431   0.046   3.761   5.028
 9185TIP3    H127432  -0.022   3.823   5.052
 9185TIP3    H227433   0.111   3.768   5.098
 9186TIP3   OH227434   3.478   4.501   4.044
 9186TIP3    H127435   3.509   4.478   4.131
 9186TIP3    H227436   3.422   4.428   4.018
 9187TIP3   OH227437   0.804   1.809   0.264
 9187TIP3    H127438   0.746   1.734   0.263
 9187TIP3    H227439   0.888   1.776   0.232
 9188TIP3   OH227440   9.114   6.057   6.460
 9188TIP3    H127441   9.098   5.964   6.480
 9188TIP3    H227442   9.029   6.099   6.472
 9189TIP3   OH227443   5.695   2.594   5.878
 9189TIP3    H127444   5.673   2.625   5.790
 9189TIP3    H227445   5.653   2.508   5.885
 9190TIP3   OH227446   6.497   7.719   3.008
 9190TIP3    H127447   6.529   7.684   3.091
 9190TIP3    H227448   6.576   7.749   2.962
 9191TIP3   OH227449   7.845   8.151   7.708
 9191TIP3    H127450   7.752   8.140   7.686
 9191TIP3    H227451   7.891   8.134   7.625
 9192TIP3   OH227452   2.423   5.452   2.219
 9192TIP3    H127453   2.508   5.474   2.182
 9192TIP3    H227454   2.403   5.526   2.277
 9193TIP3   OH227455   8.967   7.602   1.782
 9193TIP3    H127456   8.890   7.548   1.801
 9193TIP3    H227457   9.039   7.556   1.825
 9194TIP3   OH227458   9.499   1.772   4.942
 9194TIP3    H127459   9.539   1.705   4.886
 9194TIP3    H227460   9.520   1.744   5.032
 9195TIP3   OH227461   8.665   8.302   3.974
 9195TIP3    H127462   8.741   8.273   3.923
 9195TIP3    H227463   8.599   8.324   3.909
 9196TIP3   OH227464   6.735   6.352   0.976
 9196TIP3    H127465   6.706   6.435   1.013
 9196TIP3    H227466   6.825   6.370   0.947
 9197TIP3   OH227467   2.574   6.716   0.071
 9197TIP3    H127468   2.654   6.687   0.027
 9197TIP3    H227469   2.513   6.737   0.001
 9198TIP3   OH227470   1.414   8.015   3.669
 9198TIP3    H127471   1.387   7.925   3.689
 9198TIP3    H227472   1.456   8.046   3.750
 9199TIP3   OH227473   7.542   6.946   0.366
 9199TIP3    H127474   7.471   6.882   0.374
 9199TIP3    H227475   7.501   7.030   0.386
 9200TIP3   OH227476   1.765   2.847   2.977
 9200TIP3    H127477   1.743   2.858   3.069
 9200TIP3    H227478   1.802   2.758   2.972
 9201TIP3   OH227479   0.523   5.184   3.041
 9201TIP3    H127480   0.607   5.168   2.999
 9201TIP3    H227481   0.484   5.256   2.992
 9202TIP3   OH227482   8.558   2.421   6.473
 9202TIP3    H127483   8.487   2.442   6.413
 9202TIP3    H227484   8.588   2.334   6.445
 9203TIP3   OH227485   6.328   1.609   3.329
 9203TIP3    H127486   6.351   1.702   3.327
 9203TIP3    H227487   6.407   1.564   3.298
 9204TIP3   OH227488   7.336   0.896   6.972
 9204TIP3    H127489   7.386   0.830   7.019
 9204TIP3    H227490   7.274   0.930   7.036
 9205TIP3   OH227491   5.143   6.662   6.133
 9205TIP3    H127492   5.082   6.592   6.111
 9205TIP3    H227493   5.119   6.734   6.075
 9206TIP3   OH227494   2.316   8.501   0.386
 9206TIP3    H127495   2.273   8.578   0.424
 9206TIP3    H227496   2.279   8.496   0.297
 9207TIP3   OH227497   2.877   3.711   7.548
 9207TIP3    H127498   2.912   3.799   7.535
 9207TIP3    H227499   2.927   3.676   7.621
 9208TIP3   OH227500   7.046   1.690   6.220
 9208TIP3    H127501   7.125   1.723   6.177
 9208TIP3    H227502   7.072   1.606   6.258
 9209TIP3   OH227503   2.171   1.714   4.560
 9209TIP3    H127504   2.170   1.804   4.592
 9209TIP3    H227505   2.124   1.718   4.477
 9210TIP3   OH227506   7.398   5.474   5.447
 9210TIP3    H127507   7.462   5.508   5.385
 9210TIP3    H227508   7.335   5.428   5.393
 9211TIP3   OH227509   3.453   2.005   1.457
 9211TIP3    H127510   3.368   2.048   1.467
 9211TIP3    H227511   3.506   2.041   1.528
 9212TIP3   OH227512   1.748   5.624   4.132
 9212TIP3    H127513   1.677   5.624   4.067
 9212TIP3    H227514   1.706   5.654   4.212
 9213TIP3   OH227515   6.623   4.941   2.501
 9213TIP3    H127516   6.535   4.972   2.525
 9213TIP3    H227517   6.608   4.860   2.452
 9214TIP3   OH227518   8.804   5.551   7.416
 9214TIP3    H127519   8.820   5.482   7.480
 9214TIP3    H227520   8.866   5.533   7.345
 9215TIP3   OH227521   5.076   5.837   5.483
 9215TIP3    H127522   5.090   5.770   5.550
 9215TIP3    H227523   4.990   5.874   5.503
 9216TIP3   OH227524   4.630   0.309   3.910
 9216TIP3    H127525   4.674   0.260   3.841
 9216TIP3    H227526   4.697   0.319   3.978
 9217TIP3   OH227527   1.286   4.952   6.047
 9217TIP3    H127528   1.262   5.014   6.115
 9217TIP3    H227529   1.379   4.935   6.061
 9218TIP3   OH227530   8.002   2.372   4.151
 9218TIP3    H127531   7.943   2.443   4.123
 9218TIP3    H227532   7.961   2.292   4.116
 9219TIP3   OH227533   4.411   0.945   3.201
 9219TIP3    H127534   4.421   0.864   3.151
 9219TIP3    H227535   4.346   0.996   3.153
 9220TIP3   OH227536   0.397   1.330   4.782
 9220TIP3    H127537   0.353   1.245   4.789
 9220TIP3    H227538   0.474   1.313   4.729
 9221TIP3   OH227539   7.939   2.815   3.623
 9221TIP3    H127540   7.857   2.863   3.628
 9221TIP3    H227541   8.007   2.880   3.641
 9222TIP3   OH227542   4.690   8.658   4.435
 9222TIP3    H127543   4.660   8.733   4.383
 9222TIP3    H227544   4.699   8.587   4.372
 9223TIP3   OH227545   1.524   3.261   1.228
 9223TIP3    H127546   1.566   3.281   1.144
 9223TIP3    H227547   1.433   3.290   1.217
 9224TIP3   OH227548   4.155   3.898   5.674
 9224TIP3    H127549   4.179   3.905   5.582
 9224TIP3    H227550   4.060   3.889   5.673
 9225TIP3   OH227551   5.302   6.644   3.870
 9225TIP3    H127552   5.299   6.662   3.964
 9225TIP3    H227553   5.291   6.730   3.829
 9226TIP3   OH227554   7.253   1.687   3.300
 9226TIP3    H127555   7.171   1.734   3.284
 9226TIP3    H227556   7.318   1.734   3.248
 9227TIP3   OH227557   3.722   6.516   7.037
 9227TIP3    H127558   3.659   6.517   7.108
 9227TIP3    H227559   3.801   6.555   7.074
 9228TIP3   OH227560   2.444   1.163   3.821
 9228TIP3    H127561   2.500   1.220   3.769
 9228TIP3    H227562   2.480   1.166   3.910
 9229TIP3   OH227563   7.066   7.306   4.667
 9229TIP3    H127564   7.160   7.290   4.671
 9229TIP3    H227565   7.039   7.267   4.583
 9230TIP3   OH227566   7.894   3.116   4.318
 9230TIP3    H127567   7.910   3.153   4.405
 9230TIP3    H227568   7.842   3.181   4.272
 9231TIP3   OH227569   0.809   8.047   1.422
 9231TIP3    H127570   0.871   8.062   1.493
 9231TIP3    H227571   0.847   7.976   1.371
 9232TIP3   OH227572   6.935   4.298   7.526
 9232TIP3    H127573   6.913   4.280   7.434
 9232TIP3    H227574   6.851   4.305   7.570
 9233TIP3   OH227575   0.243   6.186   5.238
 9233TIP3    H127576   0.237   6.249   5.309
 9233TIP3    H227577   0.225   6.102   5.279
 9234TIP3   OH227578   1.120   7.565   3.009
 9234TIP3    H127579   1.125   7.611   2.925
 9234TIP3    H227580   1.086   7.630   3.071
 9235TIP3   OH227581   3.350   8.766   2.877
 9235TIP3    H127582   3.385   8.716   2.804
 9235TIP3    H227583   3.391   8.729   2.955
 9236TIP3   OH227584   0.011   5.447   0.099
 9236TIP3    H127585  -0.070   5.453   0.149
 9236TIP3    H227586  -0.006   5.379   0.033
 9237TIP3   OH227587   0.316   0.112   3.238
 9237TIP3    H127588   0.233   0.093   3.282
 9237TIP3    H227589   0.339   0.200   3.267
 9238TIP3   OH227590   2.269   6.833   2.892
 9238TIP3    H127591   2.355   6.827   2.852
 9238TIP3    H227592   2.270   6.915   2.942
 9239TIP3   OH227593   3.999   6.419   6.481
 9239TIP3    H127594   4.036   6.392   6.397
 9239TIP3    H227595   3.996   6.515   6.476
 9240TIP3   OH227596   3.316   2.132   1.052
 9240TIP3    H127597   3.230   2.118   1.014
 9240TIP3    H227598   3.372   2.068   1.008
 9241TIP3   OH227599   0.738   4.683   1.657
 9241TIP3    H127600   0.828   4.711   1.674
 9241TIP3    H227601   0.746   4.619   1.587
 9242TIP3   OH227602   6.020   0.033   3.152
 9242TIP3    H127603   6.058   0.056   3.237
 9242TIP3    H227604   5.935   0.076   3.152
 9243TIP3   OH227605   0.660   0.334   4.897
 9243TIP3    H127606   0.741   0.361   4.853
 9243TIP3    H227607   0.608   0.414   4.901
 9244TIP3   OH227608   6.835   1.187   0.488
 9244TIP3    H127609   6.863   1.129   0.558
 9244TIP3    H227610   6.740   1.173   0.482
 9245TIP3   OH227611   3.937   3.704   7.610
 9245TIP3    H127612   3.871   3.767   7.640
 9245TIP3    H227613   3.925   3.628   7.668
 9246TIP3   OH227614   3.729   0.331   5.958
 9246TIP3    H127615   3.641   0.363   5.978
 9246TIP3    H227616   3.784   0.410   5.961
 9247TIP3   OH227617   7.828   3.424   7.140
 9247TIP3    H127618   7.874   3.464   7.067
 9247TIP3    H227619   7.866   3.463   7.218
 9248TIP3   OH227620   0.581   2.398   6.111
 9248TIP3    H127621   0.586   2.468   6.045
 9248TIP3    H227622   0.661   2.348   6.098
 9249TIP3   OH227623   6.979   3.951   2.296
 9249TIP3    H127624   6.958   3.880   2.234
 9249TIP3    H227625   6.999   4.026   2.240
 9250TIP3   OH227626   8.658   5.040   5.928
 9250TIP3    H127627   8.653   5.108   5.861
 9250TIP3    H227628   8.745   5.049   5.966
 9251TIP3   OH227629   3.105   5.076   3.274
 9251TIP3    H127630   3.070   5.084   3.185
 9251TIP3    H227631   3.040   5.118   3.330
 9252TIP3   OH227632   1.124   0.600   0.624
 9252TIP3    H127633   1.030   0.613   0.609
 9252TIP3    H227634   1.133   0.506   0.638
 9253TIP3   OH227635   2.578   8.454   2.458
 9253TIP3    H127636   2.527   8.383   2.420
 9253TIP3    H227637   2.651   8.466   2.397
 9254TIP3   OH227638   7.616   7.218   7.381
 9254TIP3    H127639   7.596   7.155   7.450
 9254TIP3    H227640   7.712   7.216   7.374
 9255TIP3   OH227641   7.991   3.712   2.444
 9255TIP3    H127642   7.896   3.707   2.441
 9255TIP3    H227643   8.012   3.726   2.536
 9256TIP3   OH227644   7.201   7.566   3.481
 9256TIP3    H127645   7.152   7.484   3.485
 9256TIP3    H227646   7.134   7.635   3.485
 9257TIP3   OH227647   0.172   4.121   6.355
 9257TIP3    H127648   0.158   4.185   6.284
 9257TIP3    H227649   0.181   4.175   6.434
 9258TIP3   OH227650   0.113   8.025   4.219
 9258TIP3    H127651   0.114   8.060   4.130
 9258TIP3    H227652   0.130   7.931   4.207
 9259TIP3   OH227653   3.285   2.894   4.196
 9259TIP3    H127654   3.293   2.830   4.267
 9259TIP3    H227655   3.376   2.912   4.170
 9260TIP3   OH227656   0.571   8.512   1.625
 9260TIP3    H127657   0.567   8.606   1.608
 9260TIP3    H227658   0.575   8.473   1.538
 9261TIP3   OH227659   6.330   0.689   4.845
 9261TIP3    H127660   6.284   0.772   4.861
 9261TIP3    H227661   6.423   0.713   4.848
 9262TIP3   OH227662   2.000   6.053   7.775
 9262TIP3    H127663   2.053   5.974   7.761
 9262TIP3    H227664   2.012   6.073   7.868
 9263TIP3   OH227665   8.358   5.147   5.697
 9263TIP3    H127666   8.335   5.119   5.786
 9263TIP3    H227667   8.447   5.179   5.704
 9264TIP3   OH227668   2.265   6.275   3.356
 9264TIP3    H127669   2.349   6.290   3.398
 9264TIP3    H227670   2.254   6.350   3.296
 9265TIP3   OH227671   8.606   2.035   2.720
 9265TIP3    H127672   8.636   1.972   2.786
 9265TIP3    H227673   8.575   2.110   2.771
 9266TIP3   OH227674   3.368   3.970   0.666
 9266TIP3    H127675   3.391   3.958   0.758
 9266TIP3    H227676   3.283   4.015   0.668
 9267TIP3   OH227677   0.535   2.936   4.666
 9267TIP3    H127678   0.485   2.949   4.747
 9267TIP3    H227679   0.503   2.853   4.632
 9268TIP3   OH227680   7.727   6.346   3.546
 9268TIP3    H127681   7.781   6.331   3.468
 9268TIP3    H227682   7.645   6.381   3.511
 9269TIP3   OH227683   0.687   0.414   2.531
 9269TIP3    H127684   0.733   0.420   2.615
 9269TIP3    H227685   0.742   0.462   2.470
 9270TIP3   OH227686   9.276   0.838   2.107
 9270TIP3    H127687   9.248   0.873   2.022
 9270TIP3    H227688   9.194   0.825   2.156
 9271TIP3   OH227689   5.169   2.032   0.794
 9271TIP3    H127690   5.083   1.989   0.791
 9271TIP3    H227691   5.220   1.980   0.856
 9272TIP3   OH227692   8.381   1.689   7.081
 9272TIP3    H127693   8.371   1.609   7.030
 9272TIP3    H227694   8.314   1.748   7.046
 9273TIP3   OH227695   4.526   2.302   5.890
 9273TIP3    H127696   4.466   2.274   5.820
 9273TIP3    H227697   4.579   2.371   5.850
 9274TIP3   OH227698   9.094   5.470   4.972
 9274TIP3    H127699   9.165   5.510   5.022
 9274TIP3    H227700   9.128   5.464   4.883
 9275TIP3   OH227701   1.529   2.050   6.160
 9275TIP3    H127702   1.553   2.138   6.192
 9275TIP3    H227703   1.481   2.011   6.232
 9276TIP3   OH227704   1.611   2.317   3.417
 9276TIP3    H127705   1.660   2.370   3.354
 9276TIP3    H227706   1.521   2.320   3.384
 9277TIP3   OH227707   5.921   8.485   6.371
 9277TIP3    H127708   5.954   8.491   6.461
 9277TIP3    H227709   5.831   8.519   6.376
 9278TIP3   OH227710   6.639   0.961   5.456
 9278TIP3    H127711   6.566   0.964   5.395
 9278TIP3    H227712   6.676   0.873   5.445
 9279TIP3   OH227713   4.293   2.674   3.781
 9279TIP3    H127714   4.265   2.737   3.716
 9279TIP3    H227715   4.322   2.727   3.855
 9280TIP3   OH227716   9.392   8.433   1.514
 9280TIP3    H127717   9.339   8.451   1.436
 9280TIP3    H227718   9.464   8.495   1.508
 9281TIP3   OH227719   5.054   8.845   2.666
 9281TIP3    H127720   5.059   8.917   2.730
 9281TIP3    H227721   4.981   8.791   2.697
 9282TIP3   OH227722   8.101   5.993   5.525
 9282TIP3    H127723   8.015   6.027   5.500
 9282TIP3    H227724   8.085   5.940   5.603
 9283TIP3   OH227725   3.004   0.065   5.885
 9283TIP3    H127726   2.948   0.030   5.954
 9283TIP3    H227727   2.998   0.160   5.896
 9284TIP3   OH227728   4.300   3.595   7.801
 9284TIP3    H127729   4.351   3.622   7.724
 9284TIP3    H227730   4.264   3.509   7.777
 9285TIP3   OH227731   6.044   5.289   4.086
 9285TIP3    H127732   5.967   5.268   4.140
 9285TIP3    H227733   6.011   5.346   4.017
 9286TIP3   OH227734   6.029   1.983   6.505
 9286TIP3    H127735   6.101   1.928   6.534
 9286TIP3    H227736   6.056   2.072   6.528
 9287TIP3   OH227737   1.259   0.855   0.704
 9287TIP3    H127738   1.267   0.760   0.696
 9287TIP3    H227739   1.167   0.873   0.684
 9288TIP3   OH227740   8.253   4.716   6.089
 9288TIP3    H127741   8.235   4.745   5.999
 9288TIP3    H227742   8.257   4.797   6.140
 9289TIP3   OH227743   5.899   5.490   2.151
 9289TIP3    H127744   5.982   5.517   2.113
 9289TIP3    H227745   5.833   5.538   2.101
 9290TIP3   OH227746   6.536   8.428   3.307
 9290TIP3    H127747   6.514   8.336   3.292
 9290TIP3    H227748   6.461   8.464   3.355
 9291TIP3   OH227749   7.215   3.895   1.689
 9291TIP3    H127750   7.289   3.841   1.719
 9291TIP3    H227751   7.246   3.985   1.700
 9292TIP3   OH227752   3.612   4.270   0.153
 9292TIP3    H127753   3.535   4.295   0.103
 9292TIP3    H227754   3.595   4.180   0.182
 9293TIP3   OH227755   9.526   8.056   0.010
 9293TIP3    H127756   9.602   8.036   0.064
 9293TIP3    H227757   9.513   8.150   0.021
 9294TIP3   OH227758   6.080   5.370   2.863
 9294TIP3    H127759   6.080   5.385   2.958
 9294TIP3    H227760   6.055   5.454   2.825
 9295TIP3   OH227761   3.527   5.037   5.144
 9295TIP3    H127762   3.600   5.088   5.176
 9295TIP3    H227763   3.465   5.034   5.217
 9296TIP3   OH227764   3.234   1.941   3.084
 9296TIP3    H127765   3.316   1.914   3.042
 9296TIP3    H227766   3.254   1.942   3.178
 9297TIP3   OH227767   6.820   7.208   5.517
 9297TIP3    H127768   6.862   7.180   5.436
 9297TIP3    H227769   6.823   7.303   5.516
 9298TIP3   OH227770   1.179   1.557   1.568
 9298TIP3    H127771   1.207   1.585   1.481
 9298TIP3    H227772   1.221   1.619   1.628
 9299TIP3   OH227773   2.144   4.470   1.355
 9299TIP3    H127774   2.157   4.562   1.334
 9299TIP3    H227775   2.166   4.463   1.448
 9300TIP3   OH227776   6.981   5.935   2.433
 9300TIP3    H127777   6.972   5.886   2.351
 9300TIP3    H227778   6.922   5.891   2.494
 9301TIP3   OH227779   1.666   6.502   0.748
 9301TIP3    H127780   1.672   6.491   0.653
 9301TIP3    H227781   1.725   6.575   0.767
 9302TIP3   OH227782   7.915   4.293   7.077
 9302TIP3    H127783   7.913   4.385   7.103
 9302TIP3    H227784   7.887   4.294   6.985
 9303TIP3   OH227785   6.699   7.984   4.085
 9303TIP3    H127786   6.673   8.042   4.156
 9303TIP3    H227787   6.616   7.957   4.044
 9304TIP3   OH227788   2.798   0.261   3.542
 9304TIP3    H127789   2.752   0.345   3.542
 9304TIP3    H227790   2.889   0.284   3.560
 9305TIP3   OH227791   1.566   8.174   2.764
 9305TIP3    H127792   1.516   8.102   2.802
 9305TIP3    H227793   1.658   8.149   2.776
 9306TIP3   OH227794   0.031   8.275   1.409
 9306TIP3    H127795   0.071   8.266   1.496
 9306TIP3    H227796  -0.059   8.303   1.427
 9307TIP3   OH227797   5.210   2.470   2.082
 9307TIP3    H127798   5.297   2.432   2.068
 9307TIP3    H227799   5.227   2.552   2.130
 9308TIP3   OH227800   5.659   6.272   5.231
 9308TIP3    H127801   5.605   6.200   5.265
 9308TIP3    H227802   5.604   6.313   5.165
 9309TIP3   OH227803   0.963   0.127   7.781
 9309TIP3    H127804   1.051   0.129   7.818
 9309TIP3    H227805   0.906   0.118   7.857
 9310TIP3   OH227806   8.262   4.697   1.974
 9310TIP3    H127807   8.254   4.750   1.895
 9310TIP3    H227808   8.347   4.721   2.010
 9311TIP3   OH227809   0.054   6.875   5.747
 9311TIP3    H127810   0.095   6.949   5.791
 9311TIP3    H227811  -0.006   6.915   5.683
 9312TIP3   OH227812   3.712   1.235   7.571
 9312TIP3    H127813   3.764   1.310   7.542
 9312TIP3    H227814   3.634   1.237   7.516
 9313TIP3   OH227815   0.872   6.318   7.809
 9313TIP3    H127816   0.954   6.298   7.854
 9313TIP3    H227817   0.813   6.246   7.831
 9314TIP3   OH227818   7.476   2.427   0.152
 9314TIP3    H127819   7.446   2.500   0.206
 9314TIP3    H227820   7.548   2.389   0.201
 9315TIP3   OH227821   4.249   1.471   6.284
 9315TIP3    H127822   4.226   1.562   6.300
 9315TIP3    H227823   4.315   1.450   6.350
 9316TIP3   OH227824   8.395   0.342   3.161
 9316TIP3    H127825   8.376   0.424   3.116
 9316TIP3    H227826   8.356   0.352   3.247
 9317TIP3   OH227827   8.171   4.423   6.279
 9317TIP3    H127828   8.136   4.348   6.231
 9317TIP3    H227829   8.132   4.500   6.237
 9318TIP3   OH227830   4.698   5.339   4.336
 9318TIP3    H127831   4.638   5.326   4.409
 9318TIP3    H227832   4.737   5.425   4.352
 9319TIP3   OH227833   7.259   1.132   0.310
 9319TIP3    H127834   7.172   1.167   0.295
 9319TIP3    H227835   7.295   1.185   0.380
 9320TIP3   OH227836   5.676   0.419   4.154
 9320TIP3    H127837   5.657   0.487   4.219
 9320TIP3    H227838   5.679   0.338   4.204
 9321TIP3   OH227839   4.579   0.870   7.794
 9321TIP3    H127840   4.604   0.961   7.813
 9321TIP3    H227841   4.483   0.871   7.795
 9322TIP3   OH227842   2.799   7.978   1.833
 9322TIP3    H127843   2.708   8.008   1.829
 9322TIP3    H227844   2.832   7.989   1.743
 9323TIP3   OH227845   1.598   0.764   1.223
 9323TIP3    H127846   1.641   0.693   1.271
 9323TIP3    H227847   1.533   0.719   1.168
 9324TIP3   OH227848   5.656   3.457   3.303
 9324TIP3    H127849   5.636   3.410   3.222
 9324TIP3    H227850   5.746   3.432   3.324
 9325TIP3   OH227851   7.431   1.842   6.352
 9325TIP3    H127852   7.425   1.877   6.263
 9325TIP3    H227853   7.464   1.916   6.404
 9326TIP3   OH227854   1.182   5.800   7.580
 9326TIP3    H127855   1.197   5.713   7.617
 9326TIP3    H227856   1.259   5.851   7.607
 9327TIP3   OH227857   9.252   1.595   7.316
 9327TIP3    H127858   9.200   1.593   7.235
 9327TIP3    H227859   9.331   1.643   7.292
 9328TIP3   OH227860   6.535   4.840   5.381
 9328TIP3    H127861   6.468   4.870   5.320
 9328TIP3    H227862   6.486   4.789   5.446
 9329TIP3   OH227863   7.404   4.646   2.301
 9329TIP3    H127864   7.312   4.641   2.274
 9329TIP3    H227865   7.452   4.627   2.220
 9330TIP3   OH227866   8.378   4.551   0.927
 9330TIP3    H127867   8.383   4.457   0.911
 9330TIP3    H227868   8.356   4.589   0.842
 9331TIP3   OH227869   2.002   3.738   7.037
 9331TIP3    H127870   2.091   3.714   7.014
 9331TIP3    H227871   2.011   3.795   7.114
 9332TIP3   OH227872   7.465   3.777   5.252
 9332TIP3    H127873   7.531   3.714   5.283
 9332TIP3    H227874   7.514   3.837   5.196
 9333TIP3   OH227875   7.071   1.434   3.119
 9333TIP3    H127876   7.099   1.488   3.045
 9333TIP3    H227877   7.128   1.462   3.191
 9334TIP3   OH227878   0.393   3.896   4.735
 9334TIP3    H127879   0.442   3.841   4.673
 9334TIP3    H227880   0.339   3.953   4.680
 9335TIP3   OH227881   2.486   7.650   5.453
 9335TIP3    H127882   2.551   7.696   5.400
 9335TIP3    H227883   2.444   7.720   5.504
 9336TIP3   OH227884   2.016   8.324   6.605
 9336TIP3    H127885   2.056   8.252   6.556
 9336TIP3    H227886   1.924   8.299   6.614
 9337TIP3   OH227887   0.341   5.894   2.875
 9337TIP3    H127888   0.417   5.836   2.873
 9337TIP3    H227889   0.341   5.936   2.789
 9338TIP3   OH227890   3.400   4.764   6.942
 9338TIP3    H127891   3.481   4.814   6.952
 9338TIP3    H227892   3.343   4.821   6.889
 9339TIP3   OH227893   1.667   5.662   5.364
 9339TIP3    H127894   1.640   5.643   5.274
 9339TIP3    H227895   1.585   5.660   5.415
 9340TIP3   OH227896   2.146   5.013   4.592
 9340TIP3    H127897   2.229   5.045   4.556
 9340TIP3    H227898   2.124   4.936   4.539
 9341TIP3   OH227899   8.181   6.927   5.396
 9341TIP3    H127900   8.103   6.978   5.419
 9341TIP3    H227901   8.162   6.838   5.426
 9342TIP3   OH227902   2.388   4.575   7.798
 9342TIP3    H127903   2.422   4.544   7.714
 9342TIP3    H227904   2.303   4.533   7.807
 9343TIP3   OH227905   1.452   6.568   0.478
 9343TIP3    H127906   1.446   6.473   0.476
 9343TIP3    H227907   1.367   6.598   0.448
 9344TIP3   OH227908   0.034   3.195   2.078
 9344TIP3    H127909  -0.032   3.238   2.133
 9344TIP3    H227910   0.110   3.254   2.082
 9345TIP3   OH227911   2.546   3.114   4.852
 9345TIP3    H127912   2.455   3.115   4.880
 9345TIP3    H227913   2.596   3.131   4.931
 9346TIP3   OH227914   7.605   4.153   3.989
 9346TIP3    H127915   7.584   4.237   3.949
 9346TIP3    H227916   7.522   4.104   3.987
 9347TIP3   OH227917   5.148   5.100   5.156
 9347TIP3    H127918   5.116   5.154   5.228
 9347TIP3    H227919   5.084   5.114   5.086
 9348TIP3   OH227920   5.085   3.268   6.699
 9348TIP3    H127921   5.083   3.350   6.650
 9348TIP3    H227922   5.177   3.241   6.696
 9349TIP3   OH227923   6.965   8.020   4.570
 9349TIP3    H127924   6.933   8.105   4.599
 9349TIP3    H227925   6.967   7.967   4.650
 9350TIP3   OH227926   2.982   7.988   2.767
 9350TIP3    H127927   2.989   7.911   2.823
 9350TIP3    H227928   3.007   7.957   2.680
 9351TIP3   OH227929   5.330   4.337   2.006
 9351TIP3    H127930   5.358   4.324   2.096
 9351TIP3    H227931   5.247   4.383   2.013
 9352TIP3   OH227932   5.304   8.497   5.467
 9352TIP3    H127933   5.243   8.555   5.421
 9352TIP3    H227934   5.342   8.443   5.398
 9353TIP3   OH227935   8.300   0.187   7.317
 9353TIP3    H127936   8.338   0.100   7.301
 9353TIP3    H227937   8.372   0.237   7.354
 9354TIP3   OH227938   5.412   5.920   4.877
 9354TIP3    H127939   5.480   5.853   4.886
 9354TIP3    H227940   5.442   5.993   4.931
 9355TIP3   OH227941   3.069   3.645   4.715
 9355TIP3    H127942   2.995   3.689   4.672
 9355TIP3    H227943   3.082   3.565   4.664
 9356TIP3   OH227944   3.752   7.195   4.728
 9356TIP3    H127945   3.808   7.117   4.726
 9356TIP3    H227946   3.691   7.183   4.656
 9357TIP3   OH227947   0.805   7.967   2.685
 9357TIP3    H127948   0.823   7.947   2.777
 9357TIP3    H227949   0.762   8.053   2.688
 9358TIP3   OH227950   2.872   1.974   0.193
 9358TIP3    H127951   2.892   2.032   0.119
 9358TIP3    H227952   2.944   1.989   0.254
 9359TIP3   OH227953   7.444   2.243   1.172
 9359TIP3    H127954   7.485   2.230   1.257
 9359TIP3    H227955   7.351   2.230   1.188
 9360TIP3   OH227956   1.869   2.965   2.164
 9360TIP3    H127957   1.783   2.968   2.123
 9360TIP3    H227958   1.922   2.909   2.107
 9361TIP3   OH227959   9.188   4.616   7.772
 9361TIP3    H127960   9.218   4.538   7.725
 9361TIP3    H227961   9.238   4.615   7.854
 9362TIP3   OH227962   9.092   3.454   6.328
 9362TIP3    H127963   9.172   3.403   6.342
 9362TIP3    H227964   9.081   3.503   6.409
 9363TIP3   OH227965   5.345   4.948   1.691
 9363TIP3    H127966   5.375   4.858   1.703
 9363TIP3    H227967   5.307   4.949   1.603
 9364TIP3   OH227968   4.204   4.727   3.563
 9364TIP3    H127969   4.216   4.788   3.636
 9364TIP3    H227970   4.240   4.645   3.595
 9365TIP3   OH227971   5.858   8.823   1.858
 9365TIP3    H127972   5.799   8.759   1.818
 9365TIP3    H227973   5.812   8.907   1.848
 9366TIP3   OH227974   8.377   3.433   1.329
 9366TIP3    H127975   8.471   3.451   1.332
 9366TIP3    H227976   8.343   3.470   1.410
 9367TIP3   OH227977   0.116   8.612   3.629
 9367TIP3    H127978   0.175   8.677   3.668
 9367TIP3    H227979   0.035   8.620   3.678
 9368TIP3   OH227980   8.149   1.668   7.652
 9368TIP3    H127981   8.075   1.619   7.685
 9368TIP3    H227982   8.114   1.756   7.634
 9369TIP3   OH227983   8.831   0.875   6.941
 9369TIP3    H127984   8.795   0.791   6.912
 9369TIP3    H227985   8.925   0.869   6.923
 9370TIP3   OH227986   7.240   0.486   1.814
 9370TIP3    H127987   7.170   0.422   1.824
 9370TIP3    H227988   7.274   0.471   1.725
 9371TIP3   OH227989   6.999   8.187   0.343
 9371TIP3    H127990   7.053   8.265   0.349
 9371TIP3    H227991   7.049   8.126   0.289
 9372TIP3   OH227992   9.430   0.641   2.707
 9372TIP3    H127993   9.357   0.579   2.695
 9372TIP3    H227994   9.507   0.585   2.715
 9373TIP3   OH227995   2.854   8.555   6.990
 9373TIP3    H127996   2.930   8.569   7.046
 9373TIP3    H227997   2.812   8.476   7.026
 9374TIP3   OH227998   1.385   0.096   7.340
 9374TIP3    H127999   1.467   0.066   7.380
 9374TIP3    H228000   1.336   0.135   7.412
 9375TIP3   OH228001   4.734   8.452   0.914
 9375TIP3    H128002   4.819   8.411   0.932
 9375TIP3    H228003   4.703   8.409   0.835
 9376TIP3   OH228004   4.236   5.627   3.786
 9376TIP3    H128005   4.191   5.594   3.709
 9376TIP3    H228006   4.242   5.722   3.772
 9377TIP3   OH228007   5.495   3.620   5.559
 9377TIP3    H128008   5.442   3.542   5.578
 9377TIP3    H228009   5.470   3.645   5.470
 9378TIP3   OH228010   8.257   7.168   3.901
 9378TIP3    H128011   8.213   7.252   3.885
 9378TIP3    H228012   8.206   7.104   3.851
 9379TIP3   OH228013   2.892   4.334   3.031
 9379TIP3    H128014   2.986   4.345   3.021
 9379TIP3    H228015   2.883   4.264   3.096
 9380TIP3   OH228016   1.602   8.126   2.364
 9380TIP3    H128017   1.693   8.124   2.333
 9380TIP3    H228018   1.556   8.065   2.308
 9381TIP3   OH228019   9.048   4.358   5.724
 9381TIP3    H128020   9.010   4.291   5.669
 9381TIP3    H228021   8.984   4.371   5.795
 9382TIP3   OH228022   5.043   1.467   1.255
 9382TIP3    H128023   5.047   1.550   1.303
 9382TIP3    H228024   5.068   1.490   1.165
 9383TIP3   OH228025   3.540   8.420   2.894
 9383TIP3    H128026   3.592   8.410   2.814
 9383TIP3    H228027   3.577   8.497   2.937
 9384TIP3   OH228028   7.871   3.829   3.088
 9384TIP3    H128029   7.941   3.860   3.145
 9384TIP3    H228030   7.916   3.778   3.020
 9385TIP3   OH228031   3.503   6.035   3.131
 9385TIP3    H128032   3.413   6.003   3.140
 9385TIP3    H228033   3.550   5.995   3.205
 9386TIP3   OH228034   3.811   8.684   4.095
 9386TIP3    H128035   3.811   8.590   4.113
 9386TIP3    H228036   3.806   8.725   4.181
 9387TIP3   OH228037   5.417   6.118   0.890
 9387TIP3    H128038   5.460   6.197   0.858
 9387TIP3    H228039   5.435   6.052   0.822
 9388TIP3   OH228040   6.289   1.105   5.066
 9388TIP3    H128041   6.294   1.125   5.159
 9388TIP3    H228042   6.376   1.070   5.044
 9389TIP3   OH228043   2.044   7.948   3.981
 9389TIP3    H128044   2.130   7.982   4.006
 9389TIP3    H228045   2.055   7.853   3.979
 9390TIP3   OH228046   8.271   5.440   6.928
 9390TIP3    H128047   8.290   5.501   7.000
 9390TIP3    H228048   8.220   5.371   6.969
 9391TIP3   OH228049   4.378   0.110   7.128
 9391TIP3    H128050   4.460   0.099   7.079
 9391TIP3    H228051   4.369   0.204   7.139
 9392TIP3   OH228052   4.401   5.996   5.120
 9392TIP3    H128053   4.330   5.932   5.112
 9392TIP3    H228054   4.370   6.057   5.188
 9393TIP3   OH228055   8.444   6.513   1.599
 9393TIP3    H128056   8.524   6.460   1.597
 9393TIP3    H228057   8.396   6.480   1.675
 9394TIP3   OH228058   2.364   8.806   2.680
 9394TIP3    H128059   2.444   8.845   2.717
 9394TIP3    H228060   2.331   8.873   2.620
 9395TIP3   OH228061   6.763   7.624   4.239
 9395TIP3    H128062   6.765   7.694   4.304
 9395TIP3    H228063   6.709   7.556   4.278
 9396TIP3   OH228064   4.882   3.548   1.045
 9396TIP3    H128065   4.868   3.641   1.027
 9396TIP3    H228066   4.968   3.529   1.008
 9397TIP3   OH228067   7.458   3.850   6.098
 9397TIP3    H128068   7.420   3.854   6.186
 9397TIP3    H228069   7.511   3.929   6.091
 9398TIP3   OH228070   0.167   0.997   7.183
 9398TIP3    H128071   0.227   1.037   7.247
 9398TIP3    H228072   0.210   1.010   7.099
 9399TIP3   OH228073   6.592   4.624   3.073
 9399TIP3    H128074   6.647   4.606   2.997
 9399TIP3    H228075   6.579   4.538   3.114
 9400TIP3   OH228076   0.461   6.007   6.314
 9400TIP3    H128077   0.506   5.945   6.371
 9400TIP3    H228078   0.372   6.012   6.348
 9401TIP3   OH228079   5.856   2.056   7.714
 9401TIP3    H128080   5.868   2.083   7.622
 9401TIP3    H228081   5.779   1.999   7.712
 9402TIP3   OH228082   4.567   6.495   2.574
 9402TIP3    H128083   4.588   6.433   2.505
 9402TIP3    H228084   4.489   6.541   2.543
 9403TIP3   OH228085   6.321   4.875   6.699
 9403TIP3    H128086   6.341   4.833   6.615
 9403TIP3    H228087   6.283   4.805   6.752
 9404TIP3   OH228088   7.187   6.374   7.255
 9404TIP3    H128089   7.269   6.399   7.213
 9404TIP3    H228090   7.129   6.449   7.242
 9405TIP3   OH228091   6.216   4.647   4.740
 9405TIP3    H128092   6.293   4.594   4.762
 9405TIP3    H228093   6.142   4.587   4.754
 9406TIP3   OH228094   3.789   0.095   0.831
 9406TIP3    H128095   3.877   0.110   0.797
 9406TIP3    H228096   3.763   0.178   0.870
 9407TIP3   OH228097   4.884   0.586   0.402
 9407TIP3    H128098   4.972   0.623   0.393
 9407TIP3    H228099   4.885   0.543   0.487
 9408TIP3   OH228100   7.732   1.978   6.238
 9408TIP3    H128101   7.652   1.966   6.186
 9408TIP3    H228102   7.800   1.935   6.188
 9409TIP3   OH228103   6.401   7.114   0.157
 9409TIP3    H128104   6.372   7.066   0.079
 9409TIP3    H228105   6.484   7.074   0.180
 9410TIP3   OH228106   0.089   3.396   1.813
 9410TIP3    H128107   0.004   3.441   1.803
 9410TIP3    H228108   0.142   3.458   1.863
 9411TIP3   OH228109   8.470   3.205   2.342
 9411TIP3    H128110   8.477   3.110   2.346
 9411TIP3    H228111   8.500   3.228   2.255
 9412TIP3   OH228112   4.014   8.289   1.427
 9412TIP3    H128113   3.980   8.214   1.476
 9412TIP3    H228114   4.105   8.297   1.456
 9413TIP3   OH228115   0.509   0.716   0.845
 9413TIP3    H128116   0.509   0.788   0.908
 9413TIP3    H228117   0.526   0.638   0.898
 9414TIP3   OH228118   5.418   8.463   0.138
 9414TIP3    H128119   5.360   8.520   0.189
 9414TIP3    H228120   5.455   8.521   0.071
 9415TIP3   OH228121   5.545   0.815   5.776
 9415TIP3    H128122   5.598   0.894   5.771
 9415TIP3    H228123   5.456   0.846   5.791
 9416TIP3   OH228124   9.417   0.713   2.440
 9416TIP3    H128125   9.471   0.786   2.409
 9416TIP3    H228126   9.439   0.705   2.532
 9417TIP3   OH228127   9.000   2.770   6.792
 9417TIP3    H128128   9.095   2.775   6.804
 9417TIP3    H228129   8.969   2.860   6.806
 9418TIP3   OH228130   4.982   0.554   2.706
 9418TIP3    H128131   4.912   0.508   2.660
 9418TIP3    H228132   5.049   0.487   2.722
 9419TIP3   OH228133   6.110   4.810   2.679
 9419TIP3    H128134   6.190   4.807   2.626
 9419TIP3    H228135   6.118   4.735   2.738
 9420TIP3   OH228136   5.226   3.395   7.093
 9420TIP3    H128137   5.197   3.317   7.140
 9420TIP3    H228138   5.221   3.371   7.001
 9421TIP3   OH228139   9.111   7.365   6.630
 9421TIP3    H128140   9.090   7.324   6.546
 9421TIP3    H228141   9.185   7.315   6.663
 9422TIP3   OH228142   3.824   7.784   5.594
 9422TIP3    H128143   3.872   7.817   5.670
 9422TIP3    H228144   3.883   7.719   5.555
 9423TIP3   OH228145   8.421   2.080   6.895
 9423TIP3    H128146   8.454   2.002   6.848
 9423TIP3    H228147   8.366   2.124   6.831
 9424TIP3   OH228148   0.424   3.474   7.536
 9424TIP3    H128149   0.413   3.567   7.553
 9424TIP3    H228150   0.409   3.433   7.622
 9425TIP3   OH228151   0.822   4.532   3.339
 9425TIP3    H128152   0.842   4.460   3.399
 9425TIP3    H228153   0.860   4.505   3.256
 9426TIP3   OH228154   1.922   6.998   7.343
 9426TIP3    H128155   1.871   7.061   7.291
 9426TIP3    H228156   1.941   6.927   7.283
 9427TIP3   OH228157   3.161   6.084   1.080
 9427TIP3    H128158   3.079   6.100   1.127
 9427TIP3    H228159   3.165   6.154   1.015
 9428TIP3   OH228160   8.509   2.648   2.277
 9428TIP3    H128161   8.589   2.634   2.328
 9428TIP3    H228162   8.439   2.625   2.338
 9429TIP3   OH228163   1.104   3.072   5.796
 9429TIP3    H128164   1.083   2.986   5.759
 9429TIP3    H228165   1.138   3.053   5.884
 9430TIP3   OH228166   2.894   3.140   0.154
 9430TIP3    H128167   2.864   3.066   0.206
 9430TIP3    H228168   2.914   3.208   0.217
 9431TIP3   OH228169   3.310   7.230   6.170
 9431TIP3    H128170   3.255   7.266   6.240
 9431TIP3    H228171   3.296   7.289   6.096
 9432TIP3   OH228172   4.116   5.782   7.704
 9432TIP3    H128173   4.058   5.739   7.767
 9432TIP3    H228174   4.067   5.782   7.622
 9433TIP3   OH228175   6.357   5.101   5.217
 9433TIP3    H128176   6.345   5.172   5.280
 9433TIP3    H228177   6.286   5.113   5.154
 9434TIP3   OH228178   4.581   7.441   3.701
 9434TIP3    H128179   4.522   7.368   3.685
 9434TIP3    H228180   4.610   7.430   3.791
 9435TIP3   OH228181   2.057   8.341   2.248
 9435TIP3    H128182   2.082   8.426   2.213
 9435TIP3    H228183   1.965   8.352   2.272
 9436TIP3   OH228184   1.092   2.786   6.785
 9436TIP3    H128185   1.000   2.800   6.807
 9436TIP3    H228186   1.140   2.817   6.862
 9437TIP3   OH228187   4.818   1.542   5.800
 9437TIP3    H128188   4.727   1.529   5.827
 9437TIP3    H228189   4.870   1.516   5.876
 9438TIP3   OH228190   6.862   0.164   0.313
 9438TIP3    H128191   6.780   0.196   0.275
 9438TIP3    H228192   6.930   0.194   0.254
 9439TIP3   OH228193   6.701   6.754   5.550
 9439TIP3    H128194   6.786   6.782   5.516
 9439TIP3    H228195   6.662   6.835   5.584
 9440TIP3   OH228196   3.766   2.530   5.398
 9440TIP3    H128197   3.742   2.484   5.479
 9440TIP3    H228198   3.713   2.609   5.398
 9441TIP3   OH228199   4.612   1.808   1.174
 9441TIP3    H128200   4.685   1.766   1.220
 9441TIP3    H228201   4.584   1.878   1.233
 9442TIP3   OH228202   4.282   3.355   5.731
 9442TIP3    H128203   4.256   3.273   5.774
 9442TIP3    H228204   4.309   3.412   5.803
 9443TIP3   OH228205   5.209   7.490   7.772
 9443TIP3    H128206   5.184   7.503   7.681
 9443TIP3    H228207   5.184   7.399   7.791
 9444TIP3   OH228208   9.463   4.085   4.058
 9444TIP3    H128209   9.382   4.051   4.096
 9444TIP3    H228210   9.436   4.162   4.008
 9445TIP3   OH228211   8.375   5.705   1.236
 9445TIP3    H128212   8.418   5.627   1.271
 9445TIP3    H228213   8.283   5.694   1.260
 9446TIP3   OH228214   2.053   2.870   4.164
 9446TIP3    H128215   1.991   2.895   4.232
 9446TIP3    H228216   2.057   2.774   4.170
 9447TIP3   OH228217   8.746   6.125   2.556
 9447TIP3    H128218   8.838   6.118   2.529
 9447TIP3    H228219   8.723   6.216   2.540
 9448TIP3   OH228220   7.615   6.648   4.320
 9448TIP3    H128221   7.523   6.676   4.326
 9448TIP3    H228222   7.647   6.653   4.410
 9449TIP3   OH228223   6.866   5.385   0.938
 9449TIP3    H128224   6.779   5.374   0.899
 9449TIP3    H228225   6.856   5.460   0.997
 9450TIP3   OH228226   5.365   8.038   4.911
 9450TIP3    H128227   5.336   8.083   4.831
 9450TIP3    H228228   5.460   8.051   4.911
 9451TIP3   OH228229   7.400   3.114   2.083
 9451TIP3    H128230   7.385   3.189   2.141
 9451TIP3    H228231   7.381   3.148   1.995
 9452TIP3   OH228232   0.145   6.617   4.006
 9452TIP3    H128233   0.171   6.675   4.077
 9452TIP3    H228234   0.122   6.676   3.934
 9453TIP3   OH228235   0.498   2.364   1.916
 9453TIP3    H128236   0.525   2.433   1.856
 9453TIP3    H228237   0.571   2.301   1.914
 9454TIP3   OH228238   6.776   6.544   6.369
 9454TIP3    H128239   6.691   6.564   6.331
 9454TIP3    H228240   6.759   6.476   6.434
 9455TIP3   OH228241   7.856   4.689   3.905
 9455TIP3    H128242   7.777   4.651   3.867
 9455TIP3    H228243   7.867   4.772   3.859
 9456TIP3   OH228244   3.906   2.891   6.832
 9456TIP3    H128245   3.988   2.843   6.819
 9456TIP3    H228246   3.881   2.921   6.745
 9457TIP3   OH228247   8.380   5.449   6.682
 9457TIP3    H128248   8.344   5.458   6.770
 9457TIP3    H228249   8.458   5.505   6.683
 9458TIP3   OH228250   1.632   2.072   7.602
 9458TIP3    H128251   1.547   2.108   7.576
 9458TIP3    H228252   1.656   2.013   7.530
 9459TIP3   OH228253   8.160   5.248   0.336
 9459TIP3    H128254   8.158   5.209   0.249
 9459TIP3    H228255   8.116   5.185   0.392
 9460TIP3   OH228256   7.067   5.252   2.064
 9460TIP3    H128257   7.109   5.313   2.004
 9460TIP3    H228258   6.998   5.303   2.106
 9461TIP3   OH228259   2.099   3.683   1.617
 9461TIP3    H128260   2.010   3.717   1.616
 9461TIP3    H228261   2.142   3.724   1.541
 9462TIP3   OH228262   0.153   5.237   5.410
 9462TIP3    H128263   0.106   5.278   5.338
 9462TIP3    H228264   0.138   5.294   5.485
 9463TIP3   OH228265   4.332   3.236   3.074
 9463TIP3    H128266   4.286   3.163   3.116
 9463TIP3    H228267   4.309   3.312   3.128
 9464TIP3   OH228268   4.564   4.383   5.179
 9464TIP3    H128269   4.648   4.425   5.195
 9464TIP3    H228270   4.534   4.420   5.096
 9465TIP3   OH228271   8.594   5.096   1.490
 9465TIP3    H128272   8.576   5.015   1.538
 9465TIP3    H228273   8.574   5.075   1.399
 9466TIP3   OH228274   2.323   6.481   1.432
 9466TIP3    H128275   2.314   6.391   1.464
 9466TIP3    H228276   2.417   6.497   1.433
 9467TIP3   OH228277   0.941   0.188   7.100
 9467TIP3    H128278   0.982   0.274   7.092
 9467TIP3    H228279   0.938   0.155   7.010
 9468TIP3   OH228280   6.831   7.691   1.287
 9468TIP3    H128281   6.790   7.744   1.356
 9468TIP3    H228282   6.757   7.658   1.236
 9469TIP3   OH228283   7.406   0.258   3.792
 9469TIP3    H128284   7.400   0.350   3.819
 9469TIP3    H228285   7.361   0.255   3.708
 9470TIP3   OH228286   0.449   8.645   6.820
 9470TIP3    H128287   0.500   8.681   6.893
 9470TIP3    H228288   0.416   8.722   6.773
 9471TIP3   OH228289   0.295   5.289   6.854
 9471TIP3    H128290   0.337   5.271   6.770
 9471TIP3    H228291   0.278   5.203   6.892
 9472TIP3   OH228292   5.802   3.495   6.095
 9472TIP3    H128293   5.853   3.533   6.167
 9472TIP3    H228294   5.865   3.442   6.047
 9473TIP3   OH228295   5.579   7.675   0.814
 9473TIP3    H128296   5.651   7.739   0.811
 9473TIP3    H228297   5.602   7.616   0.885
 9474TIP3   OH228298   7.623   3.812   1.048
 9474TIP3    H128299   7.670   3.777   1.123
 9474TIP3    H228300   7.574   3.738   1.012
 9475TIP3   OH228301   0.026   3.670   7.807
 9475TIP3    H128302   0.074   3.606   7.860
 9475TIP3    H228303   0.070   3.753   7.823
 9476TIP3   OH228304   5.132   6.843   1.775
 9476TIP3    H128305   5.119   6.851   1.869
 9476TIP3    H228306   5.227   6.843   1.763
 9477TIP3   OH228307   8.458   7.717   6.231
 9477TIP3    H128308   8.380   7.772   6.234
 9477TIP3    H228309   8.492   7.729   6.142
 9478TIP3   OH228310   6.432   4.486   2.464
 9478TIP3    H128311   6.428   4.512   2.556
 9478TIP3    H228312   6.353   4.432   2.451
 9479TIP3   OH228313   3.086   3.969   0.868
 9479TIP3    H128314   3.174   3.975   0.906
 9479TIP3    H228315   3.082   4.041   0.805
 9480TIP3   OH228316   6.715   7.512   5.005
 9480TIP3    H128317   6.732   7.563   4.926
 9480TIP3    H228318   6.784   7.446   5.007
 9481TIP3   OH228319   7.932   4.683   7.786
 9481TIP3    H128320   7.958   4.755   7.728
 9481TIP3    H228321   8.015   4.646   7.816
 9482TIP3   OH228322   3.326   0.514   2.145
 9482TIP3    H128323   3.372   0.483   2.067
 9482TIP3    H228324   3.301   0.434   2.191
 9483TIP3   OH228325   8.349   6.810   5.987
 9483TIP3    H128326   8.357   6.741   6.053
 9483TIP3    H228327   8.258   6.805   5.958
 9484TIP3   OH228328   6.405   0.444   0.746
 9484TIP3    H128329   6.469   0.414   0.810
 9484TIP3    H228330   6.447   0.431   0.661
 9485TIP3   OH228331   7.204   4.707   2.059
 9485TIP3    H128332   7.125   4.728   2.009
 9485TIP3    H228333   7.181   4.725   2.150
 9486TIP3   OH228334   5.286   0.440   1.827
 9486TIP3    H128335   5.308   0.347   1.828
 9486TIP3    H228336   5.201   0.444   1.783
 9487TIP3   OH228337   2.956   7.805   0.477
 9487TIP3    H128338   2.914   7.842   0.399
 9487TIP3    H228339   2.966   7.879   0.537
 9488TIP3   OH228340   1.850   5.539   7.788
 9488TIP3    H128341   1.848   5.616   7.731
 9488TIP3    H228342   1.764   5.499   7.776
 9489TIP3   OH228343   1.936   8.007   6.602
 9489TIP3    H128344   1.948   7.949   6.677
 9489TIP3    H228345   2.022   8.012   6.561
 9490TIP3   OH228346   1.383   2.860   0.544
 9490TIP3    H128347   1.326   2.786   0.521
 9490TIP3    H228348   1.339   2.901   0.618
 9491TIP3   OH228349   1.879   7.024   4.895
 9491TIP3    H128350   1.887   7.005   4.802
 9491TIP3    H228351   1.957   6.984   4.934
 9492TIP3   OH228352   2.735   3.188   5.590
 9492TIP3    H128353   2.747   3.262   5.531
 9492TIP3    H228354   2.648   3.200   5.627
 9493TIP3   OH228355   0.072   1.563   1.554
 9493TIP3    H128356   0.047   1.558   1.462
 9493TIP3    H228357   0.167   1.548   1.553
 9494TIP3   OH228358   7.145   4.077   7.539
 9494TIP3    H128359   7.130   4.064   7.633
 9494TIP3    H228360   7.204   4.152   7.534
 9495TIP3   OH228361   3.468   5.652   5.923
 9495TIP3    H128362   3.392   5.707   5.943
 9495TIP3    H228363   3.477   5.595   6.000
 9496TIP3   OH228364   2.190   6.953   7.430
 9496TIP3    H128365   2.123   6.911   7.376
 9496TIP3    H228366   2.141   7.014   7.485
 9497TIP3   OH228367   4.259   4.801   4.944
 9497TIP3    H128368   4.249   4.896   4.942
 9497TIP3    H228369   4.298   4.783   5.030
 9498TIP3   OH228370   0.180   5.699   5.941
 9498TIP3    H128371   0.218   5.643   6.009
 9498TIP3    H228372   0.255   5.746   5.905
 9499TIP3   OH228373   6.796   1.788   3.448
 9499TIP3    H128374   6.713   1.745   3.471
 9499TIP3    H228375   6.863   1.732   3.488
 9500TIP3   OH228376   9.379   4.569   1.823
 9500TIP3    H128377   9.362   4.493   1.767
 9500TIP3    H228378   9.295   4.614   1.828
 9501TIP3   OH228379   4.332   0.139   3.319
 9501TIP3    H128380   4.255   0.103   3.363
 9501TIP3    H228381   4.299   0.216   3.272
 9502TIP3   OH228382   8.829   2.873   1.038
 9502TIP3    H128383   8.884   2.899   0.964
 9502TIP3    H228384   8.740   2.897   1.011
 9503TIP3   OH228385   0.059   1.328   6.529
 9503TIP3    H128386   0.076   1.384   6.453
 9503TIP3    H228387  -0.036   1.318   6.530
 9504TIP3   OH228388   1.617   5.975   2.579
 9504TIP3    H128389   1.548   5.970   2.512
 9504TIP3    H228390   1.623   6.068   2.599
 9505TIP3   OH228391   8.077   8.108   6.320
 9505TIP3    H128392   8.128   8.082   6.243
 9505TIP3    H228393   8.078   8.204   6.318
 9506TIP3   OH228394   9.193   2.945   6.336
 9506TIP3    H128395   9.271   2.933   6.391
 9506TIP3    H228396   9.217   2.905   6.252
 9507TIP3   OH228397   1.808   2.755   5.206
 9507TIP3    H128398   1.753   2.813   5.259
 9507TIP3    H228399   1.818   2.676   5.259
 9508TIP3   OH228400   7.592   1.901   3.417
 9508TIP3    H128401   7.684   1.890   3.442
 9508TIP3    H228402   7.544   1.842   3.475
 9509TIP3   OH228403   1.354   0.954   4.335
 9509TIP3    H128404   1.286   0.899   4.296
 9509TIP3    H228405   1.402   0.896   4.394
 9510TIP3   OH228406   2.885   4.855   1.949
 9510TIP3    H128407   2.816   4.912   1.982
 9510TIP3    H228408   2.951   4.915   1.915
 9511TIP3   OH228409   1.289   3.027   5.341
 9511TIP3    H128410   1.267   3.119   5.356
 9511TIP3    H228411   1.351   3.029   5.268
 9512TIP3   OH228412   9.540   5.408   5.557
 9512TIP3    H128413   9.456   5.431   5.597
 9512TIP3    H228414   9.600   5.477   5.586
 9513TIP3   OH228415   9.284   1.687   2.091
 9513TIP3    H128416   9.327   1.707   2.174
 9513TIP3    H228417   9.215   1.752   2.083
 9514TIP3   OH228418   9.192   0.642   5.823
 9514TIP3    H128419   9.134   0.674   5.892
 9514TIP3    H228420   9.225   0.559   5.856
 9515TIP3   OH228421   3.458   5.200   2.103
 9515TIP3    H128422   3.458   5.179   2.009
 9515TIP3    H228423   3.426   5.290   2.107
 9516TIP3   OH228424   1.073   4.065   5.042
 9516TIP3    H128425   1.126   3.995   5.002
 9516TIP3    H228426   0.996   4.020   5.076
 9517TIP3   OH228427   3.060   3.963   1.759
 9517TIP3    H128428   3.085   3.901   1.690
 9517TIP3    H228429   3.127   3.951   1.826
 9518TIP3   OH228430   7.203   2.017   6.505
 9518TIP3    H128431   7.207   2.016   6.409
 9518TIP3    H228432   7.275   1.961   6.533
 9519TIP3   OH228433   5.682   6.018   0.223
 9519TIP3    H128434   5.719   5.932   0.245
 9519TIP3    H228435   5.676   6.017   0.128
 9520TIP3   OH228436   3.973   1.961   7.667
 9520TIP3    H128437   3.953   2.049   7.635
 9520TIP3    H228438   3.970   1.969   7.762
 9521TIP3   OH228439   0.123   7.759   5.107
 9521TIP3    H128440   0.073   7.824   5.056
 9521TIP3    H228441   0.099   7.675   5.067
 9522TIP3   OH228442   8.051   8.485   3.647
 9522TIP3    H128443   8.060   8.577   3.671
 9522TIP3    H228444   7.962   8.477   3.614
 9523TIP3   OH228445   9.451   2.408   2.661
 9523TIP3    H128446   9.427   2.347   2.731
 9523TIP3    H228447   9.468   2.491   2.705
 9524TIP3   OH228448   5.662   0.180   5.511
 9524TIP3    H128449   5.620   0.217   5.434
 9524TIP3    H228450   5.755   0.179   5.490
 9525TIP3   OH228451   0.877   0.753   3.835
 9525TIP3    H128452   0.901   0.791   3.920
 9525TIP3    H228453   0.783   0.770   3.826
 9526TIP3   OH228454   0.628   5.707   1.193
 9526TIP3    H128455   0.708   5.704   1.246
 9526TIP3    H228456   0.564   5.751   1.248
 9527TIP3   OH228457   6.693   5.258   5.705
 9527TIP3    H128458   6.702   5.199   5.630
 9527TIP3    H228459   6.778   5.301   5.711
 9528TIP3   OH228460   4.135   3.915   7.563
 9528TIP3    H128461   4.223   3.878   7.560
 9528TIP3    H228462   4.077   3.838   7.561
 9529TIP3   OH228463   5.225   5.236   7.596
 9529TIP3    H128464   5.239   5.284   7.514
 9529TIP3    H228465   5.147   5.277   7.634
 9530TIP3   OH228466   1.161   7.140   7.144
 9530TIP3    H128467   1.234   7.192   7.109
 9530TIP3    H228468   1.197   7.094   7.220
 9531TIP3   OH228469   9.440   1.793   1.891
 9531TIP3    H128470   9.428   1.875   1.939
 9531TIP3    H228471   9.403   1.726   1.948
 9532TIP3   OH228472   6.578   1.092   7.455
 9532TIP3    H128473   6.550   1.027   7.519
 9532TIP3    H228474   6.515   1.163   7.463
 9533TIP3   OH228475   4.781   3.459   2.913
 9533TIP3    H128476   4.821   3.372   2.917
 9533TIP3    H228477   4.700   3.451   2.964
 9534TIP3   OH228478   5.425   6.183   5.391
 9534TIP3    H128479   5.356   6.139   5.440
 9534TIP3    H228480   5.445   6.261   5.443
 9535TIP3   OH228481   8.968   8.213   5.567
 9535TIP3    H128482   8.916   8.132   5.577
 9535TIP3    H228483   8.990   8.216   5.474
 9536TIP3   OH228484   5.776   5.783   0.326
 9536TIP3    H128485   5.856   5.731   0.324
 9536TIP3    H228486   5.782   5.833   0.407
 9537TIP3   OH228487   4.211   3.298   0.856
 9537TIP3    H128488   4.237   3.213   0.820
 9537TIP3    H228489   4.266   3.361   0.809
 9538TIP3   OH228490   5.451   8.331   6.074
 9538TIP3    H128491   5.426   8.305   6.162
 9538TIP3    H228492   5.542   8.361   6.083
 9539TIP3   OH228493   8.566   8.454   5.002
 9539TIP3    H128494   8.601   8.369   4.974
 9539TIP3    H228495   8.584   8.457   5.096
 9540TIP3   OH228496   1.845   6.026   2.398
 9540TIP3    H128497   1.845   6.119   2.418
 9540TIP3    H228498   1.791   5.987   2.467
 9541TIP3   OH228499   6.125   6.627   5.159
 9541TIP3    H128500   6.192   6.617   5.227
 9541TIP3    H228501   6.172   6.657   5.082
 9542TIP3   OH228502   7.003   6.555   0.062
 9542TIP3    H128503   6.942   6.576   0.133
 9542TIP3    H228504   6.951   6.565  -0.018
 9543TIP3   OH228505   1.035   0.043   4.936
 9543TIP3    H128506   0.995  -0.039   4.906
 9543TIP3    H228507   1.128   0.021   4.946
 9544TIP3   OH228508   3.717   0.556   5.730
 9544TIP3    H128509   3.761   0.534   5.812
 9544TIP3    H228510   3.641   0.498   5.727
 9545TIP3   OH228511   3.325   8.953   5.232
 9545TIP3    H128512   3.260   8.923   5.295
 9545TIP3    H228513   3.373   9.022   5.277
 9546TIP3   OH228514   6.370   1.394   0.178
 9546TIP3    H128515   6.335   1.456   0.114
 9546TIP3    H228516   6.439   1.348   0.131
 9547TIP3   OH228517   2.537   4.925   6.072
 9547TIP3    H128518   2.616   4.881   6.105
 9547TIP3    H228519   2.551   4.928   5.977
 9548TIP3   OH228520   4.972   0.589   1.077
 9548TIP3    H128521   4.963   0.680   1.106
 9548TIP3    H228522   4.915   0.540   1.136
 9549TIP3   OH228523   1.140   6.608   7.170
 9549TIP3    H128524   1.177   6.521   7.155
 9549TIP3    H228525   1.204   6.668   7.132
 9550TIP3   OH228526   9.500   1.549   2.607
 9550TIP3    H128527   9.493   1.464   2.649
 9550TIP3    H228528   9.513   1.611   2.679
 9551TIP3   OH228529   1.684   4.577   3.387
 9551TIP3    H128530   1.615   4.522   3.424
 9551TIP3    H228531   1.657   4.666   3.405
 9552TIP3   OH228532   8.200   1.728   5.804
 9552TIP3    H128533   8.126   1.782   5.773
 9552TIP3    H228534   8.182   1.641   5.768
 9553TIP3   OH228535   4.422   3.220   7.556
 9553TIP3    H128536   4.511   3.231   7.591
 9553TIP3    H228537   4.432   3.234   7.461
 9554TIP3   OH228538   8.450   1.128   4.491
 9554TIP3    H128539   8.364   1.164   4.513
 9554TIP3    H228540   8.437   1.033   4.491
 9555TIP3   OH228541   3.131   6.123   4.807
 9555TIP3    H128542   3.120   6.033   4.776
 9555TIP3    H228543   3.222   6.128   4.836
 9556TIP3   OH228544   5.428   2.346   5.758
 9556TIP3    H128545   5.473   2.371   5.677
 9556TIP3    H228546   5.359   2.412   5.768
 9557TIP3   OH228547   8.257   2.263   7.297
 9557TIP3    H128548   8.343   2.222   7.284
 9557TIP3    H228549   8.218   2.264   7.210
 9558TIP3   OH228550   5.541   1.724   0.108
 9558TIP3    H128551   5.463   1.668   0.119
 9558TIP3    H228552   5.525   1.799   0.165
 9559TIP3   OH228553   3.673   2.952   2.630
 9559TIP3    H128554   3.635   2.972   2.545
 9559TIP3    H228555   3.767   2.962   2.617
 9560TIP3   OH228556   7.343   5.987   3.437
 9560TIP3    H128557   7.382   5.959   3.520
 9560TIP3    H228558   7.277   5.921   3.418
 9561TIP3   OH228559   3.893   1.678   5.439
 9561TIP3    H128560   3.885   1.754   5.381
 9561TIP3    H228561   3.845   1.609   5.394
 9562TIP3   OH228562   8.747   3.825   6.655
 9562TIP3    H128563   8.806   3.852   6.585
 9562TIP3    H228564   8.789   3.747   6.691
 9563TIP3   OH228565   9.290   6.695   5.739
 9563TIP3    H128566   9.266   6.776   5.694
 9563TIP3    H228567   9.303   6.721   5.830
 9564TIP3   OH228568   4.172   1.868   1.937
 9564TIP3    H128569   4.238   1.918   1.983
 9564TIP3    H228570   4.191   1.882   1.844
 9565TIP3   OH228571   8.873   0.141   7.657
 9565TIP3    H128572   8.783   0.108   7.666
 9565TIP3    H228573   8.890   0.138   7.562
 9566TIP3   OH228574   7.061   6.646   1.626
 9566TIP3    H128575   7.130   6.686   1.679
 9566TIP3    H228576   7.016   6.720   1.585
 9567TIP3   OH228577   1.702   5.872   7.528
 9567TIP3    H128578   1.626   5.900   7.476
 9567TIP3    H228579   1.671   5.875   7.619
 9568TIP3   OH228580   7.074   4.022   2.890
 9568TIP3    H128581   7.041   4.078   2.820
 9568TIP3    H228582   7.145   4.072   2.930
 9569TIP3   OH228583   0.299   2.256   3.546
 9569TIP3    H128584   0.294   2.339   3.497
 9569TIP3    H228585   0.367   2.206   3.501
 9570TIP3   OH228586   1.776   2.468   5.261
 9570TIP3    H128587   1.844   2.424   5.209
 9570TIP3    H228588   1.694   2.439   5.221
 9571TIP3   OH228589   2.159   7.063   2.240
 9571TIP3    H128590   2.219   7.137   2.236
 9571TIP3    H228591   2.072   7.104   2.247
 9572TIP3   OH228592   1.314   8.106   3.415
 9572TIP3    H128593   1.340   8.092   3.506
 9572TIP3    H228594   1.288   8.198   3.411
 9573TIP3   OH228595   2.307   5.796   3.904
 9573TIP3    H128596   2.399   5.823   3.908
 9573TIP3    H228597   2.296   5.762   3.815
 9574TIP3   OH228598   1.329   8.432   5.467
 9574TIP3    H128599   1.277   8.498   5.512
 9574TIP3    H228600   1.401   8.413   5.528
 9575TIP3   OH228601   0.123   2.801   1.431
 9575TIP3    H128602   0.170   2.881   1.452
 9575TIP3    H228603   0.126   2.796   1.335
 9576TIP3   OH228604   5.012   1.787   0.844
 9576TIP3    H128605   4.989   1.819   0.931
 9576TIP3    H228606   4.957   1.838   0.785
 9577TIP3   OH228607   3.499   6.901   2.599
 9577TIP3    H128608   3.582   6.902   2.550
 9577TIP3    H228609   3.477   6.994   2.611
 9578TIP3   OH228610   3.788   7.377   6.839
 9578TIP3    H128611   3.782   7.471   6.858
 9578TIP3    H228612   3.785   7.371   6.744
 9579TIP3   OH228613   4.423   2.644   3.435
 9579TIP3    H128614   4.342   2.595   3.417
 9579TIP3    H228615   4.477   2.584   3.485
 9580TIP3   OH228616   2.294   0.555   4.177
 9580TIP3    H128617   2.258   0.635   4.216
 9580TIP3    H228618   2.348   0.586   4.104
 9581TIP3   OH228619   9.102   3.866   2.312
 9581TIP3    H128620   9.149   3.800   2.362
 9581TIP3    H228621   9.011   3.858   2.342
 9582TIP3   OH228622   5.802   8.166   6.162
 9582TIP3    H128623   5.766   8.255   6.164
 9582TIP3    H228624   5.893   8.176   6.189
 9583TIP3   OH228625   1.085   6.448   4.977
 9583TIP3    H128626   1.052   6.412   4.894
 9583TIP3    H228627   1.166   6.401   4.994
 9584TIP3   OH228628   6.811   4.241   3.557
 9584TIP3    H128629   6.784   4.185   3.484
 9584TIP3    H228630   6.905   4.253   3.545
 9585TIP3   OH228631   8.441   7.938   1.379
 9585TIP3    H128632   8.495   7.963   1.454
 9585TIP3    H228633   8.430   7.843   1.388
 9586TIP3   OH228634   2.925   3.588   6.175
 9586TIP3    H128635   2.877   3.624   6.100
 9586TIP3    H228636   2.937   3.662   6.234
 9587TIP3   OH228637   3.819   4.804   3.091
 9587TIP3    H128638   3.829   4.865   3.018
 9587TIP3    H228639   3.826   4.858   3.170
 9588TIP3   OH228640   2.794   6.035   4.083
 9588TIP3    H128641   2.863   5.979   4.118
 9588TIP3    H228642   2.713   5.998   4.118
 9589TIP3   OH228643   9.500   4.621   0.074
 9589TIP3    H128644   9.552   4.700   0.087
 9589TIP3    H228645   9.428   4.649   0.017
 9590TIP3   OH228646   3.144   0.893   4.544
 9590TIP3    H128647   3.208   0.887   4.614
 9590TIP3    H228648   3.173   0.967   4.491
 9591TIP3   OH228649   4.478   5.173   1.083
 9591TIP3    H128650   4.388   5.140   1.082
 9591TIP3    H228651   4.494   5.199   1.174
 9592TIP3   OH228652   0.873   3.684   0.367
 9592TIP3    H128653   0.913   3.767   0.396
 9592TIP3    H228654   0.940   3.644   0.311
 9593TIP3   OH228655   6.067   2.012   6.243
 9593TIP3    H128656   6.041   2.033   6.332
 9593TIP3    H228657   6.102   1.923   6.248
 9594TIP3   OH228658   1.732   3.947   1.396
 9594TIP3    H128659   1.814   3.995   1.410
 9594TIP3    H228660   1.761   3.863   1.358
 9595TIP3   OH228661   7.420   8.133   5.815
 9595TIP3    H128662   7.339   8.105   5.858
 9595TIP3    H228663   7.464   8.051   5.792
 9596TIP3   OH228664   8.084   8.134   2.040
 9596TIP3    H128665   8.165   8.186   2.041
 9596TIP3    H228666   8.114   8.043   2.044
 9597TIP3   OH228667   3.455   5.904   0.216
 9597TIP3    H128668   3.502   5.954   0.282
 9597TIP3    H228669   3.522   5.853   0.172
 9598TIP3   OH228670   4.451   5.680   4.176
 9598TIP3    H128671   4.527   5.734   4.154
 9598TIP3    H228672   4.375   5.733   4.152
 9599TIP3   OH228673   5.401   8.484   0.469
 9599TIP3    H128674   5.364   8.569   0.446
 9599TIP3    H228675   5.325   8.428   0.484
 9600TIP3   OH228676   7.045   4.754   1.366
 9600TIP3    H128677   7.076   4.774   1.278
 9600TIP3    H228678   6.952   4.773   1.364
 9601TIP3   OH228679   6.280   0.104   2.019
 9601TIP3    H128680   6.220   0.080   2.090
 9601TIP3    H228681   6.224   0.107   1.941
 9602TIP3   OH228682   1.409   2.406   3.957
 9602TIP3    H128683   1.324   2.413   3.914
 9602TIP3    H228684   1.388   2.382   4.047
 9603TIP3   OH228685   2.588   7.684   3.142
 9603TIP3    H128686   2.514   7.653   3.090
 9603TIP3    H228687   2.548   7.740   3.209
 9604TIP3   OH228688   6.002   4.384   5.393
 9604TIP3    H128689   5.927   4.436   5.423
 9604TIP3    H228690   6.044   4.439   5.327
 9605TIP3   OH228691   4.564   0.905   6.888
 9605TIP3    H128692   4.519   0.909   6.973
 9605TIP3    H228693   4.613   0.987   6.884
 9606TIP3   OH228694   2.424   8.775   6.778
 9606TIP3    H128695   2.458   8.797   6.691
 9606TIP3    H228696   2.501   8.743   6.826
 9607TIP3   OH228697   9.541   4.578   0.699
 9607TIP3    H128698   9.553   4.568   0.604
 9607TIP3    H228699   9.617   4.628   0.728
 9608TIP3   OH228700   6.569   6.575   3.418
 9608TIP3    H128701   6.607   6.614   3.497
 9608TIP3    H228702   6.498   6.635   3.394
 9609TIP3   OH228703   7.455   4.473   1.567
 9609TIP3    H128704   7.411   4.453   1.485
 9609TIP3    H228705   7.384   4.497   1.627
 9610TIP3   OH228706   6.844   4.759   5.419
 9610TIP3    H128707   6.757   4.762   5.381
 9610TIP3    H228708   6.835   4.703   5.496
 9611TIP3   OH228709   1.211   7.003   7.388
 9611TIP3    H128710   1.155   6.933   7.423
 9611TIP3    H228711   1.240   7.052   7.465
 9612TIP3   OH228712   6.470   8.773   5.718
 9612TIP3    H128713   6.544   8.715   5.698
 9612TIP3    H228714   6.420   8.726   5.784
 9613TIP3   OH228715   3.693   1.795   3.957
 9613TIP3    H128716   3.669   1.821   3.868
 9613TIP3    H228717   3.740   1.712   3.947
 9614TIP3   OH228718   3.447   7.367   3.085
 9614TIP3    H128719   3.506   7.409   3.147
 9614TIP3    H228720   3.502   7.349   3.008
 9615TIP3   OH228721   4.120   5.797   0.852
 9615TIP3    H128722   4.123   5.873   0.794
 9615TIP3    H228723   4.034   5.758   0.835
 9616TIP3   OH228724   5.227   3.590   7.271
 9616TIP3    H128725   5.292   3.573   7.339
 9616TIP3    H228726   5.251   3.531   7.200
 9617TIP3   OH228727   6.892   1.313   3.422
 9617TIP3    H128728   6.906   1.219   3.417
 9617TIP3    H228729   6.855   1.327   3.510
 9618TIP3   OH228730   6.098   2.134   5.576
 9618TIP3    H128731   6.076   2.042   5.592
 9618TIP3    H228732   6.117   2.169   5.663
 9619TIP3   OH228733   1.433   0.148   5.879
 9619TIP3    H128734   1.391   0.224   5.839
 9619TIP3    H228735   1.523   0.176   5.895
 9620TIP3   OH228736   0.311   5.046   7.031
 9620TIP3    H128737   0.385   4.992   7.004
 9620TIP3    H228738   0.275   5.000   7.107
 9621TIP3   OH228739   4.452   2.356   2.261
 9621TIP3    H128740   4.531   2.329   2.214
 9621TIP3    H228741   4.468   2.331   2.352
 9622TIP3   OH228742   4.464   3.375   2.238
 9622TIP3    H128743   4.487   3.301   2.182
 9622TIP3    H228744   4.544   3.426   2.245
 9623TIP3   OH228745   3.663   4.947   5.911
 9623TIP3    H128746   3.610   4.948   5.990
 9623TIP3    H228747   3.753   4.938   5.942
 9624TIP3   OH228748   1.781   6.040   1.671
 9624TIP3    H128749   1.760   6.082   1.755
 9624TIP3    H228750   1.697   6.037   1.624
 9625TIP3   OH228751   5.167   0.777   4.400
 9625TIP3    H128752   5.202   0.707   4.345
 9625TIP3    H228753   5.234   0.791   4.467
 9626TIP3   OH228754   2.396   1.976   4.402
 9626TIP3    H128755   2.467   1.912   4.398
 9626TIP3    H228756   2.370   1.988   4.311
 9627TIP3   OH228757   5.845   8.193   2.193
 9627TIP3    H128758   5.891   8.123   2.238
 9627TIP3    H228759   5.826   8.258   2.261
 9628TIP3   OH228760   8.088   2.237   7.042
 9628TIP3    H128761   8.032   2.314   7.031
 9628TIP3    H228762   8.029   2.170   7.077
 9629TIP3   OH228763   7.757   0.122   7.208
 9629TIP3    H128764   7.814   0.069   7.152
 9629TIP3    H228765   7.790   0.212   7.198
 9630TIP3   OH228766   7.724   8.513   2.712
 9630TIP3    H128767   7.725   8.435   2.657
 9630TIP3    H228768   7.783   8.492   2.785
 9631TIP3   OH228769   2.761   6.693   3.937
 9631TIP3    H128770   2.707   6.617   3.919
 9631TIP3    H228771   2.744   6.714   4.029
 9632TIP3   OH228772   9.121   1.293   4.325
 9632TIP3    H128773   9.112   1.201   4.299
 9632TIP3    H228774   9.093   1.294   4.417
 9633TIP3   OH228775   1.363   5.550   1.693
 9633TIP3    H128776   1.311   5.626   1.717
 9633TIP3    H228777   1.308   5.475   1.715
 9634TIP3   OH228778   7.648   2.414   5.901
 9634TIP3    H128779   7.654   2.457   5.986
 9634TIP3    H228780   7.705   2.466   5.844
 9635TIP3   OH228781   8.802   7.092   6.622
 9635TIP3    H128782   8.826   7.089   6.715
 9635TIP3    H228783   8.876   7.133   6.579
 9636TIP3   OH228784   0.285   0.553   7.027
 9636TIP3    H128785   0.348   0.542   7.099
 9636TIP3    H228786   0.306   0.637   6.988
 9637TIP3   OH228787   7.822   5.293   7.354
 9637TIP3    H128788   7.867   5.249   7.426
 9637TIP3    H228789   7.738   5.248   7.348
 9638TIP3   OH228790   6.331   6.608   5.353
 9638TIP3    H128791   6.310   6.693   5.393
 9638TIP3    H228792   6.409   6.578   5.399
 9639TIP3   OH228793   5.461   7.464   4.395
 9639TIP3    H128794   5.454   7.372   4.369
 9639TIP3    H228795   5.426   7.467   4.484
 9640TIP3   OH228796   8.251   3.654   1.220
 9640TIP3    H128797   8.288   3.568   1.238
 9640TIP3    H228798   8.210   3.646   1.134
 9641TIP3   OH228799   2.503   6.512   7.155
 9641TIP3    H128800   2.492   6.589   7.099
 9641TIP3    H228801   2.429   6.455   7.133
 9642TIP3   OH228802   3.489   8.604   0.552
 9642TIP3    H128803   3.558   8.616   0.488
 9642TIP3    H228804   3.443   8.688   0.554
 9643TIP3   OH228805   6.008   5.812   1.851
 9643TIP3    H128806   6.103   5.821   1.851
 9643TIP3    H228807   5.976   5.898   1.820
 9644TIP3   OH228808   7.611   0.609   1.178
 9644TIP3    H128809   7.597   0.545   1.109
 9644TIP3    H228810   7.526   0.617   1.221
 9645TIP3   OH228811   7.127   8.931   7.810
 9645TIP3    H128812   7.181   8.920   7.889
 9645TIP3    H228813   7.088   9.017   7.820
 9646TIP3   OH228814   0.352   5.547   5.353
 9646TIP3    H128815   0.437   5.575   5.320
 9646TIP3    H228816   0.360   5.452   5.362
 9647TIP3   OH228817   8.121   0.623   0.864
 9647TIP3    H128818   8.101   0.576   0.783
 9647TIP3    H228819   8.041   0.672   0.884
 9648TIP3   OH228820   1.522   3.136   4.209
 9648TIP3    H128821   1.612   3.145   4.239
 9648TIP3    H228822   1.478   3.216   4.240
 9649TIP3   OH228823   1.555   4.287   5.562
 9649TIP3    H128824   1.574   4.210   5.615
 9649TIP3    H228825   1.557   4.360   5.624
 9650TIP3   OH228826   2.917   7.459   3.073
 9650TIP3    H128827   2.841   7.504   3.036
 9650TIP3    H228828   2.880   7.398   3.137
 9651TIP3   OH228829   3.776   1.238   5.971
 9651TIP3    H128830   3.842   1.305   5.953
 9651TIP3    H228831   3.696   1.273   5.931
 9652TIP3   OH228832   9.223   8.984   7.567
 9652TIP3    H128833   9.238   9.077   7.580
 9652TIP3    H228834   9.273   8.941   7.637
 9653TIP3   OH228835   2.940   4.481   1.995
 9653TIP3    H128836   2.906   4.401   1.955
 9653TIP3    H228837   2.998   4.518   1.929
 9654TIP3   OH228838   1.355   1.262   3.018
 9654TIP3    H128839   1.447   1.234   3.020
 9654TIP3    H228840   1.343   1.301   2.932
 9655TIP3   OH228841   1.221   3.531   2.777
 9655TIP3    H128842   1.227   3.559   2.686
 9655TIP3    H228843   1.277   3.592   2.825
 9656TIP3   OH228844   1.498   5.493   6.754
 9656TIP3    H128845   1.593   5.502   6.745
 9656TIP3    H228846   1.486   5.437   6.831
 9657TIP3   OH228847   5.183   1.680   7.404
 9657TIP3    H128848   5.245   1.617   7.367
 9657TIP3    H228849   5.126   1.702   7.330
 9658TIP3   OH228850   1.829   2.019   1.924
 9658TIP3    H128851   1.761   1.985   1.981
 9658TIP3    H228852   1.849   2.106   1.958
 9659TIP3   OH228853   5.654   5.473   3.401
 9659TIP3    H128854   5.729   5.465   3.343
 9659TIP3    H228855   5.647   5.567   3.418
 9660TIP3   OH228856   7.392   8.889   1.004
 9660TIP3    H128857   7.442   8.833   1.064
 9660TIP3    H228858   7.354   8.828   0.941
 9661TIP3   OH228859   3.201   3.804   7.089
 9661TIP3    H128860   3.244   3.726   7.054
 9661TIP3    H228861   3.271   3.869   7.094
 9662TIP3   OH228862   4.970   8.559   7.030
 9662TIP3    H128863   4.979   8.528   6.940
 9662TIP3    H228864   4.908   8.632   7.024
 9663TIP3   OH228865   8.021   1.262   7.643
 9663TIP3    H128866   8.055   1.285   7.557
 9663TIP3    H228867   8.096   1.227   7.690
 9664TIP3   OH228868   5.828   2.172   5.495
 9664TIP3    H128869   5.919   2.165   5.525
 9664TIP3    H228870   5.799   2.081   5.484
 9665TIP3   OH228871   2.986   0.031   7.047
 9665TIP3    H128872   2.950   0.001   7.130
 9665TIP3    H228873   2.921   0.092   7.013
 9666TIP3   OH228874   6.507   3.953   6.438
 9666TIP3    H128875   6.416   3.924   6.439
 9666TIP3    H228876   6.555   3.877   6.405
 9667TIP3   OH228877   6.841   7.083   3.590
 9667TIP3    H128878   6.905   7.075   3.662
 9667TIP3    H228879   6.872   7.157   3.539
 9668TIP3   OH228880   8.538   7.337   0.216
 9668TIP3    H128881   8.523   7.395   0.142
 9668TIP3    H228882   8.570   7.256   0.177
 9669TIP3   OH228883   5.466   0.251   0.432
 9669TIP3    H128884   5.522   0.271   0.357
 9669TIP3    H228885   5.384   0.297   0.413
 9670TIP3   OH228886   5.980   4.473   6.268
 9670TIP3    H128887   5.985   4.567   6.253
 9670TIP3    H228888   6.027   4.460   6.350
 9671TIP3   OH228889   7.165   6.122   0.163
 9671TIP3    H128890   7.234   6.154   0.105
 9671TIP3    H228891   7.084   6.147   0.118
 9672TIP3   OH228892   9.524   0.867   5.546
 9672TIP3    H128893   9.540   0.818   5.466
 9672TIP3    H228894   9.440   0.835   5.578
 9673TIP3   OH228895   6.842   4.010   0.848
 9673TIP3    H128896   6.932   4.008   0.882
 9673TIP3    H228897   6.844   4.074   0.778
 9674TIP3   OH228898   2.348   1.538   0.829
 9674TIP3    H128899   2.373   1.572   0.915
 9674TIP3    H228900   2.306   1.455   0.848
 9675TIP3   OH228901   4.829   2.082   1.884
 9675TIP3    H128902   4.853   1.989   1.881
 9675TIP3    H228903   4.785   2.099   1.801
 9676TIP3   OH228904   3.802   2.622   1.206
 9676TIP3    H128905   3.722   2.571   1.195
 9676TIP3    H228906   3.812   2.631   1.301
 9677TIP3   OH228907   2.555   6.265   7.668
 9677TIP3    H128908   2.472   6.266   7.621
 9677TIP3    H228909   2.622   6.265   7.599
 9678TIP3   OH228910   9.086   1.402   3.295
 9678TIP3    H128911   8.996   1.385   3.319
 9678TIP3    H228912   9.116   1.322   3.253
 9679TIP3   OH228913   5.929   4.481   7.723
 9679TIP3    H128914   5.988   4.553   7.746
 9679TIP3    H228915   5.968   4.404   7.764
 9680TIP3   OH228916   6.211   6.887   7.464
 9680TIP3    H128917   6.157   6.832   7.407
 9680TIP3    H228918   6.171   6.974   7.457
 9681TIP3   OH228919   2.059   0.096   3.516
 9681TIP3    H128920   2.050   0.172   3.574
 9681TIP3    H228921   2.151   0.100   3.486
 9682TIP3   OH228922   2.879   8.809   6.905
 9682TIP3    H128923   2.865   8.716   6.926
 9682TIP3    H228924   2.967   8.811   6.866
 9683TIP3   OH228925   1.666   7.806   2.858
 9683TIP3    H128926   1.643   7.719   2.891
 9683TIP3    H228927   1.603   7.865   2.899
 9684TIP3   OH228928   5.354   8.155   2.680
 9684TIP3    H128929   5.440   8.188   2.653
 9684TIP3    H228930   5.310   8.131   2.598
 9685TIP3   OH228931   6.630   8.959   6.586
 9685TIP3    H128932   6.539   8.936   6.606
 9685TIP3    H228933   6.643   8.928   6.496
 9686TIP3   OH228934   1.414   2.465   4.903
 9686TIP3    H128935   1.332   2.461   4.951
 9686TIP3    H228936   1.419   2.381   4.857
 9687TIP3   OH228937   5.998   0.443   4.906
 9687TIP3    H128938   5.965   0.533   4.901
 9687TIP3    H228939   5.920   0.388   4.899
 9688TIP3   OH228940   4.703   7.440   7.576
 9688TIP3    H128941   4.620   7.487   7.581
 9688TIP3    H228942   4.765   7.495   7.625
 9689TIP3   OH228943   2.966   1.510   0.408
 9689TIP3    H128944   2.895   1.537   0.349
 9689TIP3    H228945   3.046   1.537   0.363
 9690TIP3   OH228946   2.745   8.994   0.860
 9690TIP3    H128947   2.655   8.968   0.881
 9690TIP3    H228948   2.765   9.065   0.920
 9691TIP3   OH228949   7.630   4.169   0.334
 9691TIP3    H128950   7.653   4.128   0.251
 9691TIP3    H228951   7.630   4.096   0.397
 9692TIP3   OH228952   5.864   2.557   2.405
 9692TIP3    H128953   5.788   2.526   2.453
 9692TIP3    H228954   5.881   2.644   2.441
 9693TIP3   OH228955   1.802   1.512   2.919
 9693TIP3    H128956   1.797   1.439   2.857
 9693TIP3    H228957   1.857   1.480   2.990
 9694TIP3   OH228958   2.557   8.601   3.506
 9694TIP3    H128959   2.576   8.648   3.425
 9694TIP3    H228960   2.586   8.660   3.576
 9695TIP3   OH228961   9.114   8.294   7.236
 9695TIP3    H128962   9.113   8.212   7.186
 9695TIP3    H228963   9.206   8.320   7.237
 9696TIP3   OH228964   1.610   0.737   7.691
 9696TIP3    H128965   1.640   0.686   7.767
 9696TIP3    H228966   1.678   0.803   7.678
 9697TIP3   OH228967   7.712   7.644   0.257
 9697TIP3    H128968   7.801   7.660   0.227
 9697TIP3    H228969   7.672   7.590   0.188
 9698TIP3   OH228970   7.735   6.740   3.425
 9698TIP3    H128971   7.664   6.757   3.364
 9698TIP3    H228972   7.694   6.739   3.511
 9699TIP3   OH228973   1.660   8.551   3.375
 9699TIP3    H128974   1.582   8.585   3.332
 9699TIP3    H228975   1.673   8.464   3.337
 9700TIP3   OH228976   2.374   2.847   0.277
 9700TIP3    H128977   2.301   2.790   0.301
 9700TIP3    H228978   2.339   2.903   0.209
 9701TIP3   OH228979   9.138   4.925   2.981
 9701TIP3    H128980   9.143   4.977   2.901
 9701TIP3    H228981   9.052   4.946   3.018
 9702TIP3   OH228982   0.284   1.117   7.381
 9702TIP3    H128983   0.361   1.170   7.401
 9702TIP3    H228984   0.210   1.176   7.392
 9703TIP3   OH228985   5.457   8.920   2.050
 9703TIP3    H128986   5.401   8.962   1.985
 9703TIP3    H228987   5.490   8.993   2.104
 9704TIP3   OH228988   8.633   0.016   7.635
 9704TIP3    H128989   8.580   0.072   7.692
 9704TIP3    H228990   8.570  -0.046   7.598
 9705TIP3   OH228991   4.243   3.112   1.263
 9705TIP3    H128992   4.265   3.042   1.201
 9705TIP3    H228993   4.295   3.187   1.235
 9706TIP3   OH228994   4.067   2.508   6.792
 9706TIP3    H128995   4.140   2.450   6.812
 9706TIP3    H228996   3.993   2.471   6.839
 9707TIP3   OH228997   7.791   1.896   3.926
 9707TIP3    H128998   7.789   1.971   3.866
 9707TIP3    H228999   7.703   1.894   3.964
 9708TIP3   OH229000   6.583   1.486   5.550
 9708TIP3    H129001   6.621   1.408   5.511
 9708TIP3    H229002   6.651   1.520   5.608
 9709TIP3   OH229003   7.972   4.045   2.745
 9709TIP3    H129004   7.991   4.116   2.684
 9709TIP3    H229005   7.926   4.087   2.818
 9710TIP3   OH229006   1.185   0.783   7.037
 9710TIP3    H129007   1.129   0.761   6.963
 9710TIP3    H229008   1.127   0.828   7.098
 9711TIP3   OH229009   6.527   4.822   0.392
 9711TIP3    H129010   6.437   4.839   0.365
 9711TIP3    H229011   6.521   4.791   0.482
 9712TIP3   OH229012   8.722   7.120   7.748
 9712TIP3    H129013   8.724   7.127   7.843
 9712TIP3    H229014   8.803   7.163   7.719
 9713TIP3   OH229015   7.375   4.476   0.005
 9713TIP3    H129016   7.428   4.466  -0.074
 9713TIP3    H229017   7.431   4.526   0.065
 9714TIP3   OH229018   1.416   8.834   3.959
 9714TIP3    H129019   1.387   8.751   3.996
 9714TIP3    H229020   1.447   8.884   4.034
 9715TIP3   OH229021   7.977   3.078   1.923
 9715TIP3    H129022   7.945   3.158   1.965
 9715TIP3    H229023   7.953   3.008   1.984
 9716TIP3   OH229024   6.930   5.383   0.328
 9716TIP3    H129025   6.949   5.422   0.242
 9716TIP3    H229026   7.016   5.363   0.364
 9717TIP3   OH229027   2.789   5.647   0.547
 9717TIP3    H129028   2.776   5.668   0.640
 9717TIP3    H229029   2.701   5.628   0.514
 9718TIP3   OH229030   3.203   5.038   1.009
 9718TIP3    H129031   3.206   5.114   1.067
 9718TIP3    H229032   3.272   4.980   1.042
 9719TIP3   OH229033   0.820   1.162   2.938
 9719TIP3    H129034   0.895   1.175   2.995
 9719TIP3    H229035   0.850   1.193   2.852
 9720TIP3   OH229036   0.038   4.708   3.919
 9720TIP3    H129037   0.048   4.801   3.941
 9720TIP3    H229038   0.043   4.705   3.824
 9721TIP3   OH229039   2.464   5.364   3.148
 9721TIP3    H129040   2.374   5.335   3.135
 9721TIP3    H229041   2.510   5.287   3.181
 9722TIP3   OH229042   1.906   4.284   3.768
 9722TIP3    H129043   1.892   4.352   3.703
 9722TIP3    H229044   1.885   4.202   3.723
 9723TIP3   OH229045   0.626   5.402   1.104
 9723TIP3    H129046   0.599   5.494   1.106
 9723TIP3    H229047   0.718   5.405   1.077
 9724TIP3   OH229048   5.119   6.461   5.578
 9724TIP3    H129049   5.170   6.418   5.647
 9724TIP3    H229050   5.044   6.499   5.624
 9725TIP3   OH229051   5.707   2.934   4.996
 9725TIP3    H129052   5.697   3.019   4.952
 9725TIP3    H229053   5.775   2.889   4.946
 9726TIP3   OH229054   4.307   8.511   1.287
 9726TIP3    H129055   4.278   8.474   1.370
 9726TIP3    H229056   4.394   8.475   1.273
 9727TIP3   OH229057   5.139   0.939   7.117
 9727TIP3    H129058   5.201   0.891   7.172
 9727TIP3    H229059   5.092   0.996   7.178
 9728TIP3   OH229060   0.542   3.272   1.351
 9728TIP3    H129061   0.636   3.285   1.361
 9728TIP3    H229062   0.509   3.355   1.318
 9729TIP3   OH229063   6.501   0.300   7.407
 9729TIP3    H129064   6.409   0.274   7.406
 9729TIP3    H229065   6.523   0.306   7.499
 9730TIP3   OH229066   0.947   4.887   2.892
 9730TIP3    H129067   0.905   4.802   2.884
 9730TIP3    H229068   1.014   4.887   2.823
 9731TIP3   OH229069   7.743   2.190   4.125
 9731TIP3    H129070   7.778   2.160   4.041
 9731TIP3    H229071   7.652   2.211   4.108
 9732TIP3   OH229072   4.134   0.811   0.369
 9732TIP3    H129073   4.109   0.754   0.442
 9732TIP3    H229074   4.226   0.790   0.353
 9733TIP3   OH229075   7.661   9.016   1.507
 9733TIP3    H129076   7.667   9.009   1.411
 9733TIP3    H229077   7.682   9.107   1.526
 9734TIP3   OH229078   5.766   5.001   2.947
 9734TIP3    H129079   5.700   5.047   2.895
 9734TIP3    H229080   5.850   5.032   2.912
 9735TIP3   OH229081   1.626   0.383   5.172
 9735TIP3    H129082   1.652   0.461   5.124
 9735TIP3    H229083   1.532   0.374   5.156
 9736TIP3   OH229084   7.223   3.526   5.634
 9736TIP3    H129085   7.165   3.505   5.707
 9736TIP3    H229086   7.216   3.621   5.625
 9737TIP3   OH229087   8.305   7.871   2.934
 9737TIP3    H129088   8.301   7.782   2.971
 9737TIP3    H229089   8.323   7.927   3.009
 9738TIP3   OH229090   6.214   4.709   6.890
 9738TIP3    H129091   6.192   4.635   6.946
 9738TIP3    H229092   6.133   4.760   6.887
 9739TIP3   OH229093   4.366   8.398   0.214
 9739TIP3    H129094   4.299   8.357   0.160
 9739TIP3    H229095   4.448   8.354   0.189
 9740TIP3   OH229096   5.634   5.915   6.516
 9740TIP3    H129097   5.695   5.913   6.590
 9740TIP3    H229098   5.572   5.984   6.539
 9741TIP3   OH229099   0.972   3.448   7.411
 9741TIP3    H129100   1.054   3.488   7.381
 9741TIP3    H229101   0.903   3.497   7.367
 9742TIP3   OH229102   5.422   2.912   0.531
 9742TIP3    H129103   5.409   2.855   0.606
 9742TIP3    H229104   5.377   2.993   0.553
 9743TIP3   OH229105   0.112   6.634   5.998
 9743TIP3    H129106   0.067   6.705   5.954
 9743TIP3    H229107   0.193   6.623   5.949
 9744TIP3   OH229108   8.935   0.845   7.436
 9744TIP3    H129109   9.024   0.879   7.450
 9744TIP3    H229110   8.886   0.876   7.512
 9745TIP3   OH229111   5.944   8.421   0.529
 9745TIP3    H129112   5.983   8.360   0.592
 9745TIP3    H229113   5.860   8.381   0.505
 9746TIP3   OH229114   8.048   3.107   0.650
 9746TIP3    H129115   8.018   3.016   0.646
 9746TIP3    H229116   7.991   3.148   0.716
 9747TIP3   OH229117   8.753   6.406   3.552
 9747TIP3    H129118   8.741   6.314   3.530
 9747TIP3    H229119   8.695   6.453   3.492
 9748TIP3   OH229120   2.375   0.854   4.786
 9748TIP3    H129121   2.389   0.923   4.851
 9748TIP3    H229122   2.349   0.778   4.837
 9749TIP3   OH229123   3.436   1.565   0.538
 9749TIP3    H129124   3.379   1.557   0.462
 9749TIP3    H229125   3.513   1.612   0.505
 9750TIP3   OH229126   6.367   2.576   5.121
 9750TIP3    H129127   6.399   2.489   5.095
 9750TIP3    H229128   6.445   2.631   5.118
 9751TIP3   OH229129   8.860   1.630   7.237
 9751TIP3    H129130   8.794   1.576   7.192
 9751TIP3    H229131   8.900   1.682   7.167
 9752TIP3   OH229132   2.887   7.645   4.371
 9752TIP3    H129133   2.935   7.637   4.454
 9752TIP3    H229134   2.934   7.714   4.323
 9753TIP3   OH229135   8.109   5.642   5.087
 9753TIP3    H129136   8.121   5.551   5.115
 9753TIP3    H229137   8.140   5.644   4.996
 9754TIP3   OH229138   2.424   6.773   3.241
 9754TIP3    H129139   2.506   6.768   3.192
 9754TIP3    H229140   2.387   6.858   3.219
 9755TIP3   OH229141   8.691   1.851   1.490
 9755TIP3    H129142   8.772   1.869   1.537
 9755TIP3    H229143   8.700   1.761   1.460
 9756TIP3   OH229144   3.653   3.152   4.795
 9756TIP3    H129145   3.660   3.194   4.709
 9756TIP3    H229146   3.675   3.221   4.857
 9757TIP3   OH229147   6.205   0.096   0.169
 9757TIP3    H129148   6.220   0.002   0.176
 9757TIP3    H229149   6.288   0.131   0.136
 9758TIP3   OH229150   6.289   8.732   0.473
 9758TIP3    H129151   6.228   8.791   0.428
 9758TIP3    H229152   6.267   8.645   0.439
 9759TIP3   OH229153   8.221   7.488   1.940
 9759TIP3    H129154   8.236   7.552   1.870
 9759TIP3    H229155   8.260   7.529   2.018
 9760TIP3   OH229156   2.416   3.584   6.575
 9760TIP3    H129157   2.392   3.549   6.661
 9760TIP3    H229158   2.492   3.639   6.592
 9761TIP3   OH229159   1.019   3.368   4.374
 9761TIP3    H129160   0.993   3.291   4.425
 9761TIP3    H229161   1.104   3.394   4.411
 9762TIP3   OH229162   4.685   7.366   6.724
 9762TIP3    H129163   4.624   7.431   6.758
 9762TIP3    H229164   4.767   7.413   6.713
 9763TIP3   OH229165   3.269   7.851   2.665
 9763TIP3    H129166   3.365   7.848   2.662
 9763TIP3    H229167   3.249   7.939   2.698
 9764TIP3   OH229168   7.943   0.610   5.812
 9764TIP3    H129169   7.903   0.633   5.728
 9764TIP3    H229170   7.937   0.514   5.815
 9765TIP3   OH229171   0.066   0.149   5.059
 9765TIP3    H129172   0.147   0.177   5.017
 9765TIP3    H229173   0.006   0.131   4.987
 9766TIP3   OH229174   4.375   7.080   3.494
 9766TIP3    H129175   4.295   7.063   3.544
 9766TIP3    H229176   4.438   7.017   3.530
 9767TIP3   OH229177   0.364   2.706   3.973
 9767TIP3    H129178   0.371   2.717   3.878
 9767TIP3    H229179   0.335   2.792   4.005
 9768TIP3   OH229180   8.482   4.569   6.173
 9768TIP3    H129181   8.396   4.611   6.167
 9768TIP3    H229182   8.496   4.556   6.267
 9769TIP3   OH229183   9.022   5.488   4.067
 9769TIP3    H129184   9.004   5.430   4.141
 9769TIP3    H229185   9.044   5.572   4.107
 9770TIP3   OH229186   2.533   3.546   5.117
 9770TIP3    H129187   2.591   3.523   5.044
 9770TIP3    H229188   2.487   3.464   5.137
 9771TIP3   OH229189   8.773   6.364   5.988
 9771TIP3    H129190   8.788   6.327   5.901
 9771TIP3    H229191   8.679   6.386   5.988
 9772TIP3   OH229192   7.488   3.482   6.822
 9772TIP3    H129193   7.543   3.554   6.792
 9772TIP3    H229194   7.465   3.505   6.912
 9773TIP3   OH229195   6.559   7.188   7.365
 9773TIP3    H129196   6.500   7.258   7.337
 9773TIP3    H229197   6.586   7.214   7.453
 9774TIP3   OH229198   7.506   1.677   5.366
 9774TIP3    H129199   7.420   1.677   5.325
 9774TIP3    H229200   7.568   1.660   5.295
 9775TIP3   OH229201   7.406   6.213   6.567
 9775TIP3    H129202   7.353   6.256   6.500
 9775TIP3    H229203   7.497   6.230   6.541
 9776TIP3   OH229204   0.999   1.170   5.138
 9776TIP3    H129205   0.925   1.211   5.183
 9776TIP3    H229206   1.019   1.230   5.066
 9777TIP3   OH229207   9.340   7.713   5.913
 9777TIP3    H129208   9.411   7.726   5.851
 9777TIP3    H229209   9.315   7.621   5.903
 9778TIP3   OH229210   3.450   0.808   1.679
 9778TIP3    H129211   3.450   0.742   1.610
 9778TIP3    H229212   3.487   0.886   1.638
 9779TIP3   OH229213   3.181   2.535   4.293
 9779TIP3    H129214   3.137   2.500   4.216
 9779TIP3    H229215   3.113   2.540   4.360
 9780TIP3   OH229216   7.726   8.011   6.980
 9780TIP3    H129217   7.768   7.965   6.907
 9780TIP3    H229218   7.715   8.101   6.948
 9781TIP3   OH229219   1.672   4.195   6.221
 9781TIP3    H129220   1.624   4.148   6.153
 9781TIP3    H229221   1.611   4.262   6.252
 9782TIP3   OH229222   6.976   5.721   2.739
 9782TIP3    H129223   7.028   5.721   2.819
 9782TIP3    H229224   6.971   5.629   2.713
 9783TIP3   OH229225   2.724   3.122   3.882
 9783TIP3    H129226   2.706   3.200   3.830
 9783TIP3    H229227   2.814   3.133   3.912
 9784TIP3   OH229228   4.657   7.758   1.398
 9784TIP3    H129229   4.594   7.711   1.345
 9784TIP3    H229230   4.635   7.851   1.385
 9785TIP3   OH229231   7.962   7.972   2.614
 9785TIP3    H129232   7.933   7.882   2.624
 9785TIP3    H229233   7.973   7.983   2.519
 9786TIP3   OH229234   4.223   0.326   3.093
 9786TIP3    H129235   4.165   0.388   3.137
 9786TIP3    H229236   4.170   0.248   3.081
 9787TIP3   OH229237   4.909   8.787   5.201
 9787TIP3    H129238   4.816   8.767   5.207
 9787TIP3    H229239   4.928   8.786   5.107
 9788TIP3   OH229240   4.463   8.664   2.383
 9788TIP3    H129241   4.519   8.613   2.324
 9788TIP3    H229242   4.474   8.754   2.354
 9789TIP3   OH229243   7.984   0.377   0.021
 9789TIP3    H129244   7.948   0.344   0.103
 9789TIP3    H229245   8.075   0.346   0.020
 9790TIP3   OH229246   2.002   5.113   0.692
 9790TIP3    H129247   1.954   5.045   0.740
 9790TIP3    H229248   2.066   5.064   0.639
 9791TIP3   OH229249   2.752   6.856   4.634
 9791TIP3    H129250   2.800   6.842   4.553
 9791TIP3    H229251   2.661   6.866   4.606
 9792TIP3   OH229252   1.109   4.934   1.300
 9792TIP3    H129253   1.119   4.978   1.216
 9792TIP3    H229254   1.173   4.863   1.298
 9793TIP3   OH229255   8.020   5.375   1.618
 9793TIP3    H129256   8.083   5.403   1.684
 9793TIP3    H229257   8.072   5.325   1.555
 9794TIP3   OH229258   2.581   6.723   1.858
 9794TIP3    H129259   2.616   6.789   1.918
 9794TIP3    H229260   2.511   6.768   1.811
 9795TIP3   OH229261   8.490   6.769   3.458
 9795TIP3    H129262   8.563   6.829   3.446
 9795TIP3    H229263   8.414   6.817   3.425
 9796TIP3   OH229264   8.607   4.094   3.390
 9796TIP3    H129265   8.518   4.062   3.381
 9796TIP3    H229266   8.659   4.016   3.411
 9797TIP3   OH229267   5.535   4.952   0.746
 9797TIP3    H129268   5.613   4.896   0.749
 9797TIP3    H229269   5.563   5.028   0.695
 9798TIP3   OH229270   4.966   3.952   6.716
 9798TIP3    H129271   4.940   4.043   6.699
 9798TIP3    H229272   5.061   3.952   6.704
 9799TIP3   OH229273   7.382   9.012   2.555
 9799TIP3    H129274   7.310   9.062   2.517
 9799TIP3    H229275   7.422   9.071   2.619
 9800TIP3   OH229276   9.248   2.273   7.356
 9800TIP3    H129277   9.159   2.275   7.321
 9800TIP3    H229278   9.299   2.327   7.296
 9801TIP3   OH229279   2.935   3.267   2.424
 9801TIP3    H129280   2.845   3.236   2.438
 9801TIP3    H229281   2.980   3.250   2.506
 9802TIP3   OH229282   2.876   4.854   0.901
 9802TIP3    H129283   2.929   4.814   0.831
 9802TIP3    H229284   2.788   4.859   0.863
 9803TIP3   OH229285   0.611   5.078   1.098
 9803TIP3    H129286   0.563   5.022   1.036
 9803TIP3    H229287   0.558   5.157   1.105
 9804TIP3   OH229288   3.205   0.108   2.521
 9804TIP3    H129289   3.180   0.198   2.502
 9804TIP3    H229290   3.125   0.066   2.554
 9805TIP3   OH229291   1.746   4.652   2.693
 9805TIP3    H129292   1.837   4.628   2.708
 9805TIP3    H229293   1.719   4.601   2.617
 9806TIP3   OH229294   0.885   5.447   5.773
 9806TIP3    H129295   0.870   5.373   5.832
 9806TIP3    H229296   0.807   5.449   5.717
 9807TIP3   OH229297   5.235   2.648   6.805
 9807TIP3    H129298   5.197   2.663   6.719
 9807TIP3    H229299   5.260   2.735   6.835
 9808TIP3   OH229300   4.920   8.173   6.030
 9808TIP3    H129301   4.938   8.263   6.060
 9808TIP3    H229302   4.937   8.176   5.935
 9809TIP3   OH229303   7.030   8.904   2.758
 9809TIP3    H129304   6.976   8.909   2.836
 9809TIP3    H229305   6.989   8.837   2.704
 9810TIP3   OH229306   0.523   4.885   6.406
 9810TIP3    H129307   0.491   4.944   6.474
 9810TIP3    H229308   0.445   4.859   6.357
 9811TIP3   OH229309   4.758   3.950   4.132
 9811TIP3    H129310   4.848   3.950   4.162
 9811TIP3    H229311   4.737   4.043   4.121
 9812TIP3   OH229312   7.244   0.954   7.472
 9812TIP3    H129313   7.164   0.914   7.506
 9812TIP3    H229314   7.244   0.934   7.379
 9813TIP3   OH229315   8.865   1.877   4.206
 9813TIP3    H129316   8.851   1.800   4.261
 9813TIP3    H229317   8.800   1.870   4.137
 9814TIP3   OH229318   3.464   2.297   5.054
 9814TIP3    H129319   3.443   2.386   5.025
 9814TIP3    H229320   3.413   2.286   5.134
 9815TIP3   OH229321   1.720   0.182   6.282
 9815TIP3    H129322   1.717   0.244   6.209
 9815TIP3    H229323   1.648   0.121   6.265
 9816TIP3   OH229324   9.291   1.244   2.000
 9816TIP3    H129325   9.283   1.259   1.906
 9816TIP3    H229326   9.231   1.172   2.018
 9817TIP3   OH229327   7.523   5.794   4.646
 9817TIP3    H129328   7.470   5.717   4.667
 9817TIP3    H229329   7.608   5.759   4.619
 9818TIP3   OH229330   1.907   8.015   1.902
 9818TIP3    H129331   1.913   8.108   1.882
 9818TIP3    H229332   1.982   7.976   1.857
 9819TIP3   OH229333   0.565   2.445   3.374
 9819TIP3    H129334   0.628   2.440   3.446
 9819TIP3    H229335   0.531   2.356   3.365
 9820TIP3   OH229336   2.485   1.542   4.968
 9820TIP3    H129337   2.460   1.473   4.906
 9820TIP3    H229338   2.452   1.512   5.052
 9821TIP3   OH229339   4.324   8.415   5.446
 9821TIP3    H129340   4.291   8.466   5.520
 9821TIP3    H229341   4.296   8.464   5.369
 9822TIP3   OH229342   7.192   3.967   1.398
 9822TIP3    H129343   7.281   3.937   1.418
 9822TIP3    H229344   7.136   3.914   1.455
 9823TIP3   OH229345   5.150   5.230   2.963
 9823TIP3    H129346   5.099   5.167   3.013
 9823TIP3    H229347   5.142   5.313   3.011
 9824TIP3   OH229348   6.619   6.035   3.409
 9824TIP3    H129349   6.619   6.043   3.313
 9824TIP3    H229350   6.707   6.059   3.435
 9825TIP3   OH229351   1.427   3.384   4.074
 9825TIP3    H129352   1.428   3.307   4.017
 9825TIP3    H229353   1.518   3.398   4.098
 9826TIP3   OH229354   1.452   3.356   6.043
 9826TIP3    H129355   1.477   3.275   5.999
 9826TIP3    H229356   1.406   3.328   6.122
 9827TIP3   OH229357   3.148   5.618   2.996
 9827TIP3    H129358   3.085   5.594   3.064
 9827TIP3    H229359   3.105   5.592   2.914
 9828TIP3   OH229360   3.343   4.962   2.306
 9828TIP3    H129361   3.377   4.959   2.395
 9828TIP3    H229362   3.285   5.038   2.306
 9829TIP3   OH229363   0.677   6.652   0.309
 9829TIP3    H129364   0.771   6.667   0.295
 9829TIP3    H229365   0.638   6.739   0.302
 9830TIP3   OH229366   8.511   4.513   1.439
 9830TIP3    H129367   8.550   4.478   1.359
 9830TIP3    H229368   8.488   4.603   1.417
 9831TIP3   OH229369   4.559   4.516   3.989
 9831TIP3    H129370   4.569   4.528   3.895
 9831TIP3    H229371   4.522   4.599   4.020
 9832TIP3   OH229372   5.464   3.902   2.141
 9832TIP3    H129373   5.503   3.989   2.135
 9832TIP3    H229374   5.392   3.912   2.204
 9833TIP3   OH229375   6.354   5.134   6.701
 9833TIP3    H129376   6.427   5.155   6.642
 9833TIP3    H229377   6.340   5.040   6.689
 9834TIP3   OH229378   0.888   2.402   0.311
 9834TIP3    H129379   0.916   2.310   0.303
 9834TIP3    H229380   0.852   2.423   0.225
 9835TIP3   OH229381   8.960   5.258   7.215
 9835TIP3    H129382   9.041   5.210   7.230
 9835TIP3    H229383   8.987   5.349   7.204
 9836TIP3   OH229384   1.831   2.832   1.103
 9836TIP3    H129385   1.791   2.866   1.023
 9836TIP3    H229386   1.924   2.823   1.081
 9837TIP3   OH229387   1.869   7.767   2.063
 9837TIP3    H129388   1.870   7.863   2.059
 9837TIP3    H229389   1.920   7.739   1.987
 9838TIP3   OH229390   7.388   2.016   0.712
 9838TIP3    H129391   7.468   2.016   0.765
 9838TIP3    H229392   7.320   1.988   0.773
 9839TIP3   OH229393   1.255   7.205   6.586
 9839TIP3    H129394   1.305   7.143   6.533
 9839TIP3    H229395   1.258   7.287   6.537
 9840TIP3   OH229396   5.050   0.542   0.624
 9840TIP3    H129397   5.121   0.478   0.632
 9840TIP3    H229398   5.077   0.616   0.678
 9841TIP3   OH229399   6.737   0.653   0.111
 9841TIP3    H129400   6.746   0.648   0.016
 9841TIP3    H229401   6.784   0.733   0.135
 9842TIP3   OH229402   5.843   5.458   3.185
 9842TIP3    H129403   5.874   5.461   3.095
 9842TIP3    H229404   5.893   5.526   3.230
 9843TIP3   OH229405   3.388   4.461   2.299
 9843TIP3    H129406   3.368   4.417   2.216
 9843TIP3    H229407   3.335   4.413   2.363
 9844TIP3   OH229408   8.955   4.969   0.593
 9844TIP3    H129409   8.974   4.915   0.516
 9844TIP3    H229410   9.009   5.047   0.581
 9845TIP3   OH229411   3.652   0.763   5.226
 9845TIP3    H129412   3.615   0.707   5.158
 9845TIP3    H229413   3.679   0.843   5.180
 9846TIP3   OH229414   4.471   6.607   3.477
 9846TIP3    H129415   4.485   6.531   3.533
 9846TIP3    H229416   4.458   6.571   3.390
 9847TIP3   OH229417   7.413   7.236   7.196
 9847TIP3    H129418   7.477   7.258   7.264
 9847TIP3    H229419   7.346   7.304   7.203
 9848TIP3   OH229420   1.867   7.119   6.001
 9848TIP3    H129421   1.897   7.036   5.965
 9848TIP3    H229422   1.944   7.155   6.046
 9849TIP3   OH229423   4.466   4.530   4.305
 9849TIP3    H129424   4.371   4.528   4.298
 9849TIP3    H229425   4.497   4.520   4.215
 9850TIP3   OH229426   2.245   0.970   4.039
 9850TIP3    H129427   2.316   1.032   4.023
 9850TIP3    H229428   2.282   0.884   4.021
 9851TIP3   OH229429   3.551   1.049   7.783
 9851TIP3    H129430   3.595   1.096   7.712
 9851TIP3    H229431   3.496   1.114   7.825
 9852TIP3   OH229432   0.394   4.847   2.440
 9852TIP3    H129433   0.360   4.935   2.424
 9852TIP3    H229434   0.342   4.790   2.384
 9853TIP3   OH229435   9.318   5.220   0.231
 9853TIP3    H129436   9.379   5.169   0.178
 9853TIP3    H229437   9.240   5.166   0.238
 9854TIP3   OH229438   9.218   9.025   0.835
 9854TIP3    H129439   9.243   8.933   0.848
 9854TIP3    H229440   9.228   9.038   0.741
 9855TIP3   OH229441   0.484   5.128   2.741
 9855TIP3    H129442   0.482   5.186   2.664
 9855TIP3    H229443   0.571   5.088   2.739
 9856TIP3   OH229444   3.236   1.395   3.980
 9856TIP3    H129445   3.190   1.319   4.017
 9856TIP3    H229446   3.194   1.410   3.896
 9857TIP3   OH229447   4.758   5.310   0.867
 9857TIP3    H129448   4.685   5.370   0.859
 9857TIP3    H229449   4.813   5.328   0.791
 9858TIP3   OH229450   0.049   4.353   2.307
 9858TIP3    H129451   0.068   4.331   2.216
 9858TIP3    H229452   0.039   4.448   2.307
 9859TIP3   OH229453   6.530   4.439   5.566
 9859TIP3    H129454   6.565   4.372   5.625
 9859TIP3    H229455   6.509   4.391   5.486
 9860TIP3   OH229456   7.406   7.201   0.442
 9860TIP3    H129457   7.313   7.214   0.458
 9860TIP3    H229458   7.444   7.289   0.447
 9861TIP3   OH229459   8.284   7.372   1.567
 9861TIP3    H129460   8.313   7.281   1.553
 9861TIP3    H229461   8.197   7.363   1.605
 9862TIP3   OH229462   4.533   1.302   1.325
 9862TIP3    H129463   4.573   1.350   1.253
 9862TIP3    H229464   4.440   1.323   1.319
 9863TIP3   OH229465   7.546   8.603   2.949
 9863TIP3    H129466   7.488   8.631   2.878
 9863TIP3    H229467   7.582   8.519   2.919
 9864TIP3   OH229468   8.136   7.025   4.831
 9864TIP3    H129469   8.206   7.089   4.844
 9864TIP3    H229470   8.179   6.951   4.787
 9865TIP3   OH229471   2.682   4.289   1.885
 9865TIP3    H129472   2.632   4.293   1.967
 9865TIP3    H229473   2.756   4.233   1.904
 9866TIP3   OH229474   3.904   7.541   1.187
 9866TIP3    H129475   3.846   7.604   1.146
 9866TIP3    H229476   3.984   7.544   1.135
 9867TIP3   OH229477   4.581   7.500   4.048
 9867TIP3    H129478   4.553   7.586   4.015
 9867TIP3    H229479   4.673   7.493   4.021
 9868TIP3   OH229480   1.709   7.627   0.524
 9868TIP3    H129481   1.640   7.678   0.481
 9868TIP3    H229482   1.765   7.598   0.452
 9869TIP3   OH229483   8.675   1.909   6.125
 9869TIP3    H129484   8.756   1.897   6.176
 9869TIP3    H229485   8.693   1.983   6.068
 9870TIP3   OH229486   6.776   2.372   7.535
 9870TIP3    H129487   6.733   2.388   7.451
 9870TIP3    H229488   6.868   2.395   7.520
 9871TIP3   OH229489   2.188   4.120   3.372
 9871TIP3    H129490   2.146   4.174   3.440
 9871TIP3    H229491   2.218   4.184   3.307
 9872TIP3   OH229492   0.344   4.302   2.672
 9872TIP3    H129493   0.380   4.233   2.729
 9872TIP3    H229494   0.384   4.383   2.704
 9873TIP3   OH229495   5.285   6.926   6.036
 9873TIP3    H129496   5.308   6.877   5.957
 9873TIP3    H229497   5.365   6.972   6.061
 9874TIP3   OH229498   3.904   8.865   5.766
 9874TIP3    H129499   3.934   8.956   5.769
 9874TIP3    H229500   3.984   8.813   5.763
 9875TIP3   OH229501   6.238   6.998   2.742
 9875TIP3    H129502   6.182   7.057   2.691
 9875TIP3    H229503   6.260   6.927   2.682
 9876TIP3   OH229504   5.455   6.502   3.197
 9876TIP3    H129505   5.389   6.512   3.128
 9876TIP3    H229506   5.538   6.525   3.155
 9877TIP3   OH229507   6.835   8.044   1.281
 9877TIP3    H129508   6.755   8.005   1.316
 9877TIP3    H229509   6.901   8.027   1.349
 9878TIP3   OH229510   2.903   6.564   4.587
 9878TIP3    H129511   2.817   6.532   4.559
 9878TIP3    H229512   2.890   6.590   4.678
 9879TIP3   OH229513   2.159   2.156   0.209
 9879TIP3    H129514   2.190   2.107   0.133
 9879TIP3    H229515   2.212   2.123   0.282
 9880TIP3   OH229516   2.728   0.758   3.791
 9880TIP3    H129517   2.654   0.817   3.776
 9880TIP3    H229518   2.768   0.791   3.872
 9881TIP3   OH229519   8.868   2.665   7.300
 9881TIP3    H129520   8.802   2.607   7.337
 9881TIP3    H229521   8.945   2.653   7.357
 9882TIP3   OH229522   1.561   2.343   4.247
 9882TIP3    H129523   1.608   2.370   4.169
 9882TIP3    H229524   1.585   2.408   4.313
 9883TIP3   OH229525   1.134   6.853   3.818
 9883TIP3    H129526   1.199   6.924   3.818
 9883TIP3    H229527   1.069   6.880   3.754
 9884TIP3   OH229528   8.927   7.630   0.657
 9884TIP3    H129529   8.852   7.678   0.692
 9884TIP3    H229530   8.994   7.638   0.724
 9885TIP3   OH229531   7.065   7.756   7.770
 9885TIP3    H129532   7.155   7.782   7.792
 9885TIP3    H229533   7.060   7.766   7.675
 9886TIP3   OH229534   3.354   8.221   7.169
 9886TIP3    H129535   3.343   8.307   7.210
 9886TIP3    H229536   3.388   8.165   7.239
 9887TIP3   OH229537   3.201   4.683   7.129
 9887TIP3    H129538   3.268   4.693   7.062
 9887TIP3    H229539   3.228   4.605   7.178
 9888TIP3   OH229540   2.627   8.860   1.839
 9888TIP3    H129541   2.609   8.825   1.926
 9888TIP3    H229542   2.592   8.948   1.840
 9889TIP3   OH229543   8.838   0.362   4.666
 9889TIP3    H129544   8.783   0.369   4.588
 9889TIP3    H229545   8.918   0.409   4.643
 9890TIP3   OH229546   7.734   3.080   1.793
 9890TIP3    H129547   7.804   3.041   1.846
 9890TIP3    H229548   7.767   3.168   1.771
 9891TIP3   OH229549   2.414   2.327   2.249
 9891TIP3    H129550   2.370   2.243   2.240
 9891TIP3    H229551   2.493   2.318   2.195
 9892TIP3   OH229552   9.384   5.160   7.689
 9892TIP3    H129553   9.427   5.124   7.611
 9892TIP3    H229554   9.420   5.248   7.697
 9893TIP3   OH229555   4.810   2.842   1.678
 9893TIP3    H129556   4.894   2.885   1.662
 9893TIP3    H229557   4.815   2.761   1.628
 9894TIP3   OH229558   2.546   6.769   3.749
 9894TIP3    H129559   2.629   6.746   3.793
 9894TIP3    H229560   2.571   6.786   3.659
 9895TIP3   OH229561   8.759   5.359   3.795
 9895TIP3    H129562   8.733   5.359   3.702
 9895TIP3    H229563   8.848   5.396   3.795
 9896TIP3   OH229564   9.229   1.322   3.722
 9896TIP3    H129565   9.238   1.238   3.676
 9896TIP3    H229566   9.153   1.309   3.779
 9897TIP3   OH229567   1.408   7.000   6.472
 9897TIP3    H129568   1.495   7.018   6.435
 9897TIP3    H229569   1.354   6.979   6.396
 9898TIP3   OH229570   9.379   6.381   6.217
 9898TIP3    H129571   9.424   6.300   6.242
 9898TIP3    H229572   9.376   6.378   6.121
 9899TIP3   OH229573   4.437   7.925   5.643
 9899TIP3    H129574   4.418   8.019   5.652
 9899TIP3    H229575   4.455   7.913   5.550
 9900TIP3   OH229576   2.662   1.377   2.087
 9900TIP3    H129577   2.571   1.365   2.060
 9900TIP3    H229578   2.681   1.303   2.144
 9901TIP3   OH229579   5.690   3.647   4.422
 9901TIP3    H129580   5.768   3.678   4.468
 9901TIP3    H229581   5.700   3.552   4.421
 9902TIP3   OH229582   0.395   4.288   5.798
 9902TIP3    H129583   0.465   4.292   5.732
 9902TIP3    H229584   0.338   4.217   5.768
 9903TIP3   OH229585   0.297   7.175   0.402
 9903TIP3    H129586   0.353   7.227   0.344
 9903TIP3    H229587   0.316   7.084   0.378
 9904TIP3   OH229588   1.869   0.468   5.683
 9904TIP3    H129589   1.914   0.406   5.741
 9904TIP3    H229590   1.833   0.535   5.742
 9905TIP3   OH229591   7.086   3.234   0.631
 9905TIP3    H129592   7.161   3.196   0.585
 9905TIP3    H229593   7.011   3.216   0.575
 9906TIP3   OH229594   9.366   3.327   5.132
 9906TIP3    H129595   9.424   3.255   5.107
 9906TIP3    H229596   9.388   3.397   5.071
 9907TIP3   OH229597   2.255   7.758   4.574
 9907TIP3    H129598   2.249   7.822   4.503
 9907TIP3    H229599   2.193   7.690   4.550
 9908TIP3   OH229600   5.858   7.947   7.609
 9908TIP3    H129601   5.833   7.888   7.538
 9908TIP3    H229602   5.952   7.931   7.621
 9909TIP3   OH229603   5.442   2.224   6.202
 9909TIP3    H129604   5.368   2.208   6.261
 9909TIP3    H229605   5.519   2.225   6.259
 9910TIP3   OH229606   9.526   5.867   7.417
 9910TIP3    H129607   9.449   5.913   7.451
 9910TIP3    H229608   9.529   5.893   7.325
 9911TIP3   OH229609   6.993   2.224   5.276
 9911TIP3    H129610   6.962   2.162   5.343
 9911TIP3    H229611   6.999   2.308   5.322
 9912TIP3   OH229612   9.417   4.058   2.453
 9912TIP3    H129613   9.484   4.084   2.517
 9912TIP3    H229614   9.467   4.021   2.380
 9913TIP3   OH229615   2.774   1.614   4.980
 9913TIP3    H129616   2.695   1.577   5.018
 9913TIP3    H229617   2.788   1.566   4.899
 9914TIP3   OH229618   2.116   0.442   6.972
 9914TIP3    H129619   2.160   0.501   6.911
 9914TIP3    H229620   2.058   0.390   6.916
 9915TIP3   OH229621   3.717   5.177   4.266
 9915TIP3    H129622   3.752   5.214   4.347
 9915TIP3    H229623   3.725   5.082   4.277
 9916TIP3   OH229624   8.319   2.103   3.117
 9916TIP3    H129625   8.399   2.052   3.102
 9916TIP3    H229626   8.340   2.190   3.083
 9917TIP3   OH229627   8.465   2.912   2.194
 9917TIP3    H129628   8.373   2.936   2.179
 9917TIP3    H229629   8.462   2.821   2.224
 9918TIP3   OH229630   1.692   5.698   2.706
 9918TIP3    H129631   1.646   5.756   2.644
 9918TIP3    H229632   1.652   5.612   2.692
 9919TIP3   OH229633   5.983   7.616   2.833
 9919TIP3    H129634   5.963   7.698   2.878
 9919TIP3    H229635   6.079   7.610   2.838
 9920TIP3   OH229636   8.979   2.607   4.170
 9920TIP3    H129637   8.987   2.661   4.249
 9920TIP3    H229638   9.060   2.556   4.169
 9921TIP3   OH229639   5.605   4.832   1.018
 9921TIP3    H129640   5.658   4.828   0.938
 9921TIP3    H229641   5.522   4.790   0.994
 9922TIP3   OH229642   4.035   6.088   7.764
 9922TIP3    H129643   3.989   6.011   7.730
 9922TIP3    H229644   4.067   6.062   7.850
 9923TIP3   OH229645   5.597   5.447   4.218
 9923TIP3    H129646   5.668   5.510   4.201
 9923TIP3    H229647   5.550   5.442   4.135
 9924TIP3   OH229648   0.140   7.985   6.064
 9924TIP3    H129649   0.165   8.077   6.063
 9924TIP3    H229650   0.133   7.961   5.971
 9925TIP3   OH229651   4.506   6.422   3.249
 9925TIP3    H129652   4.485   6.333   3.278
 9925TIP3    H229653   4.450   6.436   3.172
 9926TIP3   OH229654   1.360   2.669   5.993
 9926TIP3    H129655   1.358   2.698   5.902
 9926TIP3    H229656   1.346   2.575   5.989
 9927TIP3   OH229657   4.977   5.201   7.201
 9927TIP3    H129658   5.017   5.259   7.266
 9927TIP3    H229659   4.946   5.261   7.133
 9928TIP3   OH229660   1.010   6.289   6.951
 9928TIP3    H129661   0.936   6.347   6.970
 9928TIP3    H229662   1.085   6.331   6.992
 9929TIP3   OH229663   2.545   7.937   3.575
 9929TIP3    H129664   2.472   7.907   3.520
 9929TIP3    H229665   2.588   8.004   3.523
 9930TIP3   OH229666   8.428   7.291   2.049
 9930TIP3    H129667   8.388   7.208   2.072
 9930TIP3    H229668   8.495   7.269   1.984
 9931TIP3   OH229669   9.217   1.900   5.676
 9931TIP3    H129670   9.272   1.963   5.629
 9931TIP3    H229671   9.131   1.942   5.682
 9932TIP3   OH229672   6.407   3.350   1.175
 9932TIP3    H129673   6.372   3.406   1.245
 9932TIP3    H229674   6.408   3.407   1.098
 9933TIP3   OH229675   4.401   7.529   4.270
 9933TIP3    H129676   4.401   7.459   4.335
 9933TIP3    H229677   4.463   7.500   4.203
 9934TIP3   OH229678   7.407   1.782   4.325
 9934TIP3    H129679   7.499   1.806   4.320
 9934TIP3    H229680   7.383   1.796   4.417
 9935TIP3   OH229681   0.181   1.257   4.145
 9935TIP3    H129682   0.240   1.241   4.071
 9935TIP3    H229683   0.217   1.335   4.187
 9936TIP3   OH229684   3.529   7.489   0.926
 9936TIP3    H129685   3.489   7.460   0.844
 9936TIP3    H229686   3.456   7.496   0.987
 9937TIP3   OH229687   4.059   1.705   0.131
 9937TIP3    H129688   4.079   1.616   0.100
 9937TIP3    H229689   4.127   1.760   0.093
 9938TIP3   OH229690   7.132   0.818   0.753
 9938TIP3    H129691   7.185   0.891   0.722
 9938TIP3    H229692   7.165   0.742   0.705
 9939TIP3   OH229693   1.110   4.946   3.692
 9939TIP3    H129694   1.114   4.870   3.634
 9939TIP3    H229695   1.110   4.909   3.780
 9940TIP3   OH229696   6.709   3.059   5.535
 9940TIP3    H129697   6.773   3.097   5.475
 9940TIP3    H229698   6.759   2.993   5.584
 9941TIP3   OH229699   7.479   6.986   3.850
 9941TIP3    H129700   7.515   6.908   3.892
 9941TIP3    H229701   7.390   6.993   3.885
 9942TIP3   OH229702   5.883   0.616   5.138
 9942TIP3    H129703   5.923   0.655   5.216
 9942TIP3    H229704   5.865   0.691   5.081
 9943TIP3   OH229705   0.699   8.741   4.582
 9943TIP3    H129706   0.667   8.658   4.617
 9943TIP3    H229707   0.791   8.745   4.608
 9944TIP3   OH229708   6.038   4.281   3.280
 9944TIP3    H129709   6.015   4.368   3.312
 9944TIP3    H229710   5.975   4.264   3.210
 9945TIP3   OH229711   5.129   3.022   0.638
 9945TIP3    H129712   5.153   3.054   0.551
 9945TIP3    H229713   5.075   3.092   0.674
 9946TIP3   OH229714   6.356   6.930   1.218
 9946TIP3    H129715   6.265   6.906   1.203
 9946TIP3    H229716   6.403   6.896   1.142
 9947TIP3   OH229717   5.711   7.495   4.062
 9947TIP3    H129718   5.773   7.558   4.099
 9947TIP3    H229719   5.743   7.410   4.092
 9948TIP3   OH229720   6.350   0.331   4.363
 9948TIP3    H129721   6.389   0.323   4.451
 9948TIP3    H229722   6.400   0.271   4.309
 9949TIP3   OH229723   9.498   7.899   1.809
 9949TIP3    H129724   9.569   7.960   1.793
 9949TIP3    H229725   9.507   7.875   1.901
 9950TIP3   OH229726   9.389   4.045   0.642
 9950TIP3    H129727   9.361   3.986   0.713
 9950TIP3    H229728   9.423   3.986   0.575
 9951TIP3   OH229729   2.777   9.022   7.547
 9951TIP3    H129730   2.838   8.987   7.483
 9951TIP3    H229731   2.701   8.965   7.542
 9952TIP3   OH229732   4.437   1.421   4.474
 9952TIP3    H129733   4.504   1.353   4.482
 9952TIP3    H229734   4.450   1.458   4.387
 9953TIP3   OH229735   6.585   1.477   2.485
 9953TIP3    H129736   6.586   1.566   2.521
 9953TIP3    H229737   6.674   1.462   2.455
 9954TIP3   OH229738   4.682   1.815   3.802
 9954TIP3    H129739   4.722   1.728   3.792
 9954TIP3    H229740   4.696   1.858   3.718
 9955TIP3   OH229741   7.660   7.011   5.231
 9955TIP3    H129742   7.594   7.016   5.301
 9955TIP3    H229743   7.656   7.096   5.189
 9956TIP3   OH229744   8.148   5.957   7.701
 9956TIP3    H129745   8.110   6.045   7.704
 9956TIP3    H229746   8.202   5.956   7.622
 9957TIP3   OH229747   8.857   5.262   1.192
 9957TIP3    H129748   8.854   5.175   1.151
 9957TIP3    H229749   8.785   5.309   1.152
 9958TIP3   OH229750   7.690   2.527   7.607
 9958TIP3    H129751   7.601   2.559   7.597
 9958TIP3    H229752   7.707   2.475   7.529
 9959TIP3   OH229753   6.773   2.962   1.045
 9959TIP3    H129754   6.752   3.055   1.033
 9959TIP3    H229755   6.864   2.955   1.015
 9960TIP3   OH229756   0.206   8.337   0.212
 9960TIP3    H129757   0.147   8.412   0.203
 9960TIP3    H229758   0.150   8.266   0.246
 9961TIP3   OH229759   1.042   6.638   1.881
 9961TIP3    H129760   1.082   6.702   1.939
 9961TIP3    H229761   1.077   6.554   1.910
 9962TIP3   OH229762   2.802   4.165   6.353
 9962TIP3    H129763   2.724   4.135   6.306
 9962TIP3    H229764   2.847   4.085   6.378
 9963TIP3   OH229765   8.610   2.165   1.232
 9963TIP3    H129766   8.690   2.129   1.272
 9963TIP3    H229767   8.640   2.240   1.182
 9964TIP3   OH229768   6.493   0.254   7.659
 9964TIP3    H129769   6.505   0.281   7.750
 9964TIP3    H229770   6.514   0.161   7.659
 9965TIP3   OH229771   5.553   8.355   3.828
 9965TIP3    H129772   5.480   8.308   3.866
 9965TIP3    H229773   5.576   8.421   3.893
 9966TIP3   OH229774   1.409   3.394   5.724
 9966TIP3    H129775   1.470   3.422   5.792
 9966TIP3    H229776   1.387   3.474   5.677
 9967TIP3   OH229777   7.475   3.104   6.539
 9967TIP3    H129778   7.566   3.121   6.565
 9967TIP3    H229779   7.425   3.174   6.580
 9968TIP3   OH229780   8.602   6.044   6.962
 9968TIP3    H129781   8.666   5.998   7.017
 9968TIP3    H229782   8.628   6.136   6.968
 9969TIP3   OH229783   0.605   1.855   7.183
 9969TIP3    H129784   0.567   1.779   7.229
 9969TIP3    H229785   0.572   1.848   7.094
 9970TIP3   OH229786   2.078   2.295   0.563
 9970TIP3    H129787   2.003   2.253   0.521
 9970TIP3    H229788   2.138   2.223   0.583
 9971TIP3   OH229789   2.711   8.732   5.008
 9971TIP3    H129790   2.770   8.697   4.942
 9971TIP3    H229791   2.734   8.683   5.088
 9972TIP3   OH229792   5.356   7.377   0.014
 9972TIP3    H129793   5.419   7.309   0.039
 9972TIP3    H229794   5.311   7.399   0.095
 9973TIP3   OH229795   3.678   4.268   4.458
 9973TIP3    H129796   3.761   4.223   4.441
 9973TIP3    H229797   3.650   4.235   4.543
 9974TIP3   OH229798   2.849   3.823   2.571
 9974TIP3    H129799   2.802   3.906   2.578
 9974TIP3    H229800   2.874   3.818   2.479
 9975TIP3   OH229801   6.980   8.993   0.151
 9975TIP3    H129802   6.905   8.942   0.121
 9975TIP3    H229803   6.990   9.061   0.085
 9976TIP3   OH229804   4.474   4.740   0.712
 9976TIP3    H129805   4.536   4.671   0.735
 9976TIP3    H229806   4.416   4.746   0.788
 9977TIP3   OH229807   2.179   0.456   3.950
 9977TIP3    H129808   2.213   0.475   4.038
 9977TIP3    H229809   2.230   0.380   3.921
 9978TIP3   OH229810   8.439   8.980   2.781
 9978TIP3    H129811   8.362   9.007   2.830
 9978TIP3    H229812   8.428   8.887   2.766
 9979TIP3   OH229813   4.696   6.108   5.774
 9979TIP3    H129814   4.745   6.027   5.760
 9979TIP3    H229815   4.740   6.172   5.718
 9980TIP3   OH229816   7.480   0.454   5.222
 9980TIP3    H129817   7.408   0.391   5.228
 9980TIP3    H229818   7.551   0.413   5.271
 9981TIP3   OH229819   1.645   5.791   3.695
 9981TIP3    H129820   1.622   5.878   3.729
 9981TIP3    H229821   1.685   5.809   3.610
 9982TIP3   OH229822   8.106   5.236   0.918
 9982TIP3    H129823   8.039   5.202   0.978
 9982TIP3    H229824   8.056   5.285   0.852
 9983TIP3   OH229825   4.940   1.331   4.800
 9983TIP3    H129826   5.035   1.327   4.786
 9983TIP3    H229827   4.918   1.246   4.837
 9984TIP3   OH229828   4.966   0.633   4.530
 9984TIP3    H129829   5.018   0.685   4.469
 9984TIP3    H229830   4.905   0.583   4.475
 9985TIP3   OH229831   5.314   8.106   6.515
 9985TIP3    H129832   5.371   8.182   6.530
 9985TIP3    H229833   5.252   8.107   6.588
 9986TIP3   OH229834   5.782   8.373   5.857
 9986TIP3    H129835   5.724   8.352   5.785
 9986TIP3    H229836   5.867   8.337   5.831
 9987TIP3   OH229837   0.862   5.042   4.614
 9987TIP3    H129838   0.785   5.052   4.669
 9987TIP3    H229839   0.926   4.997   4.669
 9988TIP3   OH229840   1.860   7.813   2.508
 9988TIP3    H129841   1.787   7.841   2.453
 9988TIP3    H229842   1.859   7.717   2.503
 9989TIP3   OH229843   8.223   8.083   1.410
 9989TIP3    H129844   8.280   8.008   1.397
 9989TIP3    H229845   8.282   8.153   1.439
 9990TIP3   OH229846   8.796   4.984   6.625
 9990TIP3    H129847   8.719   5.032   6.655
 9990TIP3    H229848   8.768   4.942   6.544
 9991TIP3   OH229849   5.928   7.607   1.972
 9991TIP3    H129850   5.960   7.522   1.945
 9991TIP3    H229851   5.954   7.615   2.064
 9992TIP3   OH229852   5.310   3.547   6.794
 9992TIP3    H129853   5.257   3.525   6.717
 9992TIP3    H229854   5.388   3.590   6.758
 9993TIP3   OH229855   7.046   4.157   2.138
 9993TIP3    H129856   7.079   4.110   2.062
 9993TIP3    H229857   7.030   4.246   2.106
 9994TIP3   OH229858   1.778   4.011   6.885
 9994TIP3    H129859   1.729   4.033   6.806
 9994TIP3    H229860   1.724   4.046   6.957
 9995TIP3   OH229861   4.434   8.559   0.709
 9995TIP3    H129862   4.439   8.611   0.789
 9995TIP3    H229863   4.391   8.478   0.736
 9996TIP3   OH229864   5.107   3.751   1.064
 9996TIP3    H129865   5.153   3.672   1.037
 9996TIP3    H229866   5.146   3.820   1.010
 9997TIP3   OH229867   1.893   8.395   0.280
 9997TIP3    H129868   1.870   8.330   0.347
 9997TIP3    H229869   1.840   8.370   0.204
 9998TIP3   OH229870   1.353   6.867   0.503
 9998TIP3    H129871   1.321   6.874   0.413
 9998TIP3    H229872   1.275   6.851   0.556
 9999TIP3   OH229873   0.799   0.200   5.863
 9999TIP3    H129874   0.755   0.146   5.797
 9999TIP3    H229875   0.741   0.275   5.875
10000TIP3   OH229876   3.852   3.542   0.752
10000TIP3    H129877   3.815   3.568   0.837
10000TIP3    H229878   3.884   3.624   0.714
10001TIP3   OH229879   4.461   7.863   6.849
10001TIP3    H129880   4.548   7.890   6.880
10001TIP3    H229881   4.453   7.903   6.762
10002TIP3   OH229882   6.451   2.965   2.098
10002TIP3    H129883   6.520   2.925   2.151
10002TIP3    H229884   6.445   2.909   2.020
10003TIP3   OH229885   2.119   7.354   0.392
10003TIP3    H129886   2.066   7.396   0.460
10003TIP3    H229887   2.168   7.286   0.438
10004TIP3   OH229888   6.925   7.571   3.595
10004TIP3    H129889   6.907   7.653   3.549
10004TIP3    H229890   6.925   7.594   3.688
10005TIP3   OH229891   4.317   3.540   0.729
10005TIP3    H129892   4.381   3.603   0.762
10005TIP3    H229893   4.268   3.589   0.663
10006TIP3   OH229894   0.875   7.911   2.954
10006TIP3    H129895   0.832   7.984   2.999
10006TIP3    H229896   0.924   7.866   3.023
10007TIP3   OH229897   7.372   6.909   1.994
10007TIP3    H129898   7.407   6.991   2.031
10007TIP3    H229899   7.336   6.862   2.069
10008TIP3   OH229900   9.182   1.726   6.719
10008TIP3    H129901   9.186   1.752   6.626
10008TIP3    H229902   9.126   1.649   6.719
10009TIP3   OH229903   8.553   7.339   3.294
10009TIP3    H129904   8.648   7.331   3.304
10009TIP3    H229905   8.536   7.312   3.204
10010TIP3   OH229906   0.618   8.377   5.221
10010TIP3    H129907   0.545   8.331   5.263
10010TIP3    H229908   0.674   8.306   5.187
10011TIP3   OH229909   7.414   0.833   4.572
10011TIP3    H129910   7.389   0.763   4.633
10011TIP3    H229911   7.467   0.789   4.506
10012TIP3   OH229912   3.360   0.586   6.198
10012TIP3    H129913   3.294   0.520   6.220
10012TIP3    H229914   3.390   0.619   6.283
10013TIP3   OH229915   7.590   0.573   2.489
10013TIP3    H129916   7.523   0.536   2.432
10013TIP3    H229917   7.630   0.497   2.531
10014TIP3   OH229918   7.999   0.609   4.991
10014TIP3    H129919   7.955   0.632   4.909
10014TIP3    H229920   7.996   0.689   5.043
10015TIP3   OH229921   2.913   7.350   0.642
10015TIP3    H129922   2.849   7.283   0.666
10015TIP3    H229923   2.864   7.433   0.650
10016TIP3   OH229924   1.355   0.727   4.974
10016TIP3    H129925   1.310   0.664   4.918
10016TIP3    H229926   1.351   0.809   4.926
10017TIP3   OH229927   5.778   2.267   4.695
10017TIP3    H129928   5.857   2.273   4.640
10017TIP3    H229929   5.811   2.272   4.784
10018TIP3   OH229930   9.387   1.462   0.466
10018TIP3    H129931   9.469   1.413   0.478
10018TIP3    H229932   9.344   1.456   0.552
10019TIP3   OH229933   5.354   7.070   3.364
10019TIP3    H129934   5.404   7.029   3.435
10019TIP3    H229935   5.264   7.040   3.377
10020TIP3   OH229936   3.838   3.247   1.784
10020TIP3    H129937   3.763   3.245   1.724
10020TIP3    H229938   3.906   3.198   1.737
10021TIP3   OH229939   3.997   8.127   6.476
10021TIP3    H129940   4.077   8.087   6.509
10021TIP3    H229941   3.962   8.063   6.414
10022TIP3   OH229942   8.158   6.177   1.962
10022TIP3    H129943   8.146   6.189   2.056
10022TIP3    H229944   8.071   6.156   1.928
10023TIP3   OH229945   5.085   4.960   4.504
10023TIP3    H129946   5.071   4.911   4.423
10023TIP3    H229947   5.167   4.926   4.539
10024TIP3   OH229948   3.763   3.854   5.022
10024TIP3    H129949   3.724   3.796   5.087
10024TIP3    H229950   3.771   3.939   5.066
10025TIP3   OH229951   1.139   3.285   4.121
10025TIP3    H129952   1.102   3.323   4.200
10025TIP3    H229953   1.096   3.332   4.050
10026TIP3   OH229954   6.928   5.169   5.901
10026TIP3    H129955   6.883   5.146   5.982
10026TIP3    H229956   6.998   5.228   5.928
10027TIP3   OH229957   9.354   0.104   7.503
10027TIP3    H129958   9.306   0.074   7.580
10027TIP3    H229959   9.399   0.026   7.470
10028TIP3   OH229960   7.880   2.391   6.734
10028TIP3    H129961   7.806   2.444   6.763
10028TIP3    H229962   7.956   2.427   6.781
10029TIP3   OH229963   7.370   3.343   3.441
10029TIP3    H129964   7.404   3.347   3.352
10029TIP3    H229965   7.444   3.367   3.496
10030TIP3   OH229966   2.224   6.003   7.579
10030TIP3    H129967   2.258   6.071   7.521
10030TIP3    H229968   2.136   5.985   7.546
10031TIP3   OH229969   6.718   2.265   5.170
10031TIP3    H129970   6.782   2.207   5.212
10031TIP3    H229971   6.757   2.352   5.177
10032TIP3   OH229972   4.245   8.683   3.323
10032TIP3    H129973   4.285   8.604   3.287
10032TIP3    H229974   4.282   8.755   3.272
10033TIP3   OH229975   8.827   6.351   1.301
10033TIP3    H129976   8.878   6.412   1.355
10033TIP3    H229977   8.781   6.297   1.365
10034TIP3   OH229978   9.474   0.252   3.658
10034TIP3    H129979   9.516   0.333   3.628
10034TIP3    H229980   9.516   0.234   3.743
10035TIP3   OH229981   1.552   2.536   0.549
10035TIP3    H129982   1.521   2.447   0.531
10035TIP3    H229983   1.489   2.593   0.503
10036TIP3   OH229984   7.170   3.944   6.017
10036TIP3    H129985   7.201   4.033   5.997
10036TIP3    H229986   7.206   3.926   6.104
10037TIP3   OH229987   9.107   3.445   0.385
10037TIP3    H129988   9.041   3.493   0.334
10037TIP3    H229989   9.082   3.353   0.376
10038TIP3   OH229990   6.194   3.995   5.849
10038TIP3    H129991   6.241   4.076   5.831
10038TIP3    H229992   6.146   4.013   5.931
10039TIP3   OH229993   4.138   6.698   1.593
10039TIP3    H129994   4.064   6.716   1.534
10039TIP3    H229995   4.206   6.663   1.536
10040TIP3   OH229996   8.966   7.069   3.881
10040TIP3    H129997   8.993   7.120   3.957
10040TIP3    H229998   8.882   7.107   3.855
10041TIP3   OH229999   2.333   4.649   0.186
10041TIP3    H130000   2.413   4.609   0.153
10041TIP3    H230001   2.263   4.586   0.164
10042TIP3   OH230002   8.476   0.884   2.853
10042TIP3    H130003   8.491   0.863   2.761
10042TIP3    H230004   8.382   0.901   2.859
10043TIP3   OH230005   0.865   3.726   2.864
10043TIP3    H130006   0.816   3.802   2.832
10043TIP3    H230007   0.799   3.657   2.875
10044TIP3   OH230008   6.175   3.460   1.922
10044TIP3    H130009   6.134   3.465   2.008
10044TIP3    H230010   6.212   3.371   1.918
10045TIP3   OH230011   8.230   7.528   3.406
10045TIP3    H130012   8.209   7.600   3.465
10045TIP3    H230013   8.322   7.509   3.423
10046TIP3   OH230014   2.012   1.452   3.065
10046TIP3    H130015   2.005   1.357   3.074
10046TIP3    H230016   2.100   1.473   3.095
10047TIP3   OH230017   1.950   3.707   6.775
10047TIP3    H130018   1.988   3.777   6.721
10047TIP3    H230019   1.984   3.724   6.863
10048TIP3   OH230020   8.839   7.168   5.838
10048TIP3    H130021   8.873   7.082   5.815
10048TIP3    H230022   8.873   7.227   5.771
10049TIP3   OH230023   1.641   8.502   0.145
10049TIP3    H130024   1.656   8.557   0.068
10049TIP3    H230025   1.633   8.413   0.110
10050TIP3   OH230026   4.176   8.081   4.033
10050TIP3    H130027   4.148   8.078   4.124
10050TIP3    H230028   4.234   8.005   4.023
10051TIP3   OH230029   8.083   5.800   4.697
10051TIP3    H130030   8.078   5.829   4.606
10051TIP3    H230031   8.030   5.863   4.745
10052TIP3   OH230032   1.710   3.648   3.494
10052TIP3    H130033   1.631   3.596   3.483
10052TIP3    H230034   1.740   3.627   3.582
10053TIP3   OH230035   3.447   5.984   2.101
10053TIP3    H130036   3.499   5.939   2.035
10053TIP3    H230037   3.509   6.004   2.171
10054TIP3   OH230038   9.217   0.575   6.972
10054TIP3    H130039   9.248   0.600   7.059
10054TIP3    H230040   9.182   0.487   6.984
10055TIP3   OH230041   4.885   3.616   5.758
10055TIP3    H130042   4.806   3.670   5.767
10055TIP3    H230043   4.955   3.679   5.742
10056TIP3   OH230044   1.500   1.013   1.311
10056TIP3    H130045   1.551   1.055   1.380
10056TIP3    H230046   1.545   0.929   1.297
10057TIP3   OH230047   8.870   5.946   7.807
10057TIP3    H130048   8.832   5.899   7.881
10057TIP3    H230049   8.816   5.921   7.732
10058TIP3   OH230050   7.177   7.346   6.256
10058TIP3    H130051   7.097   7.397   6.267
10058TIP3    H230052   7.198   7.353   6.162
10059TIP3   OH230053   8.502   3.689   6.686
10059TIP3    H130054   8.590   3.718   6.661
10059TIP3    H230055   8.450   3.698   6.606
10060TIP3   OH230056   0.333   7.927   3.235
10060TIP3    H130057   0.267   7.992   3.259
10060TIP3    H230058   0.293   7.843   3.259
10061TIP3   OH230059   3.521   1.161   5.194
10061TIP3    H130060   3.540   1.117   5.277
10061TIP3    H230061   3.598   1.215   5.178
10062TIP3   OH230062   0.192   2.918   3.795
10062TIP3    H130063   0.114   2.954   3.837
10062TIP3    H230064   0.165   2.831   3.765
10063TIP3   OH230065   2.070   2.855   0.260
10063TIP3    H130066   1.976   2.871   0.268
10063TIP3    H230067   2.078   2.793   0.188
10064TIP3   OH230068   9.481   4.863   5.262
10064TIP3    H130069   9.443   4.928   5.322
10064TIP3    H230070   9.427   4.868   5.183
10065TIP3   OH230071   7.105   1.576   0.040
10065TIP3    H130072   7.111   1.550   0.132
10065TIP3    H230073   7.086   1.494  -0.006
10066TIP3   OH230074   8.736   7.476   1.836
10066TIP3    H130075   8.690   7.392   1.831
10066TIP3    H230076   8.689   7.533   1.776
10067TIP3   OH230077   1.249   5.315   0.475
10067TIP3    H130078   1.336   5.294   0.510
10067TIP3    H230079   1.257   5.406   0.445
10068TIP3   OH230080   7.136   5.792   3.423
10068TIP3    H130081   7.169   5.702   3.413
10068TIP3    H230082   7.066   5.800   3.358
10069TIP3   OH230083   8.242   6.028   2.300
10069TIP3    H130084   8.155   5.992   2.285
10069TIP3    H230085   8.229   6.101   2.361
10070TIP3   OH230086   7.482   7.950   5.377
10070TIP3    H130087   7.394   7.961   5.341
10070TIP3    H230088   7.508   8.038   5.404
10071TIP3   OH230089   4.725   2.261   4.303
10071TIP3    H130090   4.660   2.328   4.282
10071TIP3    H230091   4.681   2.205   4.367
10072TIP3   OH230092   1.606   2.385   1.120
10072TIP3    H130093   1.677   2.348   1.068
10072TIP3    H230094   1.580   2.464   1.072
10073TIP3   OH230095   4.069   4.487   4.681
10073TIP3    H130096   4.039   4.397   4.698
10073TIP3    H230097   4.132   4.505   4.751
10074TIP3   OH230098   2.336   8.811   3.468
10074TIP3    H130099   2.253   8.769   3.493
10074TIP3    H230100   2.384   8.742   3.422
10075TIP3   OH230101   5.776   3.086   7.359
10075TIP3    H130102   5.805   3.140   7.285
10075TIP3    H230103   5.842   3.017   7.365
10076TIP3   OH230104   1.942   3.571   0.606
10076TIP3    H130105   1.979   3.659   0.612
10076TIP3    H230106   1.954   3.534   0.693
10077TIP3   OH230107   4.823   1.253   7.353
10077TIP3    H130108   4.786   1.279   7.437
10077TIP3    H230109   4.856   1.334   7.315
10078TIP3   OH230110   4.970   3.323   6.193
10078TIP3    H130111   4.911   3.274   6.136
10078TIP3    H230112   5.056   3.285   6.178
10079TIP3   OH230113   2.054   6.800   7.193
10079TIP3    H130114   2.032   6.709   7.170
10079TIP3    H230115   2.107   6.831   7.120
10080TIP3   OH230116   7.102   6.102   4.250
10080TIP3    H130117   7.086   6.012   4.278
10080TIP3    H230118   7.087   6.102   4.156
10081TIP3   OH230119   2.728   0.776   7.786
10081TIP3    H130120   2.749   0.801   7.876
10081TIP3    H230121   2.811   0.784   7.739
10082TIP3   OH230122   8.766   3.896   2.618
10082TIP3    H130123   8.840   3.909   2.677
10082TIP3    H230124   8.725   3.983   2.611
10083TIP3   OH230125   2.768   7.571   0.405
10083TIP3    H130126   2.709   7.621   0.349
10083TIP3    H230127   2.845   7.627   0.415
10084TIP3   OH230128   1.685   2.706   3.536
10084TIP3    H130129   1.696   2.768   3.463
10084TIP3    H230130   1.711   2.756   3.614
10085TIP3   OH230131   5.826   2.086   3.370
10085TIP3    H130132   5.905   2.054   3.327
10085TIP3    H230133   5.799   2.163   3.319
10086TIP3   OH230134   7.880   5.610   5.854
10086TIP3    H130135   7.806   5.641   5.906
10086TIP3    H230136   7.900   5.523   5.888
10087TIP3   OH230137   3.738   3.346   3.877
10087TIP3    H130138   3.790   3.377   3.952
10087TIP3    H230139   3.653   3.324   3.914
10088TIP3   OH230140   7.089   6.398   1.520
10088TIP3    H130141   7.049   6.337   1.582
10088TIP3    H230142   7.059   6.484   1.548
10089TIP3   OH230143   4.957   8.912   2.996
10089TIP3    H130144   4.929   8.912   3.087
10089TIP3    H230145   4.877   8.898   2.946
10090TIP3   OH230146   5.286   0.320   4.407
10090TIP3    H130147   5.212   0.298   4.464
10090TIP3    H230148   5.357   0.263   4.437
10091TIP3   OH230149   8.152   2.626   7.441
10091TIP3    H130150   8.209   2.563   7.485
10091TIP3    H230151   8.102   2.574   7.378
10092TIP3   OH230152   0.225   6.334   7.781
10092TIP3    H130153   0.135   6.366   7.787
10092TIP3    H230154   0.272   6.381   7.850
10093TIP3   OH230155   8.622   6.768   2.145
10093TIP3    H130156   8.567   6.734   2.216
10093TIP3    H230157   8.561   6.780   2.072
10094TIP3   OH230158   7.259   5.055   5.300
10094TIP3    H130159   7.354   5.050   5.292
10094TIP3    H230160   7.226   4.989   5.239
10095TIP3   OH230161   1.849   0.796   6.906
10095TIP3    H130162   1.772   0.850   6.889
10095TIP3    H230163   1.834   0.758   6.992
10096TIP3   OH230164   4.357   3.016   1.019
10096TIP3    H130165   4.410   2.938   1.006
10096TIP3    H230166   4.418   3.080   1.058
10097TIP3   OH230167   6.028   5.471   5.400
10097TIP3    H130168   6.051   5.550   5.350
10097TIP3    H230169   5.963   5.427   5.345
10098TIP3   OH230170   7.288   0.890   0.445
10098TIP3    H130171   7.283   0.955   0.376
10098TIP3    H230172   7.300   0.941   0.526
10099TIP3   OH230173   0.646   8.800   0.866
10099TIP3    H130174   0.696   8.882   0.864
10099TIP3    H230175   0.711   8.732   0.850
10100TIP3   OH230176   3.088   3.391   0.545
10100TIP3    H130177   3.149   3.344   0.487
10100TIP3    H230178   3.144   3.425   0.615
10101TIP3   OH230179   5.315   8.194   1.734
10101TIP3    H130180   5.271   8.272   1.702
10101TIP3    H230181   5.407   8.205   1.707
10102TIP3   OH230182   4.689   6.342   1.859
10102TIP3    H130183   4.649   6.265   1.821
10102TIP3    H230184   4.628   6.371   1.927
10103TIP3   OH230185   9.271   1.585   0.016
10103TIP3    H130186   9.248   1.517  -0.046
10103TIP3    H230187   9.331   1.642  -0.032
10104TIP3   OH230188   7.163   2.092   3.783
10104TIP3    H130189   7.158   2.033   3.708
10104TIP3    H230190   7.078   2.136   3.785
10105TIP3   OH230191   3.720   6.798   4.321
10105TIP3    H130192   3.682   6.711   4.309
10105TIP3    H230193   3.661   6.842   4.383
10106TIP3   OH230194   5.754   4.127   0.997
10106TIP3    H130195   5.755   4.032   0.990
10106TIP3    H230196   5.762   4.144   1.091
10107TIP3   OH230197   0.472   4.928   0.179
10107TIP3    H130198   0.544   4.865   0.174
10107TIP3    H230199   0.393   4.875   0.186
10108TIP3   OH230200   3.834   8.080   5.894
10108TIP3    H130201   3.836   8.051   5.803
10108TIP3    H230202   3.751   8.127   5.902
10109TIP3   OH230203   4.762   6.525   3.242
10109TIP3    H130204   4.789   6.545   3.331
10109TIP3    H230205   4.681   6.475   3.252
10110TIP3   OH230206   3.403   5.377   3.349
10110TIP3    H130207   3.410   5.362   3.254
10110TIP3    H230208   3.311   5.363   3.369
10111TIP3   OH230209   6.099   1.686   5.198
10111TIP3    H130210   6.131   1.714   5.112
10111TIP3    H230211   6.169   1.630   5.232
10112TIP3   OH230212   8.291   0.864   0.641
10112TIP3    H130213   8.351   0.793   0.668
10112TIP3    H230214   8.227   0.868   0.712
10113TIP3   OH230215   5.439   1.800   7.110
10113TIP3    H130216   5.392   1.848   7.178
10113TIP3    H230217   5.417   1.846   7.029
10114TIP3   OH230218   0.036   4.788   2.716
10114TIP3    H130219  -0.048   4.791   2.669
10114TIP3    H230220   0.094   4.844   2.664
10115TIP3   OH230221   1.920   7.793   6.814
10115TIP3    H130222   1.967   7.723   6.768
10115TIP3    H230223   1.967   7.803   6.897
10116TIP3   OH230224   2.653   3.856   7.000
10116TIP3    H130225   2.621   3.814   7.080
10116TIP3    H230226   2.663   3.784   6.938
10117TIP3   OH230227   0.120   0.513   7.755
10117TIP3    H130228   0.110   0.524   7.661
10117TIP3    H230229   0.141   0.600   7.787
10118TIP3   OH230230   7.956   8.980   0.710
10118TIP3    H130231   8.037   9.019   0.677
10118TIP3    H230232   7.889   9.006   0.647
10119TIP3   OH230233   9.551   0.051   4.747
10119TIP3    H130234   9.470   0.010   4.717
10119TIP3    H230235   9.528   0.143   4.759
10120TIP3   OH230236   0.768   2.781   6.547
10120TIP3    H130237   0.704   2.791   6.617
10120TIP3    H230238   0.729   2.715   6.489
10121TIP3   OH230239   9.354   2.878   4.107
10121TIP3    H130240   9.281   2.915   4.156
10121TIP3    H230241   9.372   2.943   4.038
10122TIP3   OH230242   7.474   5.099   0.388
10122TIP3    H130243   7.429   5.182   0.403
10122TIP3    H230244   7.565   5.124   0.370
10123TIP3   OH230245   8.847   2.270   0.189
10123TIP3    H130246   8.782   2.200   0.199
10123TIP3    H230247   8.911   2.254   0.258
10124TIP3   OH230248   3.298   4.019   3.807
10124TIP3    H130249   3.339   4.047   3.889
10124TIP3    H230250   3.219   3.972   3.834
10125TIP3   OH230251   4.872   1.687   6.420
10125TIP3    H130252   4.815   1.716   6.491
10125TIP3    H230253   4.889   1.595   6.439
10126TIP3   OH230254   6.273   6.774   2.616
10126TIP3    H130255   6.364   6.759   2.644
10126TIP3    H230256   6.281   6.807   2.527
10127TIP3   OH230257   4.823   8.404   1.736
10127TIP3    H130258   4.843   8.422   1.828
10127TIP3    H230259   4.877   8.327   1.715
10128TIP3   OH230260   5.615   1.102   1.173
10128TIP3    H130261   5.648   1.049   1.100
10128TIP3    H230262   5.692   1.118   1.227
10129TIP3   OH230263   6.121   5.724   3.885
10129TIP3    H130264   6.077   5.780   3.949
10129TIP3    H230265   6.214   5.735   3.903
10130TIP3   OH230266   7.509   6.659   2.489
10130TIP3    H130267   7.491   6.593   2.421
10130TIP3    H230268   7.565   6.723   2.445
10131TIP3   OH230269   9.560   4.261   5.664
10131TIP3    H130270   9.471   4.294   5.658
10131TIP3    H230271   9.570   4.235   5.755
10132TIP3   OH230272   2.330   5.973   7.805
10132TIP3    H130273   2.415   5.949   7.769
10132TIP3    H230274   2.270   5.968   7.731
10133TIP3   OH230275   2.719   6.492   7.744
10133TIP3    H130276   2.672   6.414   7.773
10133TIP3    H230277   2.652   6.561   7.744
10134TIP3   OH230278   0.455   1.830   3.755
10134TIP3    H130279   0.399   1.752   3.758
10134TIP3    H230280   0.451   1.859   3.664
10135TIP3   OH230281   2.760   4.278   4.438
10135TIP3    H130282   2.760   4.185   4.461
10135TIP3    H230283   2.759   4.279   4.342
10136TIP3   OH230284   1.130   7.745   4.947
10136TIP3    H130285   1.037   7.728   4.953
10136TIP3    H230286   1.160   7.744   5.038
10137TIP3   OH230287   8.237   7.077   4.312
10137TIP3    H130288   8.165   7.096   4.252
10137TIP3    H230289   8.310   7.129   4.279
10138TIP3   OH230290   1.583   5.703   7.111
10138TIP3    H130291   1.646   5.638   7.141
10138TIP3    H230292   1.587   5.698   7.015
10139TIP3   OH230293   1.935   0.758   4.991
10139TIP3    H130294   2.023   0.785   4.962
10139TIP3    H230295   1.883   0.838   4.989
10140TIP3   OH230296   3.463   5.589   3.513
10140TIP3    H130297   3.430   5.645   3.443
10140TIP3    H230298   3.443   5.500   3.485
10141TIP3   OH230299   0.138   7.906   7.099
10141TIP3    H130300   0.059   7.852   7.108
10141TIP3    H230301   0.209   7.849   7.128
10142TIP3   OH230302   2.999   8.244   4.737
10142TIP3    H130303   2.909   8.274   4.724
10142TIP3    H230304   3.031   8.295   4.811
10143TIP3   OH230305   4.640   7.696   7.062
10143TIP3    H130306   4.593   7.637   7.003
10143TIP3    H230307   4.675   7.764   7.005
10144TIP3   OH230308   2.045   4.220   2.978
10144TIP3    H130309   2.134   4.191   2.956
10144TIP3    H230310   2.028   4.179   3.063
10145TIP3   OH230311   1.801   6.462   2.642
10145TIP3    H130312   1.812   6.494   2.732
10145TIP3    H230313   1.872   6.503   2.593
10146TIP3   OH230314   0.974   8.682   7.565
10146TIP3    H130315   1.004   8.718   7.649
10146TIP3    H230316   0.896   8.631   7.586
10147TIP3   OH230317   4.467   0.555   5.121
10147TIP3    H130318   4.538   0.493   5.134
10147TIP3    H230319   4.473   0.580   5.028
10148TIP3   OH230320   9.153   2.243   6.526
10148TIP3    H130321   9.208   2.318   6.506
10148TIP3    H230322   9.064   2.273   6.510
10149TIP3   OH230323   1.754   3.189   4.601
10149TIP3    H130324   1.847   3.201   4.579
10149TIP3    H230325   1.742   3.241   4.680
10150TIP3   OH230326   5.949   5.629   7.425
10150TIP3    H130327   6.035   5.665   7.405
10150TIP3    H230328   5.967   5.556   7.485
10151TIP3   OH230329   3.496   4.017   4.642
10151TIP3    H130330   3.444   4.062   4.575
10151TIP3    H230331   3.500   3.926   4.613
10152TIP3   OH230332   5.385   5.110   2.904
10152TIP3    H130333   5.301   5.153   2.887
10152TIP3    H230334   5.449   5.180   2.898
10153TIP3   OH230335   8.163   6.969   7.595
10153TIP3    H130336   8.102   6.957   7.667
10153TIP3    H230337   8.120   7.033   7.537
10154TIP3   OH230338   0.111   1.514   7.070
10154TIP3    H130339   0.064   1.430   7.066
10154TIP3    H230340   0.196   1.496   7.030
10155TIP3   OH230341   1.281   4.254   2.919
10155TIP3    H130342   1.252   4.221   3.004
10155TIP3    H230343   1.376   4.239   2.920
10156TIP3   OH230344   8.824   8.015   5.850
10156TIP3    H130345   8.834   8.108   5.830
10156TIP3    H230346   8.874   8.003   5.931
10157TIP3   OH230347   2.354   0.257   7.702
10157TIP3    H130348   2.335   0.266   7.608
10157TIP3    H230349   2.450   0.250   7.706
10158TIP3   OH230350   1.357   2.645   1.367
10158TIP3    H130351   1.439   2.694   1.376
10158TIP3    H230352   1.382   2.553   1.375
10159TIP3   OH230353   6.765   1.336   7.060
10159TIP3    H130354   6.781   1.380   7.144
10159TIP3    H230355   6.722   1.254   7.084
10160TIP3   OH230356   5.227   8.689   0.956
10160TIP3    H130357   5.288   8.642   1.014
10160TIP3    H230358   5.231   8.640   0.874
10161TIP3   OH230359   6.581   3.704   3.881
10161TIP3    H130360   6.539   3.689   3.966
10161TIP3    H230361   6.576   3.798   3.868
10162TIP3   OH230362   8.658   1.520   5.271
10162TIP3    H130363   8.592   1.590   5.274
10162TIP3    H230364   8.717   1.546   5.201
10163TIP3   OH230365   4.888   4.487   5.620
10163TIP3    H130366   4.866   4.490   5.527
10163TIP3    H230367   4.824   4.546   5.661
10164TIP3   OH230368   8.173   7.279   0.588
10164TIP3    H130369   8.206   7.364   0.558
10164TIP3    H230370   8.235   7.216   0.552
10165TIP3   OH230371   4.760   6.470   4.986
10165TIP3    H130372   4.690   6.419   5.028
10165TIP3    H230373   4.717   6.513   4.912
10166TIP3   OH230374   5.846   6.632   1.480
10166TIP3    H130375   5.873   6.701   1.419
10166TIP3    H230376   5.914   6.565   1.472
10167TIP3   OH230377   1.595   5.482   3.809
10167TIP3    H130378   1.589   5.511   3.718
10167TIP3    H230379   1.581   5.562   3.860
10168TIP3   OH230380   5.473   7.085   1.885
10168TIP3    H130381   5.509   7.164   1.925
10168TIP3    H230382   5.379   7.102   1.877
10169TIP3   OH230383   9.115   8.845   5.192
10169TIP3    H130384   9.043   8.860   5.130
10169TIP3    H230385   9.072   8.807   5.269
10170TIP3   OH230386   0.874   3.919   5.155
10170TIP3    H130387   0.820   3.842   5.138
10170TIP3    H230388   0.873   3.928   5.250
10171TIP3   OH230389   8.264   1.884   2.632
10171TIP3    H130390   8.269   1.819   2.561
10171TIP3    H230391   8.314   1.845   2.703
10172TIP3   OH230392   9.259   7.737   1.029
10172TIP3    H130393   9.331   7.793   0.999
10172TIP3    H230394   9.208   7.793   1.086
10173TIP3   OH230395   5.996   0.562   1.305
10173TIP3    H130396   6.057   0.528   1.240
10173TIP3    H230397   6.037   0.643   1.336
10174TIP3   OH230398   6.231   5.493   1.234
10174TIP3    H130399   6.163   5.533   1.180
10174TIP3    H230400   6.293   5.563   1.251
10175TIP3   OH230401   2.302   5.405   7.386
10175TIP3    H130402   2.375   5.414   7.448
10175TIP3    H230403   2.224   5.421   7.439
10176TIP3   OH230404   6.320   4.323   1.939
10176TIP3    H130405   6.335   4.417   1.925
10176TIP3    H230406   6.383   4.300   2.008
10177TIP3   OH230407   3.453   5.209   4.240
10177TIP3    H130408   3.435   5.274   4.172
10177TIP3    H230409   3.544   5.183   4.226
10178TIP3   OH230410   0.999   0.757   6.852
10178TIP3    H130411   0.962   0.671   6.834
10178TIP3    H230412   0.923   0.815   6.857
10179TIP3   OH230413   7.019   3.383   7.371
10179TIP3    H130414   6.995   3.413   7.459
10179TIP3    H230415   6.958   3.429   7.313
10180TIP3   OH230416   6.495   4.288   5.323
10180TIP3    H130417   6.414   4.261   5.281
10180TIP3    H230418   6.544   4.333   5.254
10181TIP3   OH230419   8.214   4.273   3.285
10181TIP3    H130420   8.295   4.235   3.250
10181TIP3    H230421   8.243   4.350   3.334
10182TIP3   OH230422   4.907   3.316   3.658
10182TIP3    H130423   4.872   3.342   3.743
10182TIP3    H230424   4.994   3.281   3.678
10183TIP3   OH230425   8.190   7.171   3.132
10183TIP3    H130426   8.102   7.138   3.115
10183TIP3    H230427   8.194   7.181   3.227
10184TIP3   OH230428   1.389   6.389   0.088
10184TIP3    H130429   1.386   6.297   0.113
10184TIP3    H230430   1.321   6.431   0.141
10185TIP3   OH230431   2.928   7.393   1.194
10185TIP3    H130432   2.861   7.325   1.201
10185TIP3    H230433   3.009   7.346   1.173
10186TIP3   OH230434   9.515   3.565   0.942
10186TIP3    H130435   9.426   3.544   0.914
10186TIP3    H230436   9.553   3.481   0.966
10187TIP3   OH230437   1.357   2.708   1.104
10187TIP3    H130438   1.361   2.707   1.200
10187TIP3    H230439   1.448   2.695   1.076
10188TIP3   OH230440   7.867   2.630   2.490
10188TIP3    H130441   7.952   2.650   2.530
10188TIP3    H230442   7.852   2.538   2.511
10189TIP3   OH230443   3.228   4.926   7.295
10189TIP3    H130444   3.200   4.843   7.258
10189TIP3    H230445   3.201   4.922   7.387
10190TIP3   OH230446   1.740   0.792   7.366
10190TIP3    H130447   1.766   0.846   7.440
10190TIP3    H230448   1.645   0.796   7.365
10191TIP3   OH230449   2.826   1.964   1.121
10191TIP3    H130450   2.802   1.959   1.028
10191TIP3    H230451   2.768   2.030   1.158
10192TIP3   OH230452   6.567   2.261   0.251
10192TIP3    H130453   6.549   2.266   0.345
10192TIP3    H230454   6.617   2.340   0.231
10193TIP3   OH230455   2.036   2.703   2.844
10193TIP3    H130456   2.088   2.738   2.772
10193TIP3    H230457   2.094   2.639   2.887
10194TIP3   OH230458   6.688   0.545   4.720
10194TIP3    H130459   6.648   0.555   4.806
10194TIP3    H230460   6.707   0.451   4.713
10195TIP3   OH230461   1.625   2.883   7.643
10195TIP3    H130462   1.566   2.926   7.581
10195TIP3    H230463   1.599   2.918   7.728
10196TIP3   OH230464   2.073   6.886   5.012
10196TIP3    H130465   2.158   6.920   5.040
10196TIP3    H230466   2.076   6.793   5.035
10197TIP3   OH230467   5.459   5.088   0.125
10197TIP3    H130468   5.408   5.153   0.077
10197TIP3    H230469   5.549   5.102   0.097
10198TIP3   OH230470   7.334   0.694   1.240
10198TIP3    H130471   7.376   0.780   1.242
10198TIP3    H230472   7.307   0.683   1.149
10199TIP3   OH230473   2.284   6.767   3.856
10199TIP3    H130474   2.363   6.764   3.803
10199TIP3    H230475   2.279   6.681   3.896
10200TIP3   OH230476   8.215   0.013   5.674
10200TIP3    H130477   8.190  -0.078   5.658
10200TIP3    H230478   8.278   0.009   5.746
10201TIP3   OH230479   1.298   0.864   5.453
10201TIP3    H130480   1.360   0.803   5.411
10201TIP3    H230481   1.230   0.877   5.387
10202TIP3   OH230482   1.839   8.629   5.970
10202TIP3    H130483   1.766   8.685   5.994
10202TIP3    H230484   1.883   8.609   6.053
10203TIP3   OH230485   7.606   1.928   1.173
10203TIP3    H130486   7.516   1.962   1.170
10203TIP3    H230487   7.644   1.969   1.251
10204TIP3   OH230488   9.075   4.162   5.221
10204TIP3    H130489   9.066   4.070   5.245
10204TIP3    H230490   9.009   4.176   5.154
10205TIP3   OH230491   0.682   5.590   2.396
10205TIP3    H130492   0.741   5.570   2.322
10205TIP3    H230493   0.739   5.591   2.472
10206TIP3   OH230494   1.177   6.091   4.446
10206TIP3    H130495   1.213   6.027   4.507
10206TIP3    H230496   1.099   6.048   4.409
10207TIP3   OH230497   6.842   8.370   1.186
10207TIP3    H130498   6.866   8.280   1.207
10207TIP3    H230499   6.847   8.375   1.091
10208TIP3   OH230500   8.821   7.142   1.652
10208TIP3    H130501   8.813   7.237   1.664
10208TIP3    H230502   8.778   7.125   1.569
10209TIP3   OH230503   9.463   7.872   6.124
10209TIP3    H130504   9.557   7.892   6.124
10209TIP3    H230505   9.453   7.803   6.058
10210TIP3   OH230506   6.356   8.458   6.553
10210TIP3    H130507   6.443   8.497   6.546
10210TIP3    H230508   6.371   8.364   6.544
10211TIP3   OH230509   1.897   8.573   2.037
10211TIP3    H130510   1.975   8.588   2.090
10211TIP3    H230511   1.855   8.659   2.031
10212TIP3   OH230512   2.034   2.373   1.238
10212TIP3    H130513   1.982   2.415   1.306
10212TIP3    H230514   2.008   2.280   1.242
10213TIP3   OH230515   5.280   8.752   3.382
10213TIP3    H130516   5.349   8.776   3.443
10213TIP3    H230517   5.271   8.657   3.392
10214TIP3   OH230518   3.157   8.154   6.990
10214TIP3    H130519   3.236   8.184   7.036
10214TIP3    H230520   3.190   8.093   6.923
10215TIP3   OH230521   3.815   1.500   6.195
10215TIP3    H130522   3.792   1.534   6.108
10215TIP3    H230523   3.878   1.431   6.178
10216TIP3   OH230524   6.062   2.132   1.229
10216TIP3    H130525   6.108   2.076   1.293
10216TIP3    H230526   5.969   2.112   1.243
10217TIP3   OH230527   6.774   1.509   5.739
10217TIP3    H130528   6.747   1.502   5.830
10217TIP3    H230529   6.847   1.448   5.731
10218TIP3   OH230530   3.579   8.547   2.046
10218TIP3    H130531   3.509   8.544   1.981
10218TIP3    H230532   3.575   8.636   2.081
10219TIP3   OH230533   6.064   6.884   2.361
10219TIP3    H130534   6.147   6.924   2.385
10219TIP3    H230535   6.029   6.940   2.292
10220TIP3   OH230536   2.143   7.337   6.473
10220TIP3    H130537   2.168   7.383   6.553
10220TIP3    H230538   2.141   7.406   6.406
10221TIP3   OH230539   2.250   2.320   7.319
10221TIP3    H130540   2.203   2.290   7.242
10221TIP3    H230541   2.225   2.411   7.329
10222TIP3   OH230542   7.185   7.515   1.180
10222TIP3    H130543   7.177   7.574   1.256
10222TIP3    H230544   7.243   7.562   1.120
10223TIP3   OH230545   7.912   6.336   6.817
10223TIP3    H130546   7.851   6.313   6.887
10223TIP3    H230547   7.984   6.381   6.861
10224TIP3   OH230548   4.941   1.330   2.569
10224TIP3    H130549   4.885   1.253   2.572
10224TIP3    H230550   4.883   1.401   2.543
10225TIP3   OH230551   8.380   0.802   7.268
10225TIP3    H130552   8.442   0.736   7.298
10225TIP3    H230553   8.312   0.804   7.335
10226TIP3   OH230554   2.556   6.741   0.336
10226TIP3    H130555   2.545   6.719   0.244
10226TIP3    H230556   2.562   6.657   0.381
10227TIP3   OH230557   8.167   4.801   3.964
10227TIP3    H130558   8.118   4.769   3.888
10227TIP3    H230559   8.239   4.852   3.926
10228TIP3   OH230560   5.499   6.058   7.535
10228TIP3    H130561   5.467   6.111   7.463
10228TIP3    H230562   5.432   5.991   7.548
10229TIP3   OH230563   5.794   2.770   4.633
10229TIP3    H130564   5.832   2.756   4.720
10229TIP3    H230565   5.700   2.779   4.649
10230TIP3   OH230566   7.287   2.676   1.291
10230TIP3    H130567   7.237   2.748   1.252
10230TIP3    H230568   7.326   2.630   1.217
10231TIP3   OH230569   6.203   5.140   5.589
10231TIP3    H130570   6.267   5.069   5.598
10231TIP3    H230571   6.241   5.200   5.525
10232TIP3   OH230572   9.341   3.512   4.292
10232TIP3    H130573   9.354   3.470   4.207
10232TIP3    H230574   9.301   3.445   4.347
10233TIP3   OH230575   4.971   8.915   1.558
10233TIP3    H130576   4.998   8.902   1.648
10233TIP3    H230577   4.884   8.954   1.565
10234TIP3   OH230578   8.177   5.025   4.414
10234TIP3    H130579   8.227   5.006   4.335
10234TIP3    H230580   8.144   5.114   4.401
10235TIP3   OH230581   7.365   1.187   1.222
10235TIP3    H130582   7.291   1.204   1.281
10235TIP3    H230583   7.436   1.241   1.258
10236TIP3   OH230584   6.515   6.547   5.534
10236TIP3    H130585   6.560   6.480   5.586
10236TIP3    H230586   6.568   6.626   5.546
10237TIP3   OH230587   0.124   1.951   7.651
10237TIP3    H130588   0.147   2.004   7.574
10237TIP3    H230589   0.101   1.866   7.616
10238TIP3   OH230590   5.391   5.287   1.459
10238TIP3    H130591   5.332   5.213   1.469
10238TIP3    H230592   5.363   5.330   1.378
10239TIP3   OH230593   3.269   3.324   5.651
10239TIP3    H130594   3.175   3.320   5.636
10239TIP3    H230595   3.288   3.250   5.709
10240TIP3   OH230596   7.268   4.842   0.228
10240TIP3    H130597   7.314   4.835   0.311
10240TIP3    H230598   7.249   4.935   0.218
10241TIP3   OH230599   5.397   6.834   2.115
10241TIP3    H130600   5.473   6.849   2.058
10241TIP3    H230601   5.413   6.888   2.192
10242TIP3   OH230602   0.445   3.860   3.522
10242TIP3    H130603   0.395   3.786   3.489
10242TIP3    H230604   0.536   3.831   3.518
10243TIP3   OH230605   6.859   2.070   1.370
10243TIP3    H130606   6.914   1.994   1.386
10243TIP3    H230607   6.916   2.145   1.384
10244TIP3   OH230608   5.456   2.071   6.598
10244TIP3    H130609   5.389   2.068   6.528
10244TIP3    H230610   5.515   1.998   6.577
10245TIP3   OH230611   3.000   1.422   4.495
10245TIP3    H130612   2.987   1.426   4.590
10245TIP3    H230613   3.085   1.465   4.481
10246TIP3   OH230614   7.751   6.731   6.774
10246TIP3    H130615   7.747   6.636   6.768
10246TIP3    H230616   7.822   6.748   6.836
10247TIP3   OH230617   3.684   4.964   2.072
10247TIP3    H130618   3.595   4.948   2.039
10247TIP3    H230619   3.707   5.050   2.037
10248TIP3   OH230620   9.509   6.825   1.418
10248TIP3    H130621   9.424   6.823   1.461
10248TIP3    H230622   9.526   6.918   1.403
10249TIP3   OH230623   0.753   1.792   3.698
10249TIP3    H130624   0.749   1.792   3.793
10249TIP3    H230625   0.662   1.793   3.669
10250TIP3   OH230626   8.519   8.559   5.577
10250TIP3    H130627   8.580   8.497   5.616
10250TIP3    H230628   8.474   8.598   5.652
10251TIP3   OH230629   0.709   5.891   3.481
10251TIP3    H130630   0.783   5.863   3.535
10251TIP3    H230631   0.679   5.972   3.523
10252TIP3   OH230632   5.435   5.303   6.634
10252TIP3    H130633   5.388   5.381   6.664
10252TIP3    H230634   5.430   5.307   6.539
10253TIP3   OH230635   0.080   1.953   5.668
10253TIP3    H130636   0.040   1.871   5.697
10253TIP3    H230637   0.172   1.944   5.691
10254TIP3   OH230638   4.120   6.135   1.491
10254TIP3    H130639   4.131   6.043   1.466
10254TIP3    H230640   4.129   6.183   1.408
10255TIP3   OH230641   1.941   3.457   7.322
10255TIP3    H130642   1.931   3.371   7.363
10255TIP3    H230643   2.032   3.482   7.341
10256TIP3   OH230644   6.900   5.701   0.748
10256TIP3    H130645   6.895   5.622   0.694
10256TIP3    H230646   6.809   5.728   0.760
10257TIP3   OH230647   7.326   3.471   5.375
10257TIP3    H130648   7.293   3.488   5.464
10257TIP3    H230649   7.295   3.545   5.323
10258TIP3   OH230650   7.833   0.522   4.521
10258TIP3    H130651   7.742   0.501   4.538
10258TIP3    H230652   7.883   0.465   4.579
10259TIP3   OH230653   9.088   6.239   2.618
10259TIP3    H130654   9.181   6.248   2.595
10259TIP3    H230655   9.050   6.190   2.546
10260TIP3   OH230656   3.732   8.738   3.191
10260TIP3    H130657   3.827   8.743   3.179
10260TIP3    H230658   3.721   8.686   3.270
10261TIP3   OH230659   8.687   1.300   2.756
10261TIP3    H130660   8.596   1.330   2.757
10261TIP3    H230661   8.689   1.226   2.816
10262TIP3   OH230662   0.125   7.892   0.951
10262TIP3    H130663   0.191   7.868   1.016
10262TIP3    H230664   0.166   7.961   0.899
10263TIP3   OH230665   7.101   3.730   7.087
10263TIP3    H130666   7.110   3.771   7.001
10263TIP3    H230667   7.185   3.748   7.131
10264TIP3   OH230668   4.884   0.773   3.831
10264TIP3    H130669   4.911   0.683   3.847
10264TIP3    H230670   4.789   0.772   3.842
10265TIP3   OH230671   0.485   6.922   2.926
10265TIP3    H130672   0.527   6.934   3.011
10265TIP3    H230673   0.554   6.941   2.862
10266TIP3   OH230674   5.668   2.486   7.533
10266TIP3    H130675   5.756   2.448   7.528
10266TIP3    H230676   5.675   2.551   7.603
10267TIP3   OH230677   5.944   5.245   4.380
10267TIP3    H130678   5.961   5.157   4.413
10267TIP3    H230679   5.850   5.247   4.362
10268TIP3   OH230680   7.497   1.774   7.568
10268TIP3    H130681   7.519   1.681   7.574
10268TIP3    H230682   7.581   1.817   7.548
10269TIP3   OH230683   5.870   6.766   0.965
10269TIP3    H130684   5.786   6.790   1.005
10269TIP3    H230685   5.906   6.849   0.934
10270TIP3   OH230686   6.072   5.408   6.625
10270TIP3    H130687   6.080   5.430   6.532
10270TIP3    H230688   6.053   5.491   6.668
10271TIP3   OH230689   7.018   7.874   0.246
10271TIP3    H130690   7.061   7.863   0.162
10271TIP3    H230691   6.940   7.819   0.241
10272TIP3   OH230692   0.806   3.050   7.224
10272TIP3    H130693   0.863   2.982   7.260
10272TIP3    H230694   0.790   3.110   7.297
10273TIP3   OH230695   8.228   3.368   2.355
10273TIP3    H130696   8.217   3.419   2.436
10273TIP3    H230697   8.309   3.319   2.368
10274TIP3   OH230698   0.108   6.297   4.706
10274TIP3    H130699   0.131   6.385   4.735
10274TIP3    H230700   0.057   6.260   4.779
10275TIP3   OH230701   8.535   7.397   5.375
10275TIP3    H130702   8.477   7.435   5.309
10275TIP3    H230703   8.620   7.436   5.357
10276TIP3   OH230704   6.863   1.655   0.580
10276TIP3    H130705   6.876   1.606   0.661
10276TIP3    H230706   6.890   1.594   0.511
10277TIP3   OH230707   3.574   1.477   7.497
10277TIP3    H130708   3.667   1.465   7.476
10277TIP3    H230709   3.572   1.481   7.593
10278TIP3   OH230710   3.556   7.890   0.925
10278TIP3    H130711   3.621   7.955   0.950
10278TIP3    H230712   3.571   7.875   0.832
10279TIP3   OH230713   4.498   0.460   5.680
10279TIP3    H130714   4.450   0.487   5.758
10279TIP3    H230715   4.586   0.495   5.693
10280TIP3   OH230716   6.660   1.515   7.636
10280TIP3    H130717   6.567   1.528   7.620
10280TIP3    H230718   6.701   1.595   7.604
10281TIP3   OH230719   4.722   3.524   5.005
10281TIP3    H130720   4.758   3.612   5.014
10281TIP3    H230721   4.664   3.513   5.080
10282TIP3   OH230722   8.051   7.271   1.655
10282TIP3    H130723   8.017   7.345   1.707
10282TIP3    H230724   7.988   7.261   1.584
10283TIP3   OH230725   3.435   4.236   2.696
10283TIP3    H130726   3.522   4.199   2.683
10283TIP3    H230727   3.407   4.264   2.609
10284TIP3   OH230728   4.214   0.505   2.863
10284TIP3    H130729   4.222   0.589   2.907
10284TIP3    H230730   4.204   0.442   2.935
10285TIP3   OH230731   6.450   8.813   3.410
10285TIP3    H130732   6.443   8.908   3.415
10285TIP3    H230733   6.541   8.794   3.431
10286TIP3   OH230734   4.606   4.972   6.802
10286TIP3    H130735   4.541   4.911   6.768
10286TIP3    H230736   4.595   4.969   6.897
10287TIP3   OH230737   4.377   5.800   1.065
10287TIP3    H130738   4.385   5.828   0.974
10287TIP3    H230739   4.441   5.730   1.075
10288TIP3   OH230740   1.747   6.083   3.344
10288TIP3    H130741   1.681   6.025   3.305
10288TIP3    H230742   1.758   6.050   3.433
10289TIP3   OH230743   6.199   3.872   2.977
10289TIP3    H130744   6.122   3.845   3.027
10289TIP3    H230745   6.171   3.951   2.931
10290TIP3   OH230746   1.701   1.305   1.857
10290TIP3    H130747   1.790   1.340   1.851
10290TIP3    H230748   1.656   1.343   1.782
10291TIP3   OH230749   8.165   5.217   2.728
10291TIP3    H130750   8.248   5.228   2.776
10291TIP3    H230751   8.159   5.123   2.713
10292TIP3   OH230752   6.998   7.100   4.921
10292TIP3    H130753   7.066   7.093   4.854
10292TIP3    H230754   6.979   7.194   4.926
10293TIP3   OH230755   7.109   0.477   2.724
10293TIP3    H130756   7.193   0.522   2.732
10293TIP3    H230757   7.048   0.531   2.774
10294TIP3   OH230758   5.557   6.317   7.741
10294TIP3    H130759   5.630   6.283   7.689
10294TIP3    H230760   5.596   6.381   7.799
10295TIP3   OH230761   1.389   6.495   6.514
10295TIP3    H130762   1.311   6.539   6.549
10295TIP3    H230763   1.424   6.555   6.449
10296TIP3   OH230764   7.365   0.430   1.309
10296TIP3    H130765   7.305   0.380   1.254
10296TIP3    H230766   7.346   0.521   1.290
10297TIP3   OH230767   1.829   2.826   7.043
10297TIP3    H130768   1.825   2.747   7.097
10297TIP3    H230769   1.741   2.833   7.006
10298TIP3   OH230770   4.306   8.971   1.687
10298TIP3    H130771   4.247   8.978   1.762
10298TIP3    H230772   4.369   9.043   1.699
10299TIP3   OH230773   3.419   8.045   6.236
10299TIP3    H130774   3.441   7.952   6.242
10299TIP3    H230775   3.504   8.090   6.235
10300TIP3   OH230776   1.214   2.509   2.857
10300TIP3    H130777   1.205   2.482   2.766
10300TIP3    H230778   1.308   2.517   2.871
10301TIP3   OH230779   3.762   0.079   5.018
10301TIP3    H130780   3.695   0.020   4.985
10301TIP3    H230781   3.832   0.021   5.049
10302TIP3   OH230782   6.794   5.091   3.352
10302TIP3    H130783   6.839   5.007   3.360
10302TIP3    H230784   6.717   5.071   3.298
10303TIP3   OH230785   2.197   6.353   0.393
10303TIP3    H130786   2.179   6.387   0.481
10303TIP3    H230787   2.246   6.273   0.408
10304TIP3   OH230788   5.600   1.476   1.468
10304TIP3    H130789   5.585   1.471   1.562
10304TIP3    H230790   5.695   1.468   1.458
10305TIP3   OH230791   6.508   5.930   2.383
10305TIP3    H130792   6.522   5.972   2.468
10305TIP3    H230793   6.546   5.991   2.320
10306TIP3   OH230794   7.640   2.697   1.059
10306TIP3    H130795   7.564   2.640   1.060
10306TIP3    H230796   7.604   2.786   1.051
10307TIP3   OH230797   5.615   3.447   1.560
10307TIP3    H130798   5.643   3.444   1.468
10307TIP3    H230799   5.697   3.439   1.610
10308TIP3   OH230800   8.631   6.437   7.745
10308TIP3    H130801   8.659   6.517   7.790
10308TIP3    H230802   8.687   6.368   7.781
10309TIP3   OH230803   6.120   0.379   7.214
10309TIP3    H130804   6.181   0.349   7.281
10309TIP3    H230805   6.110   0.304   7.156
10310TIP3   OH230806   1.175   2.863   1.453
10310TIP3    H130807   1.101   2.812   1.487
10310TIP3    H230808   1.236   2.798   1.420
10311TIP3   OH230809   1.348   3.132   3.963
10311TIP3    H130810   1.378   3.100   4.048
10311TIP3    H230811   1.266   3.178   3.983
10312TIP3   OH230812   7.455   4.721   1.889
10312TIP3    H130813   7.508   4.685   1.960
10312TIP3    H230814   7.367   4.728   1.925
10313TIP3   OH230815   0.184   3.685   7.229
10313TIP3    H130816   0.109   3.696   7.287
10313TIP3    H230817   0.167   3.603   7.182
10314TIP3   OH230818   3.233   0.227   5.250
10314TIP3    H130819   3.312   0.229   5.195
10314TIP3    H230820   3.260   0.182   5.330
10315TIP3   OH230821   3.045   0.551   7.744
10315TIP3    H130822   3.100   0.618   7.785
10315TIP3    H230823   3.101   0.513   7.675
10316TIP3   OH230824   9.499   1.065   5.262
10316TIP3    H130825   9.554   0.995   5.296
10316TIP3    H230826   9.446   1.024   5.194
10317TIP3   OH230827   2.634   1.057   6.987
10317TIP3    H130828   2.674   1.074   6.901
10317TIP3    H230829   2.574   0.985   6.971
10318TIP3   OH230830   3.927   0.520   5.560
10318TIP3    H130831   3.913   0.578   5.485
10318TIP3    H230832   3.842   0.515   5.603
10319TIP3   OH230833   0.590   2.722   2.890
10319TIP3    H130834   0.651   2.790   2.919
10319TIP3    H230835   0.535   2.705   2.967
10320TIP3   OH230836   6.044   1.417   0.780
10320TIP3    H130837   6.060   1.432   0.687
10320TIP3    H230838   6.092   1.337   0.800
10321TIP3   OH230839   5.840   5.822   3.631
10321TIP3    H130840   5.805   5.858   3.550
10321TIP3    H230841   5.904   5.757   3.603
10322TIP3   OH230842   4.985   8.187   5.178
10322TIP3    H130843   5.052   8.119   5.169
10322TIP3    H230844   4.914   8.159   5.121
10323TIP3   OH230845   7.119   3.736   5.838
10323TIP3    H130846   7.119   3.793   5.914
10323TIP3    H230847   7.201   3.756   5.793
10324TIP3   OH230848   6.859   0.768   0.638
10324TIP3    H130849   6.888   0.786   0.727
10324TIP3    H230850   6.814   0.684   0.645
10325TIP3   OH230851   1.395   3.898   7.229
10325TIP3    H130852   1.324   3.929   7.172
10325TIP3    H230853   1.442   3.834   7.176
10326TIP3   OH230854   5.690   3.449   5.312
10326TIP3    H130855   5.686   3.539   5.343
10326TIP3    H230856   5.657   3.397   5.386
10327TIP3   OH230857   1.871   1.752   6.548
10327TIP3    H130858   1.864   1.801   6.466
10327TIP3    H230859   1.965   1.749   6.565
10328TIP3   OH230860   7.191   2.936   2.130
10328TIP3    H130861   7.284   2.957   2.132
10328TIP3    H230862   7.151   3.009   2.082
10329TIP3   OH230863   0.221   8.947   4.170
10329TIP3    H130864   0.235   8.889   4.094
10329TIP3    H230865   0.172   8.893   4.232
10330TIP3   OH230866   3.767   6.449   2.336
10330TIP3    H130867   3.784   6.517   2.271
10330TIP3    H230868   3.765   6.368   2.285
10331TIP3   OH230869   0.394   4.760   1.376
10331TIP3    H130870   0.348   4.715   1.306
10331TIP3    H230871   0.426   4.841   1.336
10332TIP3   OH230872   2.207   2.465   1.626
10332TIP3    H130873   2.239   2.398   1.566
10332TIP3    H230874   2.179   2.537   1.569
10333TIP3   OH230875   2.453   4.103   5.570
10333TIP3    H130876   2.436   4.182   5.517
10333TIP3    H230877   2.367   4.077   5.602
10334TIP3   OH230878   6.516   7.623   0.204
10334TIP3    H130879   6.504   7.572   0.124
10334TIP3    H230880   6.512   7.559   0.275
10335TIP3   OH230881   7.701   3.580   3.724
10335TIP3    H130882   7.713   3.673   3.745
10335TIP3    H230883   7.739   3.533   3.798
10336TIP3   OH230884   6.419   3.984   3.133
10336TIP3    H130885   6.362   3.964   3.059
10336TIP3    H230886   6.480   3.910   3.138
10337TIP3   OH230887   5.569   4.095   4.427
10337TIP3    H130888   5.550   4.161   4.360
10337TIP3    H230889   5.663   4.103   4.443
10338TIP3   OH230890   9.258   1.366   7.172
10338TIP3    H130891   9.288   1.437   7.229
10338TIP3    H230892   9.202   1.313   7.229
10339TIP3   OH230893   3.740   6.784   3.259
10339TIP3    H130894   3.776   6.850   3.200
10339TIP3    H230895   3.705   6.834   3.333
10340TIP3   OH230896   3.565   8.650   0.017
10340TIP3    H130897   3.661   8.649   0.015
10340TIP3    H230898   3.539   8.661  -0.074
10341TIP3   OH230899   1.738   5.647   4.867
10341TIP3    H130900   1.824   5.647   4.826
10341TIP3    H230901   1.692   5.720   4.825
10342TIP3   OH230902   1.168   0.246   2.565
10342TIP3    H130903   1.106   0.277   2.498
10342TIP3    H230904   1.124   0.264   2.648
10343TIP3   OH230905   6.781   8.564   5.477
10343TIP3    H130906   6.873   8.536   5.483
10343TIP3    H230907   6.779   8.624   5.402
10344TIP3   OH230908   3.186   7.575   6.652
10344TIP3    H130909   3.214   7.631   6.580
10344TIP3    H230910   3.092   7.593   6.662
10345TIP3   OH230911   1.788   2.502   2.978
10345TIP3    H130912   1.736   2.504   2.898
10345TIP3    H230913   1.876   2.476   2.950
10346TIP3   OH230914   7.375   8.060   0.766
10346TIP3    H130915   7.406   8.040   0.678
10346TIP3    H230916   7.288   8.097   0.753
10347TIP3   OH230917   1.549   2.384   2.229
10347TIP3    H130918   1.498   2.442   2.172
10347TIP3    H230919   1.616   2.346   2.172
10348TIP3   OH230920   0.368   5.164   4.298
10348TIP3    H130921   0.427   5.146   4.225
10348TIP3    H230922   0.281   5.169   4.259
10349TIP3   OH230923   4.197   2.448   0.167
10349TIP3    H130924   4.224   2.431   0.257
10349TIP3    H230925   4.109   2.410   0.161
10350TIP3   OH230926   2.515   7.371   0.172
10350TIP3    H130927   2.439   7.396   0.119
10350TIP3    H230928   2.495   7.404   0.259
10351TIP3   OH230929   4.164   3.075   0.073
10351TIP3    H130930   4.122   3.039   0.151
10351TIP3    H230931   4.255   3.045   0.079
10352TIP3   OH230932   5.926   4.178   4.821
10352TIP3    H130933   5.861   4.138   4.880
10352TIP3    H230934   5.943   4.110   4.755
10353TIP3   OH230935   8.706   8.192   7.795
10353TIP3    H130936   8.736   8.202   7.704
10353TIP3    H230937   8.742   8.269   7.839
10354TIP3   OH230938   4.034   3.542   0.028
10354TIP3    H130939   4.073   3.532   0.115
10354TIP3    H230940   4.057   3.461  -0.018
10355TIP3   OH230941   3.832   3.231   6.608
10355TIP3    H130942   3.887   3.198   6.678
10355TIP3    H230943   3.809   3.320   6.635
10356TIP3   OH230944   3.562   1.891   1.912
10356TIP3    H130945   3.489   1.830   1.908
10356TIP3    H230946   3.634   1.847   1.866
10357TIP3   OH230947   5.585   5.385   1.937
10357TIP3    H130948   5.639   5.463   1.924
10357TIP3    H230949   5.581   5.343   1.851
10358TIP3   OH230950   1.714   6.679   3.408
10358TIP3    H130951   1.684   6.759   3.451
10358TIP3    H230952   1.637   6.622   3.408
10359TIP3   OH230953   0.098   7.588   5.945
10359TIP3    H130954   0.099   7.495   5.921
10359TIP3    H230955   0.043   7.629   5.878
10360TIP3   OH230956   7.128   0.121   6.880
10360TIP3    H130957   7.139   0.208   6.918
10360TIP3    H230958   7.215   0.098   6.847
10361TIP3   OH230959   6.723   3.110   6.869
10361TIP3    H130960   6.750   3.108   6.961
10361TIP3    H230961   6.664   3.035   6.860
10362TIP3   OH230962   2.827   7.633   0.009
10362TIP3    H130963   2.855   7.624  -0.083
10362TIP3    H230964   2.820   7.543   0.040
10363TIP3   OH230965   1.829   4.737   7.811
10363TIP3    H130966   1.786   4.655   7.835
10363TIP3    H230967   1.917   4.710   7.784
10364TIP3   OH230968   7.442   1.830   3.153
10364TIP3    H130969   7.502   1.884   3.205
10364TIP3    H230970   7.434   1.876   3.069
10365TIP3   OH230971   4.046   4.640   2.569
10365TIP3    H130972   4.079   4.693   2.642
10365TIP3    H230973   3.987   4.577   2.610
10366TIP3   OH230974   5.781   0.995   6.027
10366TIP3    H130975   5.840   0.920   6.034
10366TIP3    H230976   5.832   1.069   6.061
10367TIP3   OH230977   1.706   4.410   1.084
10367TIP3    H130978   1.801   4.401   1.088
10367TIP3    H230979   1.678   4.412   1.175
10368TIP3   OH230980   0.387   8.174   5.955
10368TIP3    H130981   0.384   8.080   5.936
10368TIP3    H230982   0.424   8.180   6.043
10369TIP3   OH230983   6.203   1.298   3.640
10369TIP3    H130984   6.120   1.255   3.616
10369TIP3    H230985   6.236   1.247   3.714
10370TIP3   OH230986   8.731   4.980   6.944
10370TIP3    H130987   8.636   4.963   6.938
10370TIP3    H230988   8.761   4.922   7.015
10371TIP3   OH230989   3.713   0.570   0.202
10371TIP3    H130990   3.785   0.633   0.205
10371TIP3    H230991   3.667   0.590   0.121
10372TIP3   OH230992   3.940   8.231   0.646
10372TIP3    H130993   3.995   8.154   0.662
10372TIP3    H230994   3.937   8.276   0.730
10373TIP3   OH230995   8.626   0.014   7.046
10373TIP3    H130996   8.630  -0.058   6.983
10373TIP3    H230997   8.667  -0.021   7.125
10374TIP3   OH230998   1.694   4.689   0.575
10374TIP3    H130999   1.683   4.603   0.614
10374TIP3    H231000   1.688   4.674   0.481
10375TIP3   OH231001   0.597   7.382   2.996
10375TIP3    H131002   0.536   7.369   2.923
10375TIP3    H231003   0.638   7.467   2.978
10376TIP3   OH231004   9.333   3.668   7.751
10376TIP3    H131005   9.307   3.603   7.685
10376TIP3    H231006   9.428   3.660   7.757
10377TIP3   OH231007   5.143   5.369   7.326
10377TIP3    H131008   5.123   5.462   7.335
10377TIP3    H231009   5.216   5.366   7.264
10378TIP3   OH231010   5.615   5.302   7.322
10378TIP3    H131011   5.619   5.339   7.410
10378TIP3    H231012   5.548   5.354   7.277
10379TIP3   OH231013   3.988   2.167   0.920
10379TIP3    H131014   3.955   2.255   0.939
10379TIP3    H231015   3.913   2.109   0.934
10380TIP3   OH231016   5.617   8.309   2.736
10380TIP3    H131017   5.651   8.332   2.822
10380TIP3    H231018   5.676   8.240   2.705
10381TIP3   OH231019   8.480   1.896   7.629
10381TIP3    H131020   8.394   1.934   7.648
10381TIP3    H231021   8.467   1.802   7.637
10382TIP3   OH231022   8.015   1.243   4.090
10382TIP3    H131023   8.066   1.162   4.097
10382TIP3    H231024   8.082   1.312   4.085
10383TIP3   OH231025   5.149   7.161   3.741
10383TIP3    H131026   5.109   7.236   3.784
10383TIP3    H231027   5.220   7.198   3.689
10384TIP3   OH231028   3.835   7.642   6.832
10384TIP3    H131029   3.748   7.667   6.799
10384TIP3    H231030   3.868   7.722   6.872
10385TIP3   OH231031   1.872   5.342   3.740
10385TIP3    H131032   1.845   5.411   3.800
10385TIP3    H231033   1.791   5.306   3.706
10386TIP3   OH231034   2.621   5.603   1.121
10386TIP3    H131035   2.619   5.521   1.072
10386TIP3    H231036   2.586   5.580   1.208
10387TIP3   OH231037   6.551   0.498   1.728
10387TIP3    H131038   6.603   0.544   1.794
10387TIP3    H231039   6.486   0.450   1.779
10388TIP3   OH231040   8.538   5.919   3.850
10388TIP3    H131041   8.452   5.960   3.843
10388TIP3    H231042   8.538   5.852   3.782
10389TIP3   OH231043   1.937   4.533   5.752
10389TIP3    H131044   1.955   4.550   5.844
10389TIP3    H231045   2.006   4.578   5.704
10390TIP3   OH231046   6.162   5.465   1.585
10390TIP3    H131047   6.250   5.428   1.586
10390TIP3    H231048   6.113   5.410   1.524
10391TIP3   OH231049   6.120   7.255   2.254
10391TIP3    H131050   6.193   7.196   2.236
10391TIP3    H231051   6.151   7.311   2.325
10392TIP3   OH231052   5.448   6.072   6.647
10392TIP3    H131053   5.396   6.081   6.727
10392TIP3    H231054   5.457   6.162   6.615
10393TIP3   OH231055   5.866   1.722   5.360
10393TIP3    H131056   5.948   1.716   5.311
10393TIP3    H231057   5.891   1.707   5.451
10394TIP3   OH231058   4.500   0.847   5.001
10394TIP3    H131059   4.537   0.787   4.936
10394TIP3    H231060   4.496   0.932   4.956
10395TIP3   OH231061   1.562   5.134   6.496
10395TIP3    H131062   1.603   5.114   6.412
10395TIP3    H231063   1.547   5.049   6.537
10396TIP3   OH231064   1.081   1.898   4.381
10396TIP3    H131065   1.079   1.845   4.460
10396TIP3    H231066   1.142   1.969   4.402
10397TIP3   OH231067   7.270   2.209   2.813
10397TIP3    H131068   7.238   2.284   2.763
10397TIP3    H231069   7.275   2.241   2.903
10398TIP3   OH231070   7.309   5.713   2.657
10398TIP3    H131071   7.228   5.764   2.646
10398TIP3    H231072   7.304   5.678   2.746
10399TIP3   OH231073   3.868   3.810   3.918
10399TIP3    H131074   3.894   3.817   4.010
10399TIP3    H231075   3.795   3.748   3.918
10400TIP3   OH231076   1.366   8.456   0.411
10400TIP3    H131077   1.462   8.460   0.410
10400TIP3    H231078   1.345   8.393   0.342
10401TIP3   OH231079   2.583   5.762   3.341
10401TIP3    H131080   2.673   5.794   3.340
10401TIP3    H231081   2.532   5.837   3.374
10402TIP3   OH231082   7.437   4.772   4.634
10402TIP3    H131083   7.469   4.687   4.603
10402TIP3    H231084   7.396   4.752   4.718
10403TIP3   OH231085   4.754   2.209   3.991
10403TIP3    H131086   4.659   2.221   3.997
10403TIP3    H231087   4.770   2.126   4.036
10404TIP3   OH231088   8.382   1.555   0.536
10404TIP3    H131089   8.431   1.503   0.472
10404TIP3    H231090   8.297   1.512   0.541
10405TIP3   OH231091   1.454   8.717   6.667
10405TIP3    H131092   1.366   8.691   6.696
10405TIP3    H231093   1.506   8.637   6.671
10406TIP3   OH231094   3.717   8.241   2.375
10406TIP3    H131095   3.641   8.188   2.398
10406TIP3    H231096   3.786   8.178   2.354
10407TIP3   OH231097   3.659   8.363   5.528
10407TIP3    H131098   3.571   8.333   5.551
10407TIP3    H231099   3.669   8.340   5.436
10408TIP3   OH231100   2.246   6.260   2.076
10408TIP3    H131101   2.155   6.269   2.104
10408TIP3    H231102   2.257   6.166   2.061
10409TIP3   OH231103   2.650   2.446   5.500
10409TIP3    H131104   2.717   2.391   5.541
10409TIP3    H231105   2.696   2.528   5.481
10410TIP3   OH231106   0.817   4.598   4.563
10410TIP3    H131107   0.735   4.558   4.532
10410TIP3    H231108   0.883   4.529   4.552
10411TIP3   OH231109   8.623   7.184   0.992
10411TIP3    H131110   8.549   7.196   0.933
10411TIP3    H231111   8.607   7.099   1.033
10412TIP3   OH231112   4.447   7.267   5.229
10412TIP3    H131113   4.490   7.292   5.311
10412TIP3    H231114   4.372   7.214   5.255
10413TIP3   OH231115   3.857   3.915   3.474
10413TIP3    H131116   3.915   3.921   3.398
10413TIP3    H231117   3.794   3.986   3.462
10414TIP3   OH231118   3.069   7.018   1.002
10414TIP3    H131119   3.147   6.988   0.955
10414TIP3    H231120   2.996   6.985   0.949
10415TIP3   OH231121   4.038   8.300   7.099
10415TIP3    H131122   3.993   8.240   7.039
10415TIP3    H231123   4.015   8.387   7.067
10416TIP3   OH231124   7.964   5.431   3.572
10416TIP3    H131125   7.924   5.473   3.648
10416TIP3    H231126   8.052   5.407   3.601
10417TIP3   OH231127   8.264   6.008   4.194
10417TIP3    H131128   8.210   5.939   4.156
10417TIP3    H231129   8.239   6.087   4.146
10418TIP3   OH231130   3.106   0.208   0.673
10418TIP3    H131131   3.172   0.195   0.741
10418TIP3    H231132   3.151   0.187   0.591
10419TIP3   OH231133   5.939   3.403   3.769
10419TIP3    H131134   5.957   3.487   3.811
10419TIP3    H231135   5.878   3.424   3.698
10420TIP3   OH231136   0.694   1.757   3.970
10420TIP3    H131137   0.679   1.843   4.008
10420TIP3    H231138   0.664   1.695   4.036
10421TIP3   OH231139   0.669   4.603   6.594
10421TIP3    H131140   0.647   4.519   6.554
10421TIP3    H231141   0.586   4.637   6.626
10422TIP3   OH231142   5.447   8.596   1.065
10422TIP3    H131143   5.393   8.521   1.091
10422TIP3    H231144   5.510   8.559   1.003
10423TIP3   OH231145   1.734   2.544   6.232
10423TIP3    H131146   1.701   2.548   6.321
10423TIP3    H231147   1.778   2.628   6.219
10424TIP3   OH231148   3.969   1.747   3.330
10424TIP3    H131149   3.888   1.797   3.342
10424TIP3    H231150   3.943   1.656   3.340
10425TIP3   OH231151   8.291   2.775   0.120
10425TIP3    H131152   8.321   2.811   0.036
10425TIP3    H231153   8.267   2.685   0.101
10426TIP3   OH231154   1.014   3.809   2.040
10426TIP3    H131155   1.072   3.740   2.009
10426TIP3    H231156   0.926   3.770   2.039
10427TIP3   OH231157   0.449   5.211   0.128
10427TIP3    H131158   0.454   5.116   0.142
10427TIP3    H231159   0.497   5.226   0.046
10428TIP3   OH231160   2.334   6.801   5.032
10428TIP3    H131161   2.314   6.752   4.952
10428TIP3    H231162   2.344   6.734   5.099
10429TIP3   OH231163   3.478   8.999   3.777
10429TIP3    H131164   3.408   9.064   3.787
10429TIP3    H231165   3.432   8.919   3.751
10430TIP3   OH231166   0.465   4.437   5.200
10430TIP3    H131167   0.393   4.461   5.142
10430TIP3    H231168   0.509   4.519   5.220
10431TIP3   OH231169   9.525   5.074   3.174
10431TIP3    H131170   9.592   5.074   3.106
10431TIP3    H231171   9.444   5.094   3.128
10432TIP3   OH231172   0.751   8.873   4.097
10432TIP3    H131173   0.689   8.945   4.105
10432TIP3    H231174   0.703   8.805   4.049
10433TIP3   OH231175   4.988   7.025   4.839
10433TIP3    H131176   5.016   7.017   4.748
10433TIP3    H231177   4.992   7.119   4.857
10434TIP3   OH231178   3.063   6.469   2.428
10434TIP3    H131179   3.128   6.400   2.412
10434TIP3    H231180   2.985   6.439   2.381
10435TIP3   OH231181   0.795   6.530   1.425
10435TIP3    H131182   0.852   6.583   1.480
10435TIP3    H231183   0.826   6.547   1.336
10436TIP3   OH231184   8.789   3.295   5.794
10436TIP3    H131185   8.839   3.375   5.778
10436TIP3    H231186   8.843   3.245   5.857
10437TIP3   OH231187   6.175   5.794   0.453
10437TIP3    H131188   6.270   5.790   0.467
10437TIP3    H231189   6.159   5.885   0.427
10438TIP3   OH231190   8.357   8.166   5.087
10438TIP3    H131191   8.311   8.150   5.169
10438TIP3    H231192   8.295   8.218   5.035
10439TIP3   OH231193   8.541   2.004   2.456
10439TIP3    H131194   8.553   2.023   2.549
10439TIP3    H231195   8.547   2.089   2.413
10440TIP3   OH231196   5.392   8.915   6.071
10440TIP3    H131197   5.338   8.977   6.120
10440TIP3    H231198   5.358   8.829   6.095
10441TIP3   OH231199   8.711   7.851   4.021
10441TIP3    H131200   8.632   7.906   4.028
10441TIP3    H231201   8.693   7.792   3.948
10442TIP3   OH231202   9.505   8.133   7.202
10442TIP3    H131203   9.449   8.062   7.171
10442TIP3    H231204   9.554   8.160   7.124
10443TIP3   OH231205   4.453   4.639   1.934
10443TIP3    H131206   4.486   4.720   1.895
10443TIP3    H231207   4.466   4.573   1.867
10444TIP3   OH231208   3.406   6.210   1.932
10444TIP3    H131209   3.319   6.215   1.972
10444TIP3    H231210   3.425   6.116   1.929
10445TIP3   OH231211   4.437   0.205   5.627
10445TIP3    H131212   4.463   0.296   5.640
10445TIP3    H231213   4.388   0.182   5.707
10446TIP3   OH231214   9.045   7.241   4.365
10446TIP3    H131215   9.136   7.212   4.374
10446TIP3    H231216   9.008   7.230   4.453
10447TIP3   OH231217   7.042   2.128   0.527
10447TIP3    H131218   7.071   2.080   0.604
10447TIP3    H231219   7.108   2.197   0.514
10448TIP3   OH231220   0.857   0.529   2.300
10448TIP3    H131221   0.913   0.595   2.340
10448TIP3    H231222   0.872   0.537   2.206
10449TIP3   OH231223   9.443   2.790   7.659
10449TIP3    H131224   9.450   2.695   7.671
10449TIP3    H231225   9.397   2.821   7.736
10450TIP3   OH231226   3.134   1.015   3.404
10450TIP3    H131227   3.191   0.939   3.409
10450TIP3    H231228   3.049   0.980   3.377
10451TIP3   OH231229   6.306   1.912   6.598
10451TIP3    H131230   6.356   1.839   6.561
10451TIP3    H231231   6.285   1.883   6.687
10452TIP3   OH231232   0.495   8.422   5.758
10452TIP3    H131233   0.424   8.457   5.811
10452TIP3    H231234   0.506   8.332   5.789
10453TIP3   OH231235   6.296   3.493   1.434
10453TIP3    H131236   6.205   3.474   1.457
10453TIP3    H231237   6.346   3.419   1.468
10454TIP3   OH231238   4.527   4.770   7.214
10454TIP3    H131239   4.510   4.827   7.289
10454TIP3    H231240   4.612   4.730   7.234
10455TIP3   OH231241   2.950   3.863   3.265
10455TIP3    H131242   2.974   3.954   3.247
10455TIP3    H231243   2.911   3.832   3.183
10456TIP3   OH231244   0.671   6.842   5.751
10456TIP3    H131245   0.603   6.859   5.816
10456TIP3    H231246   0.628   6.786   5.686
10457TIP3   OH231247   3.955   4.077   3.805
10457TIP3    H131248   3.932   4.015   3.874
10457TIP3    H231249   3.877   4.083   3.750
10458TIP3   OH231250   3.251   6.362   2.116
10458TIP3    H131251   3.203   6.306   2.177
10458TIP3    H231252   3.336   6.376   2.158
10459TIP3   OH231253   1.593   1.139   3.937
10459TIP3    H131254   1.621   1.161   4.026
10459TIP3    H231255   1.670   1.097   3.898
10460TIP3   OH231256   5.908   3.775   5.510
10460TIP3    H131257   5.890   3.723   5.589
10460TIP3    H231258   6.000   3.760   5.492
10461TIP3   OH231259   4.269   8.328   1.513
10461TIP3    H131260   4.282   8.375   1.595
10461TIP3    H231261   4.339   8.263   1.511
10462TIP3   OH231262   4.804   4.010   2.832
10462TIP3    H131263   4.712   4.024   2.811
10462TIP3    H231264   4.814   4.042   2.922
10463TIP3   OH231265   8.459   1.738   3.061
10463TIP3    H131266   8.385   1.770   3.113
10463TIP3    H231267   8.505   1.817   3.033
10464TIP3   OH231268   7.362   1.827   1.580
10464TIP3    H131269   7.423   1.777   1.527
10464TIP3    H231270   7.406   1.910   1.596
10465TIP3   OH231271   3.939   6.390   5.682
10465TIP3    H131272   4.018   6.355   5.642
10465TIP3    H231273   3.884   6.418   5.608
10466TIP3   OH231274   9.123   6.671   5.343
10466TIP3    H131275   9.042   6.688   5.391
10466TIP3    H231276   9.107   6.589   5.296
10467TIP3   OH231277   7.681   4.394   6.643
10467TIP3    H131278   7.654   4.353   6.561
10467TIP3    H231279   7.600   4.410   6.690
10468TIP3   OH231280   1.977   3.395   5.175
10468TIP3    H131281   2.046   3.425   5.115
10468TIP3    H231282   2.024   3.358   5.249
10469TIP3   OH231283   8.527   2.439   4.211
10469TIP3    H131284   8.595   2.401   4.155
10469TIP3    H231285   8.463   2.368   4.221
10470TIP3   OH231286   2.041   0.358   0.974
10470TIP3    H131287   1.954   0.383   1.006
10470TIP3    H231288   2.093   0.345   1.054
10471TIP3   OH231289   8.588   0.339   2.250
10471TIP3    H131290   8.519   0.377   2.305
10471TIP3    H231291   8.548   0.262   2.210
10472TIP3   OH231292   7.564   5.529   3.741
10472TIP3    H131293   7.656   5.514   3.763
10472TIP3    H231294   7.532   5.443   3.712
10473TIP3   OH231295   3.245   1.719   5.535
10473TIP3    H131296   3.228   1.663   5.459
10473TIP3    H231297   3.310   1.782   5.504
10474TIP3   OH231298   6.376   9.003   4.475
10474TIP3    H131299   6.306   9.068   4.466
10474TIP3    H231300   6.406   9.013   4.566
10475TIP3   OH231301   0.926   8.363   4.743
10475TIP3    H131302   0.838   8.400   4.740
10475TIP3    H231303   0.963   8.393   4.826
10476TIP3   OH231304   0.991   1.869   7.383
10476TIP3    H131305   0.914   1.926   7.378
10476TIP3    H231306   0.972   1.810   7.455
10477TIP3   OH231307   3.374   1.151   6.982
10477TIP3    H131308   3.361   1.069   6.935
10477TIP3    H231309   3.426   1.126   7.059
10478TIP3   OH231310   3.540   2.552   4.502
10478TIP3    H131311   3.626   2.526   4.469
10478TIP3    H231312   3.556   2.637   4.544
10479TIP3   OH231313   2.506   1.222   1.297
10479TIP3    H131314   2.547   1.149   1.251
10479TIP3    H231315   2.469   1.276   1.227
10480TIP3   OH231316   3.758   6.391   2.623
10480TIP3    H131317   3.778   6.299   2.607
10480TIP3    H231318   3.770   6.434   2.539
10481TIP3   OH231319   2.037   7.142   7.551
10481TIP3    H131320   2.004   7.226   7.583
10481TIP3    H231321   1.959   7.093   7.525
10482TIP3   OH231322   6.531   0.862   4.922
10482TIP3    H131323   6.537   0.927   4.992
10482TIP3    H231324   6.556   0.780   4.964
10483TIP3   OH231325   3.405   1.890   4.650
10483TIP3    H131326   3.447   1.972   4.676
10483TIP3    H231327   3.466   1.822   4.680
10484TIP3   OH231328   1.846   2.257   5.957
10484TIP3    H131329   1.909   2.239   5.887
10484TIP3    H231330   1.849   2.352   5.968
10485TIP3   OH231331   8.534   2.370   6.921
10485TIP3    H131332   8.515   2.277   6.934
10485TIP3    H231333   8.594   2.372   6.847
10486TIP3   OH231334   2.290   8.596   6.615
10486TIP3    H131335   2.347   8.551   6.678
10486TIP3    H231336   2.261   8.675   6.662
10487TIP3   OH231337   8.436   5.353   2.358
10487TIP3    H131338   8.387   5.361   2.439
10487TIP3    H231339   8.445   5.259   2.344
10488TIP3   OH231340   8.956   4.858   7.433
10488TIP3    H131341   9.048   4.884   7.424
10488TIP3    H231342   8.956   4.795   7.506
10489TIP3   OH231343   0.222   7.491   5.574
10489TIP3    H131344   0.306   7.456   5.546
10489TIP3    H231345   0.183   7.527   5.493
10490TIP3   OH231346   6.930   4.132   1.518
10490TIP3    H131347   6.980   4.213   1.527
10490TIP3    H231348   6.872   4.148   1.444
10491TIP3   OH231349   2.966   5.079   4.539
10491TIP3    H131350   2.897   5.024   4.575
10491TIP3    H231351   3.001   5.127   4.614
10492TIP3   OH231352   0.966   2.572   1.118
10492TIP3    H131353   0.949   2.666   1.125
10492TIP3    H231354   1.059   2.566   1.095
10493TIP3   OH231355   3.844   4.252   0.977
10493TIP3    H131356   3.831   4.234   0.883
10493TIP3    H231357   3.759   4.232   1.017
10494TIP3   OH231358   9.037   0.387   3.285
10494TIP3    H131359   9.110   0.329   3.306
10494TIP3    H231360   9.076   0.474   3.281
10495TIP3   OH231361   0.668   0.741   7.555
10495TIP3    H131362   0.636   0.689   7.629
10495TIP3    H231363   0.604   0.726   7.485
10496TIP3   OH231364   3.874   7.440   4.624
10496TIP3    H131365   3.863   7.364   4.682
10496TIP3    H231366   3.821   7.509   4.663
10497TIP3   OH231367   4.054   0.960   4.517
10497TIP3    H131368   3.999   0.988   4.444
10497TIP3    H231369   4.051   1.034   4.578
10498TIP3   OH231370   8.860   6.167   0.954
10498TIP3    H131371   8.778   6.175   0.905
10498TIP3    H231372   8.850   6.087   1.005
10499TIP3   OH231373   0.699   8.167   4.176
10499TIP3    H131374   0.650   8.175   4.094
10499TIP3    H231375   0.665   8.087   4.216
10500TIP3   OH231376   5.178   3.116   0.363
10500TIP3    H131377   5.164   3.088   0.272
10500TIP3    H231378   5.237   3.191   0.355
10501TIP3   OH231379   5.710   3.212   7.592
10501TIP3    H131380   5.761   3.182   7.516
10501TIP3    H231381   5.774   3.213   7.664
10502TIP3   OH231382   5.154   6.132   7.544
10502TIP3    H131383   5.206   6.059   7.512
10502TIP3    H231384   5.065   6.113   7.515
10503TIP3   OH231385   7.281   6.776   2.236
10503TIP3    H131386   7.343   6.703   2.246
10503TIP3    H231387   7.205   6.750   2.287
10504TIP3   OH231388   2.099   0.247   3.730
10504TIP3    H131389   2.162   0.230   3.800
10504TIP3    H231390   2.146   0.306   3.670
10505TIP3   OH231391   2.732   1.831   5.364
10505TIP3    H131392   2.645   1.792   5.369
10505TIP3    H231393   2.774   1.805   5.446
10506TIP3   OH231394   1.432   6.709   0.719
10506TIP3    H131395   1.451   6.802   0.730
10506TIP3    H231396   1.486   6.682   0.644
10507TIP3   OH231397   1.281   5.414   1.216
10507TIP3    H131398   1.239   5.492   1.179
10507TIP3    H231399   1.225   5.341   1.188
10508TIP3   OH231400   3.399   1.769   1.181
10508TIP3    H131401   3.448   1.738   1.257
10508TIP3    H231402   3.311   1.788   1.214
10509TIP3   OH231403   6.240   5.921   2.620
10509TIP3    H131404   6.235   5.916   2.524
10509TIP3    H231405   6.323   5.879   2.642
10510TIP3   OH231406   0.351   0.728   1.277
10510TIP3    H131407   0.440   0.695   1.261
10510TIP3    H231408   0.358   0.823   1.268
10511TIP3   OH231409   7.703   4.284   4.776
10511TIP3    H131410   7.789   4.277   4.818
10511TIP3    H231411   7.723   4.291   4.683
10512TIP3   OH231412   4.193   8.525   2.347
10512TIP3    H131413   4.243   8.604   2.366
10512TIP3    H231414   4.113   8.556   2.305
10513TIP3   OH231415   3.448   7.353   4.411
10513TIP3    H131416   3.480   7.441   4.390
10513TIP3    H231417   3.358   7.366   4.439
10514TIP3   OH231418   6.141   0.066   3.397
10514TIP3    H131419   6.087   0.012   3.456
10514TIP3    H231420   6.193   0.120   3.456
10515TIP3   OH231421   8.758   1.259   4.786
10515TIP3    H131422   8.697   1.329   4.763
10515TIP3    H231423   8.745   1.192   4.719
10516TIP3   OH231424   6.735   4.411   1.552
10516TIP3    H131425   6.755   4.504   1.549
10516TIP3    H231426   6.780   4.374   1.476
10517TIP3   OH231427   9.556   4.232   4.292
10517TIP3    H131428   9.521   4.188   4.215
10517TIP3    H231429   9.578   4.320   4.262
10518TIP3   OH231430   0.761   3.649   1.184
10518TIP3    H131431   0.709   3.586   1.234
10518TIP3    H231432   0.849   3.643   1.222
10519TIP3   OH231433   2.473   6.400   4.733
10519TIP3    H131434   2.477   6.307   4.758
10519TIP3    H231435   2.402   6.404   4.669
10520TIP3   OH231436   1.087   6.025   7.113
10520TIP3    H131437   1.162   6.058   7.163
10520TIP3    H231438   1.062   6.097   7.057
10521TIP3   OH231439   7.991   1.753   0.597
10521TIP3    H131440   8.035   1.797   0.669
10521TIP3    H231441   7.911   1.804   0.582
10522TIP3   OH231442   2.279   7.205   3.329
10522TIP3    H131443   2.303   7.297   3.320
10522TIP3    H231444   2.355   7.165   3.372
10523TIP3   OH231445   4.621   7.477   2.364
10523TIP3    H131446   4.674   7.417   2.311
10523TIP3    H231447   4.686   7.525   2.416
10524TIP3   OH231448   6.933   8.431   2.246
10524TIP3    H131449   6.989   8.508   2.235
10524TIP3    H231450   6.927   8.419   2.341
10525TIP3   OH231451   5.657   4.354   1.529
10525TIP3    H131452   5.570   4.328   1.560
10525TIP3    H231453   5.699   4.393   1.606
10526TIP3   OH231454   4.147   8.962   4.553
10526TIP3    H131455   4.206   8.970   4.628
10526TIP3    H231456   4.089   9.038   4.560
10527TIP3   OH231457   7.558   0.223   6.259
10527TIP3    H131458   7.499   0.267   6.197
10527TIP3    H231459   7.585   0.292   6.319
10528TIP3   OH231460   7.030   6.950   2.680
10528TIP3    H131461   7.023   6.921   2.589
10528TIP3    H231462   6.946   6.991   2.699
10529TIP3   OH231463   7.415   2.871   4.164
10529TIP3    H131464   7.339   2.905   4.116
10529TIP3    H231465   7.395   2.888   4.256
10530TIP3   OH231466   5.910   6.225   5.824
10530TIP3    H131467   5.962   6.302   5.845
10530TIP3    H231468   5.945   6.155   5.879
10531TIP3   OH231469   4.800   2.047   3.100
10531TIP3    H131470   4.888   2.027   3.069
10531TIP3    H231471   4.813   2.116   3.167
10532TIP3   OH231472   6.347   2.932   2.637
10532TIP3    H131473   6.264   2.953   2.678
10532TIP3    H231474   6.410   2.991   2.677
10533TIP3   OH231475   2.051   8.867   5.533
10533TIP3    H131476   2.067   8.863   5.439
10533TIP3    H231477   2.114   8.931   5.566
10534TIP3   OH231478   7.324   4.797   5.952
10534TIP3    H131479   7.242   4.835   5.920
10534TIP3    H231480   7.298   4.711   5.987
10535TIP3   OH231481   7.621   4.858   1.306
10535TIP3    H131482   7.667   4.795   1.251
10535TIP3    H231483   7.542   4.812   1.334
10536TIP3   OH231484   5.560   4.218   3.049
10536TIP3    H131485   5.588   4.302   3.011
10536TIP3    H231486   5.545   4.237   3.141
10537TIP3   OH231487   8.187   1.057   0.901
10537TIP3    H131488   8.202   1.092   0.813
10537TIP3    H231489   8.204   1.132   0.959
10538TIP3   OH231490   8.671   0.529   3.092
10538TIP3    H131491   8.625   0.564   3.168
10538TIP3    H231492   8.629   0.571   3.017
10539TIP3   OH231493   3.180   7.454   1.682
10539TIP3    H131494   3.137   7.489   1.604
10539TIP3    H231495   3.272   7.445   1.656
10540TIP3   OH231496   0.359   4.526   2.883
10540TIP3    H131497   0.380   4.604   2.936
10540TIP3    H231498   0.343   4.561   2.795
10541TIP3   OH231499   5.200   0.408   2.586
10541TIP3    H131500   5.270   0.451   2.635
10541TIP3    H231501   5.184   0.326   2.633
10542TIP3   OH231502   8.023   4.824   6.809
10542TIP3    H131503   8.038   4.734   6.838
10542TIP3    H231504   8.105   4.851   6.769
10543TIP3   OH231505   8.112   1.711   6.519
10543TIP3    H131506   8.030   1.751   6.492
10543TIP3    H231507   8.096   1.616   6.513
10544TIP3   OH231508   2.344   5.496   2.839
10544TIP3    H131509   2.274   5.431   2.847
10544TIP3    H231510   2.321   5.564   2.902
10545TIP3   OH231511   7.183   3.416   0.953
10545TIP3    H131512   7.097   3.415   0.911
10545TIP3    H231513   7.186   3.336   1.005
10546TIP3   OH231514   2.914   1.351   0.143
10546TIP3    H131515   2.901   1.383   0.054
10546TIP3    H231516   3.003   1.377   0.166
10547TIP3   OH231517   3.895   2.903   3.610
10547TIP3    H131518   3.865   2.983   3.567
10547TIP3    H231519   3.907   2.927   3.702
10548TIP3   OH231520   9.230   0.292   5.248
10548TIP3    H131521   9.281   0.331   5.177
10548TIP3    H231522   9.177   0.364   5.282
10549TIP3   OH231523   1.300   1.206   4.246
10549TIP3    H131524   1.323   1.127   4.295
10549TIP3    H231525   1.205   1.213   4.255
10550TIP3   OH231526   3.690   5.473   6.756
10550TIP3    H131527   3.616   5.455   6.698
10550TIP3    H231528   3.761   5.418   6.723
10551TIP3   OH231529   2.913   0.855   6.618
10551TIP3    H131530   2.900   0.946   6.590
10551TIP3    H231531   2.962   0.862   6.700
10552TIP3   OH231532   3.987   5.176   2.285
10552TIP3    H131533   3.987   5.082   2.302
10552TIP3    H231534   3.961   5.216   2.368
10553TIP3   OH231535   3.829   7.954   6.344
10553TIP3    H131536   3.817   7.865   6.378
10553TIP3    H231537   3.839   7.942   6.250
10554TIP3   OH231538   6.730   5.364   1.547
10554TIP3    H131539   6.823   5.342   1.548
10554TIP3    H231540   6.704   5.349   1.456
10555TIP3   OH231541   5.845   6.875   2.050
10555TIP3    H131542   5.809   6.883   2.138
10555TIP3    H231543   5.937   6.853   2.063
10556TIP3   OH231544   7.493   1.973   0.179
10556TIP3    H131545   7.502   1.879   0.166
10556TIP3    H231546   7.416   1.983   0.236
10557TIP3   OH231547   6.152   0.966   5.778
10557TIP3    H131548   6.247   0.979   5.775
10557TIP3    H231549   6.135   0.897   5.714
10558TIP3   OH231550   2.101   2.135   2.860
10558TIP3    H131551   2.195   2.127   2.843
10558TIP3    H231552   2.087   2.086   2.940
10559TIP3   OH231553   5.354   2.974   3.918
10559TIP3    H131554   5.431   3.026   3.941
10559TIP3    H231555   5.366   2.891   3.965
10560TIP3   OH231556   1.604   8.703   5.681
10560TIP3    H131557   1.656   8.717   5.761
10560TIP3    H231558   1.629   8.775   5.623
10561TIP3   OH231559   7.773   5.013   4.503
10561TIP3    H131560   7.802   4.924   4.481
10561TIP3    H231561   7.832   5.040   4.573
10562TIP3   OH231562   1.154   7.677   1.235
10562TIP3    H131563   1.220   7.663   1.167
10562TIP3    H231564   1.072   7.688   1.186
10563TIP3   OH231565   1.010   1.706   6.819
10563TIP3    H131566   1.012   1.748   6.905
10563TIP3    H231567   1.027   1.613   6.837
10564TIP3   OH231568   6.759   6.102   4.310
10564TIP3    H131569   6.665   6.084   4.310
10564TIP3    H231570   6.796   6.036   4.368
10565TIP3   OH231571   1.227   8.741   3.449
10565TIP3    H131572   1.321   8.725   3.447
10565TIP3    H231573   1.189   8.657   3.474
10566TIP3   OH231574   3.164   2.035   0.528
10566TIP3    H131575   3.103   1.990   0.585
10566TIP3    H231576   3.246   2.040   0.578
10567TIP3   OH231577   2.111   8.510   1.808
10567TIP3    H131578   2.156   8.582   1.853
10567TIP3    H231579   2.157   8.431   1.837
10568TIP3   OH231580   0.265   4.410   2.010
10568TIP3    H131581   0.307   4.340   2.060
10568TIP3    H231582   0.176   4.378   1.993
10569TIP3   OH231583   8.815   1.828   3.104
10569TIP3    H131584   8.864   1.872   3.174
10569TIP3    H231585   8.880   1.772   3.062
10570TIP3   OH231586   3.163   4.325   7.782
10570TIP3    H131587   3.095   4.367   7.729
10570TIP3    H231588   3.238   4.318   7.723
10571TIP3   OH231589   4.217   8.281   2.088
10571TIP3    H131590   4.170   8.215   2.036
10571TIP3    H231591   4.166   8.290   2.168
10572TIP3   OH231592   0.237   5.991   4.983
10572TIP3    H131593   0.283   6.054   5.039
10572TIP3    H231594   0.164   5.960   5.038
10573TIP3   OH231595   6.471   6.689   4.443
10573TIP3    H131596   6.471   6.616   4.382
10573TIP3    H231597   6.500   6.651   4.526
10574TIP3   OH231598   7.364   4.107   3.346
10574TIP3    H131599   7.354   4.180   3.285
10574TIP3    H231600   7.402   4.146   3.424
10575TIP3   OH231601   6.784   0.302   0.764
10575TIP3    H131602   6.874   0.303   0.733
10575TIP3    H231603   6.754   0.213   0.749
10576TIP3   OH231604   1.101   8.345   0.636
10576TIP3    H131605   1.087   8.417   0.574
10576TIP3    H231606   1.154   8.384   0.706
10577TIP3   OH231607   9.505   7.496   6.446
10577TIP3    H131608   9.430   7.437   6.435
10577TIP3    H231609   9.487   7.542   6.528
10578TIP3   OH231610   6.147   1.683   5.934
10578TIP3    H131611   6.194   1.730   5.866
10578TIP3    H231612   6.212   1.624   5.972
10579TIP3   OH231613   4.520   4.264   0.126
10579TIP3    H131614   4.531   4.190   0.185
10579TIP3    H231615   4.599   4.317   0.139
10580TIP3   OH231616   4.181   0.504   0.440
10580TIP3    H131617   4.215   0.514   0.351
10580TIP3    H231618   4.257   0.480   0.492
10581TIP3   OH231619   3.443   3.229   5.107
10581TIP3    H131620   3.431   3.296   5.174
10581TIP3    H231621   3.523   3.256   5.061
10582TIP3   OH231622   6.967   3.944   5.067
10582TIP3    H131623   6.924   3.956   5.151
10582TIP3    H231624   6.968   3.849   5.054
10583TIP3   OH231625   8.447   2.422   7.804
10583TIP3    H131626   8.487   2.494   7.755
10583TIP3    H231627   8.353   2.437   7.796
10584TIP3   OH231628   5.708   7.446   7.461
10584TIP3    H131629   5.678   7.498   7.536
10584TIP3    H231630   5.778   7.391   7.496
10585TIP3   OH231631   2.694   4.555   0.646
10585TIP3    H131632   2.752   4.479   0.648
10585TIP3    H231633   2.752   4.630   0.635
10586TIP3   OH231634   4.924   8.506   4.238
10586TIP3    H131635   4.899   8.591   4.275
10586TIP3    H231636   4.843   8.454   4.239
10587TIP3   OH231637   5.135   1.581   6.308
10587TIP3    H131638   5.227   1.606   6.310
10587TIP3    H231639   5.096   1.628   6.382
10588TIP3   OH231640   8.247   3.311   0.380
10588TIP3    H131641   8.342   3.314   0.366
10588TIP3    H231642   8.217   3.400   0.364
10589TIP3   OH231643   0.617   1.432   0.622
10589TIP3    H131644   0.700   1.417   0.577
10589TIP3    H231645   0.577   1.505   0.576
10590TIP3   OH231646   9.312   5.701   6.238
10590TIP3    H131647   9.290   5.627   6.295
10590TIP3    H231648   9.354   5.765   6.296
10591TIP3   OH231649   7.687   0.952   5.519
10591TIP3    H131650   7.693   0.936   5.425
10591TIP3    H231651   7.748   1.025   5.534
10592TIP3   OH231652   4.745   8.019   6.416
10592TIP3    H131653   4.802   7.952   6.454
10592TIP3    H231654   4.805   8.084   6.381
10593TIP3   OH231655   3.426   2.498   1.353
10593TIP3    H131656   3.357   2.447   1.309
10593TIP3    H231657   3.503   2.442   1.349
10594TIP3   OH231658   2.161   2.222   1.960
10594TIP3    H131659   2.251   2.192   1.966
10594TIP3    H231660   2.113   2.164   2.019
10595TIP3   OH231661   5.967   7.453   0.511
10595TIP3    H131662   5.998   7.362   0.506
10595TIP3    H231663   5.970   7.474   0.604
10596TIP3   OH231664   6.898   1.683   6.936
10596TIP3    H131665   6.952   1.735   6.995
10596TIP3    H231666   6.926   1.710   6.848
10597TIP3   OH231667   4.778   0.575   3.575
10597TIP3    H131668   4.737   0.593   3.660
10597TIP3    H231669   4.711   0.594   3.511
10598TIP3   OH231670   2.361   0.539   5.716
10598TIP3    H131671   2.366   0.445   5.729
10598TIP3    H231672   2.449   0.572   5.732
10599TIP3   OH231673   6.128   1.510   3.499
10599TIP3    H131674   6.175   1.510   3.415
10599TIP3    H231675   6.151   1.427   3.539
10600TIP3   OH231676   3.479   2.548   3.986
10600TIP3    H131677   3.470   2.571   4.078
10600TIP3    H231678   3.548   2.482   3.984
10601TIP3   OH231679   5.349   4.721   0.859
10601TIP3    H131680   5.353   4.810   0.824
10601TIP3    H231681   5.263   4.689   0.833
10602TIP3   OH231682   2.772   5.540   6.552
10602TIP3    H131683   2.815   5.511   6.632
10602TIP3    H231684   2.691   5.581   6.581
10603TIP3   OH231685   6.740   2.401   5.480
10603TIP3    H131686   6.698   2.487   5.485
10603TIP3    H231687   6.669   2.342   5.455
10604TIP3   OH231688   1.755   1.351   6.550
10604TIP3    H131689   1.749   1.334   6.455
10604TIP3    H231690   1.664   1.356   6.579
10605TIP3   OH231691   4.326   7.894   4.680
10605TIP3    H131692   4.356   7.850   4.601
10605TIP3    H231693   4.397   7.953   4.704
10606TIP3   OH231694   7.800   1.619   0.366
10606TIP3    H131695   7.894   1.638   0.360
10606TIP3    H231696   7.772   1.663   0.446
10607TIP3   OH231697   3.767   8.773   0.372
10607TIP3    H131698   3.801   8.813   0.292
10607TIP3    H231699   3.724   8.844   0.418
10608TIP3   OH231700   1.572   3.012   2.603
10608TIP3    H131701   1.537   2.932   2.643
10608TIP3    H231702   1.561   2.998   2.509
10609TIP3   OH231703   6.661   5.093   1.562
10609TIP3    H131704   6.574   5.099   1.602
10609TIP3    H231705   6.703   5.177   1.583
10610TIP3   OH231706   2.284   2.112   4.166
10610TIP3    H131707   2.279   2.070   4.080
10610TIP3    H231708   2.370   2.154   4.168
10611TIP3   OH231709   2.620   2.098   5.394
10611TIP3    H131710   2.599   2.057   5.478
10611TIP3    H231711   2.616   2.026   5.331
10612TIP3   OH231712   7.925   3.946   0.003
10612TIP3    H131713   7.885   3.867  -0.034
10612TIP3    H231714   7.850   4.005   0.018
10613TIP3   OH231715   5.391   3.134   1.881
10613TIP3    H131716   5.424   3.158   1.794
10613TIP3    H231717   5.469   3.138   1.937
10614TIP3   OH231718   6.798   4.858   0.634
10614TIP3    H131719   6.866   4.802   0.597
10614TIP3    H231720   6.718   4.806   0.628
10615TIP3   OH231721   6.384   0.904   4.081
10615TIP3    H131722   6.432   0.823   4.062
10615TIP3    H231723   6.449   0.973   4.070
10616TIP3   OH231724   8.650   2.052   3.728
10616TIP3    H131725   8.718   2.021   3.788
10616TIP3    H231726   8.690   2.048   3.641
10617TIP3   OH231727   0.847   2.784   0.236
10617TIP3    H131728   0.903   2.852   0.198
10617TIP3    H231729   0.791   2.756   0.164
10618TIP3   OH231730   0.228   1.721   5.077
10618TIP3    H131731   0.228   1.668   4.997
10618TIP3    H231732   0.256   1.660   5.146
10619TIP3   OH231733   7.563   4.950   2.181
10619TIP3    H131734   7.630   4.994   2.128
10619TIP3    H231735   7.493   4.931   2.119
10620TIP3   OH231736   1.709   6.012   1.388
10620TIP3    H131737   1.688   5.962   1.308
10620TIP3    H231738   1.799   5.988   1.408
10621TIP3   OH231739   6.084   2.028   0.515
10621TIP3    H131740   6.169   2.007   0.554
10621TIP3    H231741   6.074   2.123   0.528
10622TIP3   OH231742   1.718   6.286   6.368
10622TIP3    H131743   1.770   6.366   6.371
10622TIP3    H231744   1.687   6.280   6.278
10623TIP3   OH231745   2.262   6.486   3.185
10623TIP3    H131746   2.315   6.474   3.106
10623TIP3    H231747   2.287   6.573   3.217
10624TIP3   OH231748   9.475   6.227   1.369
10624TIP3    H131749   9.530   6.190   1.300
10624TIP3    H231750   9.459   6.317   1.340
10625TIP3   OH231751   3.948   8.548   1.960
10625TIP3    H131752   4.010   8.563   2.031
10625TIP3    H231753   3.872   8.508   2.001
10626TIP3   OH231754   1.528   8.903   4.202
10626TIP3    H131755   1.584   8.836   4.241
10626TIP3    H231756   1.459   8.918   4.268
10627TIP3   OH231757   5.133   5.408   3.734
10627TIP3    H131758   5.150   5.349   3.660
10627TIP3    H231759   5.182   5.487   3.713
10628TIP3   OH231760   1.899   4.070   3.611
10628TIP3    H131761   1.940   4.046   3.528
10628TIP3    H231762   1.825   4.011   3.619
10629TIP3   OH231763   4.565   6.753   4.059
10629TIP3    H131764   4.576   6.769   4.153
10629TIP3    H231765   4.563   6.840   4.020
10630TIP3   OH231766   5.048   3.952   0.862
10630TIP3    H131767   4.986   3.935   0.791
10630TIP3    H231768   5.130   3.975   0.817
10631TIP3   OH231769   4.681   2.671   3.940
10631TIP3    H131770   4.728   2.666   4.023
10631TIP3    H231771   4.695   2.761   3.910
10632TIP3   OH231772   7.809   2.384   1.661
10632TIP3    H131773   7.809   2.432   1.578
10632TIP3    H231774   7.878   2.318   1.649
10633TIP3   OH231775   8.489   5.889   5.502
10633TIP3    H131776   8.467   5.976   5.469
10633TIP3    H231777   8.579   5.874   5.473
10634TIP3   OH231778   2.111   7.516   4.518
10634TIP3    H131779   2.019   7.528   4.496
10634TIP3    H231780   2.134   7.430   4.483
10635TIP3   OH231781   3.968   3.693   2.188
10635TIP3    H131782   3.882   3.735   2.181
10635TIP3    H231783   3.982   3.652   2.103
10636TIP3   OH231784   2.665   1.640   2.140
10636TIP3    H131785   2.692   1.549   2.125
10636TIP3    H231786   2.722   1.692   2.083
10637TIP3   OH231787   5.922   6.342   1.783
10637TIP3    H131788   5.893   6.328   1.693
10637TIP3    H231789   5.842   6.361   1.832
10638TIP3   OH231790   2.826   2.109   0.859
10638TIP3    H131791   2.844   2.202   0.875
10638TIP3    H231792   2.731   2.101   0.871
10639TIP3   OH231793   0.648   5.833   4.404
10639TIP3    H131794   0.594   5.880   4.467
10639TIP3    H231795   0.721   5.892   4.386
10640TIP3   OH231796   0.326   8.553   7.731
10640TIP3    H131797   0.401   8.611   7.720
10640TIP3    H231798   0.341   8.508   7.814
10641TIP3   OH231799   8.774   0.120   0.750
10641TIP3    H131800   8.687   0.139   0.713
10641TIP3    H231801   8.766   0.142   0.843
10642TIP3   OH231802   3.448   5.020   5.431
10642TIP3    H131803   3.491   4.958   5.490
10642TIP3    H231804   3.364   4.980   5.411
10643TIP3   OH231805   8.726   5.441   4.233
10643TIP3    H131806   8.738   5.388   4.312
10643TIP3    H231807   8.718   5.377   4.162
10644TIP3   OH231808   2.842   8.992   5.866
10644TIP3    H131809   2.749   8.980   5.851
10644TIP3    H231810   2.873   8.906   5.894
10645TIP3   OH231811   8.530   2.964   7.558
10645TIP3    H131812   8.438   2.955   7.533
10645TIP3    H231813   8.572   2.885   7.526
10646TIP3   OH231814   0.377   8.313   4.061
10646TIP3    H131815   0.432   8.275   3.992
10646TIP3    H231816   0.294   8.332   4.017
10647TIP3   OH231817   0.170   6.313   2.574
10647TIP3    H131818   0.116   6.270   2.507
10647TIP3    H231819   0.181   6.403   2.542
10648TIP3   OH231820   9.476   3.837   0.211
10648TIP3    H131821   9.410   3.782   0.252
10648TIP3    H231822   9.516   3.885   0.284
10649TIP3   OH231823   4.555   1.018   0.781
10649TIP3    H131824   4.513   1.009   0.695
10649TIP3    H231825   4.491   1.066   0.834
10650TIP3   OH231826   4.166   4.769   6.868
10650TIP3    H131827   4.207   4.854   6.887
10650TIP3    H231828   4.078   4.791   6.837
10651TIP3   OH231829   8.491   5.341   4.417
10651TIP3    H131830   8.487   5.328   4.322
10651TIP3    H231831   8.478   5.254   4.454
10652TIP3   OH231832   2.580   2.933   0.529
10652TIP3    H131833   2.578   3.021   0.491
10652TIP3    H231834   2.537   2.879   0.462
10653TIP3   OH231835   9.087   0.052   4.723
10653TIP3    H131836   9.089  -0.005   4.800
10653TIP3    H231837   9.123  -0.002   4.652
10654TIP3   OH231838   0.115   7.723   4.735
10654TIP3    H131839   0.207   7.708   4.712
10654TIP3    H231840   0.104   7.818   4.734
10655TIP3   OH231841   3.669   8.178   6.289
10655TIP3    H131842   3.729   8.108   6.317
10655TIP3    H231843   3.711   8.259   6.318
10656TIP3   OH231844   6.488   3.406   6.234
10656TIP3    H131845   6.446   3.365   6.158
10656TIP3    H231846   6.579   3.378   6.229
10657TIP3   OH231847   5.281   5.972   2.463
10657TIP3    H131848   5.262   5.986   2.371
10657TIP3    H231849   5.294   5.877   2.471
10658TIP3   OH231850   6.297   8.267   3.487
10658TIP3    H131851   6.224   8.204   3.477
10658TIP3    H231852   6.345   8.235   3.563
10659TIP3   OH231853   2.521   8.920   0.562
10659TIP3    H131854   2.456   8.986   0.588
10659TIP3    H231855   2.541   8.874   0.644
10660TIP3   OH231856   5.371   8.417   1.968
10660TIP3    H131857   5.413   8.498   1.940
10660TIP3    H231858   5.428   8.382   2.036
10661TIP3   OH231859   4.630   7.640   6.762
10661TIP3    H131860   4.662   7.671   6.677
10661TIP3    H231861   4.547   7.686   6.774
10662TIP3   OH231862   5.994   1.542   5.547
10662TIP3    H131863   5.957   1.488   5.476
10662TIP3    H231864   6.087   1.521   5.548
10663TIP3   OH231865   4.166   6.211   1.764
10663TIP3    H131866   4.233   6.279   1.750
10663TIP3    H231867   4.140   6.184   1.675
10664TIP3   OH231868   2.233   3.280   6.646
10664TIP3    H131869   2.150   3.244   6.680
10664TIP3    H231870   2.220   3.375   6.650
10665TIP3   OH231871   5.678   3.617   7.747
10665TIP3    H131872   5.634   3.665   7.676
10665TIP3    H231873   5.686   3.682   7.818
10666TIP3   OH231874   2.269   7.304   0.674
10666TIP3    H131875   2.360   7.290   0.700
10666TIP3    H231876   2.230   7.352   0.747
10667TIP3   OH231877   1.125   7.862   2.027
10667TIP3    H131878   1.220   7.876   2.032
10667TIP3    H231879   1.116   7.770   2.001
10668TIP3   OH231880   7.209   3.866   6.852
10668TIP3    H131881   7.297   3.876   6.816
10668TIP3    H231882   7.198   3.942   6.909
10669TIP3   OH231883   6.831   1.548   2.665
10669TIP3    H131884   6.770   1.623   2.659
10669TIP3    H231885   6.877   1.562   2.748
10670TIP3   OH231886   7.896   0.943   4.477
10670TIP3    H131887   7.824   0.924   4.418
10670TIP3    H231888   7.922   1.033   4.454
10671TIP3   OH231889   5.842   1.155   1.320
10671TIP3    H131890   5.932   1.173   1.345
10671TIP3    H231891   5.789   1.216   1.372
10672TIP3   OH231892   1.122   1.752   5.736
10672TIP3    H131893   1.195   1.812   5.720
10672TIP3    H231894   1.085   1.735   5.650
10673TIP3   OH231895   8.530   5.646   2.521
10673TIP3    H131896   8.548   5.681   2.434
10673TIP3    H231897   8.616   5.639   2.563
10674TIP3   OH231898   6.498   4.796   0.909
10674TIP3    H131899   6.460   4.708   0.908
10674TIP3    H231900   6.591   4.782   0.890
10675TIP3   OH231901   6.542   5.865   3.142
10675TIP3    H131902   6.627   5.863   3.098
10675TIP3    H231903   6.487   5.919   3.086
10676TIP3   OH231904   0.552   0.495   2.162
10676TIP3    H131905   0.631   0.443   2.177
10676TIP3    H231906   0.492   0.436   2.117
10677TIP3   OH231907   7.264   7.039   4.355
10677TIP3    H131908   7.182   7.070   4.394
10677TIP3    H231909   7.320   7.017   4.429
10678TIP3   OH231910   4.091   4.912   4.710
10678TIP3    H131911   4.152   4.934   4.780
10678TIP3    H231912   4.147   4.901   4.632
10679TIP3   OH231913   6.419   5.799   2.804
10679TIP3    H131914   6.498   5.764   2.845
10679TIP3    H231915   6.352   5.794   2.872
10680TIP3   OH231916   7.770   2.064   5.685
10680TIP3    H131917   7.777   2.079   5.591
10680TIP3    H231918   7.723   1.981   5.693
10681TIP3   OH231919   7.303   4.174   5.943
10681TIP3    H131920   7.379   4.172   5.886
10681TIP3    H231921   7.298   4.265   5.973
10682TIP3   OH231922   5.808   8.778   7.293
10682TIP3    H131923   5.883   8.723   7.269
10682TIP3    H231924   5.798   8.838   7.219
10683TIP3   OH231925   9.459   1.663   6.385
10683TIP3    H131926   9.436   1.678   6.293
10683TIP3    H231927   9.552   1.639   6.382
10684TIP3   OH231928   4.625   6.988   7.065
10684TIP3    H131929   4.609   6.958   6.976
10684TIP3    H231930   4.700   7.047   7.058
10685TIP3   OH231931   9.482   1.855   3.146
10685TIP3    H131932   9.407   1.828   3.198
10685TIP3    H231933   9.558   1.824   3.197
10686TIP3   OH231934   4.200   7.032   1.973
10686TIP3    H131935   4.157   6.964   1.920
10686TIP3    H231936   4.225   7.099   1.909
10687TIP3   OH231937   5.421   5.883   7.779
10687TIP3    H131938   5.363   5.815   7.813
10687TIP3    H231939   5.363   5.957   7.759
10688TIP3   OH231940   7.421   5.424   7.423
10688TIP3    H131941   7.385   5.392   7.341
10688TIP3    H231942   7.421   5.519   7.414
10689TIP3   OH231943   1.839   5.614   7.501
10689TIP3    H131944   1.862   5.592   7.411
10689TIP3    H231945   1.805   5.704   7.496
10690TIP3   OH231946   8.967   6.923   5.766
10690TIP3    H131947   8.985   6.873   5.846
10690TIP3    H231948   9.052   6.932   5.724
10691TIP3   OH231949   9.202   5.818   6.695
10691TIP3    H131950   9.220   5.733   6.735
10691TIP3    H231951   9.159   5.797   6.612
10692TIP3   OH231952   8.965   4.872   5.239
10692TIP3    H131953   8.974   4.789   5.285
10692TIP3    H231954   8.895   4.918   5.285
10693TIP3   OH231955   1.165   7.923   1.375
10693TIP3    H131956   1.242   7.890   1.328
10693TIP3    H231957   1.144   7.854   1.438
10694TIP3   OH231958   2.474   7.162   6.573
10694TIP3    H131959   2.568   7.168   6.555
10694TIP3    H231960   2.432   7.193   6.493
10695TIP3   OH231961   6.654   6.836   7.563
10695TIP3    H131962   6.594   6.863   7.494
10695TIP3    H231963   6.706   6.766   7.523
10696TIP3   OH231964   9.504   7.858   4.401
10696TIP3    H131965   9.573   7.804   4.364
10696TIP3    H231966   9.525   7.947   4.373
10697TIP3   OH231967   0.813   2.731   4.704
10697TIP3    H131968   0.859   2.797   4.653
10697TIP3    H231969   0.833   2.752   4.795
10698TIP3   OH231970   2.731   4.690   4.384
10698TIP3    H131971   2.799   4.757   4.380
10698TIP3    H231972   2.664   4.720   4.321
10699TIP3   OH231973   3.898   7.001   4.380
10699TIP3    H131974   3.873   7.080   4.332
10699TIP3    H231975   3.844   6.932   4.342
10700TIP3   OH231976   6.710   3.243   7.437
10700TIP3    H131977   6.656   3.301   7.491
10700TIP3    H231978   6.770   3.202   7.500
10701TIP3   OH231979   5.825   7.154   1.671
10701TIP3    H131980   5.825   7.140   1.766
10701TIP3    H231981   5.780   7.238   1.659
10702TIP3   OH231982   7.817   3.131   3.390
10702TIP3    H131983   7.847   3.091   3.309
10702TIP3    H231984   7.895   3.175   3.426
10703TIP3   OH231985   3.246   2.587   4.680
10703TIP3    H131986   3.226   2.501   4.717
10703TIP3    H231987   3.255   2.645   4.756
10704TIP3   OH231988   0.459   1.103   4.116
10704TIP3    H131989   0.413   1.085   4.197
10704TIP3    H231990   0.402   1.067   4.047
10705TIP3   OH231991   8.856   5.781   1.668
10705TIP3    H131992   8.827   5.743   1.751
10705TIP3    H231993   8.913   5.714   1.630
10706TIP3   OH231994   0.055   8.947   3.122
10706TIP3    H131995   0.029   8.919   3.210
10706TIP3    H231996   0.130   9.004   3.136
10707TIP3   OH231997   6.806   1.201   4.490
10707TIP3    H131998   6.730   1.146   4.512
10707TIP3    H231999   6.776   1.255   4.417
10708TIP3   OH232000   0.928   2.976   0.039
10708TIP3    H132001   1.016   3.000   0.068
10708TIP3    H232002   0.879   3.058   0.042
10709TIP3   OH232003   0.898   1.701   2.239
10709TIP3    H132004   0.908   1.678   2.147
10709TIP3    H232005   0.809   1.736   2.246
10710TIP3   OH232006   7.432   1.329   5.536
10710TIP3    H132007   7.445   1.235   5.549
10710TIP3    H232008   7.520   1.363   5.519
10711TIP3   OH232009   2.816   2.187   3.112
10711TIP3    H132010   2.904   2.218   3.093
10711TIP3    H232011   2.761   2.228   3.046
10712TIP3   OH232012   3.306   6.646   1.448
10712TIP3    H132013   3.260   6.710   1.502
10712TIP3    H232014   3.239   6.583   1.422
10713TIP3   OH232015   6.758   3.878   0.144
10713TIP3    H132016   6.810   3.799   0.128
10713TIP3    H232017   6.733   3.873   0.236
10714TIP3   OH232018   3.828   1.649   6.553
10714TIP3    H132019   3.771   1.714   6.512
10714TIP3    H232020   3.872   1.605   6.480
10715TIP3   OH232021   9.393   8.419   7.811
10715TIP3    H132022   9.443   8.484   7.862
10715TIP3    H232023   9.443   8.408   7.731
10716TIP3   OH232024   1.876   3.672   6.429
10716TIP3    H132025   1.896   3.753   6.475
10716TIP3    H232026   1.782   3.660   6.441
10717TIP3   OH232027   1.012   7.092   2.912
10717TIP3    H132028   0.963   7.142   2.977
10717TIP3    H232029   0.968   7.109   2.829
10718TIP3   OH232030   4.658   6.300   6.441
10718TIP3    H132031   4.675   6.206   6.435
10718TIP3    H232032   4.620   6.323   6.356
10719TIP3   OH232033   1.083   1.948   1.523
10719TIP3    H132034   1.005   1.949   1.467
10719TIP3    H232035   1.058   1.895   1.598
10720TIP3   OH232036   4.427   0.879   6.140
10720TIP3    H132037   4.381   0.929   6.208
10720TIP3    H232038   4.449   0.796   6.182
10721TIP3   OH232039   2.307   0.263   6.623
10721TIP3    H132040   2.218   0.233   6.602
10721TIP3    H232041   2.316   0.346   6.577
10722TIP3   OH232042   1.993   1.319   6.921
10722TIP3    H132043   1.964   1.409   6.905
10722TIP3    H232044   1.924   1.265   6.882
10723TIP3   OH232045   4.556   6.688   0.578
10723TIP3    H132046   4.618   6.620   0.603
10723TIP3    H232047   4.535   6.669   0.486
10724TIP3   OH232048   1.281   7.541   2.733
10724TIP3    H132049   1.200   7.591   2.746
10724TIP3    H232050   1.284   7.480   2.806
10725TIP3   OH232051   2.782   8.245   1.638
10725TIP3    H132052   2.853   8.183   1.621
10725TIP3    H232053   2.782   8.302   1.561
10726TIP3   OH232054   1.526   5.876   2.307
10726TIP3    H132055   1.511   5.782   2.317
10726TIP3    H232056   1.549   5.886   2.214
10727TIP3   OH232057   9.518   4.024   1.954
10727TIP3    H132058   9.581   4.012   2.025
10727TIP3    H232059   9.524   3.944   1.902
10728TIP3   OH232060   8.631   3.537   7.673
10728TIP3    H132061   8.634   3.565   7.581
10728TIP3    H232062   8.717   3.498   7.689
10729TIP3   OH232063   2.616   3.124   4.352
10729TIP3    H132064   2.692   3.066   4.353
10729TIP3    H232065   2.641   3.194   4.291
10730TIP3   OH232066   5.266   0.769   6.094
10730TIP3    H132067   5.256   0.674   6.092
10730TIP3    H232068   5.351   0.784   6.137
10731TIP3   OH232069   6.771   7.702   5.778
10731TIP3    H132070   6.763   7.784   5.828
10731TIP3    H232071   6.709   7.713   5.706
10732TIP3   OH232072   5.404   6.135   6.251
10732TIP3    H132073   5.343   6.175   6.189
10732TIP3    H232074   5.395   6.188   6.330
10733TIP3   OH232075   8.325   0.510   7.168
10733TIP3    H132076   8.314   0.605   7.166
10733TIP3    H232077   8.236   0.474   7.169
10734TIP3   OH232078   0.060   6.177   6.196
10734TIP3    H132079   0.056   6.108   6.130
10734TIP3    H232080   0.094   6.134   6.274
10735TIP3   OH232081   2.087   2.635   2.345
10735TIP3    H132082   2.141   2.587   2.283
10735TIP3    H232083   2.142   2.707   2.376
10736TIP3   OH232084   4.020   5.410   7.329
10736TIP3    H132085   3.996   5.381   7.418
10736TIP3    H232086   4.086   5.346   7.301
10737TIP3   OH232087   2.875   5.504   1.446
10737TIP3    H132088   2.884   5.457   1.528
10737TIP3    H232089   2.962   5.501   1.406
10738TIP3   OH232090   4.442   5.971   4.575
10738TIP3    H132091   4.415   5.880   4.590
10738TIP3    H232092   4.511   5.964   4.510
10739TIP3   OH232093   9.129   3.631   3.753
10739TIP3    H132094   9.160   3.722   3.751
10739TIP3    H232095   9.207   3.578   3.767
10740TIP3   OH232096   6.594   7.077   5.444
10740TIP3    H132097   6.537   7.148   5.415
10740TIP3    H232098   6.681   7.116   5.451
10741TIP3   OH232099   6.958   4.276   2.777
10741TIP3    H132100   7.039   4.321   2.802
10741TIP3    H232101   6.909   4.342   2.727
10742TIP3   OH232102   7.779   1.970   6.678
10742TIP3    H132103   7.805   2.023   6.753
10742TIP3    H232104   7.753   1.886   6.716
10743TIP3   OH232105   3.046   6.497   1.691
10743TIP3    H132106   3.094   6.434   1.745
10743TIP3    H232107   2.963   6.455   1.673
10744TIP3   OH232108   6.628   5.968   7.138
10744TIP3    H132109   6.668   6.047   7.174
10744TIP3    H232110   6.535   5.977   7.157
10745TIP3   OH232111   2.898   4.927   6.774
10745TIP3    H132112   2.970   4.872   6.742
10745TIP3    H232113   2.917   4.938   6.867
10746TIP3   OH232114   5.678   8.587   0.413
10746TIP3    H132115   5.638   8.505   0.442
10746TIP3    H232116   5.665   8.588   0.318
10747TIP3   OH232117   0.247   6.023   7.204
10747TIP3    H132118   0.241   6.115   7.228
10747TIP3    H232119   0.334   6.014   7.165
10748TIP3   OH232120   5.189   8.191   3.302
10748TIP3    H132121   5.168   8.247   3.228
10748TIP3    H232122   5.280   8.211   3.323
10749TIP3   OH232123   6.213   6.605   6.520
10749TIP3    H132124   6.307   6.604   6.537
10749TIP3    H232125   6.177   6.538   6.579
10750TIP3   OH232126   3.836   4.189   0.681
10750TIP3    H132127   3.791   4.105   0.679
10750TIP3    H232128   3.775   4.250   0.639
10751TIP3   OH232129   5.931   8.116   4.478
10751TIP3    H132130   6.010   8.167   4.460
10751TIP3    H232131   5.863   8.159   4.427
10752TIP3   OH232132   8.357   4.714   7.319
10752TIP3    H132133   8.276   4.670   7.296
10752TIP3    H232134   8.330   4.799   7.354
10753TIP3   OH232135   2.164   1.141   3.774
10753TIP3    H132136   2.209   1.062   3.744
10753TIP3    H232137   2.235   1.201   3.798
10754TIP3   OH232138   8.231   5.986   6.758
10754TIP3    H132139   8.141   5.962   6.734
10754TIP3    H232140   8.285   5.951   6.687
10755TIP3   OH232141   7.413   1.562   3.837
10755TIP3    H132142   7.496   1.608   3.850
10755TIP3    H232143   7.395   1.522   3.922
10756TIP3   OH232144   7.424   8.860   1.732
10756TIP3    H132145   7.459   8.773   1.748
10756TIP3    H232146   7.496   8.919   1.757
10757TIP3   OH232147   6.452   4.033   2.072
10757TIP3    H132148   6.443   3.938   2.084
10757TIP3    H232149   6.368   4.068   2.104
10758TIP3   OH232150   3.837   7.576   2.041
10758TIP3    H132151   3.742   7.589   2.034
10758TIP3    H232152   3.866   7.645   2.101
10759TIP3   OH232153   0.946   4.481   1.691
10759TIP3    H132154   0.992   4.397   1.687
10759TIP3    H232155   1.015   4.547   1.679
10760TIP3   OH232156   3.588   5.912   0.620
10760TIP3    H132157   3.657   5.868   0.670
10760TIP3    H232158   3.569   5.992   0.669
10761TIP3   OH232159   3.256   8.705   6.553
10761TIP3    H132160   3.173   8.709   6.505
10761TIP3    H232161   3.240   8.642   6.624
10762TIP3   OH232162   6.140   1.565   2.193
10762TIP3    H132163   6.056   1.527   2.169
10762TIP3    H232164   6.188   1.493   2.234
10763TIP3   OH232165   2.269   3.883   2.325
10763TIP3    H132166   2.230   3.969   2.313
10763TIP3    H232167   2.211   3.838   2.386
10764TIP3   OH232168   1.095   7.528   5.997
10764TIP3    H132169   1.046   7.530   6.079
10764TIP3    H232170   1.132   7.617   5.989
10765TIP3   OH232171   3.468   6.513   0.818
10765TIP3    H132172   3.550   6.562   0.827
10765TIP3    H232173   3.402   6.570   0.857
10766TIP3   OH232174   5.018   1.472   3.635
10766TIP3    H132175   5.083   1.465   3.565
10766TIP3    H232176   4.954   1.404   3.615
10767TIP3   OH232177   4.684   5.854   4.146
10767TIP3    H132178   4.768   5.874   4.104
10767TIP3    H232179   4.689   5.898   4.231
10768TIP3   OH232180   8.411   1.871   0.895
10768TIP3    H132181   8.330   1.825   0.872
10768TIP3    H232182   8.381   1.952   0.937
10769TIP3   OH232183   1.545   7.260   1.111
10769TIP3    H132184   1.469   7.255   1.169
10769TIP3    H232185   1.554   7.353   1.090
10770TIP3   OH232186   1.967   1.719   5.226
10770TIP3    H132187   2.036   1.668   5.184
10770TIP3    H232188   1.886   1.688   5.187
10771TIP3   OH232189   5.379   0.084   5.807
10771TIP3    H132190   5.409   0.172   5.831
10771TIP3    H232191   5.359   0.090   5.714
10772TIP3   OH232192   4.357   1.439   6.026
10772TIP3    H132193   4.344   1.433   6.121
10772TIP3    H232194   4.298   1.373   5.989
10773TIP3   OH232195   0.114   5.123   2.924
10773TIP3    H132196   0.178   5.052   2.927
10773TIP3    H232197   0.161   5.197   2.886
10774TIP3   OH232198   2.606   2.579   0.204
10774TIP3    H132199   2.514   2.561   0.218
10774TIP3    H232200   2.625   2.539   0.119
10775TIP3   OH232201   5.158   3.161   4.316
10775TIP3    H132202   5.219   3.094   4.288
10775TIP3    H232203   5.112   3.188   4.237
10776TIP3   OH232204   4.105   6.973   2.928
10776TIP3    H132205   4.181   7.013   2.885
10776TIP3    H232206   4.063   7.046   2.973
10777TIP3   OH232207   3.564   4.433   1.363
10777TIP3    H132208   3.606   4.480   1.291
10777TIP3    H232209   3.481   4.479   1.376
10778TIP3   OH232210   7.142   6.504   4.614
10778TIP3    H132211   7.174   6.528   4.526
10778TIP3    H232212   7.146   6.408   4.615
10779TIP3   OH232213   6.100   3.552   4.820
10779TIP3    H132214   6.055   3.613   4.763
10779TIP3    H232215   6.102   3.470   4.772
10780TIP3   OH232216   2.315   9.022   4.737
10780TIP3    H132217   2.410   9.032   4.735
10780TIP3    H232218   2.298   8.946   4.681
10781TIP3   OH232219   2.270   5.330   5.972
10781TIP3    H132220   2.355   5.300   5.939
10781TIP3    H232221   2.265   5.422   5.945
10782TIP3   OH232222   6.033   5.618   2.762
10782TIP3    H132223   6.031   5.686   2.829
10782TIP3    H232224   6.056   5.663   2.682
10783TIP3   OH232225   8.449   3.755   5.337
10783TIP3    H132226   8.407   3.724   5.417
10783TIP3    H232227   8.378   3.766   5.274
10784TIP3   OH232228   3.215   3.086   7.019
10784TIP3    H132229   3.231   3.164   6.966
10784TIP3    H232230   3.198   3.120   7.107
10785TIP3   OH232231   0.575   7.080   2.325
10785TIP3    H132232   0.490   7.075   2.280
10785TIP3    H232233   0.626   7.008   2.288
10786TIP3   OH232234   0.909   2.812   2.058
10786TIP3    H132235   0.883   2.723   2.083
10786TIP3    H232236   1.003   2.815   2.076
10787TIP3   OH232237   9.037   8.835   3.770
10787TIP3    H132238   8.994   8.853   3.853
10787TIP3    H232239   9.082   8.751   3.784
10788TIP3   OH232240   4.093   8.774   2.912
10788TIP3    H132241   3.998   8.785   2.898
10788TIP3    H232242   4.111   8.824   2.992
10789TIP3   OH232243   8.355   7.174   0.894
10789TIP3    H132244   8.301   7.107   0.935
10789TIP3    H232245   8.316   7.257   0.923
10790TIP3   OH232246   0.376   0.509   5.759
10790TIP3    H132247   0.357   0.419   5.785
10790TIP3    H232248   0.456   0.531   5.807
10791TIP3   OH232249   9.454   2.454   3.470
10791TIP3    H132250   9.469   2.540   3.510
10791TIP3    H232251   9.510   2.395   3.521
10792TIP3   OH232252   7.508   4.830   0.082
10792TIP3    H132253   7.417   4.829   0.111
10792TIP3    H232254   7.504   4.797  -0.008
10793TIP3   OH232255   2.271   2.069   3.467
10793TIP3    H132256   2.201   2.052   3.405
10793TIP3    H232257   2.284   2.164   3.463
10794TIP3   OH232258   6.683   7.553   2.318
10794TIP3    H132259   6.654   7.493   2.388
10794TIP3    H232260   6.775   7.533   2.306
10795TIP3   OH232261   5.784   2.335   6.384
10795TIP3    H132262   5.718   2.339   6.453
10795TIP3    H232263   5.794   2.241   6.367
10796TIP3   OH232264   9.521   7.116   6.520
10796TIP3    H132265   9.597   7.126   6.463
10796TIP3    H232266   9.466   7.051   6.476
10797TIP3   OH232267   3.286   1.651   4.722
10797TIP3    H132268   3.375   1.652   4.758
10797TIP3    H232269   3.260   1.743   4.719
10798TIP3   OH232270   4.534   6.748   1.557
10798TIP3    H132271   4.524   6.843   1.545
10798TIP3    H232272   4.516   6.734   1.650
10799TIP3   OH232273   1.273   6.114   4.818
10799TIP3    H132274   1.291   6.028   4.781
10799TIP3    H232275   1.297   6.175   4.748
10800TIP3   OH232276   6.232   8.761   5.959
10800TIP3    H132277   6.220   8.833   5.898
10800TIP3    H232278   6.294   8.795   6.023
10801TIP3   OH232279   2.056   2.207   5.775
10801TIP3    H132280   1.994   2.210   5.702
10801TIP3    H232281   2.140   2.231   5.736
10802TIP3   OH232282   3.690   4.151   5.565
10802TIP3    H132283   3.672   4.059   5.544
10802TIP3    H232284   3.785   4.159   5.562
10803TIP3   OH232285   5.022   7.997   1.166
10803TIP3    H132286   4.990   8.051   1.239
10803TIP3    H232287   5.085   8.054   1.121
10804TIP3   OH232288   1.322   7.969   4.047
10804TIP3    H132289   1.272   8.036   4.000
10804TIP3    H232290   1.293   7.977   4.138
10805TIP3   OH232291   8.331   1.238   2.535
10805TIP3    H132292   8.283   1.277   2.462
10805TIP3    H232293   8.420   1.226   2.502
10806TIP3   OH232294   0.220   6.567   7.358
10806TIP3    H132295   0.274   6.646   7.356
10806TIP3    H232296   0.155   6.585   7.427
10807TIP3   OH232297   3.743   7.350   6.572
10807TIP3    H132298   3.677   7.301   6.523
10807TIP3    H232299   3.827   7.313   6.545
10808TIP3   OH232300   4.757   3.384   3.882
10808TIP3    H132301   4.774   3.364   3.974
10808TIP3    H232302   4.671   3.347   3.865
10809TIP3   OH232303   0.417   3.266   2.319
10809TIP3    H132304   0.507   3.251   2.350
10809TIP3    H232305   0.399   3.358   2.341
10810TIP3   OH232306   2.054   6.223   4.125
10810TIP3    H132307   2.004   6.215   4.206
10810TIP3    H232308   2.084   6.135   4.105
10811TIP3   OH232309   8.069   4.504   0.912
10811TIP3    H132310   8.072   4.474   1.003
10811TIP3    H232311   8.078   4.425   0.859
10812TIP3   OH232312   7.010   0.467   6.767
10812TIP3    H132313   7.011   0.561   6.784
10812TIP3    H232314   7.039   0.428   6.850
10813TIP3   OH232315   2.884   7.073   2.948
10813TIP3    H132316   2.916   6.984   2.936
10813TIP3    H232317   2.823   7.086   2.875
10814TIP3   OH232318   4.189   1.524   1.752
10814TIP3    H132319   4.165   1.432   1.745
10814TIP3    H232320   4.198   1.553   1.661
10815TIP3   OH232321   1.362   4.686   3.381
10815TIP3    H132322   1.406   4.753   3.433
10815TIP3    H232323   1.312   4.635   3.444
10816TIP3   OH232324   8.203   4.756   3.468
10816TIP3    H132325   8.228   4.841   3.433
10816TIP3    H232326   8.122   4.773   3.515
10817TIP3   OH232327   8.485   8.811   7.075
10817TIP3    H132328   8.428   8.866   7.020
10817TIP3    H232329   8.462   8.836   7.164
10818TIP3   OH232330   1.863   5.236   1.397
10818TIP3    H132331   1.933   5.176   1.373
10818TIP3    H232332   1.795   5.223   1.331
10819TIP3   OH232333   2.635   2.688   4.406
10819TIP3    H132334   2.623   2.594   4.400
10819TIP3    H232335   2.729   2.700   4.419
10820TIP3   OH232336   0.480   4.485   0.144
10820TIP3    H132337   0.435   4.540   0.209
10820TIP3    H232338   0.537   4.546   0.096
10821TIP3   OH232339   0.347   7.912   5.386
10821TIP3    H132340   0.408   7.983   5.403
10821TIP3    H232341   0.376   7.874   5.303
10822TIP3   OH232342   2.969   4.732   5.217
10822TIP3    H132343   2.967   4.736   5.121
10822TIP3    H232344   3.011   4.814   5.244
10823TIP3   OH232345   4.180   8.160   1.746
10823TIP3    H132346   4.196   8.140   1.654
10823TIP3    H232347   4.210   8.250   1.756
10824TIP3   OH232348   2.524   5.183   4.196
10824TIP3    H132349   2.619   5.197   4.206
10824TIP3    H232350   2.513   5.154   4.106
10825TIP3   OH232351   8.577   7.448   1.289
10825TIP3    H132352   8.656   7.394   1.288
10825TIP3    H232353   8.562   7.471   1.198
10826TIP3   OH232354   7.618   4.880   7.684
10826TIP3    H132355   7.693   4.875   7.744
10826TIP3    H232356   7.544   4.904   7.741
10827TIP3   OH232357   2.604   3.067   2.844
10827TIP3    H132358   2.651   3.037   2.922
10827TIP3    H232359   2.655   3.142   2.813
10828TIP3   OH232360   3.803   3.496   7.773
10828TIP3    H132361   3.767   3.407   7.771
10828TIP3    H232362   3.727   3.552   7.790
10829TIP3   OH232363   8.907   1.804   1.854
10829TIP3    H132364   8.912   1.770   1.765
10829TIP3    H232365   8.813   1.807   1.873
10830TIP3   OH232366   4.616   6.379   3.551
10830TIP3    H132367   4.554   6.327   3.499
10830TIP3    H232368   4.660   6.316   3.606
10831TIP3   OH232369   3.793   0.524   5.021
10831TIP3    H132370   3.852   0.597   5.002
10831TIP3    H232371   3.794   0.471   4.942
10832TIP3   OH232372   2.059   0.233   0.648
10832TIP3    H132373   2.097   0.320   0.659
10832TIP3    H232374   1.965   0.248   0.642
10833TIP3   OH232375   9.049   2.538   5.996
10833TIP3    H132376   9.110   2.480   6.042
10833TIP3    H232377   8.982   2.558   6.062
10834TIP3   OH232378   0.059   8.800   6.853
10834TIP3    H132379   0.030   8.863   6.787
10834TIP3    H232380   0.006   8.722   6.836
10835TIP3   OH232381   1.084   2.049   6.012
10835TIP3    H132382   1.064   2.113   6.080
10835TIP3    H232383   1.015   2.059   5.948
10836TIP3   OH232384   9.425   3.033   0.117
10836TIP3    H132385   9.393   3.108   0.067
10836TIP3    H232386   9.499   3.000   0.066
10837TIP3   OH232387   8.278   7.647   1.414
10837TIP3    H132388   8.202   7.663   1.470
10837TIP3    H232389   8.277   7.552   1.400
10838TIP3   OH232390   0.755   2.949   2.350
10838TIP3    H132391   0.722   2.945   2.260
10838TIP3    H232392   0.721   3.031   2.384
10839TIP3   OH232393   7.310   1.972   7.587
10839TIP3    H132394   7.378   1.905   7.583
10839TIP3    H232395   7.246   1.945   7.520
10840TIP3   OH232396   1.394   3.903   4.678
10840TIP3    H132397   1.476   3.918   4.631
10840TIP3    H232398   1.330   3.958   4.634
10841TIP3   OH232399   7.556   7.450   2.232
10841TIP3    H132400   7.648   7.427   2.219
10841TIP3    H232401   7.538   7.429   2.323
10842TIP3   OH232402   5.888   1.611   7.793
10842TIP3    H132403   5.835   1.560   7.856
10842TIP3    H232404   5.959   1.646   7.846
10843TIP3   OH232405   3.517   6.305   2.501
10843TIP3    H132406   3.607   6.273   2.507
10843TIP3    H232407   3.514   6.381   2.558
10844TIP3   OH232408   2.097   8.414   6.163
10844TIP3    H132409   2.044   8.470   6.219
10844TIP3    H232410   2.179   8.462   6.153
10845TIP3   OH232411   0.055   5.986   3.713
10845TIP3    H132412   0.007   5.957   3.636
10845TIP3    H232413   0.142   5.946   3.704
10846TIP3   OH232414   0.338   5.041   3.667
10846TIP3    H132415   0.397   5.097   3.616
10846TIP3    H232416   0.255   5.044   3.620
10847TIP3   OH232417   9.452   5.915   6.400
10847TIP3    H132418   9.548   5.918   6.397
10847TIP3    H232419   9.430   5.953   6.485
10848TIP3   OH232420   7.814   2.888   3.039
10848TIP3    H132421   7.864   2.806   3.046
10848TIP3    H232422   7.728   2.867   3.076
10849TIP3   OH232423   1.358   2.505   7.052
10849TIP3    H132424   1.357   2.599   7.070
10849TIP3    H232425   1.424   2.494   6.983
10850TIP3   OH232426   4.043   5.083   3.615
10850TIP3    H132427   4.044   5.083   3.711
10850TIP3    H232428   4.016   4.994   3.592
10851TIP3   OH232429   3.141   1.346   6.078
10851TIP3    H132430   3.235   1.339   6.065
10851TIP3    H232431   3.106   1.265   6.040
10852TIP3   OH232432   3.376   7.219   4.722
10852TIP3    H132433   3.397   7.169   4.642
10852TIP3    H232434   3.281   7.223   4.724
10853TIP3   OH232435   0.875   8.110   4.991
10853TIP3    H132436   0.831   8.053   4.928
10853TIP3    H232437   0.815   8.117   5.065
10854TIP3   OH232438   5.644   4.974   3.214
10854TIP3    H132439   5.683   5.030   3.280
10854TIP3    H232440   5.679   5.007   3.131
10855TIP3   OH232441   2.186   8.025   5.078
10855TIP3    H132442   2.134   7.967   5.022
10855TIP3    H232443   2.159   8.113   5.052
10856TIP3   OH232444   4.702   3.423   7.629
10856TIP3    H132445   4.704   3.373   7.548
10856TIP3    H232446   4.672   3.510   7.602
10857TIP3   OH232447   6.373   7.975   1.707
10857TIP3    H132448   6.455   8.019   1.728
10857TIP3    H232449   6.361   7.911   1.776
10858TIP3   OH232450   6.303   3.193   1.859
10858TIP3    H132451   6.389   3.207   1.820
10858TIP3    H232452   6.320   3.185   1.953
10859TIP3   OH232453   1.843   2.878   6.652
10859TIP3    H132454   1.812   2.964   6.623
10859TIP3    H232455   1.796   2.861   6.733
10860TIP3   OH232456   3.203   4.872   1.464
10860TIP3    H132457   3.164   4.825   1.538
10860TIP3    H232458   3.137   4.937   1.440
10861TIP3   OH232459   2.711   2.500   7.666
10861TIP3    H132460   2.770   2.525   7.738
10861TIP3    H232461   2.703   2.580   7.615
10862TIP3   OH232462   8.674   0.780   2.095
10862TIP3    H132463   8.603   0.715   2.096
10862TIP3    H232464   8.746   0.737   2.142
10863TIP3   OH232465   3.855   4.871   0.289
10863TIP3    H132466   3.806   4.953   0.277
10863TIP3    H232467   3.876   4.870   0.383
10864TIP3   OH232468   0.954   2.881   4.544
10864TIP3    H132469   1.040   2.881   4.587
10864TIP3    H232470   0.926   2.973   4.547
10865TIP3   OH232471   0.728   7.697   6.777
10865TIP3    H132472   0.738   7.684   6.871
10865TIP3    H232473   0.655   7.758   6.769
10866TIP3   OH232474   5.111   4.738   6.194
10866TIP3    H132475   5.181   4.794   6.227
10866TIP3    H232476   5.090   4.680   6.267
10867TIP3   OH232477   3.434   6.380   0.187
10867TIP3    H132478   3.504   6.343   0.131
10867TIP3    H232479   3.379   6.305   0.208
10868TIP3   OH232480   5.847   3.582   4.125
10868TIP3    H132481   5.761   3.575   4.083
10868TIP3    H232482   5.909   3.585   4.052
10869TIP3   OH232483   1.486   7.999   2.968
10869TIP3    H132484   1.407   8.047   2.995
10869TIP3    H232485   1.522   7.965   3.050
10870TIP3   OH232486   7.358   8.826   3.848
10870TIP3    H132487   7.382   8.734   3.860
10870TIP3    H232488   7.267   8.822   3.816
10871TIP3   OH232489   9.251   1.358   6.200
10871TIP3    H132490   9.325   1.373   6.140
10871TIP3    H232491   9.217   1.272   6.174
10872TIP3   OH232492   8.590   7.767   1.853
10872TIP3    H132493   8.668   7.758   1.906
10872TIP3    H232494   8.612   7.724   1.770
10873TIP3   OH232495   2.578   1.041   5.130
10873TIP3    H132496   2.532   1.095   5.195
10873TIP3    H232497   2.629   1.104   5.078
10874TIP3   OH232498   9.091   5.773   4.070
10874TIP3    H132499   9.182   5.755   4.050
10874TIP3    H232500   9.094   5.836   4.142
10875TIP3   OH232501   6.894   8.974   3.284
10875TIP3    H132502   6.862   8.894   3.243
10875TIP3    H232503   6.826   9.039   3.266
10876TIP3   OH232504   3.085   7.684   1.153
10876TIP3    H132505   3.094   7.607   1.097
10876TIP3    H232506   3.164   7.735   1.136
10877TIP3   OH232507   4.262   6.234   7.489
10877TIP3    H132508   4.245   6.140   7.498
10877TIP3    H232509   4.356   6.240   7.474
10878TIP3   OH232510   3.969   6.216   2.155
10878TIP3    H132511   3.978   6.284   2.089
10878TIP3    H232512   4.009   6.253   2.234
10879TIP3   OH232513   0.479   1.739   1.682
10879TIP3    H132514   0.496   1.655   1.640
10879TIP3    H232515   0.442   1.793   1.613
10880TIP3   OH232516   1.298   3.917   5.469
10880TIP3    H132517   1.358   3.971   5.418
10880TIP3    H232518   1.211   3.944   5.440
10881TIP3   OH232519   3.105   6.559   3.677
10881TIP3    H132520   3.061   6.490   3.726
10881TIP3    H232521   3.034   6.601   3.627
10882TIP3   OH232522   0.987   7.195   3.942
10882TIP3    H132523   0.915   7.204   3.880
10882TIP3    H232524   1.026   7.282   3.947
10883TIP3   OH232525   1.918   5.771   3.048
10883TIP3    H132526   1.845   5.783   2.988
10883TIP3    H232527   1.939   5.860   3.078
10884TIP3   OH232528   9.551   1.227   1.649
10884TIP3    H132529   9.583   1.137   1.660
10884TIP3    H232530   9.630   1.280   1.643
10885TIP3   OH232531   2.461   4.812   3.093
10885TIP3    H132532   2.395   4.767   3.146
10885TIP3    H232533   2.541   4.761   3.106
10886TIP3   OH232534   6.467   3.901   7.253
10886TIP3    H132535   6.397   3.840   7.277
10886TIP3    H232536   6.421   3.979   7.221
10887TIP3   OH232537   6.649   8.382   5.225
10887TIP3    H132538   6.561   8.380   5.263
10887TIP3    H232539   6.696   8.446   5.278
10888TIP3   OH232540   5.924   2.557   3.194
10888TIP3    H132541   5.984   2.578   3.265
10888TIP3    H232542   5.932   2.631   3.133
10889TIP3   OH232543   9.460   7.855   2.985
10889TIP3    H132544   9.517   7.928   2.960
10889TIP3    H232545   9.371   7.889   2.974
10890TIP3   OH232546   2.868   4.020   6.926
10890TIP3    H132547   2.820   3.945   6.962
10890TIP3    H232548   2.863   4.008   6.831
10891TIP3   OH232549   2.965   8.199   3.774
10891TIP3    H132550   3.004   8.186   3.860
10891TIP3    H232551   3.037   8.183   3.712
10892TIP3   OH232552   0.278   8.427   1.879
10892TIP3    H132553   0.242   8.403   1.964
10892TIP3    H232554   0.245   8.516   1.864
10893TIP3   OH232555   1.733   1.197   6.794
10893TIP3    H132556   1.675   1.127   6.824
10893TIP3    H232557   1.750   1.176   6.702
10894TIP3   OH232558   6.706   5.670   2.887
10894TIP3    H132559   6.728   5.604   2.953
10894TIP3    H232560   6.722   5.626   2.804
10895TIP3   OH232561   5.126   7.002   3.499
10895TIP3    H132562   5.165   7.053   3.570
10895TIP3    H232563   5.034   6.993   3.523
10896TIP3   OH232564   0.390   8.091   7.129
10896TIP3    H132565   0.344   8.095   7.213
10896TIP3    H232566   0.324   8.058   7.067
10897TIP3   OH232567   1.738   7.788   5.094
10897TIP3    H132568   1.755   7.697   5.120
10897TIP3    H232569   1.817   7.815   5.048
10898TIP3   OH232570   4.874   1.102   0.586
10898TIP3    H132571   4.804   1.144   0.536
10898TIP3    H232572   4.893   1.164   0.656
10899TIP3   OH232573   5.654   5.758   5.601
10899TIP3    H132574   5.726   5.767   5.664
10899TIP3    H232575   5.576   5.750   5.654
10900TIP3   OH232576   1.782   7.023   0.048
10900TIP3    H132577   1.758   6.961   0.118
10900TIP3    H232578   1.750   6.982  -0.032
10901TIP3   OH232579   8.518   5.074   6.709
10901TIP3    H132580   8.429   5.104   6.691
10901TIP3    H232581   8.511   4.979   6.714
10902TIP3   OH232582   2.317   5.277   1.331
10902TIP3    H132583   2.293   5.334   1.258
10902TIP3    H232584   2.305   5.188   1.296
10903TIP3   OH232585   8.247   0.098   2.814
10903TIP3    H132586   8.216   0.189   2.819
10903TIP3    H232587   8.213   0.056   2.893
10904TIP3   OH232588   7.789   3.274   2.943
10904TIP3    H132589   7.694   3.273   2.952
10904TIP3    H232590   7.806   3.221   2.865
10905TIP3   OH232591   8.860   0.937   3.120
10905TIP3    H132592   8.882   0.844   3.116
10905TIP3    H232593   8.810   0.947   3.202
10906TIP3   OH232594   3.012   1.130   0.550
10906TIP3    H132595   2.956   1.204   0.525
10906TIP3    H232596   2.979   1.104   0.636
10907TIP3   OH232597   5.112   5.582   4.901
10907TIP3    H132598   5.111   5.542   4.814
10907TIP3    H232599   5.061   5.522   4.956
10908TIP3   OH232600   5.112   0.277   4.625
10908TIP3    H132601   5.028   0.288   4.668
10908TIP3    H232602   5.166   0.349   4.658
10909TIP3   OH232603   2.268   1.266   0.227
10909TIP3    H132604   2.330   1.334   0.252
10909TIP3    H232605   2.183   1.310   0.225
10910TIP3   OH232606   8.590   4.150   2.592
10910TIP3    H132607   8.496   4.160   2.577
10910TIP3    H232608   8.609   4.208   2.666
10911TIP3   OH232609   1.728   3.663   3.159
10911TIP3    H132610   1.636   3.688   3.171
10911TIP3    H232611   1.778   3.733   3.201
10912TIP3   OH232612   3.645   3.170   7.455
10912TIP3    H132613   3.706   3.187   7.383
10912TIP3    H232614   3.572   3.123   7.413
10913TIP3   OH232615   9.558   6.047   7.736
10913TIP3    H132616   9.630   6.001   7.693
10913TIP3    H232617   9.527   6.109   7.670
10914TIP3   OH232618   8.896   4.686   0.942
10914TIP3    H132619   8.949   4.606   0.943
10914TIP3    H232620   8.929   4.736   0.867
10915TIP3   OH232621   1.121   7.314   3.118
10915TIP3    H132622   1.125   7.400   3.077
10915TIP3    H232623   1.088   7.330   3.206
10916TIP3   OH232624   2.915   8.887   7.360
10916TIP3    H132625   3.003   8.887   7.321
10916TIP3    H232626   2.857   8.912   7.288
10917TIP3   OH232627   1.059   1.427   0.077
10917TIP3    H132628   1.028   1.402   0.164
10917TIP3    H232629   1.016   1.366   0.017
10918TIP3   OH232630   8.949   2.435   5.188
10918TIP3    H132631   8.976   2.349   5.221
10918TIP3    H232632   8.971   2.496   5.258
10919TIP3   OH232633   9.486   8.716   1.799
10919TIP3    H132634   9.400   8.681   1.775
10919TIP3    H232635   9.498   8.792   1.742
10920TIP3   OH232636   6.397   5.115   1.684
10920TIP3    H132637   6.376   5.030   1.645
10920TIP3    H232638   6.398   5.098   1.779
10921TIP3   OH232639   0.153   3.700   6.764
10921TIP3    H132640   0.117   3.766   6.706
10921TIP3    H232641   0.232   3.740   6.801
10922TIP3   OH232642   1.047   8.521   1.104
10922TIP3    H132643   1.006   8.515   1.018
10922TIP3    H232644   1.120   8.582   1.092
10923TIP3   OH232645   7.451   7.417   1.685
10923TIP3    H132646   7.529   7.472   1.691
10923TIP3    H232647   7.458   7.376   1.599
10924TIP3   OH232648   2.035   0.988   3.364
10924TIP3    H132649   2.021   0.938   3.284
10924TIP3    H232650   2.069   0.924   3.426
10925TIP3   OH232651   8.639   4.670   1.952
10925TIP3    H132652   8.687   4.617   2.015
10925TIP3    H232653   8.704   4.694   1.886
10926TIP3   OH232654   5.045   8.273   2.361
10926TIP3    H132655   4.994   8.259   2.441
10926TIP3    H232656   5.083   8.360   2.372
10927TIP3   OH232657   4.066   3.800   1.560
10927TIP3    H132658   4.050   3.730   1.497
10927TIP3    H232659   4.155   3.783   1.592
10928TIP3   OH232660   0.959   5.928   7.809
10928TIP3    H132661   0.986   5.844   7.772
10928TIP3    H232662   0.877   5.909   7.855
10929TIP3   OH232663   4.744   5.916   3.734
10929TIP3    H132664   4.661   5.921   3.688
10929TIP3    H232665   4.776   5.828   3.716
10930TIP3   OH232666   6.631   7.887   0.060
10930TIP3    H132667   6.557   7.895   0.000
10930TIP3    H232668   6.643   7.975   0.095
10931TIP3   OH232669   2.107   5.878   1.593
10931TIP3    H132670   2.056   5.797   1.594
10931TIP3    H232671   2.198   5.849   1.595
10932TIP3   OH232672   1.824   3.683   1.648
10932TIP3    H132673   1.812   3.761   1.702
10932TIP3    H232674   1.754   3.624   1.676
10933TIP3   OH232675   9.054   2.324   2.870
10933TIP3    H132676   9.127   2.316   2.932
10933TIP3    H232677   9.082   2.273   2.794
10934TIP3   OH232678   8.477   0.039   4.018
10934TIP3    H132679   8.572   0.054   4.014
10934TIP3    H232680   8.453   0.013   3.929
10935TIP3   OH232681   7.917   3.253   2.494
10935TIP3    H132682   7.871   3.225   2.573
10935TIP3    H232683   8.007   3.221   2.506
10936TIP3   OH232684   3.084   2.501   6.101
10936TIP3    H132685   3.040   2.438   6.043
10936TIP3    H232686   3.154   2.538   6.048
10937TIP3   OH232687   7.556   8.628   7.186
10937TIP3    H132688   7.520   8.540   7.178
10937TIP3    H232689   7.479   8.684   7.195
10938TIP3   OH232690   0.562   7.202   5.040
10938TIP3    H132691   0.641   7.208   5.093
10938TIP3    H232692   0.490   7.209   5.102
10939TIP3   OH232693   8.810   2.504  -0.005
10939TIP3    H132694   8.732   2.553   0.021
10939TIP3    H232695   8.819   2.435   0.061
10940TIP3   OH232696   4.289   0.510   5.490
10940TIP3    H132697   4.382   0.492   5.496
10940TIP3    H232698   4.277   0.553   5.406
10941TIP3   OH232699   4.482   0.207   0.121
10941TIP3    H132700   4.564   0.208   0.071
10941TIP3    H232701   4.418   0.171   0.060
10942TIP3   OH232702   8.236   7.619   0.048
10942TIP3    H132703   8.204   7.568   0.122
10942TIP3    H232704   8.328   7.635   0.067
10943TIP3   OH232705   4.940   3.268   6.931
10943TIP3    H132706   4.917   3.360   6.950
10943TIP3    H232707   4.963   3.269   6.838
10944TIP3   OH232708   9.088   6.625   2.210
10944TIP3    H132709   9.061   6.661   2.125
10944TIP3    H232710   9.011   6.636   2.266
10945TIP3   OH232711   2.865   7.479   6.832
10945TIP3    H132712   2.888   7.548   6.894
10945TIP3    H232713   2.887   7.516   6.746
10946TIP3   OH232714   7.206   7.254   2.038
10946TIP3    H132715   7.280   7.220   2.087
10946TIP3    H232716   7.213   7.214   1.951
10947TIP3   OH232717   5.961   5.750   5.964
10947TIP3    H132718   5.883   5.696   5.979
10947TIP3    H232719   5.963   5.762   5.869
10948TIP3   OH232720   2.603   2.194   0.304
10948TIP3    H132721   2.631   2.157   0.221
10948TIP3    H232722   2.610   2.289   0.292
10949TIP3   OH232723   0.196   5.164   7.476
10949TIP3    H132724   0.115   5.115   7.464
10949TIP3    H232725   0.216   5.199   7.389
10950TIP3   OH232726   0.332   4.053   5.654
10950TIP3    H132727   0.264   3.987   5.642
10950TIP3    H232728   0.340   4.095   5.569
10951TIP3   OH232729   4.866   1.961   0.684
10951TIP3    H132730   4.909   2.008   0.613
10951TIP3    H232731   4.791   2.015   0.708
10952TIP3   OH232732   1.035   5.066   7.243
10952TIP3    H132733   1.094   5.052   7.169
10952TIP3    H232734   1.024   5.161   7.247
10953TIP3   OH232735   1.091   1.177   2.991
10953TIP3    H132736   1.182   1.178   3.022
10953TIP3    H232737   1.089   1.106   2.927
10954TIP3   OH232738   7.977   8.949   2.607
10954TIP3    H132739   8.035   8.908   2.672
10954TIP3    H232740   7.912   8.995   2.659
10955TIP3   OH232741   2.400   3.184   1.184
10955TIP3    H132742   2.479   3.215   1.141
10955TIP3    H232743   2.368   3.113   1.129
10956TIP3   OH232744   6.619   8.065   5.279
10956TIP3    H132745   6.627   8.160   5.272
10956TIP3    H232746   6.588   8.050   5.369
10957TIP3   OH232747   3.302   2.181   6.479
10957TIP3    H132748   3.352   2.100   6.471
10957TIP3    H232749   3.274   2.202   6.389
10958TIP3   OH232750   7.573   8.859   3.056
10958TIP3    H132751   7.575   8.772   3.017
10958TIP3    H232752   7.489   8.863   3.101
10959TIP3   OH232753   8.392   6.845   7.529
10959TIP3    H132754   8.328   6.881   7.589
10959TIP3    H232755   8.472   6.895   7.545
10960TIP3   OH232756   3.535   7.570   5.219
10960TIP3    H132757   3.541   7.611   5.133
10960TIP3    H232758   3.604   7.503   5.219
10961TIP3   OH232759   5.333   4.714   7.212
10961TIP3    H132760   5.377   4.650   7.156
10961TIP3    H232761   5.388   4.719   7.290
10962TIP3   OH232762   2.205   2.478   2.987
10962TIP3    H132763   2.128   2.438   2.945
10962TIP3    H232764   2.279   2.443   2.938
10963TIP3   OH232765   2.345   6.620   6.262
10963TIP3    H132766   2.440   6.627   6.254
10963TIP3    H232767   2.310   6.681   6.198
10964TIP3   OH232768   9.240   0.782   0.404
10964TIP3    H132769   9.215   0.710   0.463
10964TIP3    H232770   9.328   0.806   0.434
10965TIP3   OH232771   5.317   5.404   4.053
10965TIP3    H132772   5.349   5.331   3.999
10965TIP3    H232773   5.357   5.481   4.014
10966TIP3   OH232774   8.486   4.477   3.639
10966TIP3    H132775   8.453   4.567   3.648
10966TIP3    H232776   8.429   4.425   3.696
10967TIP3   OH232777   5.706   2.384   3.560
10967TIP3    H132778   5.616   2.408   3.584
10967TIP3    H232779   5.710   2.290   3.575
10968TIP3   OH232780   3.745   8.435   7.204
10968TIP3    H132781   3.660   8.476   7.189
10968TIP3    H232782   3.803   8.475   7.140
10969TIP3   OH232783   8.592   6.501   0.329
10969TIP3    H132784   8.530   6.471   0.263
10969TIP3    H232785   8.669   6.527   0.279
10970TIP3   OH232786   6.576   4.378   6.548
10970TIP3    H132787   6.601   4.442   6.615
10970TIP3    H232788   6.482   4.365   6.560
10971TIP3   OH232789   1.661   1.720   6.060
10971TIP3    H132790   1.669   1.813   6.083
10971TIP3    H232791   1.617   1.721   5.974
10972TIP3   OH232792   6.365   1.214   3.932
10972TIP3    H132793   6.447   1.169   3.951
10972TIP3    H232794   6.311   1.149   3.888
10973TIP3   OH232795   7.588   7.333   2.894
10973TIP3    H132796   7.533   7.278   2.838
10973TIP3    H232797   7.672   7.336   2.848
10974TIP3   OH232798   1.667   7.310   3.966
10974TIP3    H132799   1.692   7.402   3.972
10974TIP3    H232800   1.681   7.288   3.874
10975TIP3   OH232801   2.554   5.892   7.681
10975TIP3    H132802   2.577   5.807   7.718
10975TIP3    H232803   2.635   5.943   7.688
10976TIP3   OH232804   5.436   5.318   6.340
10976TIP3    H132805   5.464   5.409   6.348
10976TIP3    H232806   5.361   5.321   6.280
10977TIP3   OH232807   1.234   2.107   4.470
10977TIP3    H132808   1.161   2.161   4.501
10977TIP3    H232809   1.292   2.101   4.545
10978TIP3   OH232810   3.136   3.778   1.597
10978TIP3    H132811   3.194   3.780   1.521
10978TIP3    H232812   3.115   3.685   1.609
10979TIP3   OH232813   3.105   6.632   3.381
10979TIP3    H132814   3.136   6.670   3.298
10979TIP3    H232815   3.175   6.651   3.443
10980TIP3   OH232816   6.901   0.979   5.190
10980TIP3    H132817   6.903   1.017   5.278
10980TIP3    H232818   6.986   1.002   5.152
10981TIP3   OH232819   6.510   2.347   4.961
10981TIP3    H132820   6.478   2.269   4.916
10981TIP3    H232821   6.604   2.331   4.973
10982TIP3   OH232822   8.366   1.034   3.525
10982TIP3    H132823   8.408   1.104   3.575
10982TIP3    H232824   8.309   1.079   3.463
10983TIP3   OH232825   4.386   5.501   6.218
10983TIP3    H132826   4.369   5.409   6.236
10983TIP3    H232827   4.300   5.543   6.222
10984TIP3   OH232828   0.352   2.751   0.976
10984TIP3    H132829   0.319   2.668   0.941
10984TIP3    H232830   0.346   2.812   0.902
10985TIP3   OH232831   7.718   4.905   6.837
10985TIP3    H132832   7.705   4.930   6.928
10985TIP3    H232833   7.806   4.867   6.835
10986TIP3   OH232834   9.008   4.917   6.895
10986TIP3    H132835   9.038   4.985   6.834
10986TIP3    H232836   8.931   4.956   6.937
10987TIP3   OH232837   6.699   7.742   1.734
10987TIP3    H132838   6.635   7.765   1.666
10987TIP3    H232839   6.726   7.653   1.712
10988TIP3   OH232840   8.402   7.536   3.833
10988TIP3    H132841   8.438   7.465   3.780
10988TIP3    H232842   8.308   7.518   3.836
10989TIP3   OH232843   4.001   2.452   4.843
10989TIP3    H132844   3.967   2.530   4.887
10989TIP3    H232845   3.985   2.381   4.906
10990TIP3   OH232846   0.611   1.734   5.698
10990TIP3    H132847   0.632   1.807   5.757
10990TIP3    H232848   0.695   1.690   5.683
10991TIP3   OH232849   2.212   5.616   7.774
10991TIP3    H132850   2.304   5.637   7.790
10991TIP3    H232851   2.188   5.561   7.849
10992TIP3   OH232852   7.063   6.664   2.389
10992TIP3    H132853   7.002   6.612   2.441
10992TIP3    H232854   7.009   6.701   2.319
10993TIP3   OH232855   6.457   6.460   4.315
10993TIP3    H132856   6.421   6.373   4.334
10993TIP3    H232857   6.411   6.488   4.236
10994TIP3   OH232858   3.044   6.637   7.313
10994TIP3    H132859   2.992   6.623   7.392
10994TIP3    H232860   3.102   6.561   7.308
10995TIP3   OH232861   3.016   8.561   7.223
10995TIP3    H132862   3.012   8.645   7.178
10995TIP3    H232863   3.000   8.581   7.315
10996TIP3   OH232864   7.151   1.801   1.060
10996TIP3    H132865   7.193   1.843   1.135
10996TIP3    H232866   7.071   1.763   1.096
10997TIP3   OH232867   8.794   8.280   7.252
10997TIP3    H132868   8.779   8.211   7.188
10997TIP3    H232869   8.727   8.346   7.233
10998TIP3   OH232870   7.598   8.800   2.527
10998TIP3    H132871   7.536   8.872   2.537
10998TIP3    H232872   7.654   8.805   2.605
10999TIP3   OH232873   7.223   6.757   5.125
10999TIP3    H132874   7.164   6.681   5.124
10999TIP3    H232875   7.268   6.754   5.041
11000TIP3   OH232876   6.510   8.835   6.348
11000TIP3    H132877   6.428   8.858   6.391
11000TIP3    H232878   6.536   8.753   6.389
11001TIP3   OH232879   9.084   2.513   6.675
11001TIP3    H132880   9.178   2.525   6.660
11001TIP3    H232881   9.047   2.601   6.670
11002TIP3   OH232882   3.356   5.613   1.216
11002TIP3    H132883   3.331   5.646   1.130
11002TIP3    H232884   3.450   5.630   1.221
11003TIP3   OH232885   8.778   8.837   7.133
11003TIP3    H132886   8.683   8.842   7.121
11003TIP3    H232887   8.814   8.848   7.045
11004TIP3   OH232888   5.526   5.753   3.317
11004TIP3    H132889   5.444   5.752   3.267
11004TIP3    H232890   5.526   5.838   3.361
11005TIP3   OH232891   3.880   3.861   5.677
11005TIP3    H132892   3.863   3.802   5.751
11005TIP3    H232893   3.800   3.856   5.624
11006TIP3   OH232894   2.954   5.451   7.724
11006TIP3    H132895   2.981   5.528   7.673
11006TIP3    H232896   2.910   5.395   7.661
11007TIP3   OH232897   4.671   3.525   2.255
11007TIP3    H132898   4.660   3.548   2.348
11007TIP3    H232899   4.765   3.515   2.244
11008TIP3   OH232900   8.968   1.906   6.166
11008TIP3    H132901   9.029   1.832   6.167
11008TIP3    H232902   8.987   1.954   6.247
11009TIP3   OH232903   8.500   3.914   6.275
11009TIP3    H132904   8.468   4.000   6.249
11009TIP3    H232905   8.581   3.932   6.322
11010TIP3   OH232906   6.276   0.398   7.614
11010TIP3    H132907   6.211   0.348   7.663
11010TIP3    H232908   6.359   0.358   7.636
11011TIP3   OH232909   1.673   7.108   6.399
11011TIP3    H132910   1.627   7.148   6.325
11011TIP3    H232911   1.749   7.066   6.361
11012TIP3   OH232912   1.063   3.283   6.299
11012TIP3    H132913   1.012   3.258   6.222
11012TIP3    H232914   1.000   3.326   6.357
11013TIP3   OH232915   5.048   3.019   7.056
11013TIP3    H132916   5.129   2.988   7.014
11013TIP3    H232917   5.027   3.100   7.011
11014TIP3   OH232918   5.664   1.851   1.358
11014TIP3    H132919   5.573   1.824   1.350
11014TIP3    H232920   5.705   1.823   1.276
11015TIP3   OH232921   2.940   0.692   6.923
11015TIP3    H132922   3.030   0.684   6.892
11015TIP3    H232923   2.931   0.784   6.947
11016TIP3   OH232924   1.389   6.214   4.288
11016TIP3    H132925   1.473   6.171   4.303
11016TIP3    H232926   1.328   6.167   4.344
11017TIP3   OH232927   0.576   6.593   4.047
11017TIP3    H132928   0.494   6.557   4.081
11017TIP3    H232929   0.642   6.526   4.068
11018TIP3   OH232930   0.209   3.331   6.305
11018TIP3    H132931   0.120   3.338   6.339
11018TIP3    H232932   0.201   3.282   6.224
11019TIP3   OH232933   0.370   4.770   3.352
11019TIP3    H132934   0.447   4.715   3.369
11019TIP3    H232935   0.405   4.846   3.306
11020TIP3   OH232936   1.536   2.510   7.293
11020TIP3    H132937   1.494   2.487   7.210
11020TIP3    H232938   1.467   2.553   7.344
11021TIP3   OH232939   8.913   6.202   0.479
11021TIP3    H132940   8.863   6.148   0.419
11021TIP3    H232941   8.916   6.288   0.437
11022TIP3   OH232942   5.858   3.589   1.143
11022TIP3    H132943   5.876   3.502   1.178
11022TIP3    H232944   5.884   3.584   1.051
11023TIP3   OH232945   3.284   7.278   5.642
11023TIP3    H132946   3.193   7.257   5.622
11023TIP3    H232947   3.331   7.260   5.560
11024TIP3   OH232948   5.984   0.508   2.254
11024TIP3    H132949   5.939   0.443   2.307
11024TIP3    H232950   5.935   0.511   2.172
11025TIP3   OH232951   7.851   7.226   3.900
11025TIP3    H132952   7.880   7.304   3.852
11025TIP3    H232953   7.771   7.254   3.945
11026TIP3   OH232954   7.357   4.716   4.917
11026TIP3    H132955   7.377   4.680   5.003
11026TIP3    H232956   7.288   4.660   4.883
11027TIP3   OH232957   6.951   0.603   2.908
11027TIP3    H132958   6.961   0.697   2.927
11027TIP3    H232959   7.003   0.559   2.974
11028TIP3   OH232960   1.181   0.094   6.371
11028TIP3    H132961   1.196   0.176   6.324
11028TIP3    H232962   1.086   0.090   6.383
11029TIP3   OH232963   7.327   7.191   4.906
11029TIP3    H132964   7.345   7.222   4.818
11029TIP3    H232965   7.315   7.097   4.897
11030TIP3   OH232966   7.088   2.402   0.103
11030TIP3    H132967   7.134   2.327   0.068
11030TIP3    H232968   7.009   2.366   0.144
11031TIP3   OH232969   6.081   6.834   6.449
11031TIP3    H132970   6.157   6.880   6.485
11031TIP3    H232971   6.096   6.742   6.471
11032TIP3   OH232972   0.444   2.105   5.124
11032TIP3    H132973   0.374   2.056   5.080
11032TIP3    H232974   0.524   2.081   5.077
11033TIP3   OH232975   6.328   4.086   5.446
11033TIP3    H132976   6.420   4.066   5.429
11033TIP3    H232977   6.329   4.174   5.484
11034TIP3   OH232978   7.666   6.988   0.145
11034TIP3    H132979   7.644   7.074   0.109
11034TIP3    H232980   7.608   6.977   0.220
11035TIP3   OH232981   3.960   6.362   1.877
11035TIP3    H132982   3.899   6.335   1.808
11035TIP3    H232983   4.043   6.320   1.854
11036TIP3   OH232984   0.380   8.738   5.262
11036TIP3    H132985   0.393   8.687   5.341
11036TIP3    H232986   0.389   8.829   5.290
11037TIP3   OH232987   6.684   0.398   1.253
11037TIP3    H132988   6.753   0.381   1.318
11037TIP3    H232989   6.693   0.327   1.190
11038TIP3   OH232990   5.071   4.413   0.489
11038TIP3    H132991   5.053   4.403   0.395
11038TIP3    H232992   5.043   4.502   0.509
11039TIP3   OH232993   5.736   5.137   2.473
11039TIP3    H132994   5.809   5.081   2.448
11039TIP3    H232995   5.769   5.188   2.547
11040TIP3   OH232996   1.403   1.856   6.336
11040TIP3    H132997   1.485   1.875   6.382
11040TIP3    H232998   1.351   1.806   6.399
11041TIP3   OH232999   5.739   7.192   0.783
11041TIP3    H133000   5.714   7.279   0.750
11041TIP3    H233001   5.667   7.135   0.758
11042TIP3   OH233002   8.265   4.995   3.326
11042TIP3    H133003   8.220   5.050   3.262
11042TIP3    H233004   8.357   5.000   3.301
11043TIP3   OH233005   0.639   3.799   6.494
11043TIP3    H133006   0.641   3.714   6.451
11043TIP3    H233007   0.577   3.851   6.443
11044TIP3   OH233008   0.864   4.838   6.653
11044TIP3    H133009   0.897   4.848   6.563
11044TIP3    H233010   0.857   4.744   6.665
11045TIP3   OH233011   5.068   1.283   5.782
11045TIP3    H133012   5.107   1.278   5.870
11045TIP3    H233013   5.025   1.199   5.771
11046TIP3   OH233014   6.506   3.123   3.088
11046TIP3    H133015   6.493   3.074   3.169
11046TIP3    H233016   6.418   3.130   3.051
11047TIP3   OH233017   5.438   2.181   3.041
11047TIP3    H133018   5.476   2.094   3.047
11047TIP3    H233019   5.446   2.218   3.129
11048TIP3   OH233020   7.555   7.866   6.192
11048TIP3    H133021   7.604   7.946   6.210
11048TIP3    H233022   7.622   7.798   6.188
11049TIP3   OH233023   2.518   5.005   1.355
11049TIP3    H133024   2.595   4.951   1.373
11049TIP3    H233025   2.554   5.094   1.344
11050TIP3   OH233026   0.876   2.398   4.315
11050TIP3    H133027   0.907   2.319   4.272
11050TIP3    H233028   0.955   2.444   4.342
11051TIP3   OH233029   8.515   6.127   5.732
11051TIP3    H133030   8.470   6.129   5.648
11051TIP3    H233031   8.538   6.035   5.745
11052TIP3   OH233032   0.449   3.833   1.310
11052TIP3    H133033   0.359   3.805   1.323
11052TIP3    H233034   0.463   3.830   1.216
11053TIP3   OH233035   0.815   1.000   7.172
11053TIP3    H133036   0.900   0.965   7.197
11053TIP3    H233037   0.835   1.077   7.118
11054TIP3   OH233038   6.552   3.711   4.360
11054TIP3    H133039   6.576   3.619   4.352
11054TIP3    H233040   6.599   3.755   4.289
11055TIP3   OH233041   1.205   3.559   7.277
11055TIP3    H133042   1.294   3.551   7.313
11055TIP3    H233043   1.216   3.545   7.183
11056TIP3   OH233044   4.835   6.313   4.103
11056TIP3    H133045   4.853   6.253   4.175
11056TIP3    H233046   4.876   6.272   4.027
11057TIP3   OH233047   8.555   1.867   6.731
11057TIP3    H133048   8.635   1.883   6.681
11057TIP3    H233049   8.485   1.868   6.666
11058TIP3   OH233050   8.463   8.477   2.423
11058TIP3    H133051   8.535   8.538   2.408
11058TIP3    H233052   8.501   8.407   2.477
11059TIP3   OH233053   5.053   0.296   6.342
11059TIP3    H133054   5.000   0.271   6.418
11059TIP3    H233055   5.027   0.386   6.324
11060TIP3   OH233056   5.244   7.095   4.682
11060TIP3    H133057   5.244   7.042   4.602
11060TIP3    H233058   5.297   7.172   4.660
11061TIP3   OH233059   1.500   3.786   6.739
11061TIP3    H133060   1.436   3.784   6.811
11061TIP3    H233061   1.550   3.706   6.750
11062TIP3   OH233062   6.337   2.229   6.226
11062TIP3    H133063   6.371   2.149   6.266
11062TIP3    H233064   6.257   2.248   6.275
11063TIP3   OH233065   7.964   8.947   2.000
11063TIP3    H133066   8.035   8.892   1.967
11063TIP3    H233067   7.950   9.011   1.930
11064TIP3   OH233068   3.043   5.149   2.143
11064TIP3    H133069   2.990   5.223   2.114
11064TIP3    H233070   3.114   5.188   2.194
11065TIP3   OH233071   0.957   8.554   4.985
11065TIP3    H133072   0.874   8.572   5.029
11065TIP3    H233073   1.021   8.545   5.056
11066TIP3   OH233074   2.002   0.266   7.365
11066TIP3    H133075   2.094   0.278   7.390
11066TIP3    H233076   1.979   0.345   7.317
11067TIP3   OH233077   3.557   3.635   7.685
11067TIP3    H133078   3.633   3.694   7.681
11067TIP3    H233079   3.493   3.676   7.627
11068TIP3   OH233080   1.229   2.462   0.980
11068TIP3    H133081   1.292   2.532   0.997
11068TIP3    H233082   1.282   2.390   0.945
11069TIP3   OH233083   0.795   6.532   6.436
11069TIP3    H133084   0.787   6.506   6.345
11069TIP3    H233085   0.757   6.459   6.485
11070TIP3   OH233086   9.159   2.428   3.838
11070TIP3    H133087   9.155   2.334   3.824
11070TIP3    H233088   9.069   2.455   3.853
11071TIP3   OH233089   7.254   5.422   3.965
11071TIP3    H133090   7.233   5.335   3.930
11071TIP3    H233091   7.198   5.430   4.042
11072TIP3   OH233092   5.194   8.963   1.009
11072TIP3    H133093   5.262   8.951   1.076
11072TIP3    H233094   5.166   8.875   0.987
11073TIP3   OH233095   2.641   2.681   1.707
11073TIP3    H133096   2.650   2.705   1.615
11073TIP3    H233097   2.615   2.762   1.751
11074TIP3   OH233098   1.248   4.212   2.634
11074TIP3    H133099   1.223   4.282   2.574
11074TIP3    H233100   1.289   4.257   2.707
11075TIP3   OH233101   1.878   5.101   2.734
11075TIP3    H133102   1.827   5.110   2.654
11075TIP3    H233103   1.873   5.007   2.754
11076TIP3   OH233104   5.924   8.999   3.370
11076TIP3    H133105   5.897   8.944   3.297
11076TIP3    H233106   5.981   9.065   3.331
11077TIP3   OH233107   9.003   5.520   0.175
11077TIP3    H133108   8.965   5.481   0.254
11077TIP3    H233109   9.042   5.447   0.128
11078TIP3   OH233110   1.848   1.908   6.312
11078TIP3    H133111   1.866   1.825   6.268
11078TIP3    H233112   1.880   1.975   6.251
11079TIP3   OH233113   3.151   8.179   5.426
11079TIP3    H133114   3.103   8.111   5.378
11079TIP3    H233115   3.147   8.256   5.369
11080TIP3   OH233116   0.573   0.502   1.004
11080TIP3    H133117   0.614   0.415   1.004
11080TIP3    H233118   0.615   0.549   1.076
11081TIP3   OH233119   2.250   0.006   1.316
11081TIP3    H133120   2.328  -0.028   1.273
11081TIP3    H233121   2.246  -0.041   1.399
11082TIP3   OH233122   3.538   0.540   7.553
11082TIP3    H133123   3.470   0.599   7.520
11082TIP3    H233124   3.496   0.496   7.628
11083TIP3   OH233125   8.645   5.733   3.448
11083TIP3    H133126   8.693   5.781   3.516
11083TIP3    H233127   8.559   5.719   3.486
11084TIP3   OH233128   0.704   5.270   3.337
11084TIP3    H133129   0.624   5.321   3.323
11084TIP3    H233130   0.673   5.182   3.359
11085TIP3   OH233131   8.850   3.659   1.491
11085TIP3    H133132   8.905   3.735   1.468
11085TIP3    H233133   8.888   3.627   1.573
11086TIP3   OH233134   2.423   2.790   7.292
11086TIP3    H133135   2.369   2.776   7.214
11086TIP3    H233136   2.398   2.877   7.323
11087TIP3   OH233137   5.513   6.620   0.841
11087TIP3    H133138   5.454   6.691   0.868
11087TIP3    H233139   5.494   6.548   0.901
11088TIP3   OH233140   5.657   1.060   0.040
11088TIP3    H133141   5.577   1.025   0.002
11088TIP3    H233142   5.630   1.141   0.083
11089TIP3   OH233143   8.520   1.597   1.179
11089TIP3    H133144   8.574   1.601   1.257
11089TIP3    H233145   8.475   1.682   1.176
11090TIP3   OH233146   6.196   5.656   6.082
11090TIP3    H133147   6.106   5.677   6.058
11090TIP3    H233148   6.237   5.626   6.001
11091TIP3   OH233149   2.997   6.329   7.664
11091TIP3    H133150   3.059   6.401   7.678
11091TIP3    H233151   2.911   6.371   7.667
11092TIP3   OH233152   0.623   4.153   1.184
11092TIP3    H133153   0.609   4.241   1.150
11092TIP3    H233154   0.655   4.167   1.273
11093TIP3   OH233155   3.994   1.710   1.591
11093TIP3    H133156   4.017   1.662   1.671
11093TIP3    H233157   4.020   1.651   1.520
11094TIP3   OH233158   3.129   6.226   1.470
11094TIP3    H133159   3.173   6.162   1.414
11094TIP3    H233160   3.168   6.213   1.557
11095TIP3   OH233161   1.271   3.892   4.962
11095TIP3    H133162   1.332   3.855   5.025
11095TIP3    H233163   1.326   3.943   4.902
11096TIP3   OH233164   5.378   0.872   7.301
11096TIP3    H133165   5.342   0.848   7.386
11096TIP3    H233166   5.430   0.796   7.275
11097TIP3   OH233167   4.121   7.070   3.640
11097TIP3    H133168   4.028   7.047   3.646
11097TIP3    H233169   4.160   7.033   3.720
11098TIP3   OH233170   1.531   1.296   2.533
11098TIP3    H133171   1.605   1.270   2.589
11098TIP3    H233172   1.548   1.388   2.513
11099TIP3   OH233173   0.193   5.295   5.987
11099TIP3    H133174   0.259   5.226   5.998
11099TIP3    H233175   0.175   5.325   6.075
11100TIP3   OH233176   6.045   3.469   1.476
11100TIP3    H133177   5.977   3.536   1.482
11100TIP3    H233178   6.013   3.397   1.530
11101TIP3   OH233179   1.019   8.867   3.295
11101TIP3    H133180   0.979   8.802   3.353
11101TIP3    H233181   1.110   8.872   3.325
11102TIP3   OH233182   7.007   8.676   6.654
11102TIP3    H133183   7.049   8.762   6.651
11102TIP3    H233184   7.036   8.632   6.574
11103TIP3   OH233185   4.227   4.715   2.357
11103TIP3    H133186   4.169   4.685   2.427
11103TIP3    H233187   4.172   4.772   2.303
11104TIP3   OH233188   6.339   3.326   5.125
11104TIP3    H133189   6.327   3.408   5.077
11104TIP3    H233190   6.267   3.270   5.095
11105TIP3   OH233191   3.579   2.095   2.778
11105TIP3    H133192   3.542   2.009   2.796
11105TIP3    H233193   3.504   2.150   2.755
11106TIP3   OH233194   1.211   2.390   5.603
11106TIP3    H133195   1.185   2.408   5.512
11106TIP3    H233196   1.204   2.474   5.647
11107TIP3   OH233197   3.266   2.461   3.123
11107TIP3    H133198   3.244   2.522   3.192
11107TIP3    H233199   3.342   2.500   3.080
11108TIP3   OH233200   6.941   2.865   5.245
11108TIP3    H133201   6.978   2.873   5.332
11108TIP3    H233202   7.004   2.906   5.187
11109TIP3   OH233203   6.070   6.958   7.217
11109TIP3    H133204   6.138   7.026   7.208
11109TIP3    H233205   6.116   6.876   7.200
11110TIP3   OH233206   6.190   0.658   5.920
11110TIP3    H133207   6.258   0.610   5.874
11110TIP3    H233208   6.172   0.734   5.865
11111TIP3   OH233209   2.717   5.095   0.587
11111TIP3    H133210   2.718   5.191   0.589
11111TIP3    H233211   2.627   5.073   0.563
11112TIP3   OH233212   0.488   7.904   2.914
11112TIP3    H133213   0.468   7.997   2.925
11112TIP3    H233214   0.496   7.891   2.820
11113TIP3   OH233215   1.510   0.105   2.201
11113TIP3    H133216   1.520   0.029   2.143
11113TIP3    H233217   1.437   0.083   2.258
11114TIP3   OH233218   2.696   2.265   5.940
11114TIP3    H133219   2.651   2.347   5.919
11114TIP3    H233220   2.733   2.237   5.856
11115TIP3   OH233221   2.915   1.954   6.398
11115TIP3    H133222   2.962   1.992   6.473
11115TIP3    H233223   2.838   2.011   6.388
11116TIP3   OH233224   5.913   1.373   7.635
11116TIP3    H133225   5.896   1.453   7.684
11116TIP3    H233226   5.959   1.317   7.697
11117TIP3   OH233227   6.557   6.236   2.425
11117TIP3    H133228   6.601   6.210   2.344
11117TIP3    H233229   6.530   6.327   2.410
11118TIP3   OH233230   4.832   5.185   6.367
11118TIP3    H133231   4.819   5.261   6.424
11118TIP3    H233232   4.745   5.167   6.331
11119TIP3   OH233233   5.515   6.013   5.856
11119TIP3    H133234   5.533   6.016   5.950
11119TIP3    H233235   5.566   6.086   5.820
11120TIP3   OH233236   4.700   3.916   2.098
11120TIP3    H133237   4.792   3.889   2.098
11120TIP3    H233238   4.652   3.837   2.072
11121TIP3   OH233239   6.055   4.266   1.665
11121TIP3    H133240   5.999   4.315   1.725
11121TIP3    H233241   6.080   4.329   1.598
11122TIP3   OH233242   5.430   1.840   5.050
11122TIP3    H133243   5.455   1.764   5.102
11122TIP3    H233244   5.373   1.892   5.107
11123TIP3   OH233245   6.876   6.523   5.656
11123TIP3    H133246   6.844   6.612   5.642
11123TIP3    H233247   6.923   6.501   5.576
11124TIP3   OH233248   8.791   0.262   7.065
11124TIP3    H133249   8.739   0.186   7.040
11124TIP3    H233250   8.729   0.335   7.067
11125TIP3   OH233251   3.291   7.706   2.063
11125TIP3    H133252   3.225   7.739   2.003
11125TIP3    H233253   3.242   7.654   2.127
11126TIP3   OH233254   2.834   5.767   0.134
11126TIP3    H133255   2.899   5.731   0.195
11126TIP3    H233256   2.757   5.784   0.189
11127TIP3   OH233257   5.677   6.564   3.042
11127TIP3    H133258   5.718   6.643   3.075
11127TIP3    H233259   5.750   6.509   3.013
11128TIP3   OH233260   3.854   4.947   1.396
11128TIP3    H133261   3.791   4.991   1.338
11128TIP3    H233262   3.865   4.860   1.358
11129TIP3   OH233263   8.168   4.604   3.745
11129TIP3    H133264   8.214   4.520   3.746
11129TIP3    H233265   8.083   4.585   3.705
11130TIP3   OH233266   1.201   1.692   5.205
11130TIP3    H133267   1.179   1.634   5.132
11130TIP3    H233268   1.292   1.716   5.190
11131TIP3   OH233269   9.167   5.197   3.250
11131TIP3    H133270   9.184   5.123   3.308
11131TIP3    H233271   9.162   5.273   3.309
11132TIP3   OH233272   4.170   2.984   4.293
11132TIP3    H133273   4.203   2.983   4.383
11132TIP3    H233274   4.143   3.075   4.279
11133TIP3   OH233275   8.688   5.171   7.302
11133TIP3    H133276   8.726   5.121   7.374
11133TIP3    H233277   8.763   5.212   7.259
11134TIP3   OH233278   1.430   8.068   1.802
11134TIP3    H133279   1.465   8.144   1.848
11134TIP3    H233280   1.337   8.068   1.825
11135TIP3   OH233281   7.549   2.605   3.007
11135TIP3    H133282   7.590   2.546   2.943
11135TIP3    H233283   7.467   2.562   3.030
11136TIP3   OH233284   9.449   6.330   5.132
11136TIP3    H133285   9.536   6.352   5.097
11136TIP3    H233286   9.446   6.378   5.215
11137TIP3   OH233287   2.501   1.835   1.278
11137TIP3    H133288   2.577   1.800   1.232
11137TIP3    H233289   2.455   1.758   1.311
11138TIP3   OH233290   7.578   8.245   4.568
11138TIP3    H133291   7.591   8.314   4.632
11138TIP3    H233292   7.615   8.280   4.487
11139TIP3   OH233293   3.434   3.716   2.196
11139TIP3    H133294   3.526   3.689   2.200
11139TIP3    H233295   3.437   3.804   2.159
11140TIP3   OH233296   6.449   7.683   6.716
11140TIP3    H133297   6.422   7.740   6.644
11140TIP3    H233298   6.544   7.687   6.715
11141TIP3   OH233299   2.049   0.558   1.406
11141TIP3    H133300   1.994   0.486   1.376
11141TIP3    H233301   2.114   0.516   1.463
11142TIP3   OH233302   0.055   8.303   3.510
11142TIP3    H133303  -0.005   8.347   3.451
11142TIP3    H233304   0.002   8.278   3.585
11143TIP3   OH233305   4.089   7.911   3.159
11143TIP3    H133306   4.026   7.979   3.135
11143TIP3    H233307   4.077   7.899   3.253
11144TIP3   OH233308   7.191   5.311   5.335
11144TIP3    H133309   7.223   5.221   5.329
11144TIP3    H233310   7.116   5.306   5.395
11145TIP3   OH233311   1.117   5.283   2.629
11145TIP3    H133312   1.081   5.295   2.717
11145TIP3    H233313   1.079   5.200   2.598
11146TIP3   OH233314   9.347   1.981   0.505
11146TIP3    H133315   9.323   1.914   0.569
11146TIP3    H233316   9.326   2.064   0.548
11147TIP3   OH233317   9.557   4.194   2.722
11147TIP3    H133318   9.466   4.181   2.698
11147TIP3    H233319   9.565   4.288   2.738
11148TIP3   OH233320   6.525   2.726   3.639
11148TIP3    H133321   6.597   2.779   3.673
11148TIP3    H233322   6.545   2.637   3.667
11149TIP3   OH233323   7.672   0.744   5.695
11149TIP3    H133324   7.664   0.687   5.619
11149TIP3    H233325   7.678   0.833   5.659
11150TIP3   OH233326   0.011   6.196   2.838
11150TIP3    H133327   0.072   6.145   2.786
11150TIP3    H233328  -0.012   6.139   2.912
11151TIP3   OH233329   4.888   5.919   0.760
11151TIP3    H133330   4.972   5.950   0.794
11151TIP3    H233331   4.881   5.958   0.673
11152TIP3   OH233332   9.163   5.050   1.088
11152TIP3    H133333   9.246   5.018   1.052
11152TIP3    H233334   9.136   4.982   1.150
11153TIP3   OH233335   1.510   0.931   0.787
11153TIP3    H133336   1.489   0.958   0.877
11153TIP3    H233337   1.424   0.917   0.746
11154TIP3   OH233338   6.493   3.848   0.039
11154TIP3    H133339   6.585   3.853   0.065
11154TIP3    H233340   6.449   3.913   0.093
11155TIP3   OH233341   1.943   2.079   2.635
11155TIP3    H133342   1.991   2.031   2.568
11155TIP3    H233343   1.999   2.075   2.712
11156TIP3   OH233344   3.018   0.237   3.085
11156TIP3    H133345   2.997   0.325   3.116
11156TIP3    H233346   3.107   0.243   3.051
11157TIP3   OH233347   5.494   5.947   2.025
11157TIP3    H133348   5.420   5.992   2.067
11157TIP3    H233349   5.512   5.872   2.082
11158TIP3   OH233350   4.335   6.368   0.248
11158TIP3    H133351   4.421   6.357   0.208
11158TIP3    H233352   4.273   6.345   0.179
11159TIP3   OH233353   4.476   1.909   4.944
11159TIP3    H133354   4.521   1.925   5.027
11159TIP3    H233355   4.531   1.846   4.898
11160TIP3   OH233356   0.933   1.454   6.355
11160TIP3    H133357   0.928   1.442   6.450
11160TIP3    H233358   0.844   1.439   6.324
11161TIP3   OH233359   4.877   5.348   1.809
11161TIP3    H133360   4.919   5.417   1.757
11161TIP3    H233361   4.791   5.384   1.831
11162TIP3   OH233362   4.388   6.593   5.439
11162TIP3    H133363   4.363   6.564   5.352
11162TIP3    H233364   4.460   6.534   5.464
11163TIP3   OH233365   9.367   4.964   4.620
11163TIP3    H133366   9.394   4.873   4.610
11163TIP3    H233367   9.422   5.013   4.559
11164TIP3   OH233368   2.862   1.836   4.213
11164TIP3    H133369   2.944   1.885   4.224
11164TIP3    H233370   2.862   1.772   4.284
11165TIP3   OH233371   5.654   8.151   1.695
11165TIP3    H133372   5.608   8.069   1.676
11165TIP3    H233373   5.744   8.134   1.668
11166TIP3   OH233374   5.893   2.715   6.528
11166TIP3    H133375   5.940   2.632   6.513
11166TIP3    H233376   5.961   2.778   6.549
11167TIP3   OH233377   7.211   7.699   1.405
11167TIP3    H133378   7.253   7.784   1.417
11167TIP3    H233379   7.156   7.689   1.483
11168TIP3   OH233380   5.881   1.410   1.480
11168TIP3    H133381   5.823   1.429   1.553
11168TIP3    H233382   5.964   1.385   1.522
11169TIP3   OH233383   2.039   6.154   5.188
11169TIP3    H133384   1.981   6.169   5.262
11169TIP3    H233385   2.022   6.228   5.129
11170TIP3   OH233386   2.999   4.913   2.771
11170TIP3    H133387   3.036   5.000   2.763
11170TIP3    H233388   3.036   4.864   2.697
11171TIP3   OH233389   8.512   5.500   7.483
11171TIP3    H133390   8.436   5.534   7.436
11171TIP3    H233391   8.568   5.576   7.497
11172TIP3   OH233392   4.965   7.682   2.139
11172TIP3    H133393   4.932   7.600   2.103
11172TIP3    H233394   5.057   7.684   2.113
11173TIP3   OH233395   4.002   0.262   0.204
11173TIP3    H133396   4.096   0.256   0.219
11173TIP3    H233397   3.991   0.339   0.149
11174TIP3   OH233398   3.708   4.899   4.232
11174TIP3    H133399   3.645   4.862   4.171
11174TIP3    H233400   3.659   4.908   4.314
11175TIP3   OH233401   1.124   0.382   6.564
11175TIP3    H133402   1.215   0.390   6.593
11175TIP3    H233403   1.123   0.421   6.477
11176TIP3   OH233404   4.068   7.117   6.466
11176TIP3    H133405   4.008   7.133   6.393
11176TIP3    H233406   4.112   7.036   6.444
11177TIP3   OH233407   1.687   1.890   2.109
11177TIP3    H133408   1.782   1.898   2.102
11177TIP3    H233409   1.672   1.826   2.179
11178TIP3   OH233410   3.347   3.366   3.408
11178TIP3    H133411   3.398   3.447   3.418
11178TIP3    H233412   3.328   3.361   3.314
11179TIP3   OH233413   9.024   2.622   0.447
11179TIP3    H133414   8.974   2.701   0.467
11179TIP3    H233415   9.086   2.648   0.379
11180TIP3   OH233416   2.599   4.102   6.167
11180TIP3    H133417   2.583   4.178   6.111
11180TIP3    H233418   2.523   4.099   6.226
11181TIP3   OH233419   3.381   0.292   6.136
11181TIP3    H133420   3.362   0.235   6.062
11181TIP3    H233421   3.307   0.281   6.195
11182TIP3   OH233422   2.876   5.690   2.476
11182TIP3    H133423   2.889   5.723   2.387
11182TIP3    H233424   2.955   5.640   2.495
11183TIP3   OH233425   0.476   8.203   0.686
11183TIP3    H133426   0.537   8.135   0.658
11183TIP3    H233427   0.511   8.233   0.770
11184TIP3   OH233428   6.341   0.744   1.263
11184TIP3    H133429   6.394   0.682   1.213
11184TIP3    H233430   6.324   0.701   1.346
11185TIP3   OH233431   3.494   6.931   4.456
11185TIP3    H133432   3.544   7.010   4.476
11185TIP3    H233433   3.409   6.945   4.496
11186TIP3   OH233434   5.137   7.315   5.697
11186TIP3    H133435   5.074   7.335   5.765
11186TIP3    H233436   5.185   7.396   5.683
11187TIP3   OH233437   2.730   0.462   4.704
11187TIP3    H133438   2.779   0.407   4.765
11187TIP3    H233439   2.771   0.446   4.619
11188TIP3   OH233440   7.850   0.893   4.016
11188TIP3    H133441   7.938   0.892   3.978
11188TIP3    H233442   7.803   0.959   3.965
11189TIP3   OH233443   2.442   3.734   3.272
11189TIP3    H133444   2.514   3.678   3.244
11189TIP3    H233445   2.418   3.701   3.358
11190TIP3   OH233446   5.924   6.922   1.403
11190TIP3    H133447   5.840   6.955   1.371
11190TIP3    H233448   5.951   6.986   1.469
11191TIP3   OH233449   0.367   7.748   1.551
11191TIP3    H133450   0.339   7.663   1.518
11191TIP3    H233451   0.436   7.776   1.490
11192TIP3   OH233452   3.736   0.971   5.837
11192TIP3    H133453   3.791   1.047   5.859
11192TIP3    H233454   3.775   0.936   5.758
11193TIP3   OH233455   6.172   7.788   0.111
11193TIP3    H133456   6.197   7.784   0.204
11193TIP3    H233457   6.256   7.796   0.065
11194TIP3   OH233458   6.518   6.825   2.737
11194TIP3    H133459   6.535   6.916   2.713
11194TIP3    H233460   6.602   6.794   2.771
11195TIP3   OH233461   2.008   4.708   1.815
11195TIP3    H133462   2.094   4.748   1.797
11195TIP3    H233463   1.969   4.765   1.881
11196TIP3   OH233464   0.059   2.110   6.396
11196TIP3    H133465   0.001   2.056   6.448
11196TIP3    H233466   0.031   2.200   6.414
11197TIP3   OH233467   5.608   5.717   7.402
11197TIP3    H133468   5.662   5.718   7.323
11197TIP3    H233469   5.644   5.787   7.456
11198TIP3   OH233470   2.726   2.258   1.783
11198TIP3    H133471   2.817   2.264   1.754
11198TIP3    H233472   2.703   2.347   1.811
11199TIP3   OH233473   7.684   2.126   5.910
11199TIP3    H133474   7.688   2.218   5.935
11199TIP3    H233475   7.724   2.123   5.823
11200TIP3   OH233476   8.425   2.508   5.997
11200TIP3    H133477   8.361   2.437   6.002
11200TIP3    H233478   8.408   2.561   6.075
11201TIP3   OH233479   4.442   2.632   0.732
11201TIP3    H133480   4.468   2.547   0.768
11201TIP3    H233481   4.347   2.631   0.734
11202TIP3   OH233482   9.239   3.494   0.883
11202TIP3    H133483   9.231   3.402   0.909
11202TIP3    H233484   9.154   3.533   0.906
11203TIP3   OH233485   0.021   8.515   4.144
11203TIP3    H133486   0.060   8.450   4.086
11203TIP3    H233487   0.046   8.488   4.232
11204TIP3   OH233488   4.110   0.503   1.144
11204TIP3    H133489   4.090   0.590   1.178
11204TIP3    H233490   4.027   0.471   1.108
11205TIP3   OH233491   0.692   3.441   6.806
11205TIP3    H133492   0.689   3.537   6.802
11205TIP3    H233493   0.733   3.421   6.890
11206TIP3   OH233494   0.359   2.248   0.358
11206TIP3    H133495   0.345   2.193   0.281
11206TIP3    H233496   0.454   2.261   0.361
11207TIP3   OH233497   3.468   3.636   3.483
11207TIP3    H133498   3.503   3.644   3.571
11207TIP3    H233499   3.542   3.603   3.431
11208TIP3   OH233500   0.982   4.799   1.733
11208TIP3    H133501   1.014   4.881   1.695
11208TIP3    H233502   1.061   4.749   1.751
11209TIP3   OH233503   0.928   6.495   2.170
11209TIP3    H133504   0.880   6.552   2.109
11209TIP3    H233505   0.869   6.485   2.244
11210TIP3   OH233506   8.362   1.397   6.966
11210TIP3    H133507   8.313   1.359   7.039
11210TIP3    H233508   8.434   1.335   6.950
11211TIP3   OH233509   3.729   3.845   7.715
11211TIP3    H133510   3.671   3.919   7.697
11211TIP3    H233511   3.786   3.875   7.786
11212TIP3   OH233512   5.025   1.380   5.186
11212TIP3    H133513   5.078   1.428   5.123
11212TIP3    H233514   5.062   1.403   5.271
11213TIP3   OH233515   4.224   4.185   3.761
11213TIP3    H133516   4.150   4.157   3.815
11213TIP3    H233517   4.201   4.156   3.673
11214TIP3   OH233518   7.902   2.663   1.658
11214TIP3    H133519   7.875   2.588   1.606
11214TIP3    H233520   7.822   2.715   1.668
11215TIP3   OH233521   4.620   8.188   5.443
11215TIP3    H133522   4.671   8.242   5.503
11215TIP3    H233523   4.669   8.106   5.436
11216TIP3   OH233524   4.644   4.832   0.455
11216TIP3    H133525   4.572   4.809   0.514
11216TIP3    H233526   4.685   4.908   0.496
11217TIP3   OH233527   0.744   8.238   6.855
11217TIP3    H133528   0.692   8.290   6.794
11217TIP3    H233529   0.745   8.290   6.935
11218TIP3   OH233530   1.157   5.859   4.996
11218TIP3    H133531   1.160   5.797   5.069
11218TIP3    H233532   1.064   5.873   4.979
11219TIP3   OH233533   5.896   7.547   1.567
11219TIP3    H133534   5.817   7.568   1.616
11219TIP3    H233535   5.966   7.547   1.633
11220TIP3   OH233536   5.429   0.352   3.341
11220TIP3    H133537   5.417   0.262   3.309
11220TIP3    H233538   5.520   0.373   3.318
11221TIP3   OH233539   7.384   0.261   0.062
11221TIP3    H133540   7.456   0.198   0.056
11221TIP3    H233541   7.306   0.210   0.041
11222TIP3   OH233542   3.528   0.223   0.140
11222TIP3    H133543   3.543   0.129   0.153
11222TIP3    H233544   3.441   0.228   0.102
11223TIP3   OH233545   3.661   6.165   3.424
11223TIP3    H133546   3.573   6.146   3.456
11223TIP3    H233547   3.716   6.162   3.503
11224TIP3   OH233548   2.632   2.962   2.325
11224TIP3    H133549   2.696   2.984   2.393
11224TIP3    H233550   2.639   3.033   2.261
11225TIP3   OH233551   6.090   6.456   1.511
11225TIP3    H133552   6.151   6.383   1.520
11225TIP3    H233553   6.005   6.414   1.496
11226TIP3   OH233554   8.597   8.049   0.323
11226TIP3    H133555   8.549   7.997   0.258
11226TIP3    H233556   8.532   8.067   0.392
11227TIP3   OH233557   5.316   5.828   7.047
11227TIP3    H133558   5.342   5.779   6.969
11227TIP3    H233559   5.240   5.879   7.019
11228TIP3   OH233560   0.164   0.886   5.233
11228TIP3    H133561   0.094   0.834   5.193
11228TIP3    H233562   0.223   0.821   5.271
11229TIP3   OH233563   7.100   3.305   1.436
11229TIP3    H133564   7.052   3.386   1.422
11229TIP3    H233565   7.061   3.243   1.374
11230TIP3   OH233566   1.394   0.598   1.108
11230TIP3    H133567   1.302   0.595   1.084
11230TIP3    H233568   1.429   0.512   1.083
11231TIP3   OH233569   9.261   4.867   3.909
11231TIP3    H133570   9.282   4.829   3.824
11231TIP3    H233571   9.345   4.897   3.943
11232TIP3   OH233572   5.165   8.115   1.488
11232TIP3    H133573   5.208   8.101   1.573
11232TIP3    H233574   5.225   8.077   1.424
11233TIP3   OH233575   5.572   3.347   5.097
11233TIP3    H133576   5.485   3.347   5.137
11233TIP3    H233577   5.627   3.395   5.159
11234TIP3   OH233578   2.260   8.639   0.857
11234TIP3    H133579   2.164   8.640   0.850
11234TIP3    H233580   2.286   8.554   0.822
11235TIP3   OH233581   2.802   1.212   3.482
11235TIP3    H133582   2.876   1.192   3.539
11235TIP3    H233583   2.812   1.152   3.408
11236TIP3   OH233584   7.798   6.793   5.308
11236TIP3    H133585   7.762   6.882   5.305
11236TIP3    H233586   7.784   6.764   5.398
11237TIP3   OH233587   5.465   2.949   5.274
11237TIP3    H133588   5.380   2.937   5.230
11237TIP3    H233589   5.479   3.043   5.274
11238TIP3   OH233590   4.773   3.223   1.643
11238TIP3    H133591   4.787   3.131   1.667
11238TIP3    H233592   4.678   3.234   1.648
11239TIP3   OH233593   1.389   4.394   0.787
11239TIP3    H133594   1.403   4.485   0.761
11239TIP3    H233595   1.406   4.393   0.881
11240TIP3   OH233596   0.821   0.035   7.512
11240TIP3    H133597   0.728   0.025   7.531
11240TIP3    H233598   0.861   0.057   7.596
11241TIP3   OH233599   3.264   8.439   0.508
11241TIP3    H133600   3.300   8.401   0.427
11241TIP3    H233601   3.328   8.505   0.534
11242TIP3   OH233602   3.706   1.617   4.516
11242TIP3    H133603   3.736   1.624   4.425
11242TIP3    H233604   3.775   1.658   4.568
11243TIP3   OH233605   0.118   0.418   1.436
11243TIP3    H133606   0.135   0.324   1.426
11243TIP3    H233607   0.141   0.456   1.352
11244TIP3   OH233608   9.240   1.626   5.641
11244TIP3    H133609   9.232   1.722   5.644
11244TIP3    H233610   9.310   1.610   5.577
11245TIP3   OH233611   0.335   7.636   4.493
11245TIP3    H133612   0.332   7.585   4.412
11245TIP3    H233613   0.401   7.592   4.547
11246TIP3   OH233614   0.663   7.252   2.021
11246TIP3    H133615   0.715   7.215   2.092
11246TIP3    H233616   0.582   7.201   2.021
11247TIP3   OH233617   4.813   4.361   0.761
11247TIP3    H133618   4.884   4.335   0.703
11247TIP3    H233619   4.846   4.344   0.849
11248TIP3   OH233620   6.367   1.060   6.470
11248TIP3    H133621   6.405   1.121   6.533
11248TIP3    H233622   6.345   1.115   6.395
11249TIP3   OH233623   4.504   0.890   2.615
11249TIP3    H133624   4.559   0.862   2.688
11249TIP3    H233625   4.419   0.847   2.631
11250TIP3   OH233626   5.255   0.021   4.864
11250TIP3    H133627   5.339   0.019   4.817
11250TIP3    H233628   5.276   0.059   4.949
11251TIP3   OH233629   6.304   2.099   2.472
11251TIP3    H133630   6.268   2.124   2.387
11251TIP3    H233631   6.387   2.056   2.450
11252TIP3   OH233632   2.501   7.439   0.985
11252TIP3    H133633   2.498   7.493   0.906
11252TIP3    H233634   2.517   7.350   0.953
11253TIP3   OH233635   2.755   1.587   0.271
11253TIP3    H133636   2.785   1.636   0.195
11253TIP3    H233637   2.666   1.560   0.250
11254TIP3   OH233638   4.310   4.055   5.141
11254TIP3    H133639   4.278   4.115   5.209
11254TIP3    H233640   4.405   4.067   5.142
11255TIP3   OH233641   7.604   8.131   3.062
11255TIP3    H133642   7.666   8.110   3.132
11255TIP3    H233643   7.600   8.051   3.009
11256TIP3   OH233644   0.783   6.913   6.930
11256TIP3    H133645   0.805   7.005   6.949
11256TIP3    H233646   0.725   6.918   6.854
11257TIP3   OH233647   6.987   5.815   1.977
11257TIP3    H133648   7.010   5.766   1.898
11257TIP3    H233649   7.032   5.768   2.048
11258TIP3   OH233650   2.646   2.432   4.823
11258TIP3    H133651   2.703   2.357   4.804
11258TIP3    H233652   2.580   2.431   4.753
11259TIP3   OH233653   4.925   6.176   3.594
11259TIP3    H133654   4.887   6.091   3.617
11259TIP3    H233655   5.018   6.157   3.581
11260TIP3   OH233656   0.821   2.439   6.350
11260TIP3    H133657   0.853   2.425   6.439
11260TIP3    H233658   0.766   2.363   6.331
11261TIP3   OH233659   2.286   8.729   5.105
11261TIP3    H133660   2.194   8.752   5.095
11261TIP3    H233661   2.332   8.812   5.096
11262TIP3   OH233662   3.349   6.630   2.603
11262TIP3    H133663   3.362   6.724   2.609
11262TIP3    H233664   3.318   6.615   2.513
11263TIP3   OH233665   8.184   1.140   2.744
11263TIP3    H133666   8.188   1.045   2.729
11263TIP3    H233667   8.234   1.178   2.672
11264TIP3   OH233668   1.478   0.675   1.924
11264TIP3    H133669   1.394   0.719   1.916
11264TIP3    H233670   1.527   0.701   1.846
11265TIP3   OH233671   7.066   2.168   4.994
11265TIP3    H133672   7.069   2.162   5.090
11265TIP3    H233673   7.125   2.100   4.963
11266TIP3   OH233674   1.395   8.744   6.404
11266TIP3    H133675   1.411   8.737   6.498
11266TIP3    H233676   1.331   8.675   6.385
11267TIP3   OH233677   4.552   4.965   1.380
11267TIP3    H133678   4.490   5.016   1.432
11267TIP3    H233679   4.589   4.903   1.443
11268TIP3   OH233680   5.667   4.763   1.400
11268TIP3    H133681   5.745   4.738   1.450
11268TIP3    H233682   5.692   4.843   1.354
11269TIP3   OH233683   5.820   3.204   2.583
11269TIP3    H133684   5.756   3.175   2.648
11269TIP3    H233685   5.878   3.263   2.631
11270TIP3   OH233686   8.977   4.820   3.308
11270TIP3    H133687   8.987   4.768   3.388
11270TIP3    H233688   9.053   4.795   3.255
11271TIP3   OH233689   0.309   0.734   4.939
11271TIP3    H133690   0.224   0.763   4.971
11271TIP3    H233691   0.298   0.640   4.923
11272TIP3   OH233692   3.020   7.490   5.556
11272TIP3    H133693   2.986   7.401   5.544
11272TIP3    H233694   3.095   7.495   5.497
11273TIP3   OH233695   3.874   3.481   5.638
11273TIP3    H133696   3.824   3.435   5.705
11273TIP3    H233697   3.812   3.494   5.566
11274TIP3   OH233698   6.499   2.803   0.039
11274TIP3    H133699   6.421   2.858   0.055
11274TIP3    H233700   6.490   2.775  -0.052
11275TIP3   OH233701   0.281   6.745   2.070
11275TIP3    H133702   0.197   6.760   2.028
11275TIP3    H233703   0.260   6.702   2.153
11276TIP3   OH233704   1.654   7.301   3.452
11276TIP3    H133705   1.701   7.382   3.433
11276TIP3    H233706   1.698   7.235   3.400
11277TIP3   OH233707  -0.005   5.031   3.744
11277TIP3    H133708   0.073   5.014   3.691
11277TIP3    H233709   0.016   5.111   3.793
11278TIP3   OH233710   6.838   1.253   0.858
11278TIP3    H133711   6.869   1.197   0.787
11278TIP3    H233712   6.760   1.208   0.892
11279TIP3   OH233713   6.215   5.953   4.317
11279TIP3    H133714   6.178   5.892   4.254
11279TIP3    H233715   6.164   5.938   4.397
11280TIP3   OH233716   7.901   3.754   4.481
11280TIP3    H133717   7.829   3.735   4.542
11280TIP3    H233718   7.979   3.745   4.535
11281TIP3   OH233719   6.319   2.868   0.375
11281TIP3    H133720   6.262   2.920   0.431
11281TIP3    H233721   6.318   2.914   0.291
11282TIP3   OH233722   4.596   1.813   2.542
11282TIP3    H133723   4.627   1.755   2.612
11282TIP3    H233724   4.658   1.799   2.471
11283TIP3   OH233725   0.193   8.865   2.750
11283TIP3    H133726   0.146   8.928   2.806
11283TIP3    H233727   0.211   8.914   2.670
11284TIP3   OH233728   1.245   5.056   0.711
11284TIP3    H133729   1.197   5.038   0.630
11284TIP3    H233730   1.337   5.048   0.687
11285TIP3   OH233731   8.782   6.627   3.246
11285TIP3    H133732   8.700   6.583   3.269
11285TIP3    H233733   8.850   6.566   3.275
11286TIP3   OH233734   5.684   3.983   6.695
11286TIP3    H133735   5.711   4.053   6.635
11286TIP3    H233736   5.684   3.904   6.642
11287TIP3   OH233737   8.984   4.462   1.670
11287TIP3    H133738   9.056   4.450   1.608
11287TIP3    H233739   8.941   4.377   1.675
11288TIP3   OH233740   9.508   8.118   2.883
11288TIP3    H133741   9.553   8.105   2.800
11288TIP3    H233742   9.416   8.132   2.859
11289TIP3   OH233743   9.398   3.340   5.417
11289TIP3    H133744   9.391   3.347   5.322
11289TIP3    H233745   9.406   3.247   5.434
11290TIP3   OH233746   8.320   7.681   1.753
11290TIP3    H133747   8.370   7.643   1.680
11290TIP3    H233748   8.385   7.730   1.803
11291TIP3   OH233749   6.776   7.865   7.208
11291TIP3    H133750   6.710   7.845   7.275
11291TIP3    H233751   6.761   7.957   7.186
11292TIP3   OH233752   7.026   7.302   2.622
11292TIP3    H133753   6.951   7.330   2.675
11292TIP3    H233754   7.000   7.321   2.532
11293TIP3   OH233755   8.663   2.298   0.831
11293TIP3    H133756   8.741   2.334   0.790
11293TIP3    H233757   8.685   2.291   0.924
11294TIP3   OH233758   6.180   6.303   2.896
11294TIP3    H133759   6.129   6.282   2.818
11294TIP3    H233760   6.180   6.223   2.948
11295TIP3   OH233761   6.183   1.194   2.198
11295TIP3    H133762   6.146   1.145   2.125
11295TIP3    H233763   6.248   1.135   2.237
11296TIP3   OH233764   6.582   6.854   1.458
11296TIP3    H133765   6.488   6.867   1.463
11296TIP3    H233766   6.617   6.939   1.429
11297TIP3   OH233767   8.059   5.271   7.025
11297TIP3    H133768   8.042   5.178   7.040
11297TIP3    H233769   8.065   5.308   7.113
11298TIP3   OH233770   2.006   2.431   2.555
11298TIP3    H133771   2.018   2.523   2.578
11298TIP3    H233772   1.930   2.430   2.498
11299TIP3   OH233773   3.186   2.295   4.541
11299TIP3    H133774   3.144   2.239   4.607
11299TIP3    H233775   3.121   2.361   4.521
11300TIP3   OH233776   2.850   0.927   6.081
11300TIP3    H133777   2.770   0.950   6.129
11300TIP3    H233778   2.897   0.868   6.140
11301TIP3   OH233779   0.493   7.275   4.153
11301TIP3    H133780   0.421   7.232   4.107
11301TIP3    H233781   0.498   7.231   4.237
11302TIP3   OH233782   1.037   7.905   0.829
11302TIP3    H133783   1.067   7.915   0.919
11302TIP3    H233784   1.073   7.980   0.783
11303TIP3   OH233785   5.309   3.320   0.669
11303TIP3    H133786   5.241   3.384   0.692
11303TIP3    H233787   5.329   3.339   0.577
11304TIP3   OH233788   7.496   6.817   6.226
11304TIP3    H133789   7.406   6.851   6.230
11304TIP3    H233790   7.485   6.722   6.219
11305TIP3   OH233791   4.083   1.208   3.578
11305TIP3    H133792   4.076   1.136   3.515
11305TIP3    H233793   4.091   1.165   3.663
11306TIP3   OH233794   5.203   3.965   3.753
11306TIP3    H133795   5.153   4.044   3.732
11306TIP3    H233796   5.291   3.984   3.720
11307TIP3   OH233797   1.143   3.535   1.007
11307TIP3    H133798   1.080   3.550   0.936
11307TIP3    H233799   1.229   3.542   0.965
11308TIP3   OH233800   4.073   3.761   2.583
11308TIP3    H133801   4.138   3.733   2.519
11308TIP3    H233802   3.996   3.786   2.532
11309TIP3   OH233803   0.503   5.484   4.687
11309TIP3    H133804   0.475   5.479   4.779
11309TIP3    H233805   0.425   5.461   4.637
11310TIP3   OH233806   4.932   4.313   4.606
11310TIP3    H133807   4.911   4.293   4.515
11310TIP3    H233808   4.973   4.232   4.639
11311TIP3   OH233809   9.067   2.887   3.943
11311TIP3    H133810   9.063   2.904   4.037
11311TIP3    H233811   9.070   2.974   3.903
11312TIP3   OH233812   1.607   3.611   5.980
11312TIP3    H133813   1.591   3.659   6.061
11312TIP3    H233814   1.546   3.537   5.983
11313TIP3   OH233815   1.030   5.326   6.160
11313TIP3    H133816   1.039   5.277   6.078
11313TIP3    H233817   1.023   5.258   6.228
11314TIP3   OH233818   7.324   7.583   5.388
11314TIP3    H133819   7.271   7.526   5.444
11314TIP3    H233820   7.260   7.625   5.329
11315TIP3   OH233821   0.997   1.233   5.572
11315TIP3    H133822   1.060   1.161   5.583
11315TIP3    H233823   0.970   1.226   5.480
11316TIP3   OH233824   2.272   7.497   4.037
11316TIP3    H133825   2.279   7.421   4.095
11316TIP3    H233826   2.362   7.511   4.005
11317TIP3   OH233827   5.806   2.554   0.412
11317TIP3    H133828   5.741   2.498   0.455
11317TIP3    H233829   5.793   2.641   0.450
11318TIP3   OH233830   6.348   1.158   6.194
11318TIP3    H133831   6.406   1.090   6.162
11318TIP3    H233832   6.263   1.137   6.155
11319TIP3   OH233833   8.237   7.605   4.241
11319TIP3    H133834   8.145   7.586   4.222
11319TIP3    H233835   8.286   7.554   4.177
11320TIP3   OH233836   0.576   4.011   5.808
11320TIP3    H133837   0.501   4.055   5.771
11320TIP3    H233838   0.560   4.010   5.903
11321TIP3   OH233839   6.221   2.469   7.221
11321TIP3    H133840   6.237   2.378   7.194
11321TIP3    H233841   6.288   2.519   7.174
11322TIP3   OH233842   6.483   8.328   0.334
11322TIP3    H133843   6.521   8.378   0.407
11322TIP3    H233844   6.510   8.238   0.350
11323TIP3   OH233845   2.048   6.302   7.345
11323TIP3    H133846   1.979   6.273   7.286
11323TIP3    H233847   2.007   6.298   7.432
11324TIP3   OH233848   8.582   4.845   7.655
11324TIP3    H133849   8.655   4.848   7.717
11324TIP3    H233850   8.557   4.753   7.651
11325TIP3   OH233851   2.489   5.484   0.798
11325TIP3    H133852   2.547   5.447   0.864
11325TIP3    H233853   2.500   5.579   0.807
11326TIP3   OH233854   7.399   7.070   3.072
11326TIP3    H133855   7.471   7.121   3.034
11326TIP3    H233856   7.442   6.998   3.118
11327TIP3   OH233857   8.679   5.009   1.867
11327TIP3    H133858   8.744   5.079   1.865
11327TIP3    H233859   8.611   5.041   1.927
11328TIP3   OH233860   4.418   4.612   5.437
11328TIP3    H133861   4.397   4.549   5.507
11328TIP3    H233862   4.333   4.641   5.405
11329TIP3   OH233863   2.620   4.497   1.313
11329TIP3    H133864   2.660   4.581   1.290
11329TIP3    H233865   2.685   4.431   1.287
11330TIP3   OH233866   5.619   8.835   7.643
11330TIP3    H133867   5.571   8.918   7.642
11330TIP3    H233868   5.552   8.768   7.634
11331TIP3   OH233869   4.349   5.136   5.530
11331TIP3    H133870   4.324   5.197   5.600
11331TIP3    H233871   4.268   5.089   5.510
11332TIP3   OH233872   7.144   7.781   0.493
11332TIP3    H133873   7.108   7.837   0.424
11332TIP3    H233874   7.203   7.839   0.541
11333TIP3   OH233875   2.515   2.720   1.438
11333TIP3    H133876   2.504   2.732   1.533
11333TIP3    H233877   2.516   2.625   1.425
11334TIP3   OH233878   1.723   8.037   2.104
11334TIP3    H133879   1.688   8.123   2.078
11334TIP3    H233880   1.788   8.016   2.038
11335TIP3   OH233881   7.503   0.319   4.927
11335TIP3    H133882   7.517   0.409   4.899
11335TIP3    H233883   7.570   0.305   4.995
11336TIP3   OH233884   1.513   0.354   4.742
11336TIP3    H133885   1.609   0.358   4.740
11336TIP3    H233886   1.492   0.262   4.724
11337TIP3   OH233887   6.805   8.689   6.380
11337TIP3    H133888   6.848   8.772   6.399
11337TIP3    H233889   6.864   8.645   6.318
11338TIP3   OH233890   8.379   6.649   2.882
11338TIP3    H133891   8.406   6.741   2.879
11338TIP3    H233892   8.415   6.616   2.965
11339TIP3   OH233893   8.451   4.723   1.273
11339TIP3    H133894   8.536   4.739   1.231
11339TIP3    H233895   8.390   4.716   1.200
11340TIP3   OH233896   1.630   4.410   1.360
11340TIP3    H133897   1.711   4.446   1.395
11340TIP3    H233898   1.624   4.323   1.399
11341TIP3   OH233899   9.447   8.769   2.548
11341TIP3    H133900   9.370   8.732   2.592
11341TIP3    H233901   9.501   8.693   2.527
11342TIP3   OH233902   5.729   3.209   4.879
11342TIP3    H133903   5.696   3.278   4.938
11342TIP3    H233904   5.823   3.206   4.896
11343TIP3   OH233905   7.141   1.836   7.419
11343TIP3    H133906   7.222   1.787   7.409
11343TIP3    H233907   7.093   1.788   7.487
11344TIP3   OH233908   3.646   4.913   6.901
11344TIP3    H133909   3.624   4.980   6.965
11344TIP3    H233910   3.675   4.962   6.824
11345TIP3   OH233911   6.469   8.063   0.469
11345TIP3    H133912   6.453   7.971   0.449
11345TIP3    H233913   6.382   8.099   0.487
11346TIP3   OH233914   7.442   8.549   2.630
11346TIP3    H133915   7.430   8.514   2.542
11346TIP3    H233916   7.534   8.533   2.651
11347TIP3   OH233917   8.346   4.290   1.680
11347TIP3    H133918   8.314   4.201   1.694
11347TIP3    H233919   8.318   4.338   1.758
11348TIP3   OH233920   3.762   3.255   0.358
11348TIP3    H133921   3.792   3.200   0.430
11348TIP3    H233922   3.791   3.343   0.382
11349TIP3   OH233923   5.527   2.693   5.649
11349TIP3    H133924   5.573   2.777   5.650
11349TIP3    H233925   5.570   2.642   5.580
11350TIP3   OH233926   7.898   8.329   3.256
11350TIP3    H133927   7.978   8.277   3.250
11350TIP3    H233928   7.828   8.269   3.231
11351TIP3   OH233929   2.781   5.240   1.965
11351TIP3    H133930   2.747   5.307   2.024
11351TIP3    H233931   2.779   5.160   2.017
11352TIP3   OH233932   0.635   5.032   3.495
11352TIP3    H133933   0.692   4.986   3.433
11352TIP3    H233934   0.608   4.965   3.557
11353TIP3   OH233935   6.172   1.696   0.337
11353TIP3    H133936   6.249   1.737   0.376
11353TIP3    H233937   6.129   1.651   0.410
11354TIP3   OH233938   7.685   8.838   5.722
11354TIP3    H133939   7.667   8.927   5.693
11354TIP3    H233940   7.604   8.810   5.765
11355TIP3   OH233941   3.586   6.455   5.737
11355TIP3    H133942   3.650   6.393   5.772
11355TIP3    H233943   3.617   6.541   5.767
11356TIP3   OH233944   1.855   6.045   4.899
11356TIP3    H133945   1.937   6.001   4.921
11356TIP3    H233946   1.843   6.110   4.968
11357TIP3   OH233947   1.918   0.371   3.921
11357TIP3    H133948   2.006   0.409   3.919
11357TIP3    H233949   1.896   0.357   3.828
11358TIP3   OH233950   7.479   7.324   3.735
11358TIP3    H133951   7.391   7.356   3.757
11358TIP3    H233952   7.463   7.241   3.691
11359TIP3   OH233953   7.110   8.414   1.514
11359TIP3    H133954   7.123   8.412   1.419
11359TIP3    H233955   7.046   8.345   1.530
11360TIP3   OH233956   1.337   6.135   7.199
11360TIP3    H133957   1.413   6.120   7.142
11360TIP3    H233958   1.375   6.154   7.285
11361TIP3   OH233959   8.646   1.420   5.543
11361TIP3    H133960   8.637   1.476   5.466
11361TIP3    H233961   8.685   1.477   5.609
11362TIP3   OH233962   7.509   2.367   2.045
11362TIP3    H133963   7.561   2.438   2.005
11362TIP3    H233964   7.575   2.303   2.073
11363TIP3   OH233965   6.702   6.214   7.235
11363TIP3    H133966   6.735   6.300   7.208
11363TIP3    H233967   6.766   6.183   7.298
11364TIP3   OH233968   5.131   4.588   0.744
11364TIP3    H133969   5.072   4.625   0.679
11364TIP3    H233970   5.074   4.544   0.807
11365TIP3   OH233971   0.563   8.435   4.255
11365TIP3    H133972   0.499   8.505   4.267
11365TIP3    H233973   0.514   8.366   4.211
11366TIP3   OH233974   2.550   0.615   0.701
11366TIP3    H133975   2.468   0.598   0.747
11366TIP3    H233976   2.618   0.602   0.766
11367TIP3   OH233977   9.559   8.666   2.050
11367TIP3    H133978   9.600   8.742   2.091
11367TIP3    H233979   9.519   8.700   1.970
11368TIP3   OH233980   0.199   6.716   4.492
11368TIP3    H133981   0.121   6.713   4.549
11368TIP3    H233982   0.166   6.698   4.405
11369TIP3   OH233983   8.428   0.865   4.456
11369TIP3    H133984   8.458   0.815   4.531
11369TIP3    H233985   8.363   0.808   4.414
11370TIP3   OH233986   5.578   6.284   0.016
11370TIP3    H133987   5.626   6.285  -0.067
11370TIP3    H233988   5.574   6.376   0.042
11371TIP3   OH233989   0.757   2.920   4.006
11371TIP3    H133990   0.683   2.868   4.036
11371TIP3    H233991   0.720   2.981   3.942
11372TIP3   OH233992   6.769   1.947   6.775
11372TIP3    H133993   6.700   2.012   6.788
11372TIP3    H233994   6.818   1.947   6.858
11373TIP3   OH233995   2.306   4.961   0.934
11373TIP3    H133996   2.369   4.894   0.957
11373TIP3    H233997   2.271   4.933   0.849
11374TIP3   OH233998   8.191   6.293   2.492
11374TIP3    H133999   8.164   6.268   2.580
11374TIP3    H234000   8.284   6.315   2.500
11375TIP3   OH234001   4.387   7.338   2.459
11375TIP3    H134002   4.429   7.254   2.440
11375TIP3    H234003   4.454   7.404   2.440
11376TIP3   OH234004   2.960   8.859   4.674
11376TIP3    H134005   2.890   8.864   4.609
11376TIP3    H234006   3.041   8.862   4.623
11377TIP3   OH234007   1.772   1.504   5.754
11377TIP3    H134008   1.773   1.578   5.694
11377TIP3    H234009   1.820   1.435   5.708
11378TIP3   OH234010   5.430   3.157   7.142
11378TIP3    H134011   5.408   3.167   7.050
11378TIP3    H234012   5.393   3.235   7.184
11379TIP3   OH234013   7.742   5.576   4.867
11379TIP3    H134014   7.730   5.596   4.959
11379TIP3    H234015   7.662   5.529   4.842
11380TIP3   OH234016   7.035   1.599   4.769
11380TIP3    H134017   7.101   1.532   4.750
11380TIP3    H234018   7.046   1.618   4.862
11381TIP3   OH234019   0.553   0.455   0.075
11381TIP3    H134020   0.591   0.368   0.088
11381TIP3    H234021   0.622   0.504   0.030
11382TIP3   OH234022   3.758   0.978   5.115
11382TIP3    H134023   3.848   1.006   5.098
11382TIP3    H234024   3.725   0.950   5.030
11383TIP3   OH234025   6.910   0.782   0.914
11383TIP3    H134026   6.997   0.781   0.875
11383TIP3    H234027   6.910   0.859   0.971
11384TIP3   OH234028   7.202   2.543   3.362
11384TIP3    H134029   7.163   2.562   3.448
11384TIP3    H234030   7.289   2.581   3.366
11385TIP3   OH234031   8.667   7.645   1.605
11385TIP3    H134032   8.674   7.580   1.535
11385TIP3    H234033   8.673   7.730   1.561
11386TIP3   OH234034   3.222   0.695   3.835
11386TIP3    H134035   3.147   0.637   3.853
11386TIP3    H234036   3.229   0.749   3.913
11387TIP3   OH234037   5.593   1.893   2.951
11387TIP3    H134038   5.679   1.929   2.972
11387TIP3    H234039   5.609   1.831   2.881
11388TIP3   OH234040   7.746   2.812   3.874
11388TIP3    H134041   7.728   2.816   3.781
11388TIP3    H234042   7.785   2.897   3.895
11389TIP3   OH234043   8.160   0.340   2.838
11389TIP3    H134044   8.107   0.404   2.790
11389TIP3    H234045   8.131   0.348   2.929
11390TIP3   OH234046   0.934   3.617   5.225
11390TIP3    H134047   0.988   3.552   5.270
11390TIP3    H234048   0.994   3.661   5.164
11391TIP3   OH234049   8.955   0.825   5.254
11391TIP3    H134050   8.975   0.797   5.343
11391TIP3    H234051   9.021   0.784   5.199
11392TIP3   OH234052   2.731   4.759   2.667
11392TIP3    H134053   2.757   4.708   2.744
11392TIP3    H234054   2.794   4.735   2.599
11393TIP3   OH234055   4.153   3.503   7.247
11393TIP3    H134056   4.210   3.543   7.181
11393TIP3    H234057   4.111   3.576   7.291
11394TIP3   OH234058   7.672   7.063   3.448
11394TIP3    H134059   7.706   7.007   3.518
11394TIP3    H234060   7.599   7.111   3.489
11395TIP3   OH234061   6.614   7.131   5.987
11395TIP3    H134062   6.689   7.176   6.027
11395TIP3    H234063   6.619   7.042   6.020
11396TIP3   OH234064   1.576   1.429   3.827
11396TIP3    H134065   1.521   1.355   3.802
11396TIP3    H234066   1.641   1.392   3.887
11397TIP3   OH234067   6.751   4.654   1.912
11397TIP3    H134068   6.671   4.641   1.963
11397TIP3    H234069   6.756   4.575   1.857
11398TIP3   OH234070   1.392   5.607   1.425
11398TIP3    H134071   1.341   5.531   1.396
11398TIP3    H234072   1.383   5.606   1.520
11399TIP3   OH234073   3.027   1.991   1.757
11399TIP3    H134074   2.966   2.040   1.812
11399TIP3    H234075   2.971   1.937   1.701
11400TIP3   OH234076   7.350   6.275   2.761
11400TIP3    H134077   7.389   6.350   2.717
11400TIP3    H234078   7.324   6.216   2.689
11401TIP3   OH234079   7.869   5.434   0.816
11401TIP3    H134080   7.796   5.396   0.865
11401TIP3    H234081   7.846   5.419   0.724
11402TIP3   OH234082   7.787   8.978   6.878
11402TIP3    H134083   7.701   9.018   6.865
11402TIP3    H234084   7.771   8.907   6.940
11403TIP3   OH234085   5.877   4.690   3.024
11403TIP3    H134086   5.798   4.708   2.972
11403TIP3    H234087   5.881   4.760   3.088
11404TIP3   OH234088   4.638   8.868   4.244
11404TIP3    H134089   4.672   8.944   4.196
11404TIP3    H234090   4.543   8.873   4.233
11405TIP3   OH234091   7.877   7.817   5.953
11405TIP3    H134092   7.816   7.780   6.016
11405TIP3    H234093   7.964   7.801   5.990
11406TIP3   OH234094   7.518   4.248   4.970
11406TIP3    H134095   7.584   4.272   5.035
11406TIP3    H234096   7.567   4.233   4.890
11407TIP3   OH234097   1.501   5.844   4.762
11407TIP3    H134098   1.493   5.888   4.847
11407TIP3    H234099   1.455   5.761   4.773
11408TIP3   OH234100   4.211   2.448   3.908
11408TIP3    H134101   4.183   2.410   3.824
11408TIP3    H234102   4.259   2.526   3.883
11409TIP3   OH234103   0.245   0.151   4.800
11409TIP3    H134104   0.313   0.088   4.776
11409TIP3    H234105   0.164   0.114   4.765
11410TIP3   OH234106   7.490   2.215   4.046
11410TIP3    H134107   7.423   2.148   4.061
11410TIP3    H234108   7.453   2.271   3.978
11411TIP3   OH234109   4.471   1.214   1.717
11411TIP3    H134110   4.521   1.157   1.660
11411TIP3    H234111   4.520   1.296   1.718
11412TIP3   OH234112   6.814   2.403   7.795
11412TIP3    H134113   6.793   2.396   7.702
11412TIP3    H234114   6.910   2.407   7.798
11413TIP3   OH234115   4.751   2.468   2.663
11413TIP3    H134116   4.823   2.528   2.681
11413TIP3    H234117   4.770   2.390   2.717
11414TIP3   OH234118   4.294   7.925   5.320
11414TIP3    H134119   4.266   8.017   5.316
11414TIP3    H234120   4.240   7.881   5.254
11415TIP3   OH234121   5.913   0.275   0.242
11415TIP3    H134122   5.944   0.202   0.297
11415TIP3    H234123   5.992   0.308   0.199
11416TIP3   OH234124   3.234   3.836   4.814
11416TIP3    H134125   3.306   3.817   4.755
11416TIP3    H234126   3.168   3.770   4.794
11417TIP3   OH234127   7.487   6.186   1.284
11417TIP3    H134128   7.396   6.194   1.253
11417TIP3    H234129   7.510   6.273   1.316
11418TIP3   OH234130   6.818   1.445   7.307
11418TIP3    H134131   6.862   1.384   7.367
11418TIP3    H234132   6.732   1.458   7.346
11419TIP3   OH234133   1.580   7.952   7.267
11419TIP3    H134134   1.631   7.990   7.196
11419TIP3    H234135   1.494   7.934   7.228
11420TIP3   OH234136   3.884   2.484   7.041
11420TIP3    H134137   3.858   2.576   7.047
11420TIP3    H234138   3.802   2.438   7.022
11421TIP3   OH234139   0.270   8.416   0.935
11421TIP3    H134140   0.214   8.477   0.888
11421TIP3    H234141   0.221   8.395   1.015
11422TIP3   OH234142   9.071   8.498   6.706
11422TIP3    H134143   9.071   8.416   6.755
11422TIP3    H234144   8.998   8.548   6.742
11423TIP3   OH234145   8.586   5.833   5.783
11423TIP3    H134146   8.547   5.818   5.697
11423TIP3    H234147   8.597   5.746   5.820
11424TIP3   OH234148   3.450   5.957   5.941
11424TIP3    H134149   3.488   6.042   5.961
11424TIP3    H234150   3.458   5.907   6.023
11425TIP3   OH234151   3.547   0.491   4.080
11425TIP3    H134152   3.506   0.503   4.165
11425TIP3    H234153   3.621   0.551   4.080
11426TIP3   OH234154   8.218   8.792   5.703
11426TIP3    H134155   8.256   8.814   5.618
11426TIP3    H234156   8.125   8.779   5.686
11427TIP3   OH234157   3.591   2.613   7.162
11427TIP3    H134158   3.557   2.531   7.198
11427TIP3    H234159   3.684   2.611   7.182
11428TIP3   OH234160   0.869   0.474   1.326
11428TIP3    H134161   0.942   0.520   1.367
11428TIP3    H234162   0.801   0.540   1.317
11429TIP3   OH234163   5.349   1.926   0.984
11429TIP3    H134164   5.317   1.951   1.071
11429TIP3    H234165   5.384   1.838   0.996
11430TIP3   OH234166   3.548   7.131   1.879
11430TIP3    H134167   3.634   7.112   1.918
11430TIP3    H234168   3.543   7.227   1.879
11431TIP3   OH234169   9.365   8.676   2.963
11431TIP3    H134170   9.358   8.681   3.058
11431TIP3    H234171   9.367   8.767   2.934
11432TIP3   OH234172   3.156   1.815   7.473
11432TIP3    H134173   3.116   1.785   7.555
11432TIP3    H234174   3.224   1.750   7.455
11433TIP3   OH234175   5.937   3.700   2.549
11433TIP3    H134176   6.011   3.704   2.609
11433TIP3    H234177   5.975   3.718   2.463
11434TIP3   OH234178   3.673   7.279   3.678
11434TIP3    H134179   3.697   7.371   3.669
11434TIP3    H234180   3.702   7.255   3.766
11435TIP3   OH234181   9.501   3.195   5.793
11435TIP3    H134182   9.457   3.162   5.714
11435TIP3    H234183   9.431   3.200   5.858
11436TIP3   OH234184   2.475   3.402   2.749
11436TIP3    H134185   2.533   3.400   2.673
11436TIP3    H234186   2.388   3.419   2.712
11437TIP3   OH234187   4.859   0.514   1.894
11437TIP3    H134188   4.869   0.495   1.987
11437TIP3    H234189   4.801   0.445   1.861
11438TIP3   OH234190   1.025   7.401   3.622
11438TIP3    H134191   1.099   7.363   3.574
11438TIP3    H234192   1.062   7.431   3.704
11439TIP3   OH234193   8.553   6.838   0.641
11439TIP3    H134194   8.592   6.786   0.711
11439TIP3    H234195   8.618   6.905   0.621
11440TIP3   OH234196   7.489   4.330   2.358
11440TIP3    H134197   7.400   4.333   2.322
11440TIP3    H234198   7.482   4.376   2.442
11441TIP3   OH234199   7.903   3.892   4.035
11441TIP3    H134200   7.922   3.822   4.097
11441TIP3    H234201   7.843   3.852   3.972
11442TIP3   OH234202   7.432   4.330   0.435
11442TIP3    H134203   7.411   4.258   0.494
11442TIP3    H234204   7.505   4.297   0.382
11443TIP3   OH234205   3.325   6.430   2.802
11443TIP3    H134206   3.332   6.492   2.729
11443TIP3    H234207   3.270   6.475   2.866
11444TIP3   OH234208   2.326   0.706   4.539
11444TIP3    H134209   2.352   0.620   4.570
11444TIP3    H234210   2.311   0.757   4.619
11445TIP3   OH234211   4.192   7.095   6.751
11445TIP3    H134212   4.127   7.042   6.706
11445TIP3    H234213   4.221   7.042   6.825
11446TIP3   OH234214   7.652   6.941   4.169
11446TIP3    H134215   7.741   6.906   4.169
11446TIP3    H234216   7.596   6.863   4.168
11447TIP3   OH234217   4.833   6.841   4.319
11447TIP3    H134218   4.738   6.855   4.313
11447TIP3    H234219   4.847   6.757   4.274
11448TIP3   OH234220   8.096   3.728   0.090
11448TIP3    H134221   8.040   3.711   0.166
11448TIP3    H234222   8.058   3.805   0.049
11449TIP3   OH234223   6.824   5.789   3.543
11449TIP3    H134224   6.846   5.835   3.624
11449TIP3    H234225   6.873   5.836   3.475
11450TIP3   OH234226   0.224   6.786   0.093
11450TIP3    H134227   0.158   6.855   0.092
11450TIP3    H234228   0.307   6.832   0.080
11451TIP3   OH234229   8.379   8.689   2.807
11451TIP3    H134230   8.369   8.718   2.898
11451TIP3    H234231   8.454   8.629   2.809
11452TIP3   OH234232   1.264   8.836   6.156
11452TIP3    H134233   1.320   8.797   6.223
11452TIP3    H234234   1.194   8.772   6.142
11453TIP3   OH234235   0.749   4.715   3.625
11453TIP3    H134236   0.675   4.773   3.646
11453TIP3    H234237   0.711   4.644   3.574
11454TIP3   OH234238   4.571   7.759   3.984
11454TIP3    H134239   4.537   7.840   3.944
11454TIP3    H234240   4.608   7.788   4.067
11455TIP3   OH234241   5.070   0.074   7.117
11455TIP3    H134242   5.096   0.066   7.025
11455TIP3    H234243   5.047  -0.016   7.143
11456TIP3   OH234244   0.606   4.344   5.597
11456TIP3    H134245   0.691   4.359   5.556
11456TIP3    H234246   0.542   4.358   5.528
11457TIP3   OH234247   9.053   4.195   4.453
11457TIP3    H134248   9.137   4.231   4.423
11457TIP3    H234249   9.075   4.108   4.486
11458TIP3   OH234250   8.330   1.231   1.404
11458TIP3    H134251   8.371   1.260   1.486
11458TIP3    H234252   8.249   1.281   1.399
11459TIP3   OH234253   2.126   8.920   4.367
11459TIP3    H134254   2.085   8.846   4.411
11459TIP3    H234255   2.061   8.991   4.374
11460TIP3   OH234256   3.743   3.549   5.234
11460TIP3    H134257   3.726   3.613   5.303
11460TIP3    H234258   3.834   3.565   5.207
11461TIP3   OH234259   0.510   4.945   3.203
11461TIP3    H134260   0.598   4.939   3.240
11461TIP3    H234261   0.512   5.023   3.149
11462TIP3   OH234262   3.084   2.641   7.426
11462TIP3    H134263   3.011   2.670   7.371
11462TIP3    H234264   3.153   2.616   7.365
11463TIP3   OH234265   5.289   5.768   4.039
11463TIP3    H134266   5.379   5.760   4.070
11463TIP3    H234267   5.236   5.733   4.111
11464TIP3   OH234268   2.219   6.491   5.985
11464TIP3    H134269   2.297   6.439   6.003
11464TIP3    H234270   2.148   6.445   6.031
11465TIP3   OH234271   9.163   4.599   0.141
11465TIP3    H134272   9.112   4.518   0.139
11465TIP3    H234273   9.191   4.607   0.232
11466TIP3   OH234274   0.405   0.910   6.707
11466TIP3    H134275   0.367   0.896   6.793
11466TIP3    H234276   0.430   0.822   6.677
11467TIP3   OH234277   4.489   4.379   2.107
11467TIP3    H134278   4.524   4.303   2.061
11467TIP3    H234279   4.515   4.454   2.053
11468TIP3   OH234280   0.470   0.748   3.591
11468TIP3    H134281   0.392   0.799   3.612
11468TIP3    H234282   0.510   0.730   3.676
11469TIP3   OH234283   3.718   7.179   5.267
11469TIP3    H134284   3.691   7.121   5.196
11469TIP3    H234285   3.800   7.142   5.299
11470TIP3   OH234286   3.744   6.339   1.701
11470TIP3    H134287   3.700   6.382   1.774
11470TIP3    H234288   3.673   6.318   1.640
11471TIP3   OH234289   1.490   6.950   2.231
11471TIP3    H134290   1.514   6.982   2.318
11471TIP3    H234291   1.400   6.918   2.241
11472TIP3   OH234292   6.801   1.406   3.181
11472TIP3    H134293   6.890   1.407   3.147
11472TIP3    H234294   6.810   1.374   3.271
11473TIP3   OH234295   4.864   5.415   0.622
11473TIP3    H134296   4.910   5.498   0.606
11473TIP3    H234297   4.779   5.426   0.579
11474TIP3   OH234298   8.235   1.390   4.188
11474TIP3    H134299   8.247   1.295   4.190
11474TIP3    H234300   8.220   1.414   4.280
11475TIP3   OH234301   1.716   7.809   0.077
11475TIP3    H134302   1.804   7.805   0.115
11475TIP3    H234303   1.728   7.858  -0.005
11476TIP3   OH234304   1.363   2.101   5.956
11476TIP3    H134305   1.406   2.070   6.035
11476TIP3    H234306   1.271   2.109   5.980
11477TIP3   OH234307   7.420   7.185   6.747
11477TIP3    H134308   7.486   7.248   6.717
11477TIP3    H234309   7.356   7.239   6.795
11478TIP3   OH234310   5.133   6.856   2.065
11478TIP3    H134311   5.226   6.839   2.077
11478TIP3    H234312   5.095   6.769   2.048
11479TIP3   OH234313   4.342   8.874   5.735
11479TIP3    H134314   4.376   8.787   5.752
11479TIP3    H234315   4.322   8.909   5.822
11480TIP3   OH234316   8.118   3.454   4.230
11480TIP3    H134317   8.143   3.405   4.152
11480TIP3    H234318   8.152   3.401   4.303
11481TIP3   OH234319   6.460   4.564   4.143
11481TIP3    H134320   6.470   4.603   4.055
11481TIP3    H234321   6.398   4.493   4.130
11482TIP3   OH234322   7.520   1.512   0.629
11482TIP3    H134323   7.513   1.597   0.585
11482TIP3    H234324   7.531   1.534   0.721
11483TIP3   OH234325   6.256   6.300   0.302
11483TIP3    H134326   6.243   6.387   0.263
11483TIP3    H234327   6.301   6.250   0.235
11484TIP3   OH234328   9.561   8.820   1.380
11484TIP3    H134329   9.632   8.855   1.326
11484TIP3    H234330   9.565   8.869   1.462
11485TIP3   OH234331   5.521   0.300   2.048
11485TIP3    H134332   5.581   0.243   2.097
11485TIP3    H234333   5.460   0.239   2.006
11486TIP3   OH234334   3.705   3.127   5.744
11486TIP3    H134335   3.771   3.109   5.812
11486TIP3    H234336   3.622   3.125   5.791
11487TIP3   OH234337   3.959   2.103   3.608
11487TIP3    H134338   3.911   2.091   3.690
11487TIP3    H234339   3.989   2.015   3.585
11488TIP3   OH234340   4.463   2.089   3.607
11488TIP3    H134341   4.536   2.042   3.568
11488TIP3    H234342   4.467   2.177   3.569
11489TIP3   OH234343   7.252   7.676   3.807
11489TIP3    H134344   7.260   7.581   3.819
11489TIP3    H234345   7.298   7.693   3.725
11490TIP3   OH234346   5.335   1.094   3.082
11490TIP3    H134347   5.352   1.136   3.167
11490TIP3    H234348   5.360   1.002   3.096
11491TIP3   OH234349   9.444   6.885   6.325
11491TIP3    H134350   9.485   6.802   6.303
11491TIP3    H234351   9.473   6.946   6.257
11492TIP3   OH234352   8.691   5.864   6.418
11492TIP3    H134353   8.741   5.847   6.338
11492TIP3    H234354   8.620   5.800   6.417
11493TIP3   OH234355   1.120   5.246   3.311
11493TIP3    H134356   1.117   5.311   3.381
11493TIP3    H234357   1.090   5.165   3.352
11494TIP3   OH234358   6.374   8.506   4.038
11494TIP3    H134359   6.290   8.544   4.065
11494TIP3    H234360   6.415   8.575   3.986
11495TIP3   OH234361   4.113   4.592   3.883
11495TIP3    H134362   4.042   4.579   3.820
11495TIP3    H234363   4.190   4.553   3.842
11496TIP3   OH234364   3.290   3.682   5.472
11496TIP3    H134365   3.322   3.611   5.416
11496TIP3    H234366   3.368   3.714   5.518
11497TIP3   OH234367   7.566   3.965   7.058
11497TIP3    H134368   7.489   3.994   7.010
11497TIP3    H234369   7.620   4.043   7.067
11498TIP3   OH234370   4.717   2.066   5.864
11498TIP3    H134371   4.676   2.039   5.946
11498TIP3    H234372   4.654   2.126   5.824
11499TIP3   OH234373   5.991   6.346   3.371
11499TIP3    H134374   5.904   6.385   3.383
11499TIP3    H234375   5.989   6.266   3.424
11500TIP3   OH234376   6.797   6.730   4.077
11500TIP3    H134377   6.760   6.695   3.996
11500TIP3    H234378   6.834   6.654   4.122
11501TIP3   OH234379   8.218   6.852   3.242
11501TIP3    H134380   8.180   6.916   3.181
11501TIP3    H234381   8.154   6.846   3.313
11502TIP3   OH234382   4.506   3.251   1.366
11502TIP3    H134383   4.523   3.341   1.394
11502TIP3    H234384   4.482   3.206   1.447
11503TIP3   OH234385   1.465   3.671   0.145
11503TIP3    H134386   1.526   3.601   0.168
11503TIP3    H234387   1.393   3.663   0.208
11504TIP3   OH234388   1.029   4.655   0.479
11504TIP3    H134389   1.052   4.669   0.387
11504TIP3    H234390   0.981   4.572   0.479
11505TIP3   OH234391   4.317   6.653   0.334
11505TIP3    H134392   4.296   6.564   0.306
11505TIP3    H234393   4.412   6.657   0.333
11506TIP3   OH234394   6.421   1.120   2.367
11506TIP3    H134395   6.409   1.027   2.387
11506TIP3    H234396   6.423   1.162   2.453
11507TIP3   OH234397   8.302   6.909   0.544
11507TIP3    H134398   8.314   6.992   0.499
11507TIP3    H234399   8.389   6.887   0.579
11508TIP3   OH234400   8.333   0.959   5.653
11508TIP3    H134401   8.281   0.911   5.717
11508TIP3    H234402   8.412   0.984   5.701
11509TIP3   OH234403   5.743   8.135   3.477
11509TIP3    H134404   5.725   8.229   3.469
11509TIP3    H234405   5.675   8.103   3.536
11510TIP3   OH234406   4.544   6.091   1.811
11510TIP3    H134407   4.531   6.082   1.717
11510TIP3    H234408   4.456   6.079   1.848
11511TIP3   OH234409   9.572   7.192   2.482
11511TIP3    H134410   9.487   7.159   2.509
11511TIP3    H234411   9.566   7.287   2.492
11512TIP3   OH234412   6.445   7.290   4.182
11512TIP3    H134413   6.495   7.252   4.109
11512TIP3    H234414   6.455   7.226   4.253
11513TIP3   OH234415   4.141   0.477   5.072
11513TIP3    H134416   4.127   0.562   5.030
11513TIP3    H234417   4.219   0.442   5.029
11514TIP3   OH234418   6.120   8.496   1.925
11514TIP3    H134419   6.110   8.571   1.984
11514TIP3    H234420   6.140   8.423   1.982
11515TIP3   OH234421   2.803   1.765   5.620
11515TIP3    H134422   2.778   1.756   5.712
11515TIP3    H234423   2.899   1.771   5.622
11516TIP3   OH234424   4.744   6.961   3.244
11516TIP3    H134425   4.736   7.026   3.174
11516TIP3    H234426   4.733   6.877   3.201
11517TIP3   OH234427   3.559   5.350   5.853
11517TIP3    H134428   3.514   5.287   5.796
11517TIP3    H234429   3.523   5.435   5.828
11518TIP3   OH234430   1.736   1.240   2.129
11518TIP3    H134431   1.711   1.148   2.128
11518TIP3    H234432   1.720   1.271   2.040
11519TIP3   OH234433   3.717   7.830   4.219
11519TIP3    H134434   3.745   7.741   4.199
11519TIP3    H234435   3.747   7.882   4.144
11520TIP3   OH234436   5.988   5.821   0.125
11520TIP3    H134437   5.967   5.799   0.034
11520TIP3    H234438   5.904   5.815   0.171
11521TIP3   OH234439   7.511   5.255   2.184
11521TIP3    H134440   7.558   5.335   2.162
11521TIP3    H234441   7.475   5.225   2.100
11522TIP3   OH234442   8.930   2.670   1.600
11522TIP3    H134443   8.977   2.747   1.630
11522TIP3    H234444   8.947   2.603   1.666
11523TIP3   OH234445   7.815   6.287   0.967
11523TIP3    H134446   7.878   6.242   0.910
11523TIP3    H234447   7.757   6.217   0.997
11524TIP3   OH234448   4.581   2.152   7.076
11524TIP3    H134449   4.675   2.137   7.064
11524TIP3    H234450   4.559   2.219   7.010
11525TIP3   OH234451   1.381   2.760   3.844
11525TIP3    H134452   1.321   2.691   3.872
11525TIP3    H234453   1.417   2.794   3.926
11526TIP3   OH234454   2.899   4.183   3.825
11526TIP3    H134455   2.918   4.106   3.771
11526TIP3    H234456   2.984   4.226   3.836
11527TIP3   OH234457   5.245   7.429   5.213
11527TIP3    H134458   5.254   7.418   5.308
11527TIP3    H234459   5.153   7.413   5.195
11528TIP3   OH234460   6.287   6.633   3.559
11528TIP3    H134461   6.238   6.707   3.524
11528TIP3    H234462   6.221   6.581   3.607
11529TIP3   OH234463   2.893   5.370   2.219
11529TIP3    H134464   2.958   5.431   2.184
11529TIP3    H234465   2.911   5.366   2.313
11530TIP3   OH234466   6.624   8.666   7.422
11530TIP3    H134467   6.585   8.692   7.339
11530TIP3    H234468   6.605   8.572   7.429
11531TIP3   OH234469   2.352   5.919   3.455
11531TIP3    H134470   2.289   5.943   3.386
11531TIP3    H234471   2.324   5.970   3.531
11532TIP3   OH234472   8.656   3.356   7.035
11532TIP3    H134473   8.609   3.423   6.986
11532TIP3    H234474   8.690   3.297   6.968
11533TIP3   OH234475   5.597   3.730   3.381
11533TIP3    H134476   5.607   3.640   3.351
11533TIP3    H234477   5.629   3.784   3.309
11534TIP3   OH234478   8.609   0.541   3.657
11534TIP3    H134479   8.515   0.538   3.671
11534TIP3    H234480   8.627   0.471   3.594
11535TIP3   OH234481   1.534   5.247   0.891
11535TIP3    H134482   1.441   5.263   0.910
11535TIP3    H234483   1.542   5.260   0.797
11536TIP3   OH234484   8.702   3.818   4.100
11536TIP3    H134485   8.678   3.909   4.082
11536TIP3    H234486   8.619   3.773   4.111
11537TIP3   OH234487   0.551   2.204   1.663
11537TIP3    H134488   0.606   2.129   1.681
11537TIP3    H234489   0.612   2.273   1.637
11538TIP3   OH234490   4.463   7.624   7.593
11538TIP3    H134491   4.478   7.706   7.640
11538TIP3    H234492   4.475   7.646   7.501
11539TIP3   OH234493   6.816   2.858   1.665
11539TIP3    H134494   6.819   2.769   1.630
11539TIP3    H234495   6.891   2.902   1.626
11540TIP3   OH234496   7.180   1.450   5.988
11540TIP3    H134497   7.232   1.415   5.915
11540TIP3    H234498   7.231   1.430   6.066
11541TIP3   OH234499   6.700   5.399   5.985
11541TIP3    H134500   6.749   5.434   5.910
11541TIP3    H234501   6.656   5.475   6.022
11542TIP3   OH234502   7.217   2.010   1.835
11542TIP3    H134503   7.151   1.943   1.814
11542TIP3    H234504   7.173   2.069   1.896
11543TIP3   OH234505   6.182   3.785   1.486
11543TIP3    H134506   6.183   3.703   1.537
11543TIP3    H234507   6.172   3.757   1.395
11544TIP3   OH234508   3.159   4.159   0.678
11544TIP3    H134509   3.148   4.221   0.750
11544TIP3    H234510   3.171   4.214   0.600
11545TIP3   OH234511   5.545   6.770   6.471
11545TIP3    H134512   5.600   6.752   6.547
11545TIP3    H234513   5.502   6.853   6.493
11546TIP3   OH234514   4.556   5.767   4.910
11546TIP3    H134515   4.613   5.825   4.860
11546TIP3    H234516   4.493   5.826   4.952
11547TIP3   OH234517   2.835   5.745   1.181
11547TIP3    H134518   2.895   5.740   1.106
11547TIP3    H234519   2.760   5.691   1.154
11548TIP3   OH234520   8.075   4.355   3.973
11548TIP3    H134521   8.015   4.285   3.998
11548TIP3    H234522   8.047   4.430   4.026
11549TIP3   OH234523   8.521   7.354   2.639
11549TIP3    H134524   8.534   7.416   2.567
11549TIP3    H234525   8.429   7.365   2.664
11550TIP3   OH234526   4.263   5.447   0.191
11550TIP3    H134527   4.276   5.533   0.151
11550TIP3    H234528   4.247   5.388   0.117
11551TIP3   OH234529   2.480   2.914   0.787
11551TIP3    H134530   2.507   2.910   0.695
11551TIP3    H234531   2.562   2.914   0.836
11552TIP3   OH234532   9.160   0.388   0.886
11552TIP3    H134533   9.135   0.337   0.809
11552TIP3    H234534   9.127   0.337   0.960
11553TIP3   OH234535   1.404   3.109   5.623
11553TIP3    H134536   1.405   3.191   5.672
11553TIP3    H234537   1.318   3.107   5.581
11554TIP3   OH234538   1.269   4.165   1.162
11554TIP3    H134539   1.250   4.129   1.075
11554TIP3    H234540   1.197   4.133   1.216
11555TIP3   OH234541   0.830   5.870   3.083
11555TIP3    H134542   0.740   5.885   3.113
11555TIP3    H234543   0.834   5.776   3.067
11556TIP3   OH234544   3.341   1.231   3.565
11556TIP3    H134545   3.356   1.138   3.582
11556TIP3    H234546   3.342   1.271   3.652
11557TIP3   OH234547   7.638   0.549   6.159
11557TIP3    H134548   7.624   0.623   6.099
11557TIP3    H234549   7.727   0.563   6.193
11558TIP3   OH234550   5.222   2.839   0.285
11558TIP3    H134551   5.253   2.876   0.367
11558TIP3    H234552   5.149   2.895   0.258
11559TIP3   OH234553   3.011   8.476   4.092
11559TIP3    H134554   3.005   8.430   4.175
11559TIP3    H234555   2.938   8.443   4.040
11560TIP3   OH234556   2.273   2.529   3.269
11560TIP3    H134557   2.268   2.546   3.174
11560TIP3    H234558   2.183   2.543   3.300
11561TIP3   OH234559   7.929   6.890   0.439
11561TIP3    H134560   7.862   6.831   0.474
11561TIP3    H234561   7.886   6.975   0.434
11562TIP3   OH234562   5.371   3.095   2.940
11562TIP3    H134563   5.404   3.088   3.030
11562TIP3    H234564   5.301   3.030   2.935
11563TIP3   OH234565   7.019   2.340   2.256
11563TIP3    H134566   7.081   2.267   2.255
11563TIP3    H234567   7.058   2.405   2.197
11564TIP3   OH234568   5.509   2.660   0.753
11564TIP3    H134569   5.422   2.673   0.717
11564TIP3    H234570   5.541   2.749   0.770
11565TIP3   OH234571   1.721   3.828   2.942
11565TIP3    H134572   1.748   3.773   3.016
11565TIP3    H234573   1.665   3.895   2.981
11566TIP3   OH234574   2.934   6.575   6.183
11566TIP3    H134575   2.912   6.525   6.261
11566TIP3    H234576   2.879   6.537   6.114
11567TIP3   OH234577   4.826   4.336   3.395
11567TIP3    H134578   4.810   4.305   3.484
11567TIP3    H234579   4.921   4.342   3.389
11568TIP3   OH234580   2.472   0.960   0.181
11568TIP3    H134581   2.419   0.881   0.173
11568TIP3    H234582   2.479   0.975   0.275
11569TIP3   OH234583   1.717   2.419   7.475
11569TIP3    H134584   1.688   2.384   7.560
11569TIP3    H234585   1.635   2.444   7.431
11570TIP3   OH234586   0.219   6.356   2.107
11570TIP3    H134587   0.241   6.424   2.170
11570TIP3    H234588   0.127   6.372   2.086
11571TIP3   OH234589   4.429   3.436   6.154
11571TIP3    H134590   4.481   3.452   6.074
11571TIP3    H234591   4.339   3.447   6.126
11572TIP3   OH234592   6.561   1.559   6.372
11572TIP3    H134593   6.654   1.575   6.356
11572TIP3    H234594   6.553   1.464   6.370
11573TIP3   OH234595   4.133   0.683   2.047
11573TIP3    H134596   4.042   0.695   2.077
11573TIP3    H234597   4.157   0.597   2.079
11574TIP3   OH234598   1.668   2.291   7.746
11574TIP3    H134599   1.658   2.233   7.670
11574TIP3    H234600   1.578   2.306   7.776
11575TIP3   OH234601   1.699   7.970   1.505
11575TIP3    H134602   1.716   7.963   1.412
11575TIP3    H234603   1.735   7.890   1.543
11576TIP3   OH234604   6.133   2.941   3.458
11576TIP3    H134605   6.043   2.938   3.425
11576TIP3    H234606   6.184   2.893   3.393
11577TIP3   OH234607   8.612   2.281   5.729
11577TIP3    H134608   8.643   2.194   5.706
11577TIP3    H234609   8.690   2.336   5.726
11578TIP3   OH234610   8.433   6.122   5.280
11578TIP3    H134611   8.417   6.163   5.196
11578TIP3    H234612   8.525   6.139   5.299
11579TIP3   OH234613   3.763   0.449   6.920
11579TIP3    H134614   3.722   0.529   6.888
11579TIP3    H234615   3.790   0.402   6.841
11580TIP3   OH234616   1.796   6.510   6.168
11580TIP3    H134617   1.771   6.553   6.086
11580TIP3    H234618   1.755   6.564   6.237
11581TIP3   OH234619   1.353   7.921   4.458
11581TIP3    H134620   1.341   7.937   4.365
11581TIP3    H234621   1.327   8.003   4.500
11582TIP3   OH234622   7.585   7.531   5.679
11582TIP3    H134623   7.548   7.586   5.611
11582TIP3    H234624   7.514   7.519   5.742
11583TIP3   OH234625   5.007   8.899   1.870
11583TIP3    H134626   5.038   8.893   1.961
11583TIP3    H234627   4.960   8.983   1.867
11584TIP3   OH234628   5.991   7.378   6.045
11584TIP3    H134629   6.038   7.462   6.047
11584TIP3    H234630   5.998   7.348   5.955
11585TIP3   OH234631   8.865   6.140   6.512
11585TIP3    H134632   8.800   6.072   6.529
11585TIP3    H234633   8.858   6.157   6.418
11586TIP3   OH234634   1.091   5.422   3.518
11586TIP3    H134635   0.997   5.438   3.515
11586TIP3    H234636   1.130   5.508   3.530
11587TIP3   OH234637   0.202   1.056   1.733
11587TIP3    H134638   0.246   0.971   1.741
11587TIP3    H234639   0.153   1.066   1.815
11588TIP3   OH234640   5.225   4.875   1.234
11588TIP3    H134641   5.133   4.859   1.256
11588TIP3    H234642   5.273   4.805   1.280
11589TIP3   OH234643   3.570   3.584   1.244
11589TIP3    H134644   3.518   3.518   1.289
11589TIP3    H234645   3.511   3.623   1.180
11590TIP3   OH234646   3.062   4.476   2.615
11590TIP3    H134647   3.132   4.517   2.565
11590TIP3    H234648   3.046   4.536   2.688
11591TIP3   OH234649   0.196   8.471   2.617
11591TIP3    H134650   0.137   8.424   2.559
11591TIP3    H234651   0.141   8.498   2.691
11592TIP3   OH234652   8.478   7.981   3.179
11592TIP3    H134653   8.526   7.906   3.142
11592TIP3    H234654   8.463   7.957   3.270
11593TIP3   OH234655   3.462   3.787   3.740
11593TIP3    H134656   3.426   3.873   3.762
11593TIP3    H234657   3.538   3.777   3.798
11594TIP3   OH234658   0.477   1.806   4.786
11594TIP3    H134659   0.424   1.884   4.799
11594TIP3    H234660   0.451   1.773   4.700
11595TIP3   OH234661   3.726   1.780   2.134
11595TIP3    H134662   3.678   1.858   2.106
11595TIP3    H234663   3.725   1.722   2.057
11596TIP3   OH234664   0.084   1.066   4.702
11596TIP3    H134665   0.135   1.083   4.622
11596TIP3    H234666   0.008   1.018   4.671
11597TIP3   OH234667   8.171   1.723   6.108
11597TIP3    H134668   8.163   1.714   6.013
11597TIP3    H234669   8.101   1.783   6.133
11598TIP3   OH234670   2.993   8.219   2.615
11598TIP3    H134671   2.926   8.176   2.563
11598TIP3    H234672   3.003   8.163   2.693
11599TIP3   OH234673   3.800   6.708   1.551
11599TIP3    H134674   3.753   6.766   1.611
11599TIP3    H234675   3.744   6.631   1.543
11600TIP3   OH234676   0.899   0.121   4.354
11600TIP3    H134677   0.914   0.154   4.442
11600TIP3    H234678   0.979   0.142   4.306
11601TIP3   OH234679   9.092   3.398   1.521
11601TIP3    H134680   8.999   3.412   1.503
11601TIP3    H234681   9.097   3.382   1.615
11602TIP3   OH234682   7.746   6.657   0.652
11602TIP3    H134683   7.686   6.616   0.714
11602TIP3    H234684   7.816   6.593   0.640
11603TIP3   OH234685   7.390   8.563   3.946
11603TIP3    H134686   7.417   8.476   3.916
11603TIP3    H234687   7.305   8.548   3.988
11604TIP3   OH234688   5.310   7.581   5.788
11604TIP3    H134689   5.299   7.674   5.770
11604TIP3    H234690   5.397   7.574   5.827
11605TIP3   OH234691   0.130   3.246   0.437
11605TIP3    H134692   0.168   3.159   0.447
11605TIP3    H234693   0.201   3.306   0.462
11606TIP3   OH234694   2.856   8.059   7.277
11606TIP3    H134695   2.908   8.020   7.206
11606TIP3    H234696   2.780   8.001   7.285
11607TIP3   OH234697   0.872   0.553   6.037
11607TIP3    H134698   0.941   0.530   6.098
11607TIP3    H234699   0.879   0.648   6.028
11608TIP3   OH234700   1.075   3.751   1.536
11608TIP3    H134701   1.148   3.812   1.550
11608TIP3    H234702   1.075   3.696   1.615
11609TIP3   OH234703   1.735   1.516   5.391
11609TIP3    H134704   1.824   1.481   5.397
11609TIP3    H234705   1.739   1.577   5.317
11610TIP3   OH234706   4.825   8.143   3.854
11610TIP3    H134707   4.869   8.228   3.844
11610TIP3    H234708   4.732   8.166   3.863
11611TIP3   OH234709   2.743   1.710   3.730
11611TIP3    H134710   2.738   1.679   3.821
11611TIP3    H234711   2.819   1.768   3.729
11612TIP3   OH234712   8.755   5.991   5.064
11612TIP3    H134713   8.745   6.085   5.083
11612TIP3    H234714   8.669   5.954   5.082
11613TIP3   OH234715   2.350   7.693   0.335
11613TIP3    H134716   2.350   7.788   0.344
11613TIP3    H234717   2.333   7.678   0.242
11614TIP3   OH234718   8.184   7.039   5.766
11614TIP3    H134719   8.273   7.072   5.750
11614TIP3    H234720   8.182   6.953   5.724
11615TIP3   OH234721   3.322   3.022   6.242
11615TIP3    H134722   3.252   2.990   6.299
11615TIP3    H234723   3.298   2.991   6.155
11616TIP3   OH234724   1.487   0.582   3.587
11616TIP3    H134725   1.456   0.512   3.529
11616TIP3    H234726   1.484   0.661   3.532
11617TIP3   OH234727   5.862   6.953   6.245
11617TIP3    H134728   5.800   6.906   6.189
11617TIP3    H234729   5.901   6.885   6.300
11618TIP3   OH234730   7.789   0.018   3.780
11618TIP3    H134731   7.871   0.066   3.774
11618TIP3    H234732   7.775  -0.018   3.692
11619TIP3   OH234733   9.430   4.453   4.636
11619TIP3    H134734   9.437   4.547   4.626
11619TIP3    H234735   9.517   4.420   4.613
11620TIP3   OH234736   6.941   8.768   4.652
11620TIP3    H134737   7.024   8.813   4.639
11620TIP3    H234738   6.916   8.738   4.565
11621TIP3   OH234739   0.134   2.762   1.165
11621TIP3    H134740   0.099   2.850   1.154
11621TIP3    H234741   0.198   2.753   1.094
11622TIP3   OH234742   7.045   5.730   4.045
11622TIP3    H134743   7.040   5.669   4.119
11622TIP3    H234744   6.978   5.698   3.984
11623TIP3   OH234745   7.908   3.308   5.699
11623TIP3    H134746   7.978   3.328   5.638
11623TIP3    H234747   7.926   3.219   5.729
11624TIP3   OH234748   5.698   0.797   3.351
11624TIP3    H134749   5.734   0.738   3.416
11624TIP3    H234750   5.689   0.744   3.272
11625TIP3   OH234751   3.310   7.526   7.132
11625TIP3    H134752   3.305   7.435   7.162
11625TIP3    H234753   3.257   7.527   7.052
11626TIP3   OH234754   0.829   0.493   0.427
11626TIP3    H134755   0.835   0.427   0.497
11626TIP3    H234756   0.816   0.575   0.474
11627TIP3   OH234757   3.456   1.825   7.673
11627TIP3    H134758   3.508   1.843   7.595
11627TIP3    H234759   3.414   1.741   7.655
11628TIP3   OH234760   4.443   0.147   5.365
11628TIP3    H134761   4.435   0.177   5.456
11628TIP3    H234762   4.514   0.200   5.328
11629TIP3   OH234763   9.269   6.535   2.402
11629TIP3    H134764   9.238   6.625   2.414
11629TIP3    H234765   9.218   6.501   2.329
11630TIP3   OH234766   6.273   2.614   0.707
11630TIP3    H134767   6.240   2.664   0.632
11630TIP3    H234768   6.195   2.571   0.743
11631TIP3   OH234769   1.230   3.207   2.728
11631TIP3    H134770   1.312   3.229   2.684
11631TIP3    H234771   1.173   3.283   2.711
11632TIP3   OH234772   7.169   6.950   4.728
11632TIP3    H134773   7.248   6.909   4.763
11632TIP3    H234774   7.097   6.893   4.758
11633TIP3   OH234775   1.228   3.714   6.421
11633TIP3    H134776   1.135   3.713   6.399
11633TIP3    H234777   1.242   3.800   6.460
11634TIP3   OH234778   4.219   3.821   4.522
11634TIP3    H134779   4.142   3.765   4.540
11634TIP3    H234780   4.293   3.770   4.555
11635TIP3   OH234781   6.711   2.068   5.636
11635TIP3    H134782   6.679   2.097   5.722
11635TIP3    H234783   6.702   1.973   5.638
11636TIP3   OH234784   3.242   0.743   1.856
11636TIP3    H134785   3.328   0.782   1.843
11636TIP3    H234786   3.231   0.740   1.951
11637TIP3   OH234787   4.931   1.437   0.564
11637TIP3    H134788   4.966   1.348   0.568
11637TIP3    H234789   4.843   1.425   0.526
11638TIP3   OH234790   7.825   8.072   5.199
11638TIP3    H134791   7.763   8.046   5.267
11638TIP3    H234792   7.817   8.167   5.193
11639TIP3   OH234793   0.004   1.147   5.680
11639TIP3    H134794   0.037   1.150   5.590
11639TIP3    H234795  -0.030   1.058   5.690
11640TIP3   OH234796   1.099   6.360   4.181
11640TIP3    H134797   1.175   6.372   4.124
11640TIP3    H234798   1.029   6.333   4.122
11641TIP3   OH234799   9.345   1.875   2.669
11641TIP3    H134800   9.280   1.811   2.639
11641TIP3    H234801   9.392   1.830   2.739
11642TIP3   OH234802   2.671   8.102   0.052
11642TIP3    H134803   2.712   8.141  -0.026
11642TIP3    H234804   2.742   8.095   0.115
11643TIP3   OH234805   1.514   3.934   6.404
11643TIP3    H134806   1.480   3.965   6.320
11643TIP3    H234807   1.450   3.963   6.469
11644TIP3   OH234808   4.993   0.989   4.328
11644TIP3    H134809   5.003   1.059   4.392
11644TIP3    H234810   5.041   0.915   4.366
11645TIP3   OH234811   0.417   7.202   4.674
11645TIP3    H134812   0.342   7.243   4.632
11645TIP3    H234813   0.380   7.131   4.727
11646TIP3   OH234814   3.795   2.528   0.740
11646TIP3    H134815   3.790   2.593   0.670
11646TIP3    H234816   3.881   2.542   0.779
11647TIP3   OH234817   9.228   8.296   0.964
11647TIP3    H134818   9.307   8.316   1.015
11647TIP3    H234819   9.179   8.236   1.020
11648TIP3   OH234820   7.648   7.975   0.271
11648TIP3    H134821   7.584   8.047   0.265
11648TIP3    H234822   7.596   7.896   0.254
11649TIP3   OH234823   7.217   5.630   0.285
11649TIP3    H134824   7.304   5.659   0.257
11649TIP3    H234825   7.228   5.604   0.376
11650TIP3   OH234826   1.157   3.833   6.726
11650TIP3    H134827   1.204   3.865   6.648
11650TIP3    H234828   1.118   3.750   6.698
11651TIP3   OH234829   0.815   0.307   3.462
11651TIP3    H134830   0.813   0.368   3.536
11651TIP3    H234831   0.880   0.344   3.403
11652TIP3   OH234832   5.611   7.439   7.029
11652TIP3    H134833   5.522   7.464   7.053
11652TIP3    H234834   5.647   7.517   6.985
11653TIP3   OH234835   7.223   8.256   5.594
11653TIP3    H134836   7.213   8.253   5.499
11653TIP3    H234837   7.245   8.348   5.612
11654TIP3   OH234838   7.730   6.327   1.381
11654TIP3    H134839   7.744   6.259   1.447
11654TIP3    H234840   7.783   6.401   1.411
11655TIP3   OH234841   8.549   3.228   4.373
11655TIP3    H134842   8.543   3.151   4.316
11655TIP3    H234843   8.622   3.278   4.337
11656TIP3   OH234844   0.609   7.833   3.568
11656TIP3    H134845   0.686   7.777   3.572
11656TIP3    H234846   0.606   7.875   3.655
11657TIP3   OH234847   0.289   4.306   7.526
11657TIP3    H134848   0.297   4.216   7.495
11657TIP3    H234849   0.379   4.332   7.547
11658TIP3   OH234850   1.151   7.216   0.112
11658TIP3    H134851   1.163   7.282   0.044
11658TIP3    H234852   1.059   7.188   0.103
11659TIP3   OH234853   5.964   5.155   6.010
11659TIP3    H134854   5.889   5.206   5.977
11659TIP3    H234855   6.030   5.162   5.942
11660TIP3   OH234856   3.407   4.295   1.009
11660TIP3    H134857   3.484   4.258   1.051
11660TIP3    H234858   3.349   4.318   1.081
11661TIP3   OH234859   3.054   3.485   1.544
11661TIP3    H134860   3.022   3.425   1.477
11661TIP3    H234861   2.992   3.559   1.541
11662TIP3   OH234862   5.409   0.136   3.142
11662TIP3    H134863   5.330   0.103   3.184
11662TIP3    H234864   5.443   0.061   3.093
11663TIP3   OH234865   0.355   6.484   4.130
11663TIP3    H134866   0.272   6.517   4.097
11663TIP3    H234867   0.337   6.458   4.221
11664TIP3   OH234868   1.849   1.670   1.989
11664TIP3    H134869   1.881   1.580   1.990
11664TIP3    H234870   1.896   1.713   2.061
11665TIP3   OH234871   9.435   1.238   4.806
11665TIP3    H134872   9.434   1.295   4.729
11665TIP3    H234873   9.511   1.181   4.792
11666TIP3   OH234874   8.519   4.480   2.649
11666TIP3    H134875   8.542   4.456   2.559
11666TIP3    H234876   8.595   4.455   2.701
11667TIP3   OH234877   7.559   3.123   1.337
11667TIP3    H134878   7.486   3.158   1.388
11667TIP3    H234879   7.518   3.086   1.259
11668TIP3   OH234880   5.404   5.135   3.950
11668TIP3    H134881   5.448   5.080   4.016
11668TIP3    H234882   5.476   5.170   3.897
11669TIP3   OH234883   3.839   7.111   5.652
11669TIP3    H134884   3.865   7.094   5.743
11669TIP3    H234885   3.784   7.036   5.629
11670TIP3   OH234886   4.815   0.064   5.127
11670TIP3    H134887   4.776  -0.022   5.138
11670TIP3    H234888   4.758   0.109   5.065
11671TIP3   OH234889   3.546   8.787   0.877
11671TIP3    H134890   3.614   8.851   0.861
11671TIP3    H234891   3.590   8.717   0.925
11672TIP3   OH234892   0.290   4.961   5.908
11672TIP3    H134893   0.270   4.912   5.828
11672TIP3    H234894   0.326   4.897   5.968
11673TIP3   OH234895   3.166   2.475   2.685
11673TIP3    H134896   3.078   2.503   2.661
11673TIP3    H234897   3.215   2.556   2.697
11674TIP3   OH234898   4.756   7.589   6.216
11674TIP3    H134899   4.839   7.628   6.191
11674TIP3    H234900   4.775   7.495   6.223
11675TIP3   OH234901   7.408   6.043   0.801
11675TIP3    H134902   7.332   6.102   0.794
11675TIP3    H234903   7.374   5.959   0.771
11676TIP3   OH234904   6.236   6.808   5.505
11676TIP3    H134905   6.325   6.822   5.536
11676TIP3    H234906   6.184   6.873   5.551
11677TIP3   OH234907   5.036   8.387   6.119
11677TIP3    H134908   4.961   8.440   6.144
11677TIP3    H234909   5.109   8.422   6.171
11678TIP3   OH234910   0.693   0.022   4.933
11678TIP3    H134911   0.745  -0.052   4.903
11678TIP3    H234912   0.757   0.087   4.960
11679TIP3   OH234913   6.844   5.003   7.544
11679TIP3    H134914   6.801   4.997   7.459
11679TIP3    H234915   6.863   4.913   7.568
11680TIP3   OH234916   1.213   4.038   0.383
11680TIP3    H134917   1.119   4.054   0.391
11680TIP3    H234918   1.222   3.991   0.300
11681TIP3   OH234919   2.622   4.702   6.390
11681TIP3    H134920   2.662   4.624   6.352
11681TIP3    H234921   2.651   4.702   6.481
11682TIP3   OH234922   8.535   8.735   4.660
11682TIP3    H134923   8.558   8.749   4.568
11682TIP3    H234924   8.551   8.642   4.675
11683TIP3   OH234925   5.856   0.429   3.922
11683TIP3    H134926   5.835   0.345   3.882
11683TIP3    H234927   5.799   0.434   3.999
11684TIP3   OH234928   6.748   0.335   2.980
11684TIP3    H134929   6.707   0.413   2.942
11684TIP3    H234930   6.720   0.336   3.072
11685TIP3   OH234931   0.875   8.868   7.339
11685TIP3    H134932   0.781   8.871   7.327
11685TIP3    H234933   0.888   8.818   7.420
11686TIP3   OH234934   9.064   7.586   1.482
11686TIP3    H134935   9.032   7.565   1.570
11686TIP3    H234936   9.157   7.604   1.494
11687TIP3   OH234937   1.092   6.042   1.979
11687TIP3    H134938   1.060   6.130   1.960
11687TIP3    H234939   1.012   5.991   1.995
11688TIP3   OH234940   1.955   6.971   1.741
11688TIP3    H134941   1.878   6.929   1.704
11688TIP3    H234942   2.007   6.998   1.665
11689TIP3   OH234943   2.212   4.967   3.303
11689TIP3    H134944   2.171   4.895   3.255
11689TIP3    H234945   2.144   4.998   3.363
11690TIP3   OH234946   7.344   8.131   5.145
11690TIP3    H134947   7.265   8.100   5.101
11690TIP3    H234948   7.413   8.071   5.114
11691TIP3   OH234949   7.286   8.486   5.295
11691TIP3    H134950   7.231   8.410   5.277
11691TIP3    H234951   7.251   8.521   5.378
11692TIP3   OH234952   1.104   4.497   2.050
11692TIP3    H134953   1.076   4.558   1.982
11692TIP3    H234954   1.051   4.520   2.126
11693TIP3   OH234955   0.602   1.720   0.041
11693TIP3    H134956   0.647   1.655  -0.013
11693TIP3    H234957   0.577   1.789  -0.021
11694TIP3   OH234958   2.896   0.368   4.889
11694TIP3    H134959   2.926   0.417   4.965
11694TIP3    H234960   2.969   0.310   4.868
11695TIP3   OH234961   0.987   9.015   6.996
11695TIP3    H134962   1.073   9.048   7.021
11695TIP3    H234963   0.946   8.989   7.078
11696TIP3   OH234964   1.082   7.553   7.255
11696TIP3    H134965   1.150   7.534   7.190
11696TIP3    H234966   1.046   7.467   7.277
11697TIP3   OH234967   6.709   4.390   4.277
11697TIP3    H134968   6.732   4.318   4.218
11697TIP3    H234969   6.618   4.373   4.302
11698TIP3   OH234970   7.785   3.426   4.350
11698TIP3    H134971   7.740   3.398   4.430
11698TIP3    H234972   7.850   3.489   4.380
11699TIP3   OH234973   5.474   5.215   6.997
11699TIP3    H134974   5.522   5.235   6.916
11699TIP3    H234975   5.500   5.126   7.020
11700TIP3   OH234976   2.036   1.216   1.567
11700TIP3    H134977   2.047   1.179   1.654
11700TIP3    H234978   2.121   1.200   1.524
11701TIP3   OH234979   4.727   0.912   3.313
11701TIP3    H134980   4.767   0.948   3.391
11701TIP3    H234981   4.674   0.984   3.277
11702TIP3   OH234982   8.914   5.585   6.967
11702TIP3    H134983   8.832   5.585   6.917
11702TIP3    H234984   8.964   5.513   6.928
11703TIP3   OH234985   0.753   0.392   5.447
11703TIP3    H134986   0.664   0.359   5.461
11703TIP3    H234987   0.808   0.313   5.450
11704TIP3   OH234988   4.158   1.956   1.677
11704TIP3    H134989   4.191   2.034   1.633
11704TIP3    H234990   4.072   1.941   1.638
11705TIP3   OH234991   0.095   0.159   6.150
11705TIP3    H134992   0.172   0.211   6.130
11705TIP3    H234993   0.062   0.195   6.233
11706TIP3   OH234994   5.776   9.023   1.125
11706TIP3    H134995   5.845   8.971   1.084
11706TIP3    H234996   5.816   9.109   1.138
11707TIP3   OH234997   8.113   4.357   1.176
11707TIP3    H134998   8.111   4.265   1.150
11707TIP3    H234999   8.204   4.384   1.165
11708TIP3   OH235000   7.333   8.349   4.713
11708TIP3    H135001   7.419   8.379   4.743
11708TIP3    H235002   7.329   8.376   4.621
11709TIP3   OH235003   4.007   0.154   4.621
11709TIP3    H135004   3.962   0.185   4.542
11709TIP3    H235005   4.040   0.068   4.596
11710TIP3   OH235006   7.323   3.713   3.846
11710TIP3    H135007   7.346   3.622   3.864
11710TIP3    H235008   7.372   3.763   3.911
11711TIP3   OH235009   4.935   7.143   4.403
11711TIP3    H135010   4.855   7.138   4.351
11711TIP3    H235011   4.908   7.116   4.491
11712TIP3   OH235012   6.007   7.810   1.805
11712TIP3    H135013   5.968   7.747   1.865
11712TIP3    H235014   6.071   7.858   1.858
11713TIP3   OH235015   8.845   5.147   3.359
11713TIP3    H135016   8.913   5.184   3.302
11713TIP3    H235017   8.777   5.118   3.298
11714TIP3   OH235018   0.516   5.265   2.250
11714TIP3    H135019   0.513   5.267   2.154
11714TIP3    H235020   0.424   5.258   2.277
11715TIP3   OH235021   0.962   8.852   2.282
11715TIP3    H135022   0.979   8.917   2.213
11715TIP3    H235023   0.893   8.797   2.246
11716TIP3   OH235024   5.865   1.529   0.286
11716TIP3    H135025   5.822   1.457   0.330
11716TIP3    H235026   5.834   1.608   0.331
11717TIP3   OH235027   4.891   2.916   6.372
11717TIP3    H135028   4.802   2.883   6.384
11717TIP3    H235029   4.884   3.010   6.390
11718TIP3   OH235030   4.369   6.810   1.232
11718TIP3    H135031   4.346   6.751   1.304
11718TIP3    H235032   4.416   6.882   1.274
11719TIP3   OH235033   8.607   8.690   6.597
11719TIP3    H135034   8.536   8.750   6.620
11719TIP3    H235035   8.572   8.603   6.618
11720TIP3   OH235036   8.609   8.021   1.190
11720TIP3    H135037   8.547   8.007   1.118
11720TIP3    H235038   8.563   7.989   1.267
11721TIP3   OH235039   4.624   8.171   1.684
11721TIP3    H135040   4.613   8.178   1.779
11721TIP3    H235041   4.717   8.189   1.670
11722TIP3   OH235042   2.762   6.224   4.468
11722TIP3    H135043   2.738   6.309   4.506
11722TIP3    H235044   2.678   6.181   4.452
11723TIP3   OH235045   4.965   7.765   7.311
11723TIP3    H135046   4.872   7.782   7.295
11723TIP3    H235047   5.003   7.852   7.325
11724TIP3   OH235048   8.650   3.169   6.784
11724TIP3    H135049   8.599   3.246   6.759
11724TIP3    H235050   8.639   3.108   6.711
11725TIP3   OH235051   2.996   2.427   3.027
11725TIP3    H135052   2.973   2.518   3.008
11725TIP3    H235053   3.063   2.433   3.095
11726TIP3   OH235054   7.355   0.530   4.451
11726TIP3    H135055   7.346   0.624   4.434
11726TIP3    H235056   7.413   0.499   4.381
11727TIP3   OH235057   0.190   2.643   7.645
11727TIP3    H135058   0.262   2.582   7.629
11727TIP3    H235059   0.158   2.620   7.732
11728TIP3   OH235060   9.229   2.265   4.757
11728TIP3    H135061   9.248   2.173   4.739
11728TIP3    H235062   9.156   2.263   4.818
11729TIP3   OH235063   8.262   8.762   1.156
11729TIP3    H135064   8.193   8.825   1.178
11729TIP3    H235065   8.238   8.730   1.069
11730TIP3   OH235066   8.915   6.559   0.687
11730TIP3    H135067   8.995   6.588   0.731
11730TIP3    H235068   8.928   6.465   0.673
11731TIP3   OH235069   0.638   5.841   7.777
11731TIP3    H135070   0.557   5.861   7.825
11731TIP3    H235071   0.615   5.854   7.685
11732TIP3   OH235072   4.322   6.434   1.729
11732TIP3    H135073   4.370   6.517   1.729
11732TIP3    H235074   4.359   6.384   1.657
11733TIP3   OH235075   3.643   8.676   1.487
11733TIP3    H135076   3.693   8.720   1.418
11733TIP3    H235077   3.654   8.583   1.468
11734TIP3   OH235078   8.451   7.713   5.557
11734TIP3    H135079   8.413   7.770   5.489
11734TIP3    H235080   8.499   7.773   5.614
11735TIP3   OH235081   8.562   4.323   5.614
11735TIP3    H135082   8.654   4.299   5.615
11735TIP3    H235083   8.546   4.360   5.701
11736TIP3   OH235084   9.288   4.342   5.133
11736TIP3    H135085   9.223   4.272   5.136
11736TIP3    H235086   9.274   4.392   5.213
11737TIP3   OH235087   4.248   6.254   4.098
11737TIP3    H135088   4.342   6.258   4.079
11737TIP3    H235089   4.207   6.297   4.023
11738TIP3   OH235090   3.172   0.561   1.122
11738TIP3    H135091   3.256   0.559   1.169
11738TIP3    H235092   3.154   0.470   1.101
11739TIP3   OH235093   4.503   7.151   6.657
11739TIP3    H135094   4.553   7.088   6.709
11739TIP3    H235095   4.524   7.236   6.695
11740TIP3   OH235096   4.197   8.806   4.837
11740TIP3    H135097   4.287   8.838   4.842
11740TIP3    H235098   4.204   8.721   4.794
11741TIP3   OH235099   5.373   0.897   2.394
11741TIP3    H135100   5.317   0.827   2.428
11741TIP3    H235101   5.361   0.969   2.455
11742TIP3   OH235102   8.500   1.745   5.985
11742TIP3    H135103   8.433   1.793   5.938
11742TIP3    H235104   8.551   1.813   6.030
11743TIP3   OH235105   1.843   0.206   7.588
11743TIP3    H135106   1.906   0.189   7.518
11743TIP3    H235107   1.821   0.299   7.578
11744TIP3   OH235108   0.839   5.601   7.223
11744TIP3    H135109   0.924   5.638   7.246
11744TIP3    H235110   0.839   5.599   7.127
11745TIP3   OH235111   6.473   6.008   4.319
11745TIP3    H135112   6.489   6.002   4.413
11745TIP3    H235113   6.384   5.973   4.308
11746TIP3   OH235114   3.620   1.795   2.836
11746TIP3    H135115   3.545   1.737   2.818
11746TIP3    H235116   3.682   1.776   2.766
11747TIP3   OH235117   8.547   8.703   1.284
11747TIP3    H135118   8.470   8.735   1.237
11747TIP3    H235119   8.587   8.640   1.224
11748TIP3   OH235120   7.891   2.555   3.746
11748TIP3    H135121   7.944   2.634   3.745
11748TIP3    H235122   7.823   2.569   3.680
11749TIP3   OH235123   1.857   0.679   3.616
11749TIP3    H135124   1.920   0.670   3.687
11749TIP3    H235125   1.807   0.598   3.618
11750TIP3   OH235126   7.707   8.088   2.653
11750TIP3    H135127   7.787   8.036   2.646
11750TIP3    H235128   7.658   8.047   2.725
11751TIP3   OH235129   8.437   3.052   1.357
11751TIP3    H135130   8.424   3.132   1.305
11751TIP3    H235131   8.387   2.985   1.310
11752TIP3   OH235132   0.682   0.285   1.223
11752TIP3    H135133   0.619   0.257   1.290
11752TIP3    H235134   0.757   0.318   1.272
11753TIP3   OH235135   6.252   3.787   4.023
11753TIP3    H135136   6.188   3.829   3.965
11753TIP3    H235137   6.267   3.852   4.092
11754TIP3   OH235138   6.394   8.019   5.798
11754TIP3    H135139   6.406   8.089   5.863
11754TIP3    H235140   6.326   8.053   5.740
11755TIP3   OH235141   2.457   8.296   5.489
11755TIP3    H135142   2.383   8.355   5.473
11755TIP3    H235143   2.532   8.340   5.447
11756TIP3   OH235144   8.014   8.631   7.563
11756TIP3    H135145   7.948   8.699   7.578
11756TIP3    H235146   7.975   8.574   7.497
11757TIP3   OH235147   4.344   8.848   3.123
11757TIP3    H135148   4.292   8.926   3.143
11757TIP3    H235149   4.366   8.856   3.030
11758TIP3   OH235150   7.546   7.592   0.016
11758TIP3    H135151   7.545   7.637  -0.068
11758TIP3    H235152   7.478   7.636   0.068
11759TIP3   OH235153   2.450   7.023   7.301
11759TIP3    H135154   2.359   6.994   7.298
11759TIP3    H235155   2.474   7.017   7.394
11760TIP3   OH235156   2.844   4.705   2.899
11760TIP3    H135157   2.918   4.751   2.859
11760TIP3    H235158   2.840   4.739   2.988
11761TIP3   OH235159   4.659   3.740   6.203
11761TIP3    H135160   4.715   3.671   6.170
11761TIP3    H235161   4.597   3.758   6.132
11762TIP3   OH235162   4.896   4.511   6.099
11762TIP3    H135163   4.863   4.421   6.090
11762TIP3    H235164   4.970   4.515   6.039
11763TIP3   OH235165   6.358   3.232   4.081
11763TIP3    H135166   6.309   3.313   4.094
11763TIP3    H235167   6.294   3.170   4.044
11764TIP3   OH235168   3.994   8.650   1.532
11764TIP3    H135169   3.913   8.694   1.507
11764TIP3    H235170   4.057   8.674   1.465
11765TIP3   OH235171   8.800   3.073   2.858
11765TIP3    H135172   8.867   3.061   2.924
11765TIP3    H235173   8.796   3.167   2.844
11766TIP3   OH235174   0.872   3.361   6.525
11766TIP3    H135175   0.874   3.292   6.591
11766TIP3    H235176   0.782   3.360   6.492
11767TIP3   OH235177   8.451   7.050   1.746
11767TIP3    H135178   8.402   7.048   1.663
11767TIP3    H235179   8.516   6.981   1.737
11768TIP3   OH235180   8.201   2.133   5.717
11768TIP3    H135181   8.131   2.197   5.731
11768TIP3    H235182   8.262   2.148   5.789
11769TIP3   OH235183   1.921   3.630   2.648
11769TIP3    H135184   1.902   3.566   2.717
11769TIP3    H235185   1.879   3.594   2.570
11770TIP3   OH235186   8.170   4.668   5.247
11770TIP3    H135187   8.251   4.714   5.270
11770TIP3    H235188   8.116   4.735   5.205
11771TIP3   OH235189   1.960   2.968   4.762
11771TIP3    H135190   2.044   2.954   4.807
11771TIP3    H235191   1.897   2.978   4.833
11772TIP3   OH235192   6.204   0.650   0.704
11772TIP3    H135193   6.142   0.640   0.777
11772TIP3    H235194   6.266   0.577   0.715
11773TIP3   OH235195   2.168   5.411   2.623
11773TIP3    H135196   2.148   5.504   2.606
11773TIP3    H235197   2.261   5.403   2.603
11774TIP3   OH235198   8.259   4.491   5.789
11774TIP3    H135199   8.237   4.584   5.797
11774TIP3    H235200   8.354   4.488   5.797
11775TIP3   OH235201   6.423   7.472   4.628
11775TIP3    H135202   6.484   7.545   4.637
11775TIP3    H235203   6.422   7.430   4.713
11776TIP3   OH235204   0.310   7.030   1.316
11776TIP3    H135205   0.295   7.035   1.411
11776TIP3    H235206   0.227   6.997   1.281
11777TIP3   OH235207   0.613   8.776   3.133
11777TIP3    H135208   0.529   8.789   3.090
11777TIP3    H235209   0.669   8.736   3.066
11778TIP3   OH235210   3.871   4.636   5.450
11778TIP3    H135211   3.939   4.652   5.384
11778TIP3    H235212   3.810   4.576   5.408
11779TIP3   OH235213   9.303   1.848   6.472
11779TIP3    H135214   9.354   1.768   6.460
11779TIP3    H235215   9.352   1.899   6.537
11780TIP3   OH235216   6.705   6.325   0.130
11780TIP3    H135217   6.794   6.297   0.107
11780TIP3    H235218   6.671   6.366   0.051
11781TIP3   OH235219   3.211   1.227   2.824
11781TIP3    H135220   3.242   1.295   2.883
11781TIP3    H235221   3.123   1.206   2.855
11782TIP3   OH235222   2.459   6.377   2.248
11782TIP3    H135223   2.428   6.380   2.158
11782TIP3    H235224   2.523   6.448   2.254
11783TIP3   OH235225   6.438   2.230   5.672
11783TIP3    H135226   6.371   2.203   5.735
11783TIP3    H235227   6.453   2.152   5.618
11784TIP3   OH235228   4.868   7.625   2.482
11784TIP3    H135229   4.903   7.710   2.455
11784TIP3    H235230   4.887   7.567   2.409
11785TIP3   OH235231   1.338   5.705   4.395
11785TIP3    H135232   1.432   5.687   4.399
11785TIP3    H235233   1.321   5.760   4.472
11786TIP3   OH235234   7.123   4.687   3.868
11786TIP3    H135235   7.180   4.684   3.944
11786TIP3    H235236   7.177   4.657   3.795
11787TIP3   OH235237   3.594   3.237   0.888
11787TIP3    H135238   3.660   3.169   0.895
11787TIP3    H235239   3.567   3.235   0.797
11788TIP3   OH235240   0.797   7.032   6.188
11788TIP3    H135241   0.831   7.097   6.126
11788TIP3    H235242   0.875   6.985   6.218
11789TIP3   OH235243   6.446   3.442   3.070
11789TIP3    H135244   6.467   3.363   3.120
11789TIP3    H235245   6.411   3.502   3.136
11790TIP3   OH235246   7.088   4.609   7.501
11790TIP3    H135247   7.140   4.675   7.548
11790TIP3    H235248   7.037   4.566   7.569
11791TIP3   OH235249   8.951   1.602   5.513
11791TIP3    H135250   8.955   1.626   5.421
11791TIP3    H235251   9.020   1.537   5.524
11792TIP3   OH235252   1.573   3.508   7.727
11792TIP3    H135253   1.656   3.548   7.701
11792TIP3    H235254   1.595   3.415   7.740
11793TIP3   OH235255   4.067   0.212   6.920
11793TIP3    H135256   4.103   0.129   6.950
11793TIP3    H235257   4.109   0.227   6.835
11794TIP3   OH235258   4.891   6.014   6.674
11794TIP3    H135259   4.917   6.033   6.765
11794TIP3    H235260   4.964   6.044   6.621
11795TIP3   OH235261   8.553   0.199   4.586
11795TIP3    H135262   8.584   0.278   4.542
11795TIP3    H235263   8.480   0.168   4.533
11796TIP3   OH235264   0.014   7.155   7.082
11796TIP3    H135265   0.000   7.109   7.166
11796TIP3    H235266   0.082   7.220   7.102
11797TIP3   OH235267   0.118   8.073   2.679
11797TIP3    H135268   0.107   8.105   2.590
11797TIP3    H235269   0.185   8.129   2.717
11798TIP3   OH235270   4.253   5.564   5.638
11798TIP3    H135271   4.260   5.659   5.652
11798TIP3    H235272   4.191   5.535   5.705
11799TIP3   OH235273   4.253   4.982   1.977
11799TIP3    H135274   4.282   4.918   2.042
11799TIP3    H235275   4.320   5.050   1.979
11800TIP3   OH235276   7.829   6.889   7.288
11800TIP3    H135277   7.753   6.918   7.237
11800TIP3    H235278   7.802   6.901   7.379
11801TIP3   OH235279   6.366   4.250   7.509
11801TIP3    H135280   6.384   4.299   7.429
11801TIP3    H235281   6.423   4.173   7.503
11802TIP3   OH235282   5.258   6.902   6.901
11802TIP3    H135283   5.174   6.939   6.929
11802TIP3    H235284   5.284   6.957   6.826
11803TIP3   OH235285   6.456   4.585   1.599
11803TIP3    H135286   6.548   4.601   1.620
11803TIP3    H235287   6.456   4.499   1.558
11804TIP3   OH235288   5.560   5.246   0.718
11804TIP3    H135289   5.545   5.272   0.808
11804TIP3    H235290   5.654   5.258   0.704
11805TIP3   OH235291   8.959   6.432   6.180
11805TIP3    H135292   8.874   6.468   6.206
11805TIP3    H235293   8.939   6.371   6.109
11806TIP3   OH235294   8.663   3.226   4.616
11806TIP3    H135295   8.635   3.231   4.524
11806TIP3    H235296   8.616   3.151   4.651
11807TIP3   OH235297   0.024   0.744   4.911
11807TIP3    H135298  -0.060   0.753   4.956
11807TIP3    H235299   0.014   0.666   4.856
11808TIP3   OH235300   0.921   5.337   3.111
11808TIP3    H135301   0.847   5.277   3.103
11808TIP3    H235302   0.955   5.322   3.199
11809TIP3   OH235303   4.111   2.460   7.169
11809TIP3    H135304   4.166   2.479   7.093
11809TIP3    H235305   4.022   2.459   7.134
11810TIP3   OH235306   5.978   3.444   7.013
11810TIP3    H135307   6.030   3.524   7.007
11810TIP3    H235308   5.970   3.413   6.923
11811TIP3   OH235309   6.101   4.373   4.762
11811TIP3    H135310   6.041   4.300   4.780
11811TIP3    H235311   6.186   4.341   4.791
11812TIP3   OH235312   8.512   6.265   1.926
11812TIP3    H135313   8.449   6.337   1.934
11812TIP3    H235314   8.460   6.190   1.899
11813TIP3   OH235315   0.537   0.587   7.746
11813TIP3    H135316   0.551   0.661   7.806
11813TIP3    H235317   0.493   0.521   7.800
11814TIP3   OH235318   6.765   7.734   0.274
11814TIP3    H135319   6.707   7.672   0.230
11814TIP3    H235320   6.723   7.819   0.262
11815TIP3   OH235321   3.575   2.850   7.504
11815TIP3    H135322   3.562   2.929   7.453
11815TIP3    H235323   3.486   2.814   7.515
11816TIP3   OH235324   1.719   1.170   5.490
11816TIP3    H135325   1.760   1.128   5.565
11816TIP3    H235326   1.754   1.259   5.490
11817TIP3   OH235327   3.453   8.245   4.544
11817TIP3    H135328   3.423   8.283   4.462
11817TIP3    H235329   3.375   8.203   4.581
11818TIP3   OH235330   7.020   7.186   7.408
11818TIP3    H135331   7.090   7.251   7.416
11818TIP3    H235332   6.986   7.175   7.496
11819TIP3   OH235333   5.130   6.488   4.766
11819TIP3    H135334   5.083   6.422   4.815
11819TIP3    H235335   5.127   6.566   4.822
11820TIP3   OH235336   1.299   5.410   3.042
11820TIP3    H135337   1.279   5.504   3.046
11820TIP3    H235338   1.380   5.406   2.992
11821TIP3   OH235339   5.451   2.440   3.604
11821TIP3    H135340   5.416   2.371   3.661
11821TIP3    H235341   5.387   2.511   3.611
11822TIP3   OH235342   8.203   4.065   3.000
11822TIP3    H135343   8.256   4.142   2.980
11822TIP3    H235344   8.130   4.069   2.939
11823TIP3   OH235345   6.441   1.883   4.001
11823TIP3    H135346   6.485   1.956   4.045
11823TIP3    H235347   6.375   1.925   3.946
11824TIP3   OH235348   7.570   2.741   2.364
11824TIP3    H135349   7.516   2.677   2.410
11824TIP3    H235350   7.526   2.825   2.379
11825TIP3   OH235351   6.236   0.042   5.665
11825TIP3    H135352   6.166   0.022   5.727
11825TIP3    H235353   6.198   0.022   5.579
11826TIP3   OH235354   3.248   4.335   1.736
11826TIP3    H135355   3.287   4.250   1.754
11826TIP3    H235356   3.165   4.315   1.691
11827TIP3   OH235357   5.275   8.757   0.280
11827TIP3    H135358   5.234   8.842   0.290
11827TIP3    H235359   5.335   8.750   0.354
11828TIP3   OH235360   8.819   0.975   6.080
11828TIP3    H135361   8.807   1.062   6.043
11828TIP3    H235362   8.802   0.987   6.174
11829TIP3   OH235363   8.081   1.297   4.949
11829TIP3    H135364   8.082   1.238   5.024
11829TIP3    H235365   8.054   1.241   4.875
11830TIP3   OH235366   1.566   8.522   0.736
11830TIP3    H135367   1.550   8.495   0.645
11830TIP3    H235368   1.483   8.561   0.764
11831TIP3   OH235369   1.596   1.350   4.483
11831TIP3    H135370   1.578   1.350   4.389
11831TIP3    H235371   1.680   1.394   4.492
11832TIP3   OH235372   0.858   4.061   3.717
11832TIP3    H135373   0.764   4.047   3.720
11832TIP3    H235374   0.890   4.027   3.800
11833TIP3   OH235375   4.923   3.207   0.360
11833TIP3    H135376   4.897   3.257   0.437
11833TIP3    H235377   5.016   3.189   0.373
11834TIP3   OH235378   3.651   0.733   1.410
11834TIP3    H135379   3.673   0.643   1.432
11834TIP3    H235380   3.718   0.786   1.455
11835TIP3   OH235381   1.771   2.939   4.307
11835TIP3    H135382   1.744   2.949   4.398
11835TIP3    H235383   1.753   2.847   4.287
11836TIP3   OH235384   8.093   8.424   1.807
11836TIP3    H135385   8.166   8.369   1.835
11836TIP3    H235386   8.056   8.457   1.889
11837TIP3   OH235387   9.324   4.619   2.742
11837TIP3    H135388   9.291   4.594   2.828
11837TIP3    H235389   9.275   4.565   2.681
11838TIP3   OH235390   0.643   0.114   5.656
11838TIP3    H135391   0.591   0.189   5.629
11838TIP3    H235392   0.626   0.047   5.589
11839TIP3   OH235393   7.317   8.730   2.831
11839TIP3    H135394   7.309   8.715   2.737
11839TIP3    H235395   7.251   8.797   2.851
11840TIP3   OH235396   6.101   2.963   2.770
11840TIP3    H135397   6.104   3.043   2.822
11840TIP3    H235398   6.008   2.942   2.763
11841TIP3   OH235399   6.728   5.061   5.459
11841TIP3    H135400   6.811   5.025   5.489
11841TIP3    H235401   6.684   4.988   5.416
11842TIP3   OH235402   1.453   4.871   1.583
11842TIP3    H135403   1.422   4.826   1.505
11842TIP3    H235404   1.490   4.953   1.550
11843TIP3   OH235405   9.080   4.140   0.913
11843TIP3    H135406   9.111   4.130   1.003
11843TIP3    H235407   9.150   4.188   0.869
11844TIP3   OH235408   8.286   6.271   7.144
11844TIP3    H135409   8.258   6.258   7.235
11844TIP3    H235410   8.208   6.251   7.092
11845TIP3   OH235411   5.961   3.398   5.875
11845TIP3    H135412   5.995   3.359   5.795
11845TIP3    H235413   6.039   3.409   5.930
11846TIP3   OH235414   6.972   0.005   7.084
11846TIP3    H135415   7.025   0.039   7.012
11846TIP3    H235416   6.960   0.080   7.143
11847TIP3   OH235417   9.316   2.141   0.050
11847TIP3    H135418   9.330   2.083   0.125
11847TIP3    H235419   9.234   2.109   0.011
11848TIP3   OH235420   7.600   6.810   2.707
11848TIP3    H135421   7.592   6.820   2.802
11848TIP3    H235422   7.522   6.761   2.682
11849TIP3   OH235423   1.877   5.628   7.219
11849TIP3    H135424   1.937   5.703   7.216
11849TIP3    H235425   1.872   5.597   7.129
11850TIP3   OH235426   5.758   0.496   1.427
11850TIP3    H135427   5.734   0.578   1.471
11850TIP3    H235428   5.826   0.521   1.365
11851TIP3   OH235429   3.253   3.171   4.167
11851TIP3    H135430   3.261   3.078   4.148
11851TIP3    H235431   3.270   3.178   4.260
11852TIP3   OH235432   7.968   7.577   4.452
11852TIP3    H135433   8.001   7.551   4.366
11852TIP3    H235434   7.876   7.549   4.452
11853TIP3   OH235435   8.876   3.081   1.945
11853TIP3    H135436   8.839   2.999   1.976
11853TIP3    H235437   8.810   3.115   1.883
11854TIP3   OH235438   3.285   6.270   3.673
11854TIP3    H135439   3.200   6.292   3.635
11854TIP3    H235440   3.331   6.354   3.679
11855TIP3   OH235441   5.196   8.310   7.417
11855TIP3    H135442   5.263   8.343   7.477
11855TIP3    H235443   5.209   8.359   7.337
11856TIP3   OH235444   8.851   4.191   4.646
11856TIP3    H135445   8.833   4.275   4.688
11856TIP3    H235446   8.923   4.208   4.586
11857TIP3   OH235447   5.688   0.998   2.818
11857TIP3    H135448   5.672   0.911   2.782
11857TIP3    H235449   5.601   1.032   2.837
11858TIP3   OH235450   6.972   6.481   2.114
11858TIP3    H135451   7.063   6.484   2.084
11858TIP3    H235452   6.966   6.400   2.165
11859TIP3   OH235453   7.506   8.194   2.461
11859TIP3    H135454   7.437   8.134   2.490
11859TIP3    H235455   7.579   8.177   2.520
11860TIP3   OH235456   4.574   2.311   0.215
11860TIP3    H135457   4.524   2.355   0.284
11860TIP3    H235458   4.525   2.328   0.135
11861TIP3   OH235459   7.308   8.643   6.077
11861TIP3    H135460   7.397   8.642   6.114
11861TIP3    H235461   7.321   8.662   5.984
11862TIP3   OH235462   6.548   8.748   2.527
11862TIP3    H135463   6.522   8.811   2.460
11862TIP3    H235464   6.614   8.693   2.483
11863TIP3   OH235465   6.225   6.902   5.821
11863TIP3    H135466   6.130   6.916   5.821
11863TIP3    H235467   6.238   6.824   5.875
11864TIP3   OH235468   2.480   0.635   6.043
11864TIP3    H135469   2.401   0.681   6.016
11864TIP3    H235470   2.540   0.645   5.970
11865TIP3   OH235471   3.218   3.913   4.470
11865TIP3    H135472   3.207   4.003   4.500
11865TIP3    H235473   3.134   3.890   4.430
11866TIP3   OH235474   9.468   3.564   3.064
11866TIP3    H135475   9.485   3.613   2.983
11866TIP3    H235476   9.548   3.575   3.116
11867TIP3   OH235477   9.181   3.025   3.576
11867TIP3    H135478   9.163   2.933   3.593
11867TIP3    H235479   9.276   3.030   3.567
11868TIP3   OH235480   8.394   6.520   7.084
11868TIP3    H135481   8.391   6.549   7.175
11868TIP3    H235482   8.395   6.425   7.089
11869TIP3   OH235483   4.365   6.159   3.173
11869TIP3    H135484   4.285   6.107   3.178
11869TIP3    H235485   4.364   6.197   3.085
11870TIP3   OH235486   5.980   0.882   7.204
11870TIP3    H135487   5.994   0.977   7.211
11870TIP3    H235488   5.950   0.869   7.114
11871TIP3   OH235489   3.268   0.325   2.814
11871TIP3    H135490   3.290   0.391   2.880
11871TIP3    H235491   3.319   0.350   2.737
11872TIP3   OH235492   5.913   6.881   5.834
11872TIP3    H135493   5.869   6.805   5.796
11872TIP3    H235494   5.850   6.953   5.824
11873TIP3   OH235495   6.663   0.256   4.572
11873TIP3    H135496   6.745   0.301   4.589
11873TIP3    H235497   6.676   0.215   4.487
11874TIP3   OH235498   5.626   2.234   7.723
11874TIP3    H135499   5.639   2.323   7.690
11874TIP3    H235500   5.631   2.242   7.818
11875TIP3   OH235501   5.808   6.479   6.541
11875TIP3    H135502   5.796   6.541   6.469
11875TIP3    H235503   5.787   6.529   6.620
11876TIP3   OH235504   5.038   2.293   0.102
11876TIP3    H135505   5.048   2.217   0.045
11876TIP3    H235506   5.121   2.340   0.095
11877TIP3   OH235507   9.307   3.170   4.661
11877TIP3    H135508   9.394   3.145   4.628
11877TIP3    H235509   9.309   3.265   4.662
11878TIP3   OH235510   7.724   2.251   6.299
11878TIP3    H135511   7.711   2.157   6.292
11878TIP3    H235512   7.742   2.267   6.392
11879TIP3   OH235513   2.063   4.664   5.379
11879TIP3    H135514   2.070   4.683   5.286
11879TIP3    H235515   2.021   4.741   5.417
11880TIP3   OH235516   4.390   0.513   5.936
11880TIP3    H135517   4.483   0.517   5.957
11880TIP3    H235518   4.346   0.522   6.021
11881TIP3   OH235519   0.824   0.105   6.845
11881TIP3    H135520   0.804   0.175   6.783
11881TIP3    H235521   0.786   0.134   6.927
11882TIP3   OH235522   4.872   5.746   1.272
11882TIP3    H135523   4.894   5.839   1.263
11882TIP3    H235524   4.955   5.703   1.289
11883TIP3   OH235525   0.361   7.620   6.321
11883TIP3    H135526   0.295   7.561   6.284
11883TIP3    H235527   0.368   7.692   6.258
11884TIP3   OH235528   7.697   7.490   6.400
11884TIP3    H135529   7.783   7.455   6.423
11884TIP3    H235530   7.698   7.580   6.434
11885TIP3   OH235531   8.339   3.607   3.509
11885TIP3    H135532   8.287   3.687   3.518
11885TIP3    H235533   8.346   3.573   3.599
11886TIP3   OH235534   4.709   5.559   6.749
11886TIP3    H135535   4.782   5.567   6.810
11886TIP3    H235536   4.711   5.468   6.722
11887TIP3   OH235537   1.486   7.341   0.499
11887TIP3    H135538   1.429   7.271   0.468
11887TIP3    H235539   1.511   7.389   0.420
11888TIP3   OH235540   0.046   4.957   2.469
11888TIP3    H135541   0.080   4.961   2.380
11888TIP3    H235542   0.037   5.049   2.495
11889TIP3   OH235543   5.216   5.304   5.614
11889TIP3    H135544   5.199   5.392   5.580
11889TIP3    H235545   5.190   5.309   5.706
11890TIP3   OH235546   6.248   0.274   3.520
11890TIP3    H135547   6.325   0.325   3.546
11890TIP3    H235548   6.203   0.330   3.457
11891TIP3   OH235549   5.408   1.663   3.634
11891TIP3    H135550   5.489   1.630   3.597
11891TIP3    H235551   5.419   1.653   3.729
11892TIP3   OH235552   0.911   4.625   4.952
11892TIP3    H135553   0.922   4.536   4.986
11892TIP3    H235554   0.980   4.634   4.887
11893TIP3   OH235555   8.184   4.433   2.564
11893TIP3    H135556   8.206   4.491   2.491
11893TIP3    H235557   8.243   4.460   2.635
11894TIP3   OH235558   2.224   2.899   6.662
11894TIP3    H135559   2.165   2.888   6.587
11894TIP3    H235560   2.165   2.918   6.736
11895TIP3   OH235561   0.441   5.810   5.775
11895TIP3    H135562   0.462   5.719   5.752
11895TIP3    H235563   0.493   5.827   5.854
11896TIP3   OH235564   1.756   7.879   3.421
11896TIP3    H135565   1.829   7.892   3.360
11896TIP3    H235566   1.769   7.946   3.488
11897TIP3   OH235567   4.802   6.365   5.932
11897TIP3    H135568   4.815   6.328   5.845
11897TIP3    H235569   4.708   6.359   5.947
11898TIP3   OH235570   7.955   0.043   4.104
11898TIP3    H135571   8.032  -0.013   4.095
11898TIP3    H235572   7.951   0.091   4.021
11899TIP3   OH235573   8.764   8.666   3.667
11899TIP3    H135574   8.736   8.716   3.744
11899TIP3    H235575   8.751   8.725   3.593
11900TIP3   OH235576   4.150   6.330   0.432
11900TIP3    H135577   4.206   6.335   0.355
11900TIP3    H235578   4.209   6.312   0.505
11901TIP3   OH235579   8.879   3.525   5.236
11901TIP3    H135580   8.945   3.459   5.216
11901TIP3    H235581   8.915   3.575   5.309
11902TIP3   OH235582   1.227   2.265   6.198
11902TIP3    H135583   1.257   2.204   6.266
11902TIP3    H235584   1.131   2.262   6.204
11903TIP3   OH235585   8.305   8.504   6.215
11903TIP3    H135586   8.353   8.579   6.180
11903TIP3    H235587   8.373   8.439   6.234
11904TIP3   OH235588   0.666   8.698   3.908
11904TIP3    H135589   0.731   8.639   3.871
11904TIP3    H235590   0.583   8.653   3.896
11905TIP3   OH235591   6.186   3.127   1.180
11905TIP3    H135592   6.257   3.190   1.190
11905TIP3    H235593   6.206   3.081   1.099
11906TIP3   OH235594   1.746   8.862   6.972
11906TIP3    H135595   1.800   8.783   6.973
11906TIP3    H235596   1.774   8.910   6.894
11907TIP3   OH235597   8.617   6.592   5.062
11907TIP3    H135598   8.577   6.646   5.130
11907TIP3    H235599   8.631   6.507   5.102
11908TIP3   OH235600   5.585   1.285   0.192
11908TIP3    H135601   5.608   1.343   0.264
11908TIP3    H235602   5.489   1.282   0.193
11909TIP3   OH235603   2.651   2.081   6.323
11909TIP3    H135604   2.654   2.128   6.240
11909TIP3    H235605   2.625   2.147   6.388
11910TIP3   OH235606   1.671   8.734   1.608
11910TIP3    H135607   1.643   8.646   1.582
11910TIP3    H235608   1.753   8.721   1.655
11911TIP3   OH235609   0.940   5.600   4.507
11911TIP3    H135610   0.850   5.586   4.536
11911TIP3    H235611   0.981   5.514   4.512
11912TIP3   OH235612   9.172   0.562   6.405
11912TIP3    H135613   9.234   0.535   6.473
11912TIP3    H235614   9.098   0.502   6.415
11913TIP3   OH235615   0.537   0.998   7.102
11913TIP3    H135616   0.631   0.979   7.101
11913TIP3    H235617   0.529   1.079   7.053
11914TIP3   OH235618   3.545   6.570   7.649
11914TIP3    H135619   3.467   6.530   7.611
11914TIP3    H235620   3.589   6.612   7.575
11915TIP3   OH235621   8.413   1.484   6.017
11915TIP3    H135622   8.373   1.460   5.933
11915TIP3    H235623   8.468   1.560   5.997
11916TIP3   OH235624   4.577   3.076   2.188
11916TIP3    H135625   4.635   3.000   2.185
11916TIP3    H235626   4.597   3.125   2.108
11917TIP3   OH235627   3.141   4.614   0.977
11917TIP3    H135628   3.057   4.637   0.937
11917TIP3    H235629   3.120   4.545   1.040
11918TIP3   OH235630   7.712   7.646   7.689
11918TIP3    H135631   7.669   7.623   7.772
11918TIP3    H235632   7.686   7.736   7.673
11919TIP3   OH235633   3.589   1.064   5.467
11919TIP3    H135634   3.504   1.080   5.507
11919TIP3    H235635   3.609   0.973   5.489
11920TIP3   OH235636   8.230   2.707   2.346
11920TIP3    H135637   8.174   2.690   2.270
11920TIP3    H235638   8.187   2.779   2.391
11921TIP3   OH235639   7.212   7.941   5.599
11921TIP3    H135640   7.229   7.927   5.506
11921TIP3    H235641   7.238   8.031   5.614
11922TIP3   OH235642   1.763   8.937   3.400
11922TIP3    H135643   1.678   8.974   3.426
11922TIP3    H235644   1.749   8.903   3.312
11923TIP3   OH235645   6.399   3.627   2.530
11923TIP3    H135646   6.495   3.623   2.527
11923TIP3    H235647   6.372   3.619   2.438
11924TIP3   OH235648   0.766   4.459   2.571
11924TIP3    H135649   0.712   4.495   2.501
11924TIP3    H235650   0.823   4.396   2.527
11925TIP3   OH235651   2.027   7.173   3.427
11925TIP3    H135652   2.114   7.189   3.391
11925TIP3    H235653   1.976   7.250   3.402
11926TIP3   OH235654   1.785   2.357   3.753
11926TIP3    H135655   1.704   2.397   3.721
11926TIP3    H235656   1.853   2.421   3.733
11927TIP3   OH235657   4.751   4.849   5.307
11927TIP3    H135658   4.733   4.821   5.397
11927TIP3    H235659   4.801   4.930   5.316
11928TIP3   OH235660   7.243   7.020   5.667
11928TIP3    H135661   7.299   7.049   5.738
11928TIP3    H235662   7.301   6.973   5.607
11929TIP3   OH235663   4.731   7.636   1.127
11929TIP3    H135664   4.724   7.544   1.150
11929TIP3    H235665   4.641   7.667   1.124
11930TIP3   OH235666   0.203   4.396   0.699
11930TIP3    H135667   0.119   4.438   0.678
11930TIP3    H235668   0.180   4.306   0.722
11931TIP3   OH235669   5.773   3.846   5.921
11931TIP3    H135670   5.742   3.937   5.915
11931TIP3    H235671   5.869   3.854   5.924
11932TIP3   OH235672   3.666   1.729   0.026
11932TIP3    H135673   3.730   1.711  -0.042
11932TIP3    H235674   3.599   1.661   0.015
11933TIP3   OH235675   0.100   6.396   0.473
11933TIP3    H135676   0.131   6.370   0.386
11933TIP3    H235677   0.145   6.337   0.533
11934TIP3   OH235678   0.298   2.360   0.604
11934TIP3    H135679   0.210   2.387   0.631
11934TIP3    H235680   0.289   2.338   0.512
11935TIP3   OH235681   5.980   6.044   2.407
11935TIP3    H135682   6.007   6.096   2.331
11935TIP3    H235683   5.913   5.985   2.373
11936TIP3   OH235684   8.125   0.386   0.356
11936TIP3    H135685   8.167   0.464   0.393
11936TIP3    H235686   8.040   0.417   0.325
11937TIP3   OH235687   8.063   6.868   0.713
11937TIP3    H135688   8.149   6.896   0.683
11937TIP3    H235689   8.014   6.850   0.632
11938TIP3   OH235690   4.293   1.049   6.705
11938TIP3    H135691   4.205   1.086   6.693
11938TIP3    H235692   4.313   1.066   6.797
11939TIP3   OH235693   3.338   2.713   2.674
11939TIP3    H135694   3.250   2.744   2.695
11939TIP3    H235695   3.352   2.741   2.583
11940TIP3   OH235696   0.289   3.496   4.732
11940TIP3    H135697   0.328   3.505   4.819
11940TIP3    H235698   0.198   3.471   4.750
11941TIP3   OH235699   1.446   4.383   7.014
11941TIP3    H135700   1.371   4.434   7.043
11941TIP3    H235701   1.513   4.399   7.080
11942TIP3   OH235702   6.979   5.017   3.700
11942TIP3    H135703   7.048   4.983   3.644
11942TIP3    H235704   6.936   5.084   3.648
11943TIP3   OH235705   8.878   3.121   4.361
11943TIP3    H135706   8.889   3.101   4.454
11943TIP3    H235707   8.816   3.056   4.329
11944TIP3   OH235708   0.282   6.199   5.796
11944TIP3    H135709   0.198   6.159   5.773
11944TIP3    H235710   0.269   6.293   5.785
11945TIP3   OH235711   1.385   3.131   0.459
11945TIP3    H135712   1.295   3.127   0.426
11945TIP3    H235713   1.392   3.057   0.519
11946TIP3   OH235714   4.022   2.215   2.922
11946TIP3    H135715   3.997   2.182   2.835
11946TIP3    H235716   3.972   2.296   2.932
11947TIP3   OH235717   7.563   7.550   3.927
11947TIP3    H135718   7.609   7.628   3.896
11947TIP3    H235719   7.556   7.493   3.850
11948TIP3   OH235720   6.192   7.789   4.425
11948TIP3    H135721   6.274   7.829   4.395
11948TIP3    H235722   6.191   7.703   4.383
11949TIP3   OH235723   7.480   2.404   6.272
11949TIP3    H135724   7.491   2.444   6.358
11949TIP3    H235725   7.559   2.351   6.261
11950TIP3   OH235726   2.593   1.793   4.350
11950TIP3    H135727   2.522   1.734   4.374
11950TIP3    H235728   2.670   1.737   4.341
11951TIP3   OH235729   6.822   4.456   2.316
11951TIP3    H135730   6.752   4.401   2.352
11951TIP3    H235731   6.885   4.464   2.387
11952TIP3   OH235732   1.791   5.163   0.971
11952TIP3    H135733   1.782   5.068   0.979
11952TIP3    H235734   1.704   5.193   0.944
11953TIP3   OH235735   6.749   8.489   4.305
11953TIP3    H135736   6.816   8.557   4.309
11953TIP3    H235737   6.776   8.424   4.370
11954TIP3   OH235738   3.137   6.973   2.444
11954TIP3    H135739   3.224   6.943   2.416
11954TIP3    H235740   3.078   6.940   2.376
11955TIP3   OH235741   8.689   6.929   1.131
11955TIP3    H135742   8.719   6.842   1.157
11955TIP3    H235743   8.594   6.927   1.145
11956TIP3   OH235744   0.433   4.376   4.793
11956TIP3    H135745   0.501   4.415   4.846
11956TIP3    H235746   0.355   4.377   4.848
11957TIP3   OH235747   2.642   1.180   0.769
11957TIP3    H135748   2.636   1.254   0.709
11957TIP3    H235749   2.736   1.167   0.782
11958TIP3   OH235750   2.421   0.290   0.643
11958TIP3    H135751   2.516   0.289   0.636
11958TIP3    H235752   2.398   0.383   0.637
11959TIP3   OH235753   4.443   4.659  -0.003
11959TIP3    H135754   4.440   4.636   0.089
11959TIP3    H235755   4.524   4.709  -0.013
11960TIP3   OH235756   5.255   4.502   7.548
11960TIP3    H135757   5.209   4.501   7.632
11960TIP3    H235758   5.303   4.584   7.548
11961TIP3   OH235759   9.158   1.695   6.234
11961TIP3    H135760   9.191   1.624   6.178
11961TIP3    H235761   9.231   1.716   6.292
11962TIP3   OH235762   2.577   1.644   6.065
11962TIP3    H135763   2.560   1.560   6.107
11962TIP3    H235764   2.575   1.707   6.137
11963TIP3   OH235765   5.427   3.950   7.528
11963TIP3    H135766   5.339   3.919   7.504
11963TIP3    H235767   5.447   4.017   7.462
11964TIP3   OH235768   4.994   7.061   0.683
11964TIP3    H135769   5.061   6.992   0.684
11964TIP3    H235770   4.946   7.045   0.602
11965TIP3   OH235771   6.316   8.131   0.148
11965TIP3    H135772   6.399   8.121   0.194
11965TIP3    H235773   6.251   8.139   0.218
11966TIP3   OH235774   3.223   1.914   7.800
11966TIP3    H135775   3.297   1.906   7.740
11966TIP3    H235776   3.173   1.833   7.788
11967TIP3   OH235777   8.811   2.347   2.979
11967TIP3    H135778   8.858   2.353   3.062
11967TIP3    H235779   8.879   2.339   2.912
11968TIP3   OH235780   4.082   4.457   0.480
11968TIP3    H135781   4.094   4.367   0.449
11968TIP3    H235782   4.168   4.482   0.515
11969TIP3   OH235783   0.052   1.707   7.503
11969TIP3    H135784   0.045   1.617   7.473
11969TIP3    H235785  -0.037   1.731   7.528
11970TIP3   OH235786   3.682   4.281   4.773
11970TIP3    H135787   3.776   4.266   4.762
11970TIP3    H235788   3.648   4.199   4.807
11971TIP3   OH235789   0.954   3.968   3.483
11971TIP3    H135790   0.934   4.007   3.568
11971TIP3    H235791   1.017   4.029   3.444
11972TIP3   OH235792   8.263   4.127   7.496
11972TIP3    H135793   8.265   4.112   7.401
11972TIP3    H235794   8.328   4.195   7.511
11973TIP3   OH235795   4.801   8.455   2.007
11973TIP3    H135796   4.734   8.475   2.072
11973TIP3    H235797   4.873   8.515   2.028
11974TIP3   OH235798   1.758   3.332   4.836
11974TIP3    H135799   1.688   3.280   4.876
11974TIP3    H235800   1.725   3.422   4.840
11975TIP3   OH235801   6.726   5.802   6.581
11975TIP3    H135802   6.675   5.749   6.642
11975TIP3    H235803   6.691   5.890   6.590
11976TIP3   OH235804   8.301   2.393   7.543
11976TIP3    H135805   8.268   2.347   7.465
11976TIP3    H235806   8.357   2.329   7.586
11977TIP3   OH235807   8.423   2.791   7.804
11977TIP3    H135808   8.362   2.831   7.741
11977TIP3    H235809   8.473   2.728   7.752
11978TIP3   OH235810   8.064   6.564   1.492
11978TIP3    H135811   8.038   6.543   1.403
11978TIP3    H235812   8.101   6.482   1.526
11979TIP3   OH235813   5.741   3.352   1.835
11979TIP3    H135814   5.648   3.340   1.813
11979TIP3    H235815   5.760   3.282   1.897
11980TIP3   OH235816   3.862   5.918   0.277
11980TIP3    H135817   3.860   5.998   0.330
11980TIP3    H235818   3.898   5.947   0.193
11981TIP3   OH235819   7.781   0.100   3.229
11981TIP3    H135820   7.763   0.159   3.156
11981TIP3    H235821   7.695   0.077   3.263
11982TIP3   OH235822   5.762   4.914   6.196
11982TIP3    H135823   5.823   4.883   6.263
11982TIP3    H235824   5.750   5.007   6.215
11983TIP3   OH235825   4.449   4.861   4.682
11983TIP3    H135826   4.447   4.837   4.775
11983TIP3    H235827   4.421   4.781   4.637
11984TIP3   OH235828   5.205   0.173   2.774
11984TIP3    H135829   5.208   0.088   2.817
11984TIP3    H235830   5.258   0.230   2.830
11985TIP3   OH235831   8.411   1.259   4.790
11985TIP3    H135832   8.430   1.266   4.883
11985TIP3    H235833   8.473   1.318   4.748
11986TIP3   OH235834   2.075   4.027   5.293
11986TIP3    H135835   2.006   4.075   5.339
11986TIP3    H235836   2.069   3.938   5.327
11987TIP3   OH235837   8.369   5.164   0.509
11987TIP3    H135838   8.315   5.214   0.447
11987TIP3    H235839   8.458   5.175   0.476
11988TIP3   OH235840   9.088   3.928   3.515
11988TIP3    H135841   9.053   4.017   3.521
11988TIP3    H235842   9.137   3.916   3.597
11989TIP3   OH235843   0.753   3.035   5.318
11989TIP3    H135844   0.665   3.067   5.299
11989TIP3    H235845   0.808   3.114   5.316
11990TIP3   OH235846   8.822   5.071   7.508
11990TIP3    H135847   8.821   5.038   7.598
11990TIP3    H235848   8.863   5.001   7.457
11991TIP3   OH235849   3.205   3.025   0.172
11991TIP3    H135850   3.216   3.063   0.084
11991TIP3    H235851   3.115   2.992   0.172
11992TIP3   OH235852   4.272   5.225   4.403
11992TIP3    H135853   4.278   5.265   4.490
11992TIP3    H235854   4.315   5.288   4.345
11993TIP3   OH235855   2.027   1.766   2.168
11993TIP3    H135856   2.098   1.709   2.139
11993TIP3    H235857   2.014   1.743   2.260
11994TIP3   OH235858   1.272   4.468   5.500
11994TIP3    H135859   1.352   4.458   5.553
11994TIP3    H235860   1.280   4.555   5.461
11995TIP3   OH235861   4.265   3.031   0.773
11995TIP3    H135862   4.310   3.039   0.856
11995TIP3    H235863   4.276   2.939   0.748
11996TIP3   OH235864   1.735   2.564   4.712
11996TIP3    H135865   1.763   2.647   4.672
11996TIP3    H235866   1.757   2.575   4.805
11997TIP3   OH235867   0.440   8.499   2.421
11997TIP3    H135868   0.372   8.551   2.379
11997TIP3    H235869   0.396   8.453   2.492
11998TIP3   OH235870   7.942   3.957   1.474
11998TIP3    H135871   7.994   4.035   1.456
11998TIP3    H235872   7.948   3.945   1.568
11999TIP3   OH235873   7.389   6.606   7.660
11999TIP3    H135874   7.388   6.613   7.564
11999TIP3    H235875   7.313   6.658   7.688
12000TIP3   OH235876   8.443   4.410   5.249
12000TIP3    H135877   8.367   4.406   5.190
12000TIP3    H235878   8.405   4.409   5.337
12001TIP3   OH235879   3.582   8.027   1.653
12001TIP3    H135880   3.545   8.093   1.713
12001TIP3    H235881   3.675   8.026   1.675
12002TIP3   OH235882   1.030   0.900   0.553
12002TIP3    H135883   0.994   0.984   0.581
12002TIP3    H235884   0.954   0.849   0.526
12003TIP3   OH235885   3.909   8.898   2.121
12003TIP3    H135886   3.932   8.893   2.028
12003TIP3    H235887   3.821   8.935   2.121
12004TIP3   OH235888   4.375   1.856   7.009
12004TIP3    H135889   4.403   1.774   6.970
12004TIP3    H235890   4.292   1.836   7.052
12005TIP3   OH235891   7.798   8.876   4.491
12005TIP3    H135892   7.702   8.885   4.493
12005TIP3    H235893   7.824   8.921   4.411
12006TIP3   OH235894   6.674   8.842   3.560
12006TIP3    H135895   6.754   8.810   3.519
12006TIP3    H235896   6.677   8.810   3.650
12007TIP3   OH235897   1.134   3.344   5.725
12007TIP3    H135898   1.122   3.257   5.762
12007TIP3    H235899   1.229   3.356   5.721
12008TIP3   OH235900   5.260   1.370   2.592
12008TIP3    H135901   5.215   1.387   2.675
12008TIP3    H235902   5.234   1.281   2.568
12009TIP3   OH235903   3.970   0.084   2.426
12009TIP3    H135904   4.001   0.142   2.497
12009TIP3    H235905   3.956   0.000   2.469
12010TIP3   OH235906   9.075   2.847   1.747
12010TIP3    H135907   9.055   2.939   1.732
12010TIP3    H235908   9.168   2.845   1.769
12011TIP3   OH235909   5.617   8.601   2.378
12011TIP3    H135910   5.610   8.579   2.285
12011TIP3    H235911   5.652   8.690   2.379
12012TIP3   OH235912   9.158   6.189   2.908
12012TIP3    H135913   9.119   6.270   2.940
12012TIP3    H235914   9.136   6.187   2.815
12013TIP3   OH235915   1.246   7.015   3.257
12013TIP3    H135916   1.325   6.978   3.218
12013TIP3    H235917   1.195   7.048   3.183
12014TIP3   OH235918   4.338   8.600   5.226
12014TIP3    H135919   4.432   8.605   5.244
12014TIP3    H235920   4.308   8.691   5.231
12015TIP3   OH235921   2.978   3.462   7.009
12015TIP3    H135922   2.998   3.525   7.079
12015TIP3    H235923   2.934   3.390   7.053
12016TIP3   OH235924   0.322   1.228   0.935
12016TIP3    H135925   0.300   1.135   0.929
12016TIP3    H235926   0.417   1.230   0.947
12017TIP3   OH235927   5.149   0.699   0.344
12017TIP3    H135928   5.111   0.742   0.267
12017TIP3    H235929   5.160   0.769   0.408
12018TIP3   OH235930   6.587   1.059   4.003
12018TIP3    H135931   6.646   1.025   4.070
12018TIP3    H235932   6.635   1.049   3.921
12019TIP3   OH235933   5.467   6.986   3.600
12019TIP3    H135934   5.516   7.068   3.597
12019TIP3    H235935   5.451   6.972   3.694
12020TIP3   OH235936   2.087   1.055   7.000
12020TIP3    H135937   2.026   1.016   7.063
12020TIP3    H235938   2.060   1.147   6.994
12021TIP3   OH235939   3.412   3.970   6.762
12021TIP3    H135940   3.447   4.029   6.695
12021TIP3    H235941   3.317   3.980   6.756
12022TIP3   OH235942   9.323   3.032   0.393
12022TIP3    H135943   9.349   3.022   0.302
12022TIP3    H235944   9.299   2.944   0.421
12023TIP3   OH235945   3.239   0.757   7.728
12023TIP3    H135946   3.298   0.786   7.659
12023TIP3    H235947   3.286   0.773   7.809
12024TIP3   OH235948   4.838   2.264   6.979
12024TIP3    H135949   4.876   2.290   7.064
12024TIP3    H235950   4.867   2.174   6.966
12025TIP3   OH235951   1.833   7.513   2.166
12025TIP3    H135952   1.846   7.599   2.125
12025TIP3    H235953   1.743   7.490   2.145
12026TIP3   OH235954   0.520   8.125   5.450
12026TIP3    H135955   0.614   8.128   5.435
12026TIP3    H235956   0.493   8.217   5.453
12027TIP3   OH235957   8.627   5.136   6.244
12027TIP3    H135958   8.597   5.156   6.333
12027TIP3    H235959   8.564   5.180   6.187
12028TIP3   OH235960   9.045   6.155   1.209
12028TIP3    H135961   8.974   6.095   1.188
12028TIP3    H235962   9.006   6.220   1.267
12029TIP3   OH235963   6.030   0.171   2.730
12029TIP3    H135964   5.945   0.145   2.695
12029TIP3    H235965   6.072   0.216   2.657
12030TIP3   OH235966   0.297   6.859   7.002
12030TIP3    H135967   0.322   6.776   6.961
12030TIP3    H235968   0.204   6.848   7.022
12031TIP3   OH235969   4.908   7.898   3.896
12031TIP3    H135970   4.881   7.990   3.907
12031TIP3    H235971   4.913   7.864   3.985
12032TIP3   OH235972   5.366   6.334   1.595
12032TIP3    H135973   5.424   6.387   1.649
12032TIP3    H235974   5.359   6.250   1.642
12033TIP3   OH235975   7.544   5.373   4.948
12033TIP3    H135976   7.562   5.297   4.893
12033TIP3    H235977   7.454   5.361   4.976
12034TIP3   OH235978   9.324   4.286   1.687
12034TIP3    H135979   9.416   4.261   1.678
12034TIP3    H235980   9.278   4.202   1.691
12035TIP3   OH235981   9.021   8.433   4.050
12035TIP3    H135982   9.086   8.395   4.109
12035TIP3    H235983   8.939   8.389   4.073
12036TIP3   OH235984   2.319   2.969   3.642
12036TIP3    H135985   2.388   2.938   3.701
12036TIP3    H235986   2.326   2.912   3.565
12037TIP3   OH235987   7.537   9.009   2.799
12037TIP3    H135988   7.575   8.942   2.857
12037TIP3    H235989   7.443   8.991   2.801
12038TIP3   OH235990   6.835   5.391   7.270
12038TIP3    H135991   6.864   5.375   7.359
12038TIP3    H235992   6.890   5.334   7.216
12039TIP3   OH235993   4.392   2.174   4.875
12039TIP3    H135994   4.349   2.189   4.959
12039TIP3    H235995   4.439   2.092   4.885
12040TIP3   OH235996   0.874   5.001   5.543
12040TIP3    H135997   0.866   5.002   5.638
12040TIP3    H235998   0.897   4.910   5.522
12041TIP3   OH235999   6.659   7.326   7.570
12041TIP3    H136000   6.733   7.376   7.534
12041TIP3    H236001   6.680   7.315   7.662
12042TIP3   OH236002   5.799   5.867   1.577
12042TIP3    H136003   5.784   5.903   1.664
12042TIP3    H236004   5.835   5.940   1.527
12043TIP3   OH236005   6.200   2.550   1.042
12043TIP3    H136006   6.155   2.631   1.017
12043TIP3    H236007   6.166   2.530   1.130
12044TIP3   OH236008   4.293   3.609   3.610
12044TIP3    H136009   4.355   3.637   3.542
12044TIP3    H236010   4.237   3.686   3.624
12045TIP3   OH236011   5.806   8.099   0.901
12045TIP3    H136012   5.869   8.054   0.845
12045TIP3    H236013   5.763   8.028   0.950
12046TIP3   OH236014   5.258   5.448   0.308
12046TIP3    H136015   5.309   5.508   0.364
12046TIP3    H236016   5.245   5.370   0.362
12047TIP3   OH236017   9.410   4.363   3.488
12047TIP3    H136018   9.485   4.376   3.430
12047TIP3    H236019   9.445   4.314   3.563
12048TIP3   OH236020   5.377   2.921   1.683
12048TIP3    H136021   5.381   2.965   1.598
12048TIP3    H236022   5.339   2.986   1.742
12049TIP3   OH236023   7.470   4.123   2.574
12049TIP3    H136024   7.407   4.097   2.506
12049TIP3    H236025   7.524   4.190   2.532
12050TIP3   OH236026   2.097   8.691   1.204
12050TIP3    H136027   2.037   8.663   1.135
12050TIP3    H236028   2.092   8.787   1.202
12051TIP3   OH236029   6.316   7.127   7.158
12051TIP3    H136030   6.398   7.109   7.205
12051TIP3    H236031   6.341   7.126   7.065
12052TIP3   OH236032   0.230   2.379   3.999
12052TIP3    H136033   0.248   2.469   3.971
12052TIP3    H236034   0.157   2.387   4.060
12053TIP3   OH236035   4.194   4.380   7.085
12053TIP3    H136036   4.235   4.456   7.044
12053TIP3    H236037   4.101   4.388   7.062
12054TIP3   OH236038   1.845   0.558   1.785
12054TIP3    H136039   1.826   0.596   1.871
12054TIP3    H236040   1.862   0.633   1.729
12055TIP3   OH236041   6.194   8.728   4.890
12055TIP3    H136042   6.187   8.638   4.857
12055TIP3    H236043   6.171   8.783   4.815
12056TIP3   OH236044   6.644   6.893   3.470
12056TIP3    H136045   6.569   6.872   3.526
12056TIP3    H236046   6.695   6.956   3.520
12057TIP3   OH236047   8.521   1.760   3.841
12057TIP3    H136048   8.516   1.827   3.773
12057TIP3    H236049   8.432   1.726   3.848
12058TIP3   OH236050   5.931   7.311   6.720
12058TIP3    H136051   5.964   7.401   6.714
12058TIP3    H236052   5.950   7.285   6.810
12059TIP3   OH236053   3.872   0.912   1.528
12059TIP3    H136054   3.928   0.844   1.491
12059TIP3    H236055   3.901   0.920   1.618
12060TIP3   OH236056   0.526   8.334   4.524
12060TIP3    H136057   0.469   8.316   4.450
12060TIP3    H236058   0.610   8.295   4.500
12061TIP3   OH236059   0.515   0.337   5.566
12061TIP3    H136060   0.441   0.344   5.505
12061TIP3    H236061   0.478   0.362   5.651
12062TIP3   OH236062   2.086   7.033   3.125
12062TIP3    H136063   2.162   7.046   3.182
12062TIP3    H236064   2.039   6.959   3.163
12063TIP3   OH236065   1.008   8.314   4.354
12063TIP3    H136066   0.981   8.226   4.379
12063TIP3    H236067   0.934   8.370   4.377
12064TIP3   OH236068   4.597   5.056   5.633
12064TIP3    H136069   4.577   4.965   5.610
12064TIP3    H236070   4.515   5.103   5.618
12065TIP3   OH236071   6.552   8.671   3.893
12065TIP3    H136072   6.647   8.664   3.883
12065TIP3    H236073   6.517   8.653   3.806
12066TIP3   OH236074   0.249   1.902   2.949
12066TIP3    H136075   0.234   1.811   2.925
12066TIP3    H236076   0.205   1.953   2.880
12067TIP3   OH236077   7.881   1.337   0.250
12067TIP3    H136078   7.952   1.400   0.257
12067TIP3    H236079   7.804   1.390   0.227
12068TIP3   OH236080   6.537   6.638   0.462
12068TIP3    H136081   6.615   6.604   0.506
12068TIP3    H236082   6.513   6.569   0.399
12069TIP3   OH236083   2.509   6.486   2.005
12069TIP3    H136084   2.541   6.571   1.973
12069TIP3    H236085   2.433   6.468   1.951
12070TIP3   OH236086   2.527   3.827   0.665
12070TIP3    H136087   2.555   3.880   0.740
12070TIP3    H236088   2.560   3.874   0.588
12071TIP3   OH236089   4.835   1.521   5.499
12071TIP3    H136090   4.828   1.427   5.512
12071TIP3    H236091   4.834   1.558   5.587
12072TIP3   OH236092   3.231   0.705   5.577
12072TIP3    H136093   3.323   0.728   5.572
12072TIP3    H236094   3.228   0.610   5.566
12073TIP3   OH236095   2.607   7.516   4.718
12073TIP3    H136096   2.664   7.444   4.690
12073TIP3    H236097   2.536   7.472   4.765
12074TIP3   OH236098   2.782   8.629   5.237
12074TIP3    H136099   2.789   8.720   5.267
12074TIP3    H236100   2.871   8.595   5.244
12075TIP3   OH236101   4.208   0.155   2.275
12075TIP3    H136102   4.188   0.248   2.274
12075TIP3    H236103   4.131   0.114   2.315
12076TIP3   OH236104   1.953   4.510   2.910
12076TIP3    H136105   1.964   4.418   2.935
12076TIP3    H236106   1.873   4.537   2.956
12077TIP3   OH236107   7.994   7.058   1.229
12077TIP3    H136108   7.965   7.028   1.315
12077TIP3    H236109   7.913   7.076   1.181
12078TIP3   OH236110   5.043   8.243   7.068
12078TIP3    H136111   5.084   8.290   7.141
12078TIP3    H236112   5.111   8.240   7.000
12079TIP3   OH236113   2.680   4.718   1.166
12079TIP3    H136114   2.774   4.720   1.187
12079TIP3    H236115   2.675   4.754   1.078
12080TIP3   OH236116   5.426   1.062   1.645
12080TIP3    H136117   5.393   1.015   1.720
12080TIP3    H236118   5.471   0.996   1.592
12081TIP3   OH236119   1.684   1.675   2.308
12081TIP3    H136120   1.643   1.597   2.269
12081TIP3    H236121   1.756   1.640   2.361
12082TIP3   OH236122   7.383   0.851   6.143
12082TIP3    H136123   7.461   0.905   6.130
12082TIP3    H236124   7.398   0.806   6.226
12083TIP3   OH236125   9.214   0.163   2.786
12083TIP3    H136126   9.138   0.117   2.822
12083TIP3    H236127   9.230   0.235   2.847
12084TIP3   OH236128   2.663   4.507   7.228
12084TIP3    H136129   2.663   4.415   7.255
12084TIP3    H236130   2.623   4.507   7.141
12085TIP3   OH236131   1.746   7.398   0.668
12085TIP3    H136132   1.710   7.475   0.623
12085TIP3    H236133   1.670   7.343   0.686
12086TIP3   OH236134   0.665   5.320   5.654
12086TIP3    H136135   0.587   5.347   5.702
12086TIP3    H236136   0.687   5.235   5.692
12087TIP3   OH236137   6.997   5.793   6.689
12087TIP3    H136138   6.906   5.769   6.671
12087TIP3    H236139   7.003   5.885   6.663
12088TIP3   OH236140   5.267   8.011   3.506
12088TIP3    H136141   5.209   8.033   3.580
12088TIP3    H236142   5.235   8.065   3.434
12089TIP3   OH236143   2.050   0.763   0.255
12089TIP3    H136144   2.081   0.801   0.173
12089TIP3    H236145   1.957   0.748   0.242
12090TIP3   OH236146   9.165   1.051   3.580
12090TIP3    H136147   9.106   1.006   3.641
12090TIP3    H236148   9.107   1.099   3.522
12091TIP3   OH236149   8.626   8.402   0.365
12091TIP3    H136150   8.563   8.463   0.327
12091TIP3    H236151   8.606   8.402   0.459
12092TIP3   OH236152   5.203   6.560   6.400
12092TIP3    H136153   5.170   6.587   6.314
12092TIP3    H236154   5.298   6.560   6.390
12093TIP3   OH236155   9.173   4.536   4.853
12093TIP3    H136156   9.261   4.541   4.817
12093TIP3    H236157   9.133   4.620   4.832
12094TIP3   OH236158   1.767   1.996   6.012
12094TIP3    H136159   1.682   1.999   6.056
12094TIP3    H236160   1.793   2.088   6.003
12095TIP3   OH236161   3.705   5.171   3.420
12095TIP3    H136162   3.631   5.147   3.364
12095TIP3    H236163   3.782   5.163   3.363
12096TIP3   OH236164   4.308   1.423   4.898
12096TIP3    H136165   4.331   1.488   4.964
12096TIP3    H236166   4.392   1.396   4.861
12097TIP3   OH236167   1.552   0.009   4.294
12097TIP3    H136168   1.609   0.021   4.217
12097TIP3    H236169   1.594   0.061   4.362
12098TIP3   OH236170   3.765   2.137   0.237
12098TIP3    H136171   3.739   2.193   0.164
12098TIP3    H236172   3.801   2.059   0.195
12099TIP3   OH236173   6.699   4.790   7.418
12099TIP3    H136174   6.683   4.718   7.357
12099TIP3    H236175   6.621   4.845   7.411
12100TIP3   OH236176   6.927   2.096   6.180
12100TIP3    H136177   6.901   2.146   6.102
12100TIP3    H236178   6.892   2.008   6.165
12101TIP3   OH236179   2.035   3.628   2.341
12101TIP3    H136180   2.081   3.680   2.407
12101TIP3    H236181   1.950   3.673   2.330
12102TIP3   OH236182   6.606   2.143   6.787
12102TIP3    H136183   6.533   2.192   6.751
12102TIP3    H236184   6.609   2.169   6.879
12103TIP3   OH236185   7.890   0.415   4.029
12103TIP3    H136186   7.921   0.436   4.117
12103TIP3    H236187   7.964   0.437   3.972
12104TIP3   OH236188   4.648   5.880   7.518
12104TIP3    H136189   4.566   5.853   7.559
12104TIP3    H236190   4.626   5.886   7.425
12105TIP3   OH236191   4.135   2.531   4.149
12105TIP3    H136192   4.206   2.484   4.193
12105TIP3    H236193   4.133   2.494   4.061
12106TIP3   OH236194   0.381   2.698   3.056
12106TIP3    H136195   0.325   2.622   3.069
12106TIP3    H236196   0.369   2.750   3.136
12107TIP3   OH236197   0.066   7.795   1.467
12107TIP3    H136198   0.090   7.809   1.559
12107TIP3    H236199   0.131   7.844   1.418
12108TIP3   OH236200   1.570   7.913   3.224
12108TIP3    H136201   1.617   7.868   3.294
12108TIP3    H236202   1.598   8.004   3.230
12109TIP3   OH236203   9.384   3.088   3.924
12109TIP3    H136204   9.452   3.085   3.857
12109TIP3    H236205   9.365   3.181   3.936
12110TIP3   OH236206   4.598   6.243   2.437
12110TIP3    H136207   4.616   6.151   2.419
12110TIP3    H236208   4.525   6.265   2.379
12111TIP3   OH236209   2.179   6.058   5.782
12111TIP3    H136210   2.129   6.118   5.837
12111TIP3    H236211   2.205   5.987   5.840
12112TIP3   OH236212   7.621   2.296   3.579
12112TIP3    H136213   7.545   2.248   3.612
12112TIP3    H236214   7.602   2.388   3.600
12113TIP3   OH236215   4.203   7.541   0.139
12113TIP3    H136216   4.166   7.452   0.143
12113TIP3    H236217   4.130   7.596   0.113
12114TIP3   OH236218   0.882   4.798   1.346
12114TIP3    H136219   0.952   4.863   1.358
12114TIP3    H236220   0.813   4.825   1.406
12115TIP3   OH236221   7.583   1.036   6.997
12115TIP3    H136222   7.657   1.016   6.940
12115TIP3    H236223   7.525   0.960   6.988
12116TIP3   OH236224   9.081   5.673   7.692
12116TIP3    H136225   9.024   5.615   7.743
12116TIP3    H236226   9.020   5.728   7.642
12117TIP3   OH236227   0.853   0.737   4.114
12117TIP3    H136228   0.758   0.729   4.114
12117TIP3    H236229   0.870   0.828   4.139
12118TIP3   OH236230   4.201   7.776   6.936
12118TIP3    H136231   4.207   7.684   6.913
12118TIP3    H236232   4.291   7.807   6.935
12119TIP3   OH236233   1.484   6.033   6.975
12119TIP3    H136234   1.519   5.949   6.945
12119TIP3    H236235   1.537   6.098   6.930
12120TIP3   OH236236   4.424   0.415   0.576
12120TIP3    H136237   4.498   0.355   0.587
12120TIP3    H236238   4.456   0.480   0.513
12121TIP3   OH236239   3.837   0.871   0.973
12121TIP3    H136240   3.821   0.853   0.880
12121TIP3    H236241   3.754   0.906   1.006
12122TIP3   OH236242   8.100   5.978   0.231
12122TIP3    H136243   8.149   5.987   0.313
12122TIP3    H236244   8.090   5.884   0.219
12123TIP3   OH236245   1.980   7.418   7.680
12123TIP3    H136246   2.038   7.491   7.658
12123TIP3    H236247   1.908   7.424   7.618
12124TIP3   OH236248   5.355   1.294   5.253
12124TIP3    H136249   5.391   1.214   5.292
12124TIP3    H236250   5.294   1.327   5.318
12125TIP3   OH236251   8.952   8.324   6.423
12125TIP3    H136252   9.002   8.294   6.499
12125TIP3    H236253   8.864   8.340   6.456
12126TIP3   OH236254   4.787   1.425   6.203
12126TIP3    H136255   4.771   1.429   6.297
12126TIP3    H236256   4.752   1.340   6.176
12127TIP3   OH236257   2.149   4.852   4.843
12127TIP3    H136258   2.194   4.912   4.783
12127TIP3    H236259   2.091   4.802   4.786
12128TIP3   OH236260   3.822   3.207   4.477
12128TIP3    H136261   3.852   3.142   4.540
12128TIP3    H236262   3.764   3.265   4.528
12129TIP3   OH236263   7.672   0.211   6.541
12129TIP3    H136264   7.631   0.296   6.524
12129TIP3    H236265   7.735   0.200   6.470
12130TIP3   OH236266   4.881   7.380   7.048
12130TIP3    H136267   4.930   7.447   7.001
12130TIP3    H236268   4.860   7.420   7.133
12131TIP3   OH236269   6.494   3.211   1.655
12131TIP3    H136270   6.520   3.120   1.666
12131TIP3    H236271   6.401   3.207   1.630
12132TIP3   OH236272   6.039   1.686   6.982
12132TIP3    H136273   5.957   1.671   7.029
12132TIP3    H236274   6.052   1.606   6.930
12133TIP3   OH236275   9.335   8.974   2.779
12133TIP3    H136276   9.417   8.982   2.828
12133TIP3    H236277   9.362   8.974   2.687
12134TIP3   OH236278   0.473   5.276   3.575
12134TIP3    H136279   0.448   5.321   3.494
12134TIP3    H236280   0.553   5.230   3.553
12135TIP3   OH236281   3.855   7.101   0.478
12135TIP3    H136282   3.948   7.110   0.460
12135TIP3    H236283   3.824   7.036   0.414
12136TIP3   OH236284   0.431   4.447   7.811
12136TIP3    H136285   0.336   4.452   7.807
12136TIP3    H236286   0.457   4.411   7.726
12137TIP3   OH236287   1.253   4.290   1.887
12137TIP3    H136288   1.197   4.339   1.946
12137TIP3    H236289   1.202   4.212   1.864
12138TIP3   OH236290   2.557   1.257   1.748
12138TIP3    H136291   2.586   1.180   1.698
12138TIP3    H236292   2.638   1.292   1.785
12139TIP3   OH236293   8.731   1.576   5.743
12139TIP3    H136294   8.678   1.650   5.715
12139TIP3    H236295   8.786   1.610   5.813
12140TIP3   OH236296   3.081   1.176   1.005
12140TIP3    H136297   3.147   1.204   0.941
12140TIP3    H236298   3.069   1.252   1.062
12141TIP3   OH236299   1.505   2.631   0.194
12141TIP3    H136300   1.500   2.650   0.100
12141TIP3    H236301   1.575   2.566   0.201
12142TIP3   OH236302   9.474   5.548   2.766
12142TIP3    H136303   9.469   5.644   2.771
12142TIP3    H236304   9.492   5.531   2.673
12143TIP3   OH236305   8.891   0.287   5.985
12143TIP3    H136306   8.964   0.227   5.997
12143TIP3    H236307   8.832   0.242   5.925
12144TIP3   OH236308   3.835   4.883   7.540
12144TIP3    H136309   3.862   4.848   7.625
12144TIP3    H236310   3.825   4.806   7.485
12145TIP3   OH236311   9.372   5.245   0.495
12145TIP3    H136312   9.467   5.257   0.492
12145TIP3    H236313   9.346   5.236   0.403
12146TIP3   OH236314   8.196   4.129   4.350
12146TIP3    H136315   8.194   4.208   4.296
12146TIP3    H236316   8.111   4.088   4.334
12147TIP3   OH236317   7.883   4.190   3.000
12147TIP3    H136318   7.833   4.243   2.938
12147TIP3    H236319   7.837   4.201   3.084
12148TIP3   OH236320   7.157   4.628   4.703
12148TIP3    H136321   7.156   4.606   4.610
12148TIP3    H236322   7.090   4.572   4.742
12149TIP3   OH236323   0.113   8.160   4.497
12149TIP3    H136324   0.143   8.117   4.417
12149TIP3    H236325   0.126   8.253   4.481
12150TIP3   OH236326   8.617   3.760   3.602
12150TIP3    H136327   8.642   3.668   3.591
12150TIP3    H236328   8.539   3.757   3.657
12151TIP3   OH236329   2.871   2.442   2.074
12151TIP3    H136330   2.824   2.502   2.132
12151TIP3    H236331   2.888   2.492   1.995
12152TIP3   OH236332   7.912   6.585   0.957
12152TIP3    H136333   7.983   6.609   0.898
12152TIP3    H236334   7.898   6.492   0.942
12153TIP3   OH236335   9.522   5.512   2.116
12153TIP3    H136336   9.437   5.539   2.150
12153TIP3    H236337   9.578   5.506   2.194
12154TIP3   OH236338   6.549   5.712   3.358
12154TIP3    H136339   6.525   5.775   3.290
12154TIP3    H236340   6.611   5.758   3.413
12155TIP3   OH236341   4.455   5.072   5.977
12155TIP3    H136342   4.366   5.068   6.012
12155TIP3    H236343   4.470   4.986   5.939
12156TIP3   OH236344   7.983   4.957   4.093
12156TIP3    H136345   8.004   4.923   4.180
12156TIP3    H236346   8.017   4.891   4.033
12157TIP3   OH236347   7.683   2.684   6.260
12157TIP3    H136348   7.635   2.647   6.334
12157TIP3    H236349   7.768   2.709   6.297
12158TIP3   OH236350   8.007   1.866   5.008
12158TIP3    H136351   7.961   1.786   4.981
12158TIP3    H236352   7.947   1.907   5.071
12159TIP3   OH236353   3.832   5.475   4.158
12159TIP3    H136354   3.878   5.518   4.086
12159TIP3    H236355   3.833   5.382   4.135
12160TIP3   OH236356   8.931   3.680   6.993
12160TIP3    H136357   8.880   3.622   6.937
12160TIP3    H236358   9.022   3.659   6.971
12161TIP3   OH236359   5.822   2.197   4.273
12161TIP3    H136360   5.788   2.108   4.277
12161TIP3    H236361   5.863   2.211   4.359
12162TIP3   OH236362   4.635   8.276   3.262
12162TIP3    H136363   4.643   8.184   3.284
12162TIP3    H236364   4.719   8.298   3.221
12163TIP3   OH236365   0.238   5.346   1.982
12163TIP3    H136366   0.333   5.340   1.971
12163TIP3    H236367   0.214   5.429   1.941
12164TIP3   OH236368   3.633   7.426   2.880
12164TIP3    H136369   3.628   7.521   2.887
12164TIP3    H236370   3.723   7.405   2.905
12165TIP3   OH236371   1.085   6.675   2.543
12165TIP3    H136372   1.030   6.651   2.469
12165TIP3    H236373   1.060   6.613   2.613
12166TIP3   OH236374   8.303   0.407   5.748
12166TIP3    H136375   8.234   0.394   5.684
12166TIP3    H236376   8.258   0.406   5.833
12167TIP3   OH236377   4.306   3.408   2.706
12167TIP3    H136378   4.227   3.449   2.741
12167TIP3    H236379   4.323   3.454   2.624
12168TIP3   OH236380   0.304   2.463   5.857
12168TIP3    H136381   0.238   2.402   5.823
12168TIP3    H236382   0.383   2.410   5.867
12169TIP3   OH236383   9.417   6.418   0.340
12169TIP3    H136384   9.405   6.509   0.310
12169TIP3    H236385   9.505   6.416   0.378
12170TIP3   OH236386   7.809   4.059   0.683
12170TIP3    H136387   7.779   4.150   0.688
12170TIP3    H236388   7.893   4.064   0.635
12171TIP3   OH236389   2.944   1.516   5.767
12171TIP3    H136390   2.926   1.557   5.683
12171TIP3    H236391   2.986   1.585   5.819
12172TIP3   OH236392   1.192   4.398   7.126
12172TIP3    H136393   1.179   4.373   7.218
12172TIP3    H236394   1.176   4.317   7.077
12173TIP3   OH236395   4.362   4.492   6.555
12173TIP3    H136396   4.374   4.571   6.608
12173TIP3    H236397   4.415   4.508   6.476
12174TIP3   OH236398   5.021   3.330   7.483
12174TIP3    H136399   5.040   3.315   7.576
12174TIP3    H236400   4.939   3.282   7.468
12175TIP3   OH236401   5.463   3.394   4.812
12175TIP3    H136402   5.518   3.447   4.869
12175TIP3    H236403   5.401   3.350   4.871
12176TIP3   OH236404   2.380   6.109   0.999
12176TIP3    H136405   2.303   6.052   1.002
12176TIP3    H236406   2.437   6.078   1.069
12177TIP3   OH236407   0.172   7.087   4.881
12177TIP3    H136408   0.190   7.017   4.818
12177TIP3    H236409   0.189   7.049   4.966
12178TIP3   OH236410   7.574   0.571   5.494
12178TIP3    H136411   7.570   0.477   5.507
12178TIP3    H236412   7.629   0.582   5.417
12179TIP3   OH236413   6.382   5.482   7.291
12179TIP3    H136414   6.471   5.517   7.289
12179TIP3    H236415   6.327   5.557   7.267
12180TIP3   OH236416   4.538   4.957   0.219
12180TIP3    H136417   4.444   4.938   0.215
12180TIP3    H236418   4.566   4.927   0.305
12181TIP3   OH236419   6.361   7.759   5.083
12181TIP3    H136420   6.347   7.848   5.049
12181TIP3    H236421   6.323   7.702   5.016
12182TIP3   OH236422   6.280   6.190   2.283
12182TIP3    H136423   6.218   6.129   2.244
12182TIP3    H236424   6.276   6.268   2.228
12183TIP3   OH236425   4.835   2.677   4.171
12183TIP3    H136426   4.900   2.617   4.207
12183TIP3    H236427   4.779   2.699   4.246
12184TIP3   OH236428   4.499   2.921   4.904
12184TIP3    H136429   4.552   2.975   4.845
12184TIP3    H236430   4.413   2.965   4.905
12185TIP3   OH236431   0.175   3.491   6.599
12185TIP3    H136432   0.200   3.555   6.665
12185TIP3    H236433   0.179   3.540   6.516
12186TIP3   OH236434   1.424   4.063   3.619
12186TIP3    H136435   1.443   4.157   3.617
12186TIP3    H236436   1.446   4.036   3.708
12187TIP3   OH236437   7.021   7.303   1.207
12187TIP3    H136438   7.061   7.227   1.165
12187TIP3    H236439   7.092   7.367   1.213
12188TIP3   OH236440   6.649   4.351   4.884
12188TIP3    H136441   6.634   4.422   4.946
12188TIP3    H236442   6.727   4.377   4.835
12189TIP3   OH236443   3.197   1.413   0.043
12189TIP3    H136444   3.155   1.422  -0.043
12189TIP3    H236445   3.206   1.319   0.055
12190TIP3   OH236446   1.736   3.413   4.077
12190TIP3    H136447   1.761   3.350   4.144
12190TIP3    H236448   1.819   3.440   4.037
12191TIP3   OH236449   9.507   1.778   4.120
12191TIP3    H136450   9.580   1.724   4.089
12191TIP3    H236451   9.533   1.868   4.100
12192TIP3   OH236452   1.797   8.822   5.048
12192TIP3    H136453   1.773   8.764   5.120
12192TIP3    H236454   1.845   8.893   5.090
12193TIP3   OH236455   0.848   7.527   5.752
12193TIP3    H136456   0.940   7.503   5.760
12193TIP3    H236457   0.838   7.558   5.662
12194TIP3   OH236458   6.286   0.781   1.783
12194TIP3    H136459   6.309   0.714   1.846
12194TIP3    H236460   6.198   0.757   1.753
12195TIP3   OH236461   3.867   2.743   3.070
12195TIP3    H136462   3.813   2.759   2.993
12195TIP3    H236463   3.952   2.715   3.035
12196TIP3   OH236464   6.626   8.167   0.665
12196TIP3    H136465   6.582   8.146   0.582
12196TIP3    H236466   6.696   8.228   0.640
12197TIP3   OH236467   2.651   2.204   6.733
12197TIP3    H136468   2.563   2.240   6.742
12197TIP3    H236469   2.637   2.112   6.710
12198TIP3   OH236470   9.194   4.973   0.355
12198TIP3    H136471   9.143   4.897   0.384
12198TIP3    H236472   9.282   4.939   0.340
12199TIP3   OH236473   5.519   7.940   4.393
12199TIP3    H136474   5.473   7.864   4.359
12199TIP3    H236475   5.535   7.919   4.485
12200TIP3   OH236476   0.138   2.841   2.832
12200TIP3    H136477   0.107   2.851   2.923
12200TIP3    H236478   0.222   2.887   2.831
12201TIP3   OH236479   6.069   1.381   7.235
12201TIP3    H136480   6.084   1.353   7.325
12201TIP3    H236481   6.028   1.305   7.193
12202TIP3   OH236482   5.667   4.642   6.528
12202TIP3    H136483   5.703   4.558   6.499
12202TIP3    H236484   5.742   4.688   6.566
12203TIP3   OH236485   3.179   2.877   2.339
12203TIP3    H136486   3.097   2.830   2.324
12203TIP3    H236487   3.171   2.958   2.288
12204TIP3   OH236488   4.384   4.801   2.146
12204TIP3    H136489   4.428   4.742   2.085
12204TIP3    H236490   4.347   4.744   2.213
12205TIP3   OH236491   8.775   2.164   4.082
12205TIP3    H136492   8.741   2.180   4.170
12205TIP3    H236493   8.753   2.073   4.064
12206TIP3   OH236494   5.961   8.559   7.766
12206TIP3    H136495   5.958   8.631   7.703
12206TIP3    H236496   5.875   8.517   7.759
12207TIP3   OH236497   5.881   4.642   3.825
12207TIP3    H136498   5.944   4.708   3.852
12207TIP3    H236499   5.804   4.692   3.797
12208TIP3   OH236500   2.489   0.476   6.523
12208TIP3    H136501   2.465   0.517   6.606
12208TIP3    H236502   2.573   0.432   6.542
12209TIP3   OH236503   5.302   2.003   1.226
12209TIP3    H136504   5.299   1.959   1.311
12209TIP3    H236505   5.305   2.097   1.248
12210TIP3   OH236506   0.547   8.956   6.278
12210TIP3    H136507   0.566   8.930   6.368
12210TIP3    H236508   0.459   8.995   6.282
12211TIP3   OH236509   8.536   3.527   4.381
12211TIP3    H136510   8.522   3.569   4.296
12211TIP3    H236511   8.599   3.457   4.363
12212TIP3   OH236512   7.472   7.004   7.547
12212TIP3    H136513   7.410   6.981   7.478
12212TIP3    H236514   7.420   7.055   7.609
12213TIP3   OH236515   9.160   1.006   1.609
12213TIP3    H136516   9.184   0.918   1.636
12213TIP3    H236517   9.243   1.054   1.609
12214TIP3   OH236518   1.768   5.177   2.181
12214TIP3    H136519   1.847   5.229   2.165
12214TIP3    H236520   1.799   5.087   2.182
12215TIP3   OH236521   8.545   4.669   0.114
12215TIP3    H136522   8.462   4.684   0.067
12215TIP3    H236523   8.553   4.574   0.118
12216TIP3   OH236524   3.069   2.316   1.950
12216TIP3    H136525   3.131   2.261   1.997
12216TIP3    H236526   3.014   2.354   2.018
12217TIP3   OH236527   6.604   0.717   0.944
12217TIP3    H136528   6.601   0.804   0.904
12217TIP3    H236529   6.697   0.693   0.945
12218TIP3   OH236530   9.379   8.409   0.276
12218TIP3    H136531   9.348   8.320   0.289
12218TIP3    H236532   9.314   8.464   0.319
12219TIP3   OH236533   8.665   3.195   6.105
12219TIP3    H136534   8.603   3.155   6.165
12219TIP3    H236535   8.613   3.215   6.027
12220TIP3   OH236536   1.479   6.626   6.987
12220TIP3    H136537   1.513   6.671   7.064
12220TIP3    H236538   1.427   6.692   6.941
12221TIP3   OH236539   7.522   8.324   3.861
12221TIP3    H136540   7.589   8.293   3.922
12221TIP3    H236541   7.537   8.274   3.781
12222TIP3   OH236542   8.726   4.434   0.902
12222TIP3    H136543   8.672   4.375   0.850
12222TIP3    H236544   8.713   4.520   0.861
12223TIP3   OH236545   7.470   0.344   2.313
12223TIP3    H136546   7.493   0.256   2.283
12223TIP3    H236547   7.399   0.331   2.376
12224TIP3   OH236548   6.589   2.797   0.433
12224TIP3    H136549   6.591   2.768   0.524
12224TIP3    H236550   6.499   2.828   0.420
12225TIP3   OH236551   5.848   4.355   5.825
12225TIP3    H136552   5.753   4.364   5.829
12225TIP3    H236553   5.877   4.433   5.779
12226TIP3   OH236554   8.801   0.827   4.443
12226TIP3    H136555   8.873   0.785   4.489
12226TIP3    H236556   8.813   0.802   4.351
12227TIP3   OH236557   1.804   8.263   0.506
12227TIP3    H136558   1.789   8.270   0.600
12227TIP3    H236559   1.767   8.178   0.482
12228TIP3   OH236560   7.686   2.956  -0.003
12228TIP3    H136561   7.692   2.955   0.092
12228TIP3    H236562   7.594   2.976  -0.021
12229TIP3   OH236563   3.120   8.508   0.226
12229TIP3    H136564   3.030   8.488   0.200
12229TIP3    H236565   3.114   8.592   0.270
12230TIP3   OH236566   8.634   5.959   7.449
12230TIP3    H136567   8.601   5.924   7.532
12230TIP3    H236568   8.586   6.041   7.436
12231TIP3   OH236569   8.311   2.166   2.650
12231TIP3    H136570   8.401   2.183   2.624
12231TIP3    H236571   8.305   2.071   2.656
12232TIP3   OH236572   3.953   3.278   0.752
12232TIP3    H136573   3.923   3.367   0.771
12232TIP3    H236574   4.007   3.255   0.828
12233TIP3   OH236575   6.374   9.007   0.184
12233TIP3    H136576   6.439   9.070   0.155
12233TIP3    H236577   6.360   8.950   0.108
12234TIP3   OH236578   8.657   8.708   0.504
12234TIP3    H136579   8.735   8.669   0.542
12234TIP3    H236580   8.687   8.748   0.422
12235TIP3   OH236581   8.512   2.773   3.457
12235TIP3    H136582   8.448   2.829   3.413
12235TIP3    H236583   8.503   2.688   3.413
12236TIP3   OH236584   3.228   5.829   0.090
12236TIP3    H136585   3.316   5.844   0.127
12236TIP3    H236586   3.168   5.856   0.160
12237TIP3   OH236587   7.671   7.756   6.528
12237TIP3    H136588   7.646   7.790   6.614
12237TIP3    H236589   7.749   7.806   6.503
12238TIP3   OH236590   8.718   0.829   0.156
12238TIP3    H136591   8.753   0.915   0.179
12238TIP3    H236592   8.625   0.835   0.179
12239TIP3   OH236593   7.590   0.966   0.495
12239TIP3    H136594   7.531   0.903   0.453
12239TIP3    H236595   7.677   0.930   0.481
12240TIP3   OH236596   8.286   7.431   6.453
12240TIP3    H136597   8.192   7.412   6.460
12240TIP3    H236598   8.318   7.429   6.543
12241TIP3   OH236599   8.511   1.825   0.589
12241TIP3    H136600   8.567   1.862   0.520
12241TIP3    H236601   8.440   1.783   0.541
12242TIP3   OH236602   6.350   0.461   4.998
12242TIP3    H136603   6.339   0.530   4.932
12242TIP3    H236604   6.263   0.449   5.035
12243TIP3   OH236605   6.831   0.313   5.112
12243TIP3    H136606   6.759   0.279   5.059
12243TIP3    H236607   6.831   0.407   5.094
12244TIP3   OH236608   8.020   5.033   6.248
12244TIP3    H136609   8.010   5.128   6.241
12244TIP3    H236610   8.002   5.001   6.160
12245TIP3   OH236611   6.308   4.868   7.524
12245TIP3    H136612   6.301   4.950   7.573
12245TIP3    H236613   6.324   4.895   7.434
12246TIP3   OH236614   6.441   2.339   3.658
12246TIP3    H136615   6.387   2.414   3.635
12246TIP3    H236616   6.501   2.371   3.725
12247TIP3   OH236617   1.307   3.104   7.576
12247TIP3    H136618   1.275   3.014   7.570
12247TIP3    H236619   1.302   3.138   7.487
12248TIP3   OH236620   4.312   0.506   6.194
12248TIP3    H136621   4.230   0.537   6.233
12248TIP3    H236622   4.296   0.413   6.177
12249TIP3   OH236623   3.611   5.064   6.396
12249TIP3    H136624   3.671   5.052   6.323
12249TIP3    H236625   3.524   5.067   6.356
12250TIP3   OH236626   4.251   1.043   1.619
12250TIP3    H136627   4.321   1.086   1.669
12250TIP3    H236628   4.298   0.987   1.557
12251TIP3   OH236629   8.169   8.517   4.625
12251TIP3    H136630   8.235   8.466   4.672
12251TIP3    H236631   8.086   8.490   4.665
12252TIP3   OH236632   8.232   4.046   1.650
12252TIP3    H136633   8.155   4.037   1.706
12252TIP3    H236634   8.226   3.973   1.589
12253TIP3   OH236635   0.078   2.320   2.185
12253TIP3    H136636   0.170   2.316   2.161
12253TIP3    H236637   0.076   2.300   2.278
12254TIP3   OH236638   9.417   2.761   4.782
12254TIP3    H136639   9.324   2.740   4.785
12254TIP3    H236640   9.454   2.701   4.717
12255TIP3   OH236641   5.978   7.921   2.662
12255TIP3    H136642   6.026   7.927   2.745
12255TIP3    H236643   6.014   7.991   2.608
12256TIP3   OH236644   1.909   1.276   7.285
12256TIP3    H136645   1.953   1.361   7.286
12256TIP3    H236646   1.976   1.215   7.254
12257TIP3   OH236647   5.081   0.007   4.565
12257TIP3    H136648   5.082  -0.007   4.660
12257TIP3    H236649   5.079   0.103   4.555
12258TIP3   OH236650   0.572   7.889   2.260
12258TIP3    H136651   0.486   7.898   2.300
12258TIP3    H236652   0.572   7.955   2.190
12259TIP3   OH236653   8.965   0.746   2.836
12259TIP3    H136654   9.031   0.788   2.780
12259TIP3    H236655   8.881   0.768   2.796
12260TIP3   OH236656   2.214   2.032   7.665
12260TIP3    H136657   2.249   2.031   7.754
12260TIP3    H236658   2.229   2.122   7.634
12261TIP3   OH236659   0.266   8.749   3.230
12261TIP3    H136660   0.229   8.693   3.162
12261TIP3    H236661   0.316   8.815   3.182
12262TIP3   OH236662   3.205   2.829   4.856
12262TIP3    H136663   3.244   2.915   4.844
12262TIP3    H236664   3.187   2.823   4.950
12263TIP3   OH236665   0.915   8.880   6.091
12263TIP3    H136666   0.958   8.857   6.009
12263TIP3    H236667   0.822   8.886   6.069
12264TIP3   OH236668   1.896   4.580   7.236
12264TIP3    H136669   1.931   4.600   7.323
12264TIP3    H236670   1.944   4.503   7.208
12265TIP3   OH236671   6.515   8.421   1.308
12265TIP3    H136672   6.439   8.407   1.251
12265TIP3    H236673   6.586   8.372   1.266
12266TIP3   OH236674   1.767   5.475   5.775
12266TIP3    H136675   1.835   5.436   5.829
12266TIP3    H236676   1.737   5.551   5.825
12267TIP3   OH236677   6.779   8.020   0.440
12267TIP3    H136678   6.712   8.042   0.375
12267TIP3    H236679   6.856   8.070   0.414
12268TIP3   OH236680   0.112   5.267   1.348
12268TIP3    H136681   0.139   5.357   1.329
12268TIP3    H236682   0.089   5.230   1.263
12269TIP3   OH236683   3.571   1.005   4.332
12269TIP3    H136684   3.576   0.957   4.249
12269TIP3    H236685   3.627   1.082   4.318
12270TIP3   OH236686   0.818   1.052   4.029
12270TIP3    H136687   0.844   1.130   3.980
12270TIP3    H236688   0.776   1.086   4.108
12271TIP3   OH236689   6.246   3.514   4.116
12271TIP3    H136690   6.212   3.527   4.205
12271TIP3    H236691   6.265   3.602   4.085
12272TIP3   OH236692   2.092   6.682   3.036
12272TIP3    H136693   2.158   6.634   3.087
12272TIP3    H236694   2.142   6.744   2.983
12273TIP3   OH236695   6.375   7.816   0.399
12273TIP3    H136696   6.295   7.765   0.387
12273TIP3    H236697   6.446   7.755   0.380
12274TIP3   OH236698   6.204   3.083   4.387
12274TIP3    H136699   6.127   3.031   4.409
12274TIP3    H236700   6.273   3.019   4.368
12275TIP3   OH236701   7.178   2.718   4.586
12275TIP3    H136702   7.216   2.689   4.504
12275TIP3    H236703   7.245   2.699   4.652
12276TIP3   OH236704   3.215   2.728   6.580
12276TIP3    H136705   3.264   2.783   6.641
12276TIP3    H236706   3.123   2.749   6.597
12277TIP3   OH236707   5.046   3.658   0.085
12277TIP3    H136708   5.116   3.619   0.032
12277TIP3    H236709   5.069   3.751   0.088
12278TIP3   OH236710   2.953   1.397   4.223
12278TIP3    H136711   3.039   1.419   4.188
12278TIP3    H236712   2.969   1.368   4.313
12279TIP3   OH236713   8.604   5.815   2.914
12279TIP3    H136714   8.597   5.897   2.867
12279TIP3    H236715   8.690   5.820   2.957
12280TIP3   OH236716   1.666   5.949   6.083
12280TIP3    H136717   1.751   5.908   6.067
12280TIP3    H236718   1.672   5.982   6.173
12281TIP3   OH236719   0.618   8.512   1.333
12281TIP3    H136720   0.707   8.483   1.313
12281TIP3    H236721   0.604   8.588   1.276
12282TIP3   OH236722   6.093   2.529   1.905
12282TIP3    H136723   6.059   2.609   1.946
12282TIP3    H236724   6.123   2.476   1.979
12283TIP3   OH236725   0.871   0.560   2.011
12283TIP3    H136726   0.880   0.565   1.915
12283TIP3    H236727   0.948   0.512   2.040
12284TIP3   OH236728   6.580   4.584   6.320
12284TIP3    H136729   6.537   4.589   6.235
12284TIP3    H236730   6.586   4.491   6.338
12285TIP3   OH236731   4.953   0.270   6.803
12285TIP3    H136732   4.881   0.329   6.782
12285TIP3    H236733   4.938   0.244   6.894
12286TIP3   OH236734   3.115   6.194   6.891
12286TIP3    H136735   3.084   6.167   6.977
12286TIP3    H236736   3.200   6.150   6.881
12287TIP3   OH236737   3.440   5.057   7.143
12287TIP3    H136738   3.516   5.081   7.195
12287TIP3    H236739   3.388   5.001   7.200
12288TIP3   OH236740   3.086   0.422   6.894
12288TIP3    H136741   3.175   0.438   6.924
12288TIP3    H236742   3.059   0.503   6.851
12289TIP3   OH236743   6.613   2.316   4.621
12289TIP3    H136744   6.680   2.258   4.658
12289TIP3    H236745   6.544   2.257   4.590
12290TIP3   OH236746   5.565   8.842   6.328
12290TIP3    H136747   5.589   8.827   6.237
12290TIP3    H236748   5.616   8.919   6.353
12291TIP3   OH236749   5.511   4.433   4.751
12291TIP3    H136750   5.428   4.440   4.704
12291TIP3    H236751   5.546   4.522   4.752
12292TIP3   OH236752   0.816   4.187   0.793
12292TIP3    H136753   0.895   4.155   0.749
12292TIP3    H236754   0.756   4.112   0.793
12293TIP3   OH236755   4.853   8.374   3.613
12293TIP3    H136756   4.919   8.358   3.680
12293TIP3    H236757   4.843   8.291   3.567
12294TIP3   OH236758   4.092   8.634   6.462
12294TIP3    H136759   4.032   8.572   6.505
12294TIP3    H236760   4.051   8.719   6.473
12295TIP3   OH236761   4.255   2.759   1.610
12295TIP3    H136762   4.226   2.847   1.633
12295TIP3    H236763   4.173   2.711   1.595
12296TIP3   OH236764   5.960   4.290   0.642
12296TIP3    H136765   5.963   4.298   0.737
12296TIP3    H236766   5.962   4.196   0.625
12297TIP3   OH236767   3.476   0.540   0.601
12297TIP3    H136768   3.426   0.482   0.544
12297TIP3    H236769   3.411   0.583   0.656
12298TIP3   OH236770   7.401   7.512   5.896
12298TIP3    H136771   7.308   7.491   5.887
12298TIP3    H236772   7.403   7.602   5.929
12299TIP3   OH236773   0.517   2.854   2.638
12299TIP3    H136774   0.518   2.802   2.718
12299TIP3    H236775   0.526   2.945   2.668
12300TIP3   OH236776   6.144   1.029   4.111
12300TIP3    H136777   6.227   0.982   4.105
12300TIP3    H236778   6.165   1.112   4.152
12301TIP3   OH236779   6.933   4.500   6.219
12301TIP3    H136780   6.851   4.477   6.177
12301TIP3    H236781   6.958   4.584   6.180
12302TIP3   OH236782   3.804   8.123   0.234
12302TIP3    H136783   3.813   8.129   0.330
12302TIP3    H236784   3.710   8.130   0.218
12303TIP3   OH236785   5.803   3.412   4.318
12303TIP3    H136786   5.819   3.466   4.241
12303TIP3    H236787   5.873   3.346   4.317
12304TIP3   OH236788   6.258   2.304   5.100
12304TIP3    H136789   6.248   2.248   5.178
12304TIP3    H236790   6.349   2.292   5.074
12305TIP3   OH236791   3.557   1.678   6.429
12305TIP3    H136792   3.511   1.648   6.507
12305TIP3    H236793   3.541   1.609   6.364
12306TIP3   OH236794   4.189   8.598   3.715
12306TIP3    H136795   4.238   8.680   3.728
12306TIP3    H236796   4.111   8.608   3.768
12307TIP3   OH236797   9.236   5.281   7.438
12307TIP3    H136798   9.282   5.308   7.359
12307TIP3    H236799   9.213   5.190   7.422
12308TIP3   OH236800   5.176   2.875   3.125
12308TIP3    H136801   5.171   2.810   3.054
12308TIP3    H236802   5.085   2.900   3.141
12309TIP3   OH236803   4.234   6.222   6.702
12309TIP3    H136804   4.316   6.192   6.742
12309TIP3    H236805   4.262   6.284   6.635
12310TIP3   OH236806   2.507   4.503   0.860
12310TIP3    H136807   2.554   4.504   0.777
12310TIP3    H236808   2.550   4.434   0.911
12311TIP3   OH236809   0.472   2.551   5.130
12311TIP3    H136810   0.389   2.561   5.083
12311TIP3    H236811   0.527   2.622   5.097
12312TIP3   OH236812   8.908   6.728   6.271
12312TIP3    H136813   8.985   6.711   6.325
12312TIP3    H236814   8.847   6.773   6.330
12313TIP3   OH236815   0.232   4.533   5.518
12313TIP3    H136816   0.307   4.567   5.469
12313TIP3    H236817   0.155   4.570   5.475
12314TIP3   OH236818   3.394   7.039   1.583
12314TIP3    H136819   3.342   7.106   1.539
12314TIP3    H236820   3.367   7.043   1.675
12315TIP3   OH236821   4.372   4.803   6.649
12315TIP3    H136822   4.325   4.886   6.640
12315TIP3    H236823   4.349   4.772   6.737
12316TIP3   OH236824   3.328   2.182   4.078
12316TIP3    H136825   3.382   2.103   4.083
12316TIP3    H236826   3.350   2.232   4.157
12317TIP3   OH236827   0.005   1.379   2.849
12317TIP3    H136828  -0.072   1.368   2.905
12317TIP3    H236829   0.068   1.425   2.905
12318TIP3   OH236830   2.324   1.952   4.780
12318TIP3    H136831   2.395   2.004   4.741
12318TIP3    H236832   2.368   1.873   4.813
12319TIP3   OH236833   2.601   4.492   4.527
12319TIP3    H136834   2.632   4.574   4.490
12319TIP3    H236835   2.660   4.426   4.491
12320TIP3   OH236836   2.134   1.914   3.015
12320TIP3    H136837   2.087   1.842   2.971
12320TIP3    H236838   2.101   1.913   3.105
12321TIP3   OH236839   8.641   8.414   6.960
12321TIP3    H136840   8.662   8.340   6.904
12321TIP3    H236841   8.677   8.391   7.046
12322TIP3   OH236842   5.446   1.143   2.812
12322TIP3    H136843   5.389   1.152   2.888
12322TIP3    H236844   5.394   1.090   2.750
12323TIP3   OH236845   3.413   1.481   1.538
12323TIP3    H136846   3.503   1.464   1.509
12323TIP3    H236847   3.359   1.458   1.462
12324TIP3   OH236848   3.973   1.476   2.158
12324TIP3    H136849   4.020   1.495   2.077
12324TIP3    H236850   4.035   1.498   2.228
12325TIP3   OH236851   5.577   8.348   2.180
12325TIP3    H136852   5.617   8.323   2.096
12325TIP3    H236853   5.601   8.277   2.240
12326TIP3   OH236854   1.488   4.033   5.188
12326TIP3    H136855   1.438   4.060   5.111
12326TIP3    H236856   1.511   4.115   5.231
12327TIP3   OH236857   3.387   7.225   4.052
12327TIP3    H136858   3.411   7.318   4.056
12327TIP3    H236859   3.446   7.182   4.114
12328TIP3   OH236860   5.996   8.204   3.117
12328TIP3    H136861   5.988   8.287   3.071
12328TIP3    H236862   5.932   8.146   3.076
12329TIP3   OH236863   0.779   1.627   3.074
12329TIP3    H136864   0.766   1.683   2.997
12329TIP3    H236865   0.692   1.618   3.112
12330TIP3   OH236866   9.449   0.521   7.436
12330TIP3    H136867   9.391   0.503   7.362
12330TIP3    H236868   9.470   0.434   7.471
12331TIP3   OH236869   6.382   2.876   3.883
12331TIP3    H136870   6.434   2.822   3.823
12331TIP3    H236871   6.304   2.899   3.833
12332TIP3   OH236872   6.485   4.298   3.491
12332TIP3    H136873   6.537   4.218   3.484
12332TIP3    H236874   6.522   4.358   3.426
12333TIP3   OH236875   0.195   4.304   4.928
12333TIP3    H136876   0.171   4.220   4.889
12333TIP3    H236877   0.116   4.332   4.975
12334TIP3   OH236878   2.955   3.959   3.667
12334TIP3    H136879   2.963   3.868   3.696
12334TIP3    H236880   2.889   3.956   3.597
12335TIP3   OH236881   5.966   7.306   4.348
12335TIP3    H136882   5.966   7.231   4.289
12335TIP3    H236883   6.028   7.282   4.417
12336TIP3   OH236884   6.828   5.077   2.681
12336TIP3    H136885   6.840   5.099   2.589
12336TIP3    H236886   6.736   5.049   2.688
12337TIP3   OH236887   3.004   8.348   6.846
12337TIP3    H136888   2.962   8.378   6.926
12337TIP3    H236889   3.034   8.259   6.867
12338TIP3   OH236890   4.254   7.241   1.554
12338TIP3    H136891   4.269   7.147   1.546
12338TIP3    H236892   4.197   7.263   1.480
12339TIP3   OH236893   5.774   7.105   4.928
12339TIP3    H136894   5.841   7.142   4.870
12339TIP3    H236895   5.820   7.038   4.978
12340TIP3   OH236896   5.375   3.045   2.409
12340TIP3    H136897   5.438   3.111   2.438
12340TIP3    H236898   5.403   2.964   2.451
12341TIP3   OH236899   2.780   7.766   4.007
12341TIP3    H136900   2.859   7.713   4.002
12341TIP3    H236901   2.785   7.825   3.932
12342TIP3   OH236902   1.640   4.688   7.600
12342TIP3    H136903   1.711   4.643   7.556
12342TIP3    H236904   1.683   4.760   7.647
12343TIP3   OH236905   6.610   8.767   7.156
12343TIP3    H136906   6.701   8.742   7.172
12343TIP3    H236907   6.565   8.684   7.139
12344TIP3   OH236908   7.776   1.148   7.791
12344TIP3    H136909   7.842   1.120   7.728
12344TIP3    H236910   7.719   1.207   7.742
12345TIP3   OH236911   0.863   7.964   3.803
12345TIP3    H136912   0.826   7.946   3.889
12345TIP3    H236913   0.877   7.877   3.765
12346TIP3   OH236914   8.873   1.403   2.294
12346TIP3    H136915   8.904   1.313   2.297
12346TIP3    H236916   8.893   1.439   2.381
12347TIP3   OH236917   3.919   4.955   5.045
12347TIP3    H136918   3.986   4.939   5.112
12347TIP3    H236919   3.917   4.875   4.993
12348TIP3   OH236920   7.252   1.094   7.162
12348TIP3    H136921   7.331   1.143   7.187
12348TIP3    H236922   7.189   1.114   7.232
12349TIP3   OH236923   0.102   0.213   2.856
12349TIP3    H136924   0.195   0.229   2.872
12349TIP3    H236925   0.071   0.293   2.815
12350TIP3   OH236926   7.877   6.201   1.942
12350TIP3    H136927   7.808   6.134   1.940
12350TIP3    H236928   7.878   6.231   2.033
12351TIP3   OH236929   0.446   3.872   1.018
12351TIP3    H136930   0.455   3.844   0.927
12351TIP3    H236931   0.352   3.885   1.030
12352TIP3   OH236932   3.698   6.878   0.585
12352TIP3    H136933   3.763   6.825   0.539
12352TIP3    H236934   3.739   6.964   0.595
12353TIP3   OH236935   3.351   8.603   2.210
12353TIP3    H136936   3.403   8.534   2.250
12353TIP3    H236937   3.262   8.567   2.205
12354TIP3   OH236938   6.345   8.436   6.040
12354TIP3    H136939   6.320   8.413   5.951
12354TIP3    H236940   6.441   8.439   6.038
12355TIP3   OH236941   2.989   0.972   6.897
12355TIP3    H136942   2.919   1.029   6.864
12355TIP3    H236943   3.037   1.027   6.958
12356TIP3   OH236944   2.920   7.461   2.575
12356TIP3    H136945   2.914   7.427   2.486
12356TIP3    H236946   2.977   7.398   2.621
12357TIP3   OH236947   1.204   4.149   0.867
12357TIP3    H136948   1.289   4.148   0.824
12357TIP3    H236949   1.142   4.123   0.799
12358TIP3   OH236950   2.501   6.659   4.848
12358TIP3    H136951   2.482   6.569   4.823
12358TIP3    H236952   2.533   6.653   4.938
12359TIP3   OH236953   3.960   8.194   4.944
12359TIP3    H136954   3.879   8.143   4.955
12359TIP3    H236955   3.975   8.233   5.030
12360TIP3   OH236956   0.333   4.960   2.913
12360TIP3    H136957   0.368   4.874   2.889
12360TIP3    H236958   0.385   5.022   2.862
12361TIP3   OH236959   7.214   0.591   0.597
12361TIP3    H136960   7.291   0.540   0.623
12361TIP3    H236961   7.148   0.526   0.573
12362TIP3   OH236962   3.245   0.244   2.256
12362TIP3    H136963   3.183   0.269   2.324
12362TIP3    H236964   3.322   0.214   2.303
12363TIP3   OH236965   7.750   5.324   2.480
12363TIP3    H136966   7.838   5.302   2.449
12363TIP3    H236967   7.719   5.244   2.522
12364TIP3   OH236968   0.874   2.120   4.345
12364TIP3    H136969   0.925   2.084   4.272
12364TIP3    H236970   0.881   2.054   4.414
12365TIP3   OH236971   2.051   3.206   4.968
12365TIP3    H136972   2.009   3.291   4.951
12365TIP3    H236973   1.980   3.143   4.962
12366TIP3   OH236974   1.254   0.677   5.644
12366TIP3    H136975   1.159   0.689   5.639
12366TIP3    H236976   1.289   0.733   5.575
12367TIP3   OH236977   2.857   8.485   2.338
12367TIP3    H136978   2.934   8.461   2.388
12367TIP3    H236979   2.826   8.403   2.301
12368TIP3   OH236980   7.157   8.250   5.319
12368TIP3    H136981   7.067   8.218   5.327
12368TIP3    H236982   7.193   8.202   5.244
12369TIP3   OH236983   1.677   5.939   6.353
12369TIP3    H136984   1.588   5.908   6.365
12369TIP3    H236985   1.732   5.867   6.381
12370TIP3   OH236986   4.270   6.183   4.542
12370TIP3    H136987   4.312   6.208   4.460
12370TIP3    H236988   4.316   6.102   4.568
12371TIP3   OH236989   6.099   2.589   4.086
12371TIP3    H136990   6.183   2.549   4.064
12371TIP3    H236991   6.036   2.548   4.027
12372TIP3   OH236992   1.143   2.369   3.090
12372TIP3    H136993   1.050   2.355   3.070
12372TIP3    H236994   1.173   2.428   3.022
12373TIP3   OH236995   6.212   3.731   6.571
12373TIP3    H136996   6.239   3.647   6.536
12373TIP3    H236997   6.144   3.711   6.635
12374TIP3   OH236998   5.532   1.431   3.016
12374TIP3    H136999   5.458   1.421   2.957
12374TIP3    H237000   5.571   1.515   2.991
12375TIP3   OH237001   1.126   4.460   2.620
12375TIP3    H137002   1.093   4.422   2.701
12375TIP3    H237003   1.058   4.522   2.593
12376TIP3   OH237004   3.577   8.626   6.568
12376TIP3    H137005   3.572   8.583   6.653
12376TIP3    H237006   3.539   8.712   6.581
12377TIP3   OH237007   5.272   7.622   6.369
12377TIP3    H137008   5.214   7.548   6.385
12377TIP3    H237009   5.358   7.592   6.396
12378TIP3   OH237010   8.385   4.965   7.448
12378TIP3    H137011   8.471   4.976   7.489
12378TIP3    H237012   8.357   5.054   7.428
12379TIP3   OH237013   3.244   0.371   4.646
12379TIP3    H137014   3.291   0.344   4.568
12379TIP3    H237015   3.283   0.455   4.670
12380TIP3   OH237016   0.082   8.787   4.327
12380TIP3    H137017   0.009   8.730   4.304
12380TIP3    H237018   0.063   8.814   4.417
12381TIP3   OH237019   3.063   6.805   7.090
12381TIP3    H137020   3.064   6.767   7.178
12381TIP3    H237021   3.055   6.730   7.032
12382TIP3   OH237022   8.006   5.321   2.132
12382TIP3    H137023   7.945   5.273   2.075
12382TIP3    H237024   7.954   5.393   2.168
12383TIP3   OH237025   1.547   6.639   2.930
12383TIP3    H137026   1.504   6.553   2.930
12383TIP3    H237027   1.635   6.620   2.898
12384TIP3   OH237028   2.440   5.792   1.382
12384TIP3    H137029   2.387   5.718   1.353
12384TIP3    H237030   2.515   5.751   1.426
12385TIP3   OH237031   8.637   5.108   0.355
12385TIP3    H137032   8.726   5.074   0.358
12385TIP3    H237033   8.637   5.170   0.282
12386TIP3   OH237034   4.514   4.906   7.444
12386TIP3    H137035   4.475   4.909   7.531
12386TIP3    H237036   4.590   4.964   7.451
12387TIP3   OH237037   5.062   7.727   6.552
12387TIP3    H137038   5.114   7.652   6.581
12387TIP3    H237039   5.106   7.758   6.474
12388TIP3   OH237040   0.333   1.491   4.207
12388TIP3    H137041   0.385   1.562   4.169
12388TIP3    H237042   0.361   1.487   4.299
12389TIP3   OH237043   5.917   0.840   3.172
12389TIP3    H137044   5.860   0.901   3.219
12389TIP3    H237045   5.999   0.841   3.221
12390TIP3   OH237046   6.098   2.772   1.306
12390TIP3    H137047   6.129   2.851   1.349
12390TIP3    H237048   6.082   2.798   1.215
12391TIP3   OH237049   2.232   7.046   0.547
12391TIP3    H137050   2.152   7.011   0.588
12391TIP3    H237051   2.249   7.128   0.594
12392TIP3   OH237052   6.325   6.341   5.263
12392TIP3    H137053   6.321   6.434   5.284
12392TIP3    H237054   6.234   6.311   5.268
12393TIP3   OH237055   3.585   0.885   1.048
12393TIP3    H137056   3.530   0.959   1.076
12393TIP3    H237057   3.541   0.852   0.969
12394TIP3   OH237058   4.650   5.456   4.770
12394TIP3    H137059   4.576   5.456   4.831
12394TIP3    H237060   4.717   5.404   4.814
12395TIP3   OH237061   8.749   6.658   0.869
12395TIP3    H137062   8.787   6.621   0.790
12395TIP3    H237063   8.739   6.584   0.928
12396TIP3   OH237064   2.496   7.095   4.730
12396TIP3    H137065   2.548   7.033   4.781
12396TIP3    H237066   2.436   7.134   4.793
12397TIP3   OH237067   6.536   7.473   2.819
12397TIP3    H137068   6.481   7.551   2.815
12397TIP3    H237069   6.532   7.445   2.911
12398TIP3   OH237070   4.488   8.055   3.535
12398TIP3    H137071   4.562   8.012   3.577
12398TIP3    H237072   4.411   8.029   3.586
12399TIP3   OH237073   5.328   2.096   4.227
12399TIP3    H137074   5.254   2.055   4.181
12399TIP3    H237075   5.405   2.059   4.185
12400TIP3   OH237076   5.874   4.275   3.861
12400TIP3    H137077   5.953   4.325   3.841
12400TIP3    H237078   5.810   4.342   3.885
12401TIP3   OH237079   7.904   7.255   0.693
12401TIP3    H137080   7.857   7.196   0.635
12401TIP3    H237081   7.986   7.273   0.649
12402TIP3   OH237082   6.010   7.176   0.523
12402TIP3    H137083   6.069   7.142   0.590
12402TIP3    H237084   5.938   7.113   0.520
12403TIP3   OH237085   2.755  -0.001   1.172
12403TIP3    H137086   2.761   0.087   1.208
12403TIP3    H237087   2.845  -0.023   1.146
12404TIP3   OH237088   4.517   6.242   4.347
12404TIP3    H137089   4.521   6.331   4.312
12404TIP3    H237090   4.527   6.253   4.442
12405TIP3   OH237091   0.731   8.970   4.400
12405TIP3    H137092   0.653   8.999   4.354
12405TIP3    H237093   0.698   8.919   4.474
12406TIP3   OH237094   0.730   1.153   7.484
12406TIP3    H137095   0.641   1.186   7.497
12406TIP3    H237096   0.760   1.197   7.404
12407TIP3   OH237097   0.905   1.294   4.736
12407TIP3    H137098   0.973   1.300   4.803
12407TIP3    H237099   0.834   1.246   4.778
12408TIP3   OH237100   1.181   6.831   5.908
12408TIP3    H137101   1.109   6.774   5.880
12408TIP3    H237102   1.218   6.786   5.984
12409TIP3   OH237103   0.526   0.298   7.228
12409TIP3    H137104   0.591   0.296   7.298
12409TIP3    H237105   0.496   0.389   7.226
12410TIP3   OH237106   1.888   6.716   1.221
12410TIP3    H137107   1.966   6.663   1.237
12410TIP3    H237108   1.824   6.655   1.185
12411TIP3   OH237109   6.090   0.861   4.839
12411TIP3    H137110   6.018   0.800   4.820
12411TIP3    H237111   6.075   0.888   4.930
12412TIP3   OH237112   1.636   3.234   2.386
12412TIP3    H137113   1.664   3.265   2.299
12412TIP3    H237114   1.624   3.140   2.375
12413TIP3   OH237115   6.129   8.439   5.160
12413TIP3    H137116   6.128   8.344   5.168
12413TIP3    H237117   6.048   8.460   5.112
12414TIP3   OH237118   0.750   5.597   1.593
12414TIP3    H137119   0.780   5.615   1.504
12414TIP3    H237120   0.668   5.646   1.601
12415TIP3   OH237121   8.750   4.651   3.170
12415TIP3    H137122   8.682   4.679   3.231
12415TIP3    H237123   8.832   4.680   3.211
12416TIP3   OH237124   6.708   8.096   7.110
12416TIP3    H137125   6.739   8.174   7.066
12416TIP3    H237126   6.613   8.103   7.108
12417TIP3   OH237127   4.737   4.864   5.941
12417TIP3    H137128   4.734   4.945   5.891
12417TIP3    H237129   4.714   4.890   6.030
12418TIP3   OH237130   8.508   5.397   2.652
12418TIP3    H137131   8.520   5.462   2.583
12418TIP3    H237132   8.580   5.414   2.713
12419TIP3   OH237133   1.806   3.855   5.261
12419TIP3    H137134   1.812   3.918   5.190
12419TIP3    H237135   1.769   3.776   5.221
12420TIP3   OH237136   6.379   1.165   0.361
12420TIP3    H137137   6.419   1.215   0.432
12420TIP3    H237138   6.367   1.229   0.290
12421TIP3   OH237139   8.932   2.765   5.906
12421TIP3    H137140   8.847   2.724   5.891
12421TIP3    H237141   8.989   2.692   5.933
12422TIP3   OH237142   3.702   4.484   2.216
12422TIP3    H137143   3.720   4.575   2.243
12422TIP3    H237144   3.636   4.492   2.147
12423TIP3   OH237145   2.734   2.550   2.300
12423TIP3    H137146   2.765   2.490   2.367
12423TIP3    H237147   2.666   2.602   2.343
12424TIP3   OH237148   4.068   4.345   1.113
12424TIP3    H137149   4.112   4.267   1.147
12424TIP3    H237150   3.992   4.311   1.067
12425TIP3   OH237151   4.849   8.143   3.476
12425TIP3    H137152   4.775   8.090   3.506
12425TIP3    H237153   4.898   8.084   3.419
12426TIP3   OH237154   2.689   7.910   4.226
12426TIP3    H137155   2.629   7.837   4.240
12426TIP3    H237156   2.724   7.897   4.139
12427TIP3   OH237157   1.971   3.145   6.368
12427TIP3    H137158   2.027   3.208   6.414
12427TIP3    H237159   1.963   3.180   6.280
12428TIP3   OH237160   2.586   4.738   5.291
12428TIP3    H137161   2.658   4.693   5.249
12428TIP3    H237162   2.521   4.670   5.307
12429TIP3   OH237163   5.499   7.552   6.536
12429TIP3    H137164   5.542   7.489   6.593
12429TIP3    H237165   5.570   7.601   6.495
12430TIP3   OH237166   4.336   6.588   0.042
12430TIP3    H137167   4.361   6.497   0.059
12430TIP3    H237168   4.270   6.582  -0.027
12431TIP3   OH237169   5.427   2.075   5.990
12431TIP3    H137170   5.507   2.099   5.944
12431TIP3    H237171   5.424   2.133   6.065
12432TIP3   OH237172   8.244   8.579   2.565
12432TIP3    H137173   8.313   8.562   2.501
12432TIP3    H237174   8.290   8.606   2.644
12433TIP3   OH237175   3.025   8.151   3.096
12433TIP3    H137176   2.942   8.105   3.087
12433TIP3    H237177   3.029   8.174   3.189
12434TIP3   OH237178   7.241   0.535   3.349
12434TIP3    H137179   7.237   0.567   3.439
12434TIP3    H237180   7.216   0.442   3.355
12435TIP3   OH237181   3.729   0.489   2.095
12435TIP3    H137182   3.665   0.482   2.166
12435TIP3    H237183   3.676   0.495   2.016
12436TIP3   OH237184   1.879   4.248   1.632
12436TIP3    H137185   1.795   4.226   1.591
12436TIP3    H237186   1.860   4.321   1.690
12437TIP3   OH237187   3.246   1.376   4.759
12437TIP3    H137188   3.266   1.465   4.730
12437TIP3    H237189   3.156   1.380   4.790
12438TIP3   OH237190   2.098   6.520   6.570
12438TIP3    H137191   2.030   6.570   6.524
12438TIP3    H237192   2.173   6.580   6.572
12439TIP3   OH237193   5.302   7.769   3.142
12439TIP3    H137194   5.314   7.863   3.130
12439TIP3    H237195   5.213   7.760   3.176
12440TIP3   OH237196   7.158   3.019   7.480
12440TIP3    H137197   7.206   2.944   7.446
12440TIP3    H237198   7.204   3.095   7.446
12441TIP3   OH237199   7.939   2.897   6.049
12441TIP3    H137200   7.845   2.893   6.035
12441TIP3    H237201   7.968   2.806   6.044
12442TIP3   OH237202   1.858   3.162   1.765
12442TIP3    H137203   1.789   3.150   1.699
12442TIP3    H237204   1.923   3.217   1.723
12443TIP3   OH237205   4.836   4.434   1.784
12443TIP3    H137206   4.871   4.489   1.855
12443TIP3    H237207   4.743   4.458   1.778
12444TIP3   OH237208   5.503   8.097   5.845
12444TIP3    H137209   5.483   8.187   5.871
12444TIP3    H237210   5.508   8.048   5.927
12445TIP3   OH237211   1.167   5.504   2.488
12445TIP3    H137212   1.231   5.482   2.420
12445TIP3    H237213   1.144   5.420   2.528
12446TIP3   OH237214   2.655   3.800   4.688
12446TIP3    H137215   2.643   3.745   4.765
12446TIP3    H237216   2.710   3.748   4.629
12447TIP3   OH237217   9.214   6.560   6.060
12447TIP3    H137218   9.160   6.547   5.982
12447TIP3    H237219   9.160   6.527   6.132
12448TIP3   OH237220   3.996   2.235   6.657
12448TIP3    H137221   3.970   2.150   6.692
12448TIP3    H237222   3.935   2.251   6.585
12449TIP3   OH237223   7.685   4.775   7.412
12449TIP3    H137224   7.696   4.761   7.506
12449TIP3    H237225   7.619   4.712   7.385
12450TIP3   OH237226   2.753   8.415   7.504
12450TIP3    H137227   2.811   8.340   7.490
12450TIP3    H237228   2.812   8.490   7.506
12451TIP3   OH237229   7.593   5.800   5.260
12451TIP3    H137230   7.652   5.874   5.242
12451TIP3    H237231   7.540   5.829   5.334
12452TIP3   OH237232   5.866   7.338   5.166
12452TIP3    H137233   5.835   7.377   5.248
12452TIP3    H237234   5.809   7.261   5.153
12453TIP3   OH237235   6.933   2.277   5.946
12453TIP3    H137236   6.853   2.277   5.893
12453TIP3    H237237   6.948   2.369   5.967
12454TIP3   OH237238   2.665   2.810   7.445
12454TIP3    H137239   2.583   2.783   7.403
12454TIP3    H237240   2.681   2.899   7.411
12455TIP3   OH237241   9.456   1.766   1.301
12455TIP3    H137242   9.452   1.824   1.377
12455TIP3    H237243   9.365   1.761   1.271
12456TIP3   OH237244   2.909   5.315   0.443
12456TIP3    H137245   2.925   5.280   0.355
12456TIP3    H237246   2.987   5.291   0.492
12457TIP3   OH237247   0.483   6.293   6.188
12457TIP3    H137248   0.521   6.243   6.260
12457TIP3    H237249   0.441   6.226   6.133
12458TIP3   OH237250   2.383   7.189   3.786
12458TIP3    H137251   2.403   7.282   3.789
12458TIP3    H237252   2.293   7.185   3.753
12459TIP3   OH237253   2.245   5.768   2.942
12459TIP3    H137254   2.156   5.752   2.975
12459TIP3    H237255   2.235   5.845   2.884
12460TIP3   OH237256   0.319   4.606   7.566
12460TIP3    H137257   0.261   4.657   7.510
12460TIP3    H237258   0.397   4.589   7.512
12461TIP3   OH237259   2.622   7.168   5.926
12461TIP3    H137260   2.696   7.223   5.900
12461TIP3    H237261   2.625   7.169   6.022
12462TIP3   OH237262   1.091   7.751   1.579
12462TIP3    H137263   1.180   7.742   1.614
12462TIP3    H237264   1.036   7.710   1.646
12463TIP3   OH237265   1.235   7.389   5.164
12463TIP3    H137266   1.273   7.304   5.185
12463TIP3    H237267   1.142   7.380   5.185
12464TIP3   OH237268   0.707   4.123   1.756
12464TIP3    H137269   0.738   4.106   1.667
12464TIP3    H237270   0.770   4.186   1.791
12465TIP3   OH237271   3.914   1.983   1.944
12465TIP3    H137272   3.981   1.918   1.922
12465TIP3    H237273   3.962   2.055   1.984
12466TIP3   OH237274   7.127   8.252   1.878
12466TIP3    H137275   7.151   8.192   1.949
12466TIP3    H237276   7.116   8.196   1.801
12467TIP3   OH237277   4.450   6.830   7.475
12467TIP3    H137278   4.382   6.869   7.530
12467TIP3    H237279   4.501   6.775   7.535
12468TIP3   OH237280   1.135   3.488   1.740
12468TIP3    H137281   1.065   3.431   1.707
12468TIP3    H237282   1.198   3.492   1.668
12469TIP3   OH237283   9.265   8.183   0.370
12469TIP3    H137284   9.189   8.231   0.337
12469TIP3    H237285   9.232   8.136   0.447
12470TIP3   OH237286   2.077   3.837   3.427
12470TIP3    H137287   2.084   3.812   3.519
12470TIP3    H237288   2.143   3.906   3.416
12471TIP3   OH237289   8.488   0.097   3.104
12471TIP3    H137290   8.448   0.184   3.099
12471TIP3    H237291   8.482   0.073   3.197
12472TIP3   OH237292   6.267   0.150   1.223
12472TIP3    H137293   6.329   0.078   1.229
12472TIP3    H237294   6.302   0.217   1.282
12473TIP3   OH237295   6.807   3.449   6.783
12473TIP3    H137296   6.895   3.483   6.768
12473TIP3    H237297   6.796   3.452   6.878
12474TIP3   OH237298   5.499   1.474   6.482
12474TIP3    H137299   5.592   1.479   6.504
12474TIP3    H237300   5.486   1.544   6.418
12475TIP3   OH237301   3.250   7.873   2.402
12475TIP3    H137302   3.244   7.878   2.498
12475TIP3    H237303   3.209   7.789   2.381
12476TIP3   OH237304   0.679   2.022   5.006
12476TIP3    H137305   0.661   2.093   4.945
12476TIP3    H237306   0.716   1.952   4.951
12477TIP3   OH237307   2.636   5.057   5.136
12477TIP3    H137308   2.669   5.108   5.210
12477TIP3    H237309   2.713   5.040   5.081
12478TIP3   OH237310   0.779   1.115   3.239
12478TIP3    H137311   0.853   1.055   3.245
12478TIP3    H237312   0.757   1.118   3.146
12479TIP3   OH237313   4.447   3.909   5.604
12479TIP3    H137314   4.511   3.934   5.537
12479TIP3    H237315   4.364   3.945   5.574
12480TIP3   OH237316   0.373   1.309   5.892
12480TIP3    H137317   0.435   1.279   5.958
12480TIP3    H237318   0.428   1.335   5.818
12481TIP3   OH237319   5.845   1.356   3.731
12481TIP3    H137320   5.809   1.269   3.749
12481TIP3    H237321   5.890   1.345   3.647
12482TIP3   OH237322   6.640   0.645   5.036
12482TIP3    H137323   6.724   0.672   5.073
12482TIP3    H237324   6.606   0.580   5.098
12483TIP3   OH237325   0.366   2.046   0.109
12483TIP3    H137326   0.376   2.140   0.099
12483TIP3    H237327   0.351   2.014   0.019
12484TIP3   OH237328   7.330   5.340   0.443
12484TIP3    H137329   7.329   5.429   0.479
12484TIP3    H237330   7.248   5.301   0.473
12485TIP3   OH237331   5.003   5.654   4.001
12485TIP3    H137332   5.058   5.651   4.079
12485TIP3    H237333   4.924   5.606   4.026
12486TIP3   OH237334   7.123   0.116   4.430
12486TIP3    H137335   7.158   0.202   4.452
12486TIP3    H237336   7.042   0.134   4.382
12487TIP3   OH237337   6.713   1.088   6.998
12487TIP3    H137338   6.644   1.024   6.984
12487TIP3    H237339   6.741   1.114   6.911
12488TIP3   OH237340   3.528   6.310   3.134
12488TIP3    H137341   3.547   6.346   3.047
12488TIP3    H237342   3.505   6.219   3.117
12489TIP3   OH237343   0.634   4.395   1.049
12489TIP3    H137344   0.703   4.425   0.990
12489TIP3    H237345   0.553   4.415   1.003
12490TIP3   OH237346   4.291   1.932   4.333
12490TIP3    H137347   4.327   1.984   4.260
12490TIP3    H237348   4.359   1.936   4.400
12491TIP3   OH237349   9.560   6.385   6.631
12491TIP3    H137350   9.475   6.347   6.608
12491TIP3    H237351   9.581   6.348   6.716
12492TIP3   OH237352   7.843   6.064   4.714
12492TIP3    H137353   7.897   6.130   4.757
12492TIP3    H237354   7.808   6.011   4.786
12493TIP3   OH237355   5.425   7.851   6.570
12493TIP3    H137356   5.371   7.801   6.509
12493TIP3    H237357   5.429   7.939   6.533
12494TIP3   OH237358   2.611   6.629   7.451
12494TIP3    H137359   2.517   6.627   7.433
12494TIP3    H237360   2.652   6.630   7.365
12495TIP3   OH237361   3.891   4.100   6.429
12495TIP3    H137362   3.891   4.072   6.338
12495TIP3    H237363   3.849   4.028   6.476
12496TIP3   OH237364   3.644   4.117   3.429
12496TIP3    H137365   3.635   4.148   3.339
12496TIP3    H237366   3.558   4.131   3.468
12497TIP3   OH237367   2.401   3.258   3.083
12497TIP3    H137368   2.413   3.284   2.992
12497TIP3    H237369   2.490   3.253   3.118
12498TIP3   OH237370   4.873   0.696   6.633
12498TIP3    H137371   4.852   0.603   6.641
12498TIP3    H237372   4.789   0.740   6.622
12499TIP3   OH237373   1.116   5.147   0.300
12499TIP3    H137374   1.156   5.180   0.220
12499TIP3    H237375   1.121   5.220   0.362
12500TIP3   OH237376   3.329   1.760   0.740
12500TIP3    H137377   3.371   1.713   0.668
12500TIP3    H237378   3.235   1.755   0.720
12501TIP3   OH237379   4.978   4.846   6.642
12501TIP3    H137380   5.061   4.849   6.689
12501TIP3    H237381   4.961   4.753   6.631
12502TIP3   OH237382   3.307   8.375   4.353
12502TIP3    H137383   3.352   8.387   4.269
12502TIP3    H237384   3.217   8.401   4.335
12503TIP3   OH237385   2.155   7.941   4.358
12503TIP3    H137386   2.157   7.864   4.301
12503TIP3    H237387   2.236   7.987   4.338
12504TIP3   OH237388   2.151   6.272   3.009
12504TIP3    H137389   2.097   6.348   3.031
12504TIP3    H237390   2.240   6.306   3.003
12505TIP3   OH237391   5.500   0.151   3.774
12505TIP3    H137392   5.417   0.154   3.726
12505TIP3    H237393   5.496   0.226   3.833
12506TIP3   OH237394   6.095   6.384   5.915
12506TIP3    H137395   6.159   6.417   5.851
12506TIP3    H237396   6.126   6.418   5.999
12507TIP3   OH237397   3.501   7.066   6.244
12507TIP3    H137398   3.437   7.125   6.204
12507TIP3    H237399   3.451   6.985   6.261
12508TIP3   OH237400   0.352   0.277   3.556
12508TIP3    H137401   0.351   0.330   3.477
12508TIP3    H237402   0.441   0.243   3.561
12509TIP3   OH237403   8.621   4.379   1.678
12509TIP3    H137404   8.609   4.436   1.602
12509TIP3    H237405   8.557   4.309   1.667
12510TIP3   OH237406   4.686   2.646   3.650
12510TIP3    H137407   4.749   2.577   3.629
12510TIP3    H237408   4.719   2.685   3.730
12511TIP3   OH237409   1.844   4.521   1.513
12511TIP3    H137410   1.797   4.575   1.576
12511TIP3    H237411   1.936   4.546   1.524
12512TIP3   OH237412   3.906   8.007   4.526
12512TIP3    H137413   3.827   7.954   4.515
12512TIP3    H237414   3.910   8.061   4.447
12513TIP3   OH237415   0.588   1.776   6.416
12513TIP3    H137416   0.639   1.762   6.337
12513TIP3    H237417   0.590   1.692   6.462
12514TIP3   OH237418   3.444   0.976   3.525
12514TIP3    H137419   3.359   0.962   3.566
12514TIP3    H237420   3.497   0.902   3.553
12515TIP3   OH237421   1.417   0.310   4.446
12515TIP3    H137422   1.418   0.332   4.353
12515TIP3    H237423   1.496   0.258   4.459
12516TIP3   OH237424   6.346   5.541   2.630
12516TIP3    H137425   6.422   5.600   2.623
12516TIP3    H237426   6.383   5.459   2.662
12517TIP3   OH237427   1.447   8.425   4.688
12517TIP3    H137428   1.431   8.514   4.656
12517TIP3    H237429   1.526   8.397   4.642
12518TIP3   OH237430   6.278   2.262   7.028
12518TIP3    H137431   6.360   2.212   7.028
12518TIP3    H237432   6.211   2.197   7.050
12519TIP3   OH237433   6.050   6.257   7.431
12519TIP3    H137434   6.146   6.252   7.432
12519TIP3    H237435   6.022   6.169   7.406
12520TIP3   OH237436   7.188   2.078   7.058
12520TIP3    H137437   7.169   2.116   6.972
12520TIP3    H237438   7.120   2.012   7.071
12521TIP3   OH237439   9.144   1.497   1.956
12521TIP3    H137440   9.171   1.422   2.009
12521TIP3    H237441   9.201   1.568   1.984
12522TIP3   OH237442   8.782   8.831   0.190
12522TIP3    H137443   8.759   8.796   0.103
12522TIP3    H237444   8.765   8.925   0.183
12523TIP3   OH237445   6.344   3.612   3.258
12523TIP3    H137446   6.364   3.677   3.326
12523TIP3    H237447   6.248   3.611   3.254
12524TIP3   OH237448   8.181   3.652   2.243
12524TIP3    H137449   8.119   3.658   2.316
12524TIP3    H237450   8.221   3.566   2.254
12525TIP3   OH237451   8.407   8.616   5.828
12525TIP3    H137452   8.341   8.670   5.783
12525TIP3    H237453   8.402   8.643   5.919
12526TIP3   OH237454   0.699   1.921   1.630
12526TIP3    H137455   0.782   1.874   1.632
12526TIP3    H237456   0.643   1.874   1.692
12527TIP3   OH237457   2.914   7.254   5.911
12527TIP3    H137458   2.991   7.198   5.910
12527TIP3    H237459   2.893   7.264   6.004
12528TIP3   OH237460   9.054   4.035   6.918
12528TIP3    H137461   9.130   3.979   6.937
12528TIP3    H237462   9.033   4.016   6.827
12529TIP3   OH237463   2.592   8.534   0.079
12529TIP3    H137464   2.529   8.605   0.062
12529TIP3    H237465   2.573   8.506   0.168
12530TIP3   OH237466   5.729   0.149   6.903
12530TIP3    H137467   5.803   0.099   6.867
12530TIP3    H237468   5.769   0.205   6.970
12531TIP3   OH237469   2.802   4.532   5.256
12531TIP3    H137470   2.773   4.524   5.164
12531TIP3    H237471   2.888   4.573   5.250
12532TIP3   OH237472   7.292   1.069   0.653
12532TIP3    H137473   7.294   1.163   0.639
12532TIP3    H237474   7.377   1.049   0.694
12533TIP3   OH237475   5.264   7.164   7.803
12533TIP3    H137476   5.244   7.089   7.859
12533TIP3    H237477   5.358   7.179   7.815
12534TIP3   OH237478   2.067   0.400   6.457
12534TIP3    H137479   1.990   0.451   6.431
12534TIP3    H237480   2.085   0.342   6.383
12535TIP3   OH237481   9.283   2.618   1.264
12535TIP3    H137482   9.340   2.657   1.198
12535TIP3    H237483   9.314   2.654   1.347
12536TIP3   OH237484   2.837   2.959   3.317
12536TIP3    H137485   2.880   2.879   3.346
12536TIP3    H237486   2.902   3.027   3.330
12537TIP3   OH237487   4.484   8.302   0.561
12537TIP3    H137488   4.403   8.347   0.536
12537TIP3    H237489   4.488   8.227   0.502
12538TIP3   OH237490   1.270   3.359   1.226
12538TIP3    H137491   1.235   3.276   1.193
12538TIP3    H237492   1.245   3.424   1.160
12539TIP3   OH237493   3.731   5.231   0.843
12539TIP3    H137494   3.765   5.150   0.882
12539TIP3    H237495   3.754   5.224   0.750
12540TIP3   OH237496   9.010   8.229   5.305
12540TIP3    H137497   8.980   8.294   5.241
12540TIP3    H237498   9.093   8.265   5.337
12541TIP3   OH237499   8.297   8.757   7.534
12541TIP3    H137500   8.218   8.706   7.517
12541TIP3    H237501   8.333   8.720   7.615
12542TIP3   OH237502   2.028   0.207   4.118
12542TIP3    H137503   2.051   0.255   4.197
12542TIP3    H237504   1.972   0.268   4.069
12543TIP3   OH237505   2.629   7.984   1.567
12543TIP3    H137506   2.662   8.058   1.517
12543TIP3    H237507   2.534   7.986   1.553
12544TIP3   OH237508   8.470   5.491   4.991
12544TIP3    H137509   8.490   5.523   5.079
12544TIP3    H237510   8.417   5.561   4.952
12545TIP3   OH237511   2.726   2.536   1.178
12545TIP3    H137512   2.703   2.517   1.087
12545TIP3    H237513   2.721   2.631   1.185
12546TIP3   OH237514   0.495   7.409   6.900
12546TIP3    H137515   0.491   7.438   6.991
12546TIP3    H237516   0.439   7.331   6.897
12547TIP3   OH237517   7.178   9.015   5.253
12547TIP3    H137518   7.254   8.962   5.275
12547TIP3    H237519   7.213   9.087   5.202
12548TIP3   OH237520   2.067   1.188   3.187
12548TIP3    H137521   2.134   1.237   3.234
12548TIP3    H237522   2.036   1.123   3.251
12549TIP3   OH237523   7.313   5.720   4.819
12549TIP3    H137524   7.277   5.633   4.803
12549TIP3    H237525   7.252   5.779   4.776
12550TIP3   OH237526   0.870   2.672   6.916
12550TIP3    H137527   0.828   2.586   6.918
12550TIP3    H237528   0.963   2.653   6.903
12551TIP3   OH237529   2.025   4.976   7.642
12551TIP3    H137530   1.942   5.023   7.644
12551TIP3    H237531   2.083   5.026   7.699
12552TIP3   OH237532   2.191   4.428   6.698
12552TIP3    H137533   2.211   4.501   6.639
12552TIP3    H237534   2.117   4.458   6.750
12553TIP3   OH237535   3.312   3.417   1.611
12553TIP3    H137536   3.328   3.469   1.532
12553TIP3    H237537   3.217   3.404   1.612
12554TIP3   OH237538   6.465   5.608   4.325
12554TIP3    H137539   6.377   5.596   4.360
12554TIP3    H237540   6.523   5.576   4.393
12555TIP3   OH237541   7.803   5.215   3.539
12555TIP3    H137542   7.863   5.289   3.547
12555TIP3    H237543   7.729   5.238   3.595
12556TIP3   OH237544   3.354   4.008   7.182
12556TIP3    H137545   3.341   4.098   7.151
12556TIP3    H237546   3.358   4.016   7.277
12557TIP3   OH237547   2.104   8.978   1.215
12557TIP3    H137548   2.081   8.987   1.123
12557TIP3    H237549   2.048   9.042   1.260
12558TIP3   OH237550   5.058   2.836   2.510
12558TIP3    H137551   5.076   2.743   2.502
12558TIP3    H237552   4.972   2.847   2.470
12559TIP3   OH237553   0.774   1.974   6.241
12559TIP3    H137554   0.805   1.886   6.263
12559TIP3    H237555   0.766   1.973   6.146
12560TIP3   OH237556   3.727   3.985   4.186
12560TIP3    H137557   3.739   3.891   4.201
12560TIP3    H237558   3.779   4.027   4.254
12561TIP3   OH237559   9.347   5.507   1.213
12561TIP3    H137560   9.330   5.415   1.234
12561TIP3    H237561   9.260   5.544   1.197
12562TIP3   OH237562   1.970   5.950   3.315
12562TIP3    H137563   2.030   6.014   3.277
12562TIP3    H237564   1.884   5.992   3.312
12563TIP3   OH237565   6.052   8.945   2.444
12563TIP3    H137566   6.114   8.972   2.512
12563TIP3    H237567   6.012   8.865   2.479
12564TIP3   OH237568   3.652   8.864   2.873
12564TIP3    H137569   3.599   8.940   2.898
12564TIP3    H237570   3.615   8.792   2.924
12565TIP3   OH237571   5.080   2.892   1.657
12565TIP3    H137572   5.120   2.970   1.697
12565TIP3    H237573   5.113   2.892   1.568
12566TIP3   OH237574   3.691   5.507   0.471
12566TIP3    H137575   3.749   5.555   0.529
12566TIP3    H237576   3.613   5.562   0.463
12567TIP3   OH237577   0.259   4.688   2.281
12567TIP3    H137578   0.296   4.610   2.323
12567TIP3    H237579   0.164   4.674   2.283
12568TIP3   OH237580   5.983   8.247   5.272
12568TIP3    H137581   6.010   8.333   5.305
12568TIP3    H237582   6.065   8.199   5.260
12569TIP3   OH237583   2.450   4.551   3.329
12569TIP3    H137584   2.464   4.479   3.390
12569TIP3    H237585   2.385   4.517   3.267
12570TIP3   OH237586   3.641   3.342   4.602
12570TIP3    H137587   3.559   3.312   4.563
12570TIP3    H237588   3.634   3.437   4.604
12571TIP3   OH237589   2.549   8.732   6.258
12571TIP3    H137590   2.596   8.808   6.225
12571TIP3    H237591   2.490   8.706   6.187
12572TIP3   OH237592   3.593   0.689   3.547
12572TIP3    H137593   3.505   0.655   3.528
12572TIP3    H237594   3.645   0.662   3.471
12573TIP3   OH237595   3.838   1.142   1.739
12573TIP3    H137596   3.897   1.216   1.726
12573TIP3    H237597   3.895   1.066   1.752
12574TIP3   OH237598   4.536   7.259   3.330
12574TIP3    H137599   4.617   7.271   3.380
12574TIP3    H237600   4.482   7.202   3.384
12575TIP3   OH237601   6.673   7.768   6.373
12575TIP3    H137602   6.696   7.805   6.459
12575TIP3    H237603   6.717   7.683   6.371
12576TIP3   OH237604   2.176   8.757   6.963
12576TIP3    H137605   2.244   8.691   6.978
12576TIP3    H237606   2.225   8.838   6.950
12577TIP3   OH237607   1.243   6.502   3.730
12577TIP3    H137608   1.177   6.474   3.667
12577TIP3    H237609   1.281   6.581   3.691
12578TIP3   OH237610   5.244   0.239   2.202
12578TIP3    H137611   5.305   0.252   2.275
12578TIP3    H237612   5.271   0.156   2.164
12579TIP3   OH237613   9.402   6.391   1.086
12579TIP3    H137614   9.355   6.308   1.079
12579TIP3    H237615   9.337   6.453   1.120
12580TIP3   OH237616   3.594   3.673   0.059
12580TIP3    H137617   3.553   3.684   0.145
12580TIP3    H237618   3.626   3.583   0.060
12581TIP3   OH237619   3.139   7.704   1.792
12581TIP3    H137620   3.137   7.615   1.755
12581TIP3    H237621   3.222   7.740   1.762
12582TIP3   OH237622   4.693   4.031   5.940
12582TIP3    H137623   4.620   4.059   5.884
12582TIP3    H237624   4.651   4.008   6.024
12583TIP3   OH237625   7.337   6.692   4.864
12583TIP3    H137626   7.286   6.673   4.785
12583TIP3    H237627   7.428   6.685   4.837
12584TIP3   OH237628   3.327   1.867   2.397
12584TIP3    H137629   3.346   1.910   2.314
12584TIP3    H237630   3.402   1.810   2.412
12585TIP3   OH237631   0.411   1.750   3.345
12585TIP3    H137632   0.351   1.734   3.418
12585TIP3    H237633   0.371   1.703   3.271
12586TIP3   OH237634   0.866   4.876   5.209
12586TIP3    H137635   0.947   4.898   5.162
12586TIP3    H237636   0.861   4.781   5.204
12587TIP3   OH237637   5.262   1.789   4.832
12587TIP3    H137638   5.318   1.796   4.909
12587TIP3    H237639   5.322   1.788   4.758
12588TIP3   OH237640   3.537   5.508   6.140
12588TIP3    H137641   3.573   5.568   6.206
12588TIP3    H237642   3.603   5.438   6.134
12589TIP3   OH237643   8.430   1.234   6.108
12589TIP3    H137644   8.410   1.320   6.073
12589TIP3    H237645   8.524   1.238   6.128
12590TIP3   OH237646   7.206   7.828   0.902
12590TIP3    H137647   7.117   7.814   0.933
12590TIP3    H237648   7.218   7.923   0.903
12591TIP3   OH237649   0.713   3.015   1.030
12591TIP3    H137650   0.743   3.105   1.041
12591TIP3    H237651   0.618   3.020   1.039
12592TIP3   OH237652   1.418   4.368   1.086
12592TIP3    H137653   1.344   4.314   1.112
12592TIP3    H237654   1.494   4.329   1.131
12593TIP3   OH237655   7.182   8.154   1.203
12593TIP3    H137656   7.124   8.080   1.185
12593TIP3    H237657   7.197   8.151   1.297
12594TIP3   OH237658   5.789   5.778   2.690
12594TIP3    H137659   5.808   5.846   2.754
12594TIP3    H237660   5.853   5.709   2.709
12595TIP3   OH237661   8.106   7.860   1.774
12595TIP3    H137662   8.165   7.784   1.777
12595TIP3    H237663   8.165   7.935   1.765
12596TIP3   OH237664   0.311   3.257   0.813
12596TIP3    H137665   0.373   3.194   0.850
12596TIP3    H237666   0.336   3.341   0.852
12597TIP3   OH237667   5.250   0.160   3.621
12597TIP3    H137668   5.185   0.099   3.655
12597TIP3    H237669   5.199   0.230   3.580
12598TIP3   OH237670   3.310   0.167   3.381
12598TIP3    H137671   3.345   0.225   3.449
12598TIP3    H237672   3.366   0.089   3.384
12599TIP3   OH237673   3.807   2.982   7.051
12599TIP3    H137674   3.724   2.934   7.048
12599TIP3    H237675   3.856   2.951   6.975
12600TIP3   OH237676   5.958   8.681   5.603
12600TIP3    H137677   5.992   8.671   5.691
12600TIP3    H237678   6.032   8.713   5.551
12601TIP3   OH237679   8.392   2.877   2.684
12601TIP3    H137680   8.414   2.791   2.721
12601TIP3    H237681   8.476   2.916   2.663
12602TIP3   OH237682   2.658   3.973   5.440
12602TIP3    H137683   2.628   3.896   5.392
12602TIP3    H237684   2.582   4.003   5.488
12603TIP3   OH237685   4.468   4.927   3.690
12603TIP3    H137686   4.460   4.996   3.625
12603TIP3    H237687   4.378   4.896   3.703
12604TIP3   OH237688   6.788   8.678   6.042
12604TIP3    H137689   6.772   8.756   5.988
12604TIP3    H237690   6.729   8.689   6.117
12605TIP3   OH237691   2.381   7.423   0.407
12605TIP3    H137692   2.385   7.519   0.404
12605TIP3    H237693   2.288   7.403   0.401
12606TIP3   OH237694   4.666   1.588   3.040
12606TIP3    H137695   4.667   1.492   3.042
12606TIP3    H237696   4.693   1.614   3.128
12607TIP3   OH237697   3.725   1.383   0.399
12607TIP3    H137698   3.818   1.382   0.424
12607TIP3    H237699   3.721   1.443   0.324
12608TIP3   OH237700   5.845   0.911   6.555
12608TIP3    H137701   5.761   0.909   6.603
12608TIP3    H237702   5.823   0.882   6.467
12609TIP3   OH237703   4.310   0.836   7.771
12609TIP3    H137704   4.248   0.853   7.842
12609TIP3    H237705   4.255   0.802   7.699
12610TIP3   OH237706   4.996   1.478   2.829
12610TIP3    H137707   4.999   1.462   2.735
12610TIP3    H237708   4.920   1.428   2.859
12611TIP3   OH237709   1.308   5.960   0.838
12611TIP3    H137710   1.288   6.052   0.851
12611TIP3    H237711   1.225   5.921   0.810
12612TIP3   OH237712   7.664   4.608   5.775
12612TIP3    H137713   7.754   4.641   5.780
12612TIP3    H237714   7.611   4.681   5.807
12613TIP3   OH237715   8.289   0.206   6.679
12613TIP3    H137716   8.249   0.215   6.765
12613TIP3    H237717   8.216   0.191   6.619
12614TIP3   OH237718   6.102   7.189   5.843
12614TIP3    H137719   6.188   7.146   5.842
12614TIP3    H237720   6.075   7.187   5.935
12615TIP3   OH237721   3.446   2.566   4.250
12615TIP3    H137722   3.481   2.545   4.337
12615TIP3    H237723   3.351   2.562   4.261
12616TIP3   OH237724   1.637   0.169   1.446
12616TIP3    H137725   1.557   0.136   1.486
12616TIP3    H237726   1.692   0.196   1.519
12617TIP3   OH237727   6.225   4.467   3.158
12617TIP3    H137728   6.262   4.416   3.086
12617TIP3    H237729   6.173   4.404   3.208
12618TIP3   OH237730   1.843   2.183   0.430
12618TIP3    H137731   1.821   2.185   0.337
12618TIP3    H237732   1.759   2.195   0.475
12619TIP3   OH237733   0.620   7.670   2.961
12619TIP3    H137734   0.558   7.743   2.953
12619TIP3    H237735   0.645   7.670   3.053
12620TIP3   OH237736   4.220   0.354   0.724
12620TIP3    H137737   4.298   0.366   0.670
12620TIP3    H237738   4.215   0.434   0.777
12621TIP3   OH237739   7.601   0.070   0.086
12621TIP3    H137740   7.668   0.127   0.050
12621TIP3    H237741   7.621  -0.017   0.050
12622TIP3   OH237742   5.962   0.810   6.945
12622TIP3    H137743   5.900   0.865   6.898
12622TIP3    H237744   6.035   0.797   6.884
12623TIP3   OH237745   4.210   5.994   7.126
12623TIP3    H137746   4.138   5.954   7.175
12623TIP3    H237747   4.266   6.034   7.193
12624TIP3   OH237748   5.897   8.175   5.640
12624TIP3    H137749   5.990   8.195   5.655
12624TIP3    H237750   5.876   8.108   5.705
12625TIP3   OH237751   5.314   7.251   5.905
12625TIP3    H137752   5.367   7.176   5.879
12625TIP3    H237753   5.258   7.269   5.830
12626TIP3   OH237754   5.844   6.221   4.417
12626TIP3    H137755   5.867   6.285   4.349
12626TIP3    H237756   5.759   6.250   4.450
12627TIP3   OH237757   1.175   6.442   5.841
12627TIP3    H137758   1.259   6.405   5.870
12627TIP3    H237759   1.110   6.401   5.898
12628TIP3   OH237760   5.438   0.032   5.549
12628TIP3    H137761   5.521   0.077   5.568
12628TIP3    H237762   5.416   0.061   5.460
12629TIP3   OH237763   8.247   1.004   6.906
12629TIP3    H137764   8.321   1.007   6.967
12629TIP3    H237765   8.178   1.054   6.949
12630TIP3   OH237766   1.455   0.479   1.360
12630TIP3    H137767   1.405   0.560   1.352
12630TIP3    H237768   1.547   0.508   1.363
12631TIP3   OH237769   7.822   3.007   1.349
12631TIP3    H137770   7.882   3.067   1.394
12631TIP3    H237771   7.736   3.047   1.358
12632TIP3   OH237772   7.880   8.738   2.446
12632TIP3    H137773   7.906   8.811   2.503
12632TIP3    H237774   7.791   8.717   2.473
12633TIP3   OH237775   6.828   7.651   2.706
12633TIP3    H137776   6.856   7.606   2.786
12633TIP3    H237777   6.871   7.736   2.710
12634TIP3   OH237778   4.780   7.937   1.031
12634TIP3    H137779   4.710   7.959   1.092
12634TIP3    H237780   4.861   7.966   1.075
12635TIP3   OH237781   1.248   4.690   5.863
12635TIP3    H137782   1.155   4.668   5.854
12635TIP3    H237783   1.254   4.783   5.843
12636TIP3   OH237784   0.833   6.401   0.544
12636TIP3    H137785   0.783   6.322   0.524
12636TIP3    H237786   0.778   6.450   0.604
12637TIP3   OH237787   2.203   3.487   5.014
12637TIP3    H137788   2.183   3.446   4.929
12637TIP3    H237789   2.246   3.419   5.065
12638TIP3   OH237790   8.018   0.257   5.701
12638TIP3    H137791   7.954   0.250   5.771
12638TIP3    H237792   8.041   0.167   5.680
12639TIP3   OH237793   7.145   2.537   5.853
12639TIP3    H137794   7.191   2.501   5.928
12639TIP3    H237795   7.213   2.580   5.801
12640TIP3   OH237796   2.715   4.434   6.275
12640TIP3    H137797   2.758   4.476   6.200
12640TIP3    H237798   2.762   4.352   6.286
12641TIP3   OH237799   4.491   5.256   3.871
12641TIP3    H137800   4.581   5.223   3.874
12641TIP3    H237801   4.493   5.335   3.925
12642TIP3   OH237802   5.494   6.388   5.953
12642TIP3    H137803   5.562   6.345   6.005
12642TIP3    H237804   5.495   6.479   5.984
12643TIP3   OH237805   0.158   1.413   4.477
12643TIP3    H137806   0.221   1.481   4.502
12643TIP3    H237807   0.198   1.331   4.507
12644TIP3   OH237808   6.799   0.510   0.328
12644TIP3    H137809   6.781   0.586   0.272
12644TIP3    H237810   6.750   0.438   0.288
12645TIP3   OH237811   9.041   3.179   0.691
12645TIP3    H137812   9.009   3.266   0.664
12645TIP3    H237813   9.136   3.191   0.700
12646TIP3   OH237814   6.760   5.601   1.048
12646TIP3    H137815   6.808   5.644   1.119
12646TIP3    H237816   6.732   5.673   0.991
12647TIP3   OH237817   4.400   2.341   5.298
12647TIP3    H137818   4.397   2.399   5.222
12647TIP3    H237819   4.493   2.335   5.320
12648TIP3   OH237820   3.785   3.754   5.932
12648TIP3    H137821   3.741   3.678   5.970
12648TIP3    H237822   3.771   3.824   5.995
12649TIP3   OH237823   6.051   4.095   5.397
12649TIP3    H137824   6.139   4.060   5.410
12649TIP3    H237825   6.060   4.189   5.413
12650TIP3   OH237826   7.558   2.204   4.595
12650TIP3    H137827   7.652   2.193   4.602
12650TIP3    H237828   7.545   2.253   4.514
12651TIP3   OH237829   2.947   2.205   7.047
12651TIP3    H137830   2.921   2.231   6.959
12651TIP3    H237831   2.934   2.110   7.049
12652TIP3   OH237832   4.916   1.837   1.567
12652TIP3    H137833   4.851   1.809   1.631
12652TIP3    H237834   4.886   1.924   1.538
12653TIP3   OH237835   4.239   4.857   3.821
12653TIP3    H137836   4.241   4.921   3.892
12653TIP3    H237837   4.152   4.817   3.828
12654TIP3   OH237838   6.603   1.964   1.401
12654TIP3    H137839   6.690   2.002   1.388
12654TIP3    H237840   6.563   1.967   1.315
12655TIP3   OH237841   5.349   1.808   2.406
12655TIP3    H137842   5.261   1.809   2.367
12655TIP3    H237843   5.337   1.765   2.490
12656TIP3   OH237844   6.691   1.792   5.678
12656TIP3    H137845   6.763   1.730   5.669
12656TIP3    H237846   6.618   1.740   5.713
12657TIP3   OH237847   8.838   3.545   6.736
12657TIP3    H137848   8.809   3.495   6.660
12657TIP3    H237849   8.869   3.479   6.798
12658TIP3   OH237850   0.624   4.841   4.188
12658TIP3    H137851   0.687   4.844   4.259
12658TIP3    H237852   0.665   4.888   4.116
12659TIP3   OH237853   5.944   4.421   7.137
12659TIP3    H137854   5.876   4.354   7.148
12659TIP3    H237855   5.910   4.497   7.183
12660TIP3   OH237856   4.080   7.146   5.003
12660TIP3    H137857   4.028   7.080   4.958
12660TIP3    H237858   4.158   7.157   4.948
12661TIP3   OH237859   8.919   3.438   0.685
12661TIP3    H137860   8.920   3.527   0.650
12661TIP3    H237861   8.958   3.447   0.772
12662TIP3   OH237862   6.519   3.235   6.530
12662TIP3    H137863   6.463   3.236   6.452
12662TIP3    H237864   6.506   3.148   6.568
12663TIP3   OH237865   7.785   3.239   6.956
12663TIP3    H137866   7.798   3.314   7.013
12663TIP3    H237867   7.709   3.261   6.903
12664TIP3   OH237868   0.486   5.921   5.219
12664TIP3    H137869   0.549   5.988   5.193
12664TIP3    H237870   0.517   5.890   5.304
12665TIP3   OH237871   5.490   8.786   0.782
12665TIP3    H137872   5.399   8.769   0.806
12665TIP3    H237873   5.498   8.881   0.787
12666TIP3   OH237874   6.809   1.266   7.544
12666TIP3    H137875   6.758   1.346   7.557
12666TIP3    H237876   6.745   1.204   7.508
12667TIP3   OH237877   5.839   5.036   4.071
12667TIP3    H137878   5.769   5.078   4.121
12667TIP3    H237879   5.871   4.965   4.128
12668TIP3   OH237880   8.572   4.846   1.618
12668TIP3    H137881   8.619   4.777   1.571
12668TIP3    H237882   8.628   4.865   1.694
12669TIP3   OH237883   7.599   8.922   0.502
12669TIP3    H137884   7.519   8.972   0.483
12669TIP3    H237885   7.576   8.831   0.482
12670TIP3   OH237886   0.725   7.957   7.614
12670TIP3    H137887   0.680   7.983   7.694
12670TIP3    H237888   0.774   7.878   7.639
12671TIP3   OH237889   2.224   7.797   2.958
12671TIP3    H137890   2.131   7.818   2.950
12671TIP3    H237891   2.260   7.868   3.011
12672TIP3   OH237892   5.266   1.742   5.479
12672TIP3    H137893   5.223   1.791   5.549
12672TIP3    H237894   5.195   1.697   5.434
12673TIP3   OH237895   4.887   0.260   7.062
12673TIP3    H137896   4.898   0.343   7.107
12673TIP3    H237897   4.944   0.199   7.109
12674TIP3   OH237898   2.294   1.992   5.563
12674TIP3    H137899   2.347   1.959   5.490
12674TIP3    H237900   2.256   1.914   5.603
12675TIP3   OH237901   7.411   6.509   2.948
12675TIP3    H137902   7.323   6.472   2.940
12675TIP3    H237903   7.453   6.493   2.864
12676TIP3   OH237904   7.871   8.796   3.800
12676TIP3    H137905   7.811   8.782   3.726
12676TIP3    H237906   7.818   8.781   3.878
12677TIP3   OH237907   7.390   5.659   7.801
12677TIP3    H137908   7.306   5.703   7.787
12677TIP3    H237909   7.396   5.649   7.896
12678TIP3   OH237910   1.362   3.559   7.557
12678TIP3    H137911   1.421   3.543   7.631
12678TIP3    H237912   1.405   3.519   7.482
12679TIP3   OH237913   2.005   0.548   2.428
12679TIP3    H137914   2.045   0.500   2.356
12679TIP3    H237915   2.071   0.612   2.454
12680TIP3   OH237916   6.434   6.163   7.224
12680TIP3    H137917   6.528   6.182   7.230
12680TIP3    H237918   6.409   6.194   7.137
12681TIP3   OH237919   7.224   0.101   3.967
12681TIP3    H137920   7.301   0.096   3.910
12681TIP3    H237921   7.226   0.190   4.002
12682TIP3   OH237922   0.752   0.314   7.391
12682TIP3    H137923   0.775   0.406   7.374
12682TIP3    H237924   0.707   0.317   7.476
12683TIP3   OH237925   0.645   8.418   3.031
12683TIP3    H137926   0.624   8.325   3.042
12683TIP3    H237927   0.662   8.450   3.120
12684TIP3   OH237928   5.828   8.995   0.722
12684TIP3    H137929   5.801   8.913   0.681
12684TIP3    H237930   5.746   9.044   0.733
12685TIP3   OH237931   8.483   0.820   3.125
12685TIP3    H137932   8.502   0.838   3.033
12685TIP3    H237933   8.417   0.886   3.149
12686TIP3   OH237934   9.366   3.636   1.918
12686TIP3    H137935   9.333   3.684   1.994
12686TIP3    H237936   9.458   3.661   1.912
12687TIP3   OH237937   0.594   0.909   6.375
12687TIP3    H137938   0.523   0.952   6.328
12687TIP3    H237939   0.664   0.975   6.379
12688TIP3   OH237940   7.956   2.773   6.441
12688TIP3    H137941   7.885   2.770   6.505
12688TIP3    H237942   7.950   2.690   6.394
12689TIP3   OH237943   7.199   5.054   1.959
12689TIP3    H137944   7.179   5.019   1.872
12689TIP3    H237945   7.140   5.128   1.969
12690TIP3   OH237946   1.193   8.431   4.532
12690TIP3    H137947   1.126   8.400   4.471
12690TIP3    H237948   1.151   8.425   4.618
12691TIP3   OH237949   1.882   3.615   0.236
12691TIP3    H137950   1.970   3.639   0.268
12691TIP3    H237951   1.824   3.637   0.309
12692TIP3   OH237952   0.002   4.004   6.184
12692TIP3    H137953   0.054   3.930   6.153
12692TIP3    H237954   0.038   4.025   6.270
12693TIP3   OH237955   2.426   2.975   2.096
12693TIP3    H137956   2.391   2.927   2.170
12693TIP3    H237957   2.349   2.997   2.043
12694TIP3   OH237958   0.189   5.550   4.316
12694TIP3    H137959   0.247   5.620   4.347
12694TIP3    H237960   0.230   5.470   4.348
12695TIP3   OH237961   3.794   7.817   0.436
12695TIP3    H137962   3.838   7.732   0.441
12695TIP3    H237963   3.736   7.810   0.361
12696TIP3   OH237964   4.237   7.432   2.081
12696TIP3    H137965   4.210   7.469   1.997
12696TIP3    H237966   4.319   7.478   2.102
12697TIP3   OH237967   8.433   8.567   4.194
12697TIP3    H137968   8.396   8.580   4.281
12697TIP3    H237969   8.403   8.643   4.143
12698TIP3   OH237970   5.655   8.797   4.621
12698TIP3    H137971   5.690   8.712   4.597
12698TIP3    H237972   5.628   8.787   4.712
12699TIP3   OH237973   0.539   3.482   1.179
12699TIP3    H137974   0.456   3.456   1.141
12699TIP3    H237975   0.605   3.442   1.122
12700TIP3   OH237976   3.125   4.167   2.753
12700TIP3    H137977   3.080   4.179   2.669
12700TIP3    H237978   3.217   4.184   2.734
12701TIP3   OH237979   4.217   1.373   5.434
12701TIP3    H137980   4.309   1.373   5.408
12701TIP3    H237981   4.182   1.289   5.402
12702TIP3   OH237982   8.631   6.351   6.900
12702TIP3    H137983   8.546   6.319   6.869
12702TIP3    H237984   8.620   6.445   6.906
12703TIP3   OH237985   1.500   8.161   4.998
12703TIP3    H137986   1.522   8.225   5.067
12703TIP3    H237987   1.485   8.079   5.045
12704TIP3   OH237988   0.046   3.955   6.736
12704TIP3    H137989  -0.024   4.000   6.783
12704TIP3    H237990   0.007   3.926   6.654
12705TIP3   OH237991   7.124   1.659   3.793
12705TIP3    H137992   7.216   1.642   3.817
12705TIP3    H237993   7.124   1.749   3.761
12706TIP3   OH237994   8.180   1.235   1.108
12706TIP3    H137995   8.131   1.214   1.188
12706TIP3    H237996   8.193   1.330   1.112
12707TIP3   OH237997   7.008   0.301   1.119
12707TIP3    H137998   6.984   0.388   1.089
12707TIP3    H237999   7.011   0.247   1.040
12708TIP3   OH238000   6.210   7.549   4.297
12708TIP3    H138001   6.189   7.459   4.321
12708TIP3    H238002   6.185   7.556   4.205
12709TIP3   OH238003   1.337   5.391   2.275
12709TIP3    H138004   1.339   5.299   2.300
12709TIP3    H238005   1.312   5.391   2.183
12710TIP3   OH238006   2.261   6.429   4.548
12710TIP3    H138007   2.237   6.512   4.507
12710TIP3    H238008   2.181   6.400   4.592
12711TIP3   OH238009   0.270   1.778   2.592
12711TIP3    H138010   0.269   1.712   2.523
12711TIP3    H238011   0.243   1.730   2.671
12712TIP3   OH238012   3.985   5.007   6.468
12712TIP3    H138013   3.919   5.070   6.438
12712TIP3    H238014   3.950   4.974   6.551
12713TIP3   OH238015   4.121   4.034   6.549
12713TIP3    H138016   4.191   4.098   6.538
12713TIP3    H238017   4.040   4.085   6.540
12714TIP3   OH238018   8.792   6.900   3.438
12714TIP3    H138019   8.872   6.902   3.385
12714TIP3    H238020   8.793   6.814   3.480
12715TIP3   OH238021   6.299   5.680   7.666
12715TIP3    H138022   6.238   5.754   7.663
12715TIP3    H238023   6.244   5.604   7.682
12716TIP3   OH238024   6.167   5.699   4.172
12716TIP3    H138025   6.238   5.672   4.113
12716TIP3    H238026   6.204   5.686   4.260
12717TIP3   OH238027   4.976   4.212   2.767
12717TIP3    H138028   4.912   4.140   2.773
12717TIP3    H238029   5.034   4.198   2.842
12718TIP3   OH238030   0.831   3.454   4.066
12718TIP3    H138031   0.830   3.386   3.999
12718TIP3    H238032   0.768   3.423   4.132
12719TIP3   OH238033   0.799   7.936   4.786
12719TIP3    H138034   0.825   7.844   4.790
12719TIP3    H238035   0.873   7.980   4.743
12720TIP3   OH238036   1.949   8.056   7.651
12720TIP3    H138037   1.989   8.030   7.734
12720TIP3    H238038   1.866   8.008   7.648
12721TIP3   OH238039   1.479   7.641   3.457
12721TIP3    H138040   1.562   7.600   3.431
12721TIP3    H238041   1.436   7.663   3.375
12722TIP3   OH238042   0.108   5.066   0.394
12722TIP3    H138043   0.131   5.141   0.449
12722TIP3    H238044   0.045   5.016   0.445
12723TIP3   OH238045   5.788   8.890   2.335
12723TIP3    H138046   5.873   8.902   2.378
12723TIP3    H238047   5.804   8.915   2.244
12724TIP3   OH238048   0.480   1.326   7.486
12724TIP3    H138049   0.437   1.345   7.570
12724TIP3    H238050   0.514   1.410   7.457
12725TIP3   OH238051   2.222   1.196   7.313
12725TIP3    H138052   2.266   1.148   7.243
12725TIP3    H238053   2.292   1.225   7.371
12726TIP3   OH238054   9.236   3.811   2.971
12726TIP3    H138055   9.255   3.786   2.880
12726TIP3    H238056   9.224   3.728   3.017
12727TIP3   OH238057   1.148   5.756   2.239
12727TIP3    H138058   1.189   5.680   2.278
12727TIP3    H238059   1.138   5.734   2.146
12728TIP3   OH238060   4.993   5.374   6.253
12728TIP3    H138061   4.966   5.283   6.251
12728TIP3    H238062   4.938   5.417   6.187
12729TIP3   OH238063   2.482   6.463   4.287
12729TIP3    H138064   2.407   6.522   4.279
12729TIP3    H238065   2.470   6.398   4.218
12730TIP3   OH238066   7.841   8.789   1.210
12730TIP3    H138067   7.835   8.758   1.120
12730TIP3    H238068   7.762   8.842   1.223
12731TIP3   OH238069   1.229   7.341   4.195
12731TIP3    H138070   1.156   7.282   4.213
12731TIP3    H238071   1.255   7.374   4.281
12732TIP3   OH238072   2.154   0.695   1.701
12732TIP3    H138073   2.247   0.682   1.718
12732TIP3    H238074   2.147   0.787   1.674
12733TIP3   OH238075   2.581   4.479   6.551
12733TIP3    H138076   2.584   4.385   6.565
12733TIP3    H238077   2.672   4.504   6.536
12734TIP3   OH238078   4.979   1.804   3.613
12734TIP3    H138079   5.022   1.725   3.646
12734TIP3    H238080   4.996   1.804   3.519
12735TIP3   OH238081   1.428   5.094   7.712
12735TIP3    H138082   1.436   5.059   7.623
12735TIP3    H238083   1.478   5.032   7.766
12736TIP3   OH238084   4.651   5.976   4.745
12736TIP3    H138085   4.584   6.005   4.683
12736TIP3    H238086   4.734   5.991   4.700
12737TIP3   OH238087   9.001   4.921   0.021
12737TIP3    H138088   8.933   4.882   0.077
12737TIP3    H238089   8.963   4.923  -0.066
12738TIP3   OH238090   0.655   6.361   1.228
12738TIP3    H138091   0.725   6.411   1.268
12738TIP3    H238092   0.578   6.380   1.281
12739TIP3   OH238093   2.310   8.821   4.552
12739TIP3    H138094   2.302   8.881   4.477
12739TIP3    H238095   2.390   8.771   4.533
12740TIP3   OH238096   7.023   2.934   6.212
12740TIP3    H138097   7.061   2.848   6.195
12740TIP3    H238098   6.993   2.965   6.126
12741TIP3   OH238099   4.136   3.539   4.432
12741TIP3    H138100   4.077   3.569   4.501
12741TIP3    H238101   4.120   3.600   4.360
12742TIP3   OH238102   3.984   2.503   7.535
12742TIP3    H138103   4.056   2.540   7.485
12742TIP3    H238104   3.907   2.550   7.504
12743TIP3   OH238105   1.213   0.694   6.010
12743TIP3    H138106   1.168   0.726   5.932
12743TIP3    H238107   1.273   0.764   6.033
12744TIP3   OH238108   9.289   4.147   2.020
12744TIP3    H138109   9.374   4.110   1.996
12744TIP3    H238110   9.310   4.227   2.068
12745TIP3   OH238111   6.680   0.591   2.867
12745TIP3    H138112   6.774   0.599   2.885
12745TIP3    H238113   6.647   0.680   2.875
12746TIP3   OH238114   4.083   6.378   7.317
12746TIP3    H138115   4.124   6.336   7.392
12746TIP3    H238116   4.015   6.317   7.289
12747TIP3   OH238117   5.078   6.071   1.458
12747TIP3    H138118   5.150   6.027   1.505
12747TIP3    H238119   5.016   6.096   1.526
12748TIP3   OH238120   9.039   7.848   1.919
12748TIP3    H138121   9.020   7.756   1.898
12748TIP3    H238122   9.085   7.880   1.841
12749TIP3   OH238123   4.356   7.745   1.897
12749TIP3    H138124   4.291   7.679   1.920
12749TIP3    H238125   4.336   7.819   1.954
12750TIP3   OH238126   1.784   6.036   5.794
12750TIP3    H138127   1.826   6.020   5.709
12750TIP3    H238128   1.851   6.080   5.846
12751TIP3   OH238129   8.055   4.674   2.162
12751TIP3    H138130   7.963   4.669   2.137
12751TIP3    H238131   8.103   4.649   2.083
12752TIP3   OH238132   7.863   8.250   0.503
12752TIP3    H138133   7.829   8.311   0.437
12752TIP3    H238134   7.789   8.235   0.562
12753TIP3   OH238135   6.118   5.082   5.036
12753TIP3    H138136   6.062   5.076   5.113
12753TIP3    H238137   6.078   5.151   4.983
12754TIP3   OH238138   0.434   3.684   0.263
12754TIP3    H138139   0.372   3.720   0.199
12754TIP3    H238140   0.519   3.693   0.222
12755TIP3   OH238141   4.799   5.900   5.540
12755TIP3    H138142   4.726   5.949   5.501
12755TIP3    H238143   4.762   5.813   5.558
12756TIP3   OH238144   1.245   1.242   6.195
12756TIP3    H138145   1.266   1.203   6.110
12756TIP3    H238146   1.217   1.331   6.174
12757TIP3   OH238147   7.068   5.149   2.761
12757TIP3    H138148   6.978   5.141   2.729
12757TIP3    H238149   7.118   5.089   2.706
12758TIP3   OH238150   4.582   6.318   5.191
12758TIP3    H138151   4.493   6.284   5.207
12758TIP3    H238152   4.638   6.266   5.248
12759TIP3   OH238153   2.471   3.870   3.717
12759TIP3    H138154   2.519   3.929   3.774
12759TIP3    H238155   2.405   3.830   3.773
12760TIP3   OH238156   1.432   6.588   5.054
12760TIP3    H138157   1.355   6.638   5.026
12760TIP3    H238158   1.408   6.497   5.041
12761TIP3   OH238159   0.819   7.527   0.150
12761TIP3    H138160   0.782   7.443   0.125
12761TIP3    H238161   0.914   7.514   0.145
12762TIP3   OH238162   7.526   1.790   7.001
12762TIP3    H138163   7.437   1.818   6.981
12762TIP3    H238164   7.518   1.696   7.018
12763TIP3   OH238165   7.055   8.012   4.285
12763TIP3    H138166   7.033   8.028   4.376
12763TIP3    H238167   6.983   7.959   4.251
12764TIP3   OH238168   1.649   6.267   5.313
12764TIP3    H138169   1.554   6.267   5.319
12764TIP3    H238170   1.667   6.249   5.220
12765TIP3   OH238171   7.460   1.452   2.616
12765TIP3    H138172   7.419   1.400   2.685
12765TIP3    H238173   7.396   1.453   2.545
12766TIP3   OH238174   2.776   6.311   4.078
12766TIP3    H138175   2.764   6.216   4.088
12766TIP3    H238176   2.871   6.323   4.081
12767TIP3   OH238177   1.460   6.449   4.433
12767TIP3    H138178   1.477   6.373   4.489
12767TIP3    H238179   1.457   6.413   4.344
12768TIP3   OH238180   4.256   7.479   6.946
12768TIP3    H138181   4.346   7.452   6.960
12768TIP3    H238182   4.204   7.418   6.998
12769TIP3   OH238183   3.398   3.850   3.346
12769TIP3    H138184   3.421   3.776   3.402
12769TIP3    H238185   3.433   3.926   3.392
12770TIP3   OH238186   6.815   2.437   3.329
12770TIP3    H138187   6.811   2.525   3.365
12770TIP3    H238188   6.834   2.450   3.236
12771TIP3   OH238189   6.072   4.419   1.421
12771TIP3    H138190   6.069   4.345   1.361
12771TIP3    H238191   6.163   4.449   1.418
12772TIP3   OH238192   1.233   0.334   3.001
12772TIP3    H138193   1.218   0.344   3.095
12772TIP3    H238194   1.298   0.265   2.994
12773TIP3   OH238195   8.773   4.539   4.048
12773TIP3    H138196   8.835   4.576   3.984
12773TIP3    H238197   8.783   4.444   4.039
12774TIP3   OH238198   2.328   4.560   4.644
12774TIP3    H138199   2.400   4.622   4.631
12774TIP3    H238200   2.316   4.557   4.739
12775TIP3   OH238201   7.881   1.052   6.937
12775TIP3    H138202   7.940   1.083   7.005
12775TIP3    H238203   7.877   1.125   6.874
12776TIP3   OH238204   3.158   4.592   3.215
12776TIP3    H138205   3.109   4.541   3.280
12776TIP3    H238206   3.142   4.546   3.132
12777TIP3   OH238207   5.549   2.720   4.235
12777TIP3    H138208   5.539   2.730   4.140
12777TIP3    H238209   5.627   2.772   4.255
12778TIP3   OH238210   9.067   7.197   2.096
12778TIP3    H138211   9.092   7.111   2.130
12778TIP3    H238212   9.025   7.241   2.170
12779TIP3   OH238213   5.869   6.005   5.202
12779TIP3    H138214   5.791   6.033   5.249
12779TIP3    H238215   5.839   5.989   5.113
12780TIP3   OH238216   8.502   5.751   1.788
12780TIP3    H138217   8.513   5.707   1.873
12780TIP3    H238218   8.408   5.764   1.780
12781TIP3   OH238219   2.488   6.064   6.848
12781TIP3    H138220   2.552   6.133   6.828
12781TIP3    H238221   2.488   6.059   6.943
12782TIP3   OH238222   2.104   2.879   5.500
12782TIP3    H138223   2.186   2.921   5.474
12782TIP3    H238224   2.131   2.792   5.530
12783TIP3   OH238225   0.865   7.009   7.225
12783TIP3    H138226   0.886   7.070   7.155
12783TIP3    H238227   0.879   6.923   7.187
12784TIP3   OH238228   6.798   5.227   3.576
12784TIP3    H138229   6.820   5.318   3.557
12784TIP3    H238230   6.780   5.188   3.491
12785TIP3   OH238231   4.899   6.016   4.590
12785TIP3    H138232   4.948   5.961   4.651
12785TIP3    H238233   4.943   6.101   4.593
12786TIP3   OH238234   2.056   7.726   5.296
12786TIP3    H138235   2.134   7.699   5.249
12786TIP3    H238236   1.995   7.653   5.286
12787TIP3   OH238237   4.992   6.615   3.439
12787TIP3    H138238   5.014   6.578   3.353
12787TIP3    H238239   5.066   6.672   3.460
12788TIP3   OH238240   5.104   8.342   4.423
12788TIP3    H138241   5.074   8.404   4.356
12788TIP3    H238242   5.068   8.258   4.396
12789TIP3   OH238243   4.341   3.724   5.831
12789TIP3    H138244   4.293   3.790   5.781
12789TIP3    H238245   4.399   3.683   5.768
12790TIP3   OH238246   4.794   3.779   7.148
12790TIP3    H138247   4.700   3.762   7.158
12790TIP3    H238248   4.801   3.824   7.064
12791TIP3   OH238249   4.186   5.398   4.022
12791TIP3    H138250   4.220   5.482   3.992
12791TIP3    H238251   4.251   5.334   3.991
12792TIP3   OH238252   2.188   8.915   2.378
12792TIP3    H138253   2.238   8.836   2.401
12792TIP3    H238254   2.230   8.985   2.429
12793TIP3   OH238255   6.120   4.758   5.028
12793TIP3    H138256   6.165   4.799   4.954
12793TIP3    H238257   6.048   4.710   4.988
12794TIP3   OH238258   7.906   6.075   1.184
12794TIP3    H138259   7.939   6.149   1.235
12794TIP3    H238260   7.983   6.019   1.172
12795TIP3   OH238261   6.078   6.428   6.721
12795TIP3    H138262   5.996   6.380   6.734
12795TIP3    H238263   6.147   6.362   6.732
12796TIP3   OH238264   3.973   8.675   3.271
12796TIP3    H138265   4.065   8.684   3.293
12796TIP3    H238266   3.952   8.584   3.290
12797TIP3   OH238267   5.992   6.868   6.913
12797TIP3    H138268   6.041   6.788   6.934
12797TIP3    H238269   5.935   6.882   6.988
12798TIP3   OH238270   5.884   4.053   3.377
12798TIP3    H138271   5.830   4.058   3.457
12798TIP3    H238272   5.915   4.142   3.364
12799TIP3   OH238273   5.880   2.680   7.079
12799TIP3    H138274   5.858   2.608   7.020
12799TIP3    H238275   5.818   2.671   7.152
12800TIP3   OH238276   2.494   8.520   6.431
12800TIP3    H138277   2.508   8.604   6.388
12800TIP3    H238278   2.419   8.535   6.489
12801TIP3   OH238279   3.341   2.885   5.389
12801TIP3    H138280   3.431   2.867   5.364
12801TIP3    H238281   3.335   2.857   5.480
12802TIP3   OH238282   4.479   5.713   2.896
12802TIP3    H138283   4.461   5.690   2.987
12802TIP3    H238284   4.575   5.722   2.892
12803TIP3   OH238285   3.472   2.368   0.985
12803TIP3    H138286   3.529   2.334   0.916
12803TIP3    H238287   3.407   2.299   0.997
12804TIP3   OH238288   7.402   8.902   3.302
12804TIP3    H138289   7.484   8.932   3.342
12804TIP3    H238290   7.334   8.940   3.357
12805TIP3   OH238291   9.188   7.452   1.200
12805TIP3    H138292   9.270   7.468   1.153
12805TIP3    H238293   9.208   7.471   1.291
12806TIP3   OH238294   6.792   5.070   6.107
12806TIP3    H138295   6.742   5.127   6.165
12806TIP3    H238296   6.859   5.030   6.163
12807TIP3   OH238297   7.640   6.061   5.688
12807TIP3    H138298   7.608   5.972   5.704
12807TIP3    H238299   7.585   6.094   5.617
12808TIP3   OH238300   0.529   7.504   0.846
12808TIP3    H138301   0.487   7.478   0.763
12808TIP3    H238302   0.590   7.433   0.864
12809TIP3   OH238303   2.246   3.176   6.105
12809TIP3    H138304   2.225   3.106   6.167
12809TIP3    H238305   2.188   3.248   6.130
12810TIP3   OH238306   8.957   4.430   7.468
12810TIP3    H138307   8.881   4.455   7.521
12810TIP3    H238308   8.975   4.339   7.493
12811TIP3   OH238309   0.544   2.701   2.059
12811TIP3    H138310   0.470   2.653   2.023
12811TIP3    H238311   0.508   2.786   2.084
12812TIP3   OH238312   8.994   2.038   5.762
12812TIP3    H138313   8.942   1.959   5.746
12812TIP3    H238314   9.009   2.037   5.857
12813TIP3   OH238315   3.537   8.943   1.819
12813TIP3    H138316   3.503   8.886   1.888
12813TIP3    H238317   3.498   8.909   1.738
12814TIP3   OH238318   6.664   7.823   6.095
12814TIP3    H138319   6.711   7.906   6.090
12814TIP3    H238320   6.658   7.805   6.189
12815TIP3   OH238321   4.886   2.900   0.741
12815TIP3    H138322   4.958   2.961   0.725
12815TIP3    H238323   4.816   2.954   0.778
12816TIP3   OH238324   5.351   3.416   5.642
12816TIP3    H138325   5.270   3.417   5.590
12816TIP3    H238326   5.341   3.339   5.699
12817TIP3   OH238327   7.485   7.815   2.598
12817TIP3    H138328   7.465   7.785   2.510
12817TIP3    H238329   7.430   7.761   2.655
12818TIP3   OH238330   5.799   5.437   1.114
12818TIP3    H138331   5.793   5.424   1.209
12818TIP3    H238332   5.875   5.495   1.103
12819TIP3   OH238333   6.810   5.654   5.090
12819TIP3    H138334   6.720   5.622   5.082
12819TIP3    H238335   6.842   5.614   5.170
12820TIP3   OH238336   4.756   2.745   1.261
12820TIP3    H138337   4.767   2.741   1.166
12820TIP3    H238338   4.720   2.832   1.278
12821TIP3   OH238339   1.793   7.097   3.303
12821TIP3    H138340   1.884   7.093   3.331
12821TIP3    H238341   1.791   7.045   3.223
12822TIP3   OH238342   0.065   3.596   5.426
12822TIP3    H138343  -0.010   3.581   5.368
12822TIP3    H238344   0.065   3.521   5.485
12823TIP3   OH238345   3.163   7.492   3.212
12823TIP3    H138346   3.155   7.460   3.301
12823TIP3    H238347   3.074   7.493   3.178
12824TIP3   OH238348   3.553   7.674   1.934
12824TIP3    H138349   3.517   7.719   2.011
12824TIP3    H238350   3.519   7.585   1.941
12825TIP3   OH238351   6.562   8.904   4.702
12825TIP3    H138352   6.593   8.873   4.787
12825TIP3    H238353   6.483   8.955   4.723
12826TIP3   OH238354   3.981   8.426   1.202
12826TIP3    H138355   4.075   8.439   1.195
12826TIP3    H238356   3.969   8.387   1.289
12827TIP3   OH238357   5.974   7.583   6.623
12827TIP3    H138358   6.002   7.547   6.539
12827TIP3    H238359   6.051   7.631   6.655
12828TIP3   OH238360   7.389   1.844   3.618
12828TIP3    H138361   7.294   1.846   3.606
12828TIP3    H238362   7.416   1.935   3.611
12829TIP3   OH238363   7.594   6.862   7.133
12829TIP3    H138364   7.604   6.776   7.174
12829TIP3    H238365   7.526   6.850   7.067
12830TIP3   OH238366   8.908   6.382   3.766
12830TIP3    H138367   8.859   6.385   3.684
12830TIP3    H238368   8.876   6.458   3.815
12831TIP3   OH238369   5.751   1.110   4.877
12831TIP3    H138370   5.748   1.090   4.783
12831TIP3    H238371   5.822   1.173   4.885
12832TIP3   OH238372   5.175   0.824   5.683
12832TIP3    H138373   5.081   0.819   5.703
12832TIP3    H238374   5.212   0.872   5.756
12833TIP3   OH238375   1.007   5.214   5.656
12833TIP3    H138376   0.945   5.158   5.610
12833TIP3    H238377   1.073   5.236   5.589
12834TIP3   OH238378   0.023   8.069   5.827
12834TIP3    H138379  -0.019   8.146   5.864
12834TIP3    H238380  -0.044   8.027   5.774
12835TIP3   OH238381   4.524   5.121   5.051
12835TIP3    H138382   4.482   5.037   5.038
12835TIP3    H238383   4.476   5.161   5.123
12836TIP3   OH238384   3.727   5.730   1.735
12836TIP3    H138385   3.792   5.735   1.665
12836TIP3    H238386   3.643   5.728   1.691
12837TIP3   OH238387   4.477   8.948   4.502
12837TIP3    H138388   4.448   9.039   4.514
12837TIP3    H238389   4.560   8.956   4.456
12838TIP3   OH238390   8.458   2.494   4.462
12838TIP3    H138391   8.489   2.455   4.380
12838TIP3    H238392   8.517   2.568   4.477
12839TIP3   OH238393   4.393   8.204   5.701
12839TIP3    H138394   4.343   8.260   5.759
12839TIP3    H238395   4.376   8.239   5.613
12840TIP3   OH238396   3.245   7.198   2.812
12840TIP3    H138397   3.276   7.244   2.734
12840TIP3    H238398   3.195   7.263   2.860
12841TIP3   OH238399   6.313   3.172   6.343
12841TIP3    H138400   6.282   3.082   6.337
12841TIP3    H238401   6.233   3.225   6.343
12842TIP3   OH238402   1.396   2.233   1.703
12842TIP3    H138403   1.363   2.164   1.646
12842TIP3    H238404   1.485   2.250   1.671
12843TIP3   OH238405   3.641   6.857   5.523
12843TIP3    H138406   3.699   6.783   5.503
12843TIP3    H238407   3.580   6.860   5.450
12844TIP3   OH238408   3.578   4.154   1.367
12844TIP3    H138409   3.669   4.161   1.396
12844TIP3    H238410   3.541   4.241   1.383
12845TIP3   OH238411   5.103   0.203   4.012
12845TIP3    H138412   5.091   0.285   3.965
12845TIP3    H238413   5.178   0.218   4.069
12846TIP3   OH238414   7.172   2.913   1.266
12846TIP3    H138415   7.238   2.973   1.231
12846TIP3    H238416   7.107   2.906   1.195
12847TIP3   OH238417   9.064   0.357   4.197
12847TIP3    H138418   9.095   0.447   4.204
12847TIP3    H238419   9.139   0.307   4.165
12848TIP3   OH238420   0.325   1.299   3.085
12848TIP3    H138421   0.405   1.295   3.137
12848TIP3    H238422   0.256   1.268   3.144
12849TIP3   OH238423   5.372   0.016   1.625
12849TIP3    H138424   5.317   0.069   1.567
12849TIP3    H238425   5.339  -0.073   1.615
12850TIP3   OH238426   9.287   7.826   7.443
12850TIP3    H138427   9.316   7.901   7.495
12850TIP3    H238428   9.359   7.763   7.449
12851TIP3   OH238429   6.476   3.664   5.159
12851TIP3    H138430   6.440   3.624   5.079
12851TIP3    H238431   6.518   3.745   5.128
12852TIP3   OH238432   4.951   8.934   6.475
12852TIP3    H138433   5.016   8.993   6.436
12852TIP3    H238434   4.892   8.912   6.403
12853TIP3   OH238435   4.531   6.989   6.430
12853TIP3    H138436   4.526   7.064   6.489
12853TIP3    H238437   4.624   6.977   6.413
12854TIP3   OH238438   4.935   8.147   4.263
12854TIP3    H138439   4.845   8.158   4.232
12854TIP3    H238440   4.987   8.137   4.183
12855TIP3   OH238441   3.748   5.731   3.156
12855TIP3    H138442   3.657   5.718   3.183
12855TIP3    H238443   3.742   5.760   3.065
12856TIP3   OH238444   9.075   3.127   2.294
12856TIP3    H138445   9.118   3.072   2.360
12856TIP3    H238446   9.032   3.196   2.345
12857TIP3   OH238447   3.472   0.147   4.724
12857TIP3    H138448   3.492   0.170   4.633
12857TIP3    H238449   3.421   0.220   4.757
12858TIP3   OH238450   5.466   7.571   3.026
12858TIP3    H138451   5.455   7.582   2.931
12858TIP3    H238452   5.407   7.636   3.064
12859TIP3   OH238453   7.283   2.719   6.494
12859TIP3    H138454   7.236   2.662   6.432
12859TIP3    H238455   7.231   2.714   6.575
12860TIP3   OH238456   4.317   6.081   1.177
12860TIP3    H138457   4.348   5.993   1.151
12860TIP3    H238458   4.397   6.131   1.193
12861TIP3   OH238459   6.966   4.799   1.932
12861TIP3    H138460   6.956   4.868   1.866
12861TIP3    H238461   6.884   4.750   1.928
12862TIP3   OH238462   3.453   2.066   2.254
12862TIP3    H138463   3.504   2.074   2.335
12862TIP3    H238464   3.519   2.065   2.185
12863TIP3   OH238465   8.794   1.357   1.466
12863TIP3    H138466   8.706   1.320   1.469
12863TIP3    H238467   8.851   1.288   1.501
12864TIP3   OH238468   3.985   4.941   5.895
12864TIP3    H138469   3.961   5.029   5.867
12864TIP3    H238470   3.970   4.886   5.818
12865TIP3   OH238471   2.413   0.205   2.356
12865TIP3    H138472   2.351   0.163   2.296
12865TIP3    H238473   2.493   0.215   2.305
12866TIP3   OH238474   5.851   1.381   2.395
12866TIP3    H138475   5.875   1.447   2.460
12866TIP3    H238476   5.896   1.301   2.423
12867TIP3   OH238477   7.385   0.443   6.673
12867TIP3    H138478   7.330   0.506   6.720
12867TIP3    H238479   7.331   0.364   6.668
12868TIP3   OH238480   2.038   7.940   0.604
12868TIP3    H138481   2.051   7.855   0.562
12868TIP3    H238482   2.068   8.003   0.539
12869TIP3   OH238483   3.307   8.593   5.783
12869TIP3    H138484   3.388   8.570   5.739
12869TIP3    H238485   3.276   8.672   5.739
12870TIP3   OH238486   7.151   8.318   3.789
12870TIP3    H138487   7.072   8.280   3.826
12870TIP3    H238488   7.222   8.267   3.827
12871TIP3   OH238489   8.910   5.239   7.817
12871TIP3    H138490   8.918   5.260   7.724
12871TIP3    H238491   8.907   5.144   7.820
12872TIP3   OH238492   7.604   4.239   7.009
12872TIP3    H138493   7.578   4.316   6.959
12872TIP3    H238494   7.557   4.247   7.092
12873TIP3   OH238495   0.936   7.583   1.083
12873TIP3    H138496   0.900   7.495   1.076
12873TIP3    H238497   0.894   7.632   1.013
12874TIP3   OH238498   1.507   5.920   5.820
12874TIP3    H138499   1.588   5.969   5.822
12874TIP3    H238500   1.487   5.911   5.727
12875TIP3   OH238501   9.438   0.724   5.302
12875TIP3    H138502   9.396   0.726   5.216
12875TIP3    H238503   9.478   0.637   5.308
12876TIP3   OH238504   4.022   5.524   0.565
12876TIP3    H138505   4.050   5.445   0.519
12876TIP3    H238506   3.997   5.585   0.496
12877TIP3   OH238507   3.718   8.533   0.906
12877TIP3    H138508   3.627   8.504   0.896
12877TIP3    H238509   3.769   8.452   0.900
12878TIP3   OH238510   4.067   6.170   6.927
12878TIP3    H138511   4.129   6.107   6.963
12878TIP3    H238512   4.104   6.194   6.841
12879TIP3   OH238513   5.725   5.619   1.985
12879TIP3    H138514   5.671   5.679   2.037
12879TIP3    H238515   5.792   5.675   1.946
12880TIP3   OH238516   2.341   8.648   1.289
12880TIP3    H138517   2.388   8.611   1.214
12880TIP3    H238518   2.249   8.649   1.261
12881TIP3   OH238519   0.538   5.789   1.620
12881TIP3    H138520   0.451   5.806   1.657
12881TIP3    H238521   0.556   5.867   1.566
12882TIP3   OH238522   6.392   0.145   4.931
12882TIP3    H138523   6.298   0.160   4.916
12882TIP3    H238524   6.401   0.151   5.026
12883TIP3   OH238525   3.279   2.856   5.997
12883TIP3    H138526   3.287   2.763   5.974
12883TIP3    H238527   3.185   2.874   5.989
12884TIP3   OH238528   3.665   8.233   0.582
12884TIP3    H138529   3.688   8.141   0.596
12884TIP3    H238530   3.747   8.280   0.590
12885TIP3   OH238531   2.854   4.581   7.030
12885TIP3    H138532   2.795   4.551   7.100
12885TIP3    H238533   2.839   4.675   7.023
12886TIP3   OH238534   4.717   6.259   2.969
12886TIP3    H138535   4.699   6.299   3.054
12886TIP3    H238536   4.670   6.175   2.971
12887TIP3   OH238537   3.905   8.426   0.427
12887TIP3    H138538   3.903   8.504   0.482
12887TIP3    H238539   3.942   8.358   0.484
12888TIP3   OH238540   9.535   3.478   1.354
12888TIP3    H138541   9.480   3.410   1.393
12888TIP3    H238542   9.613   3.480   1.410
12889TIP3   OH238543   6.899   7.672   3.862
12889TIP3    H138544   6.858   7.592   3.896
12889TIP3    H238545   6.886   7.737   3.931
12890TIP3   OH238546   6.382   0.443   2.685
12890TIP3    H138547   6.422   0.365   2.647
12890TIP3    H238548   6.435   0.516   2.654
12891TIP3   OH238549   1.366   8.620   2.778
12891TIP3    H138550   1.273   8.637   2.768
12891TIP3    H238551   1.379   8.532   2.743
12892TIP3   OH238552   5.652   3.147   2.784
12892TIP3    H138553   5.562   3.179   2.776
12892TIP3    H238554   5.650   3.089   2.860
12893TIP3   OH238555   2.816   2.865   6.964
12893TIP3    H138556   2.857   2.790   6.921
12893TIP3    H238557   2.777   2.829   7.043
12894TIP3   OH238558   5.246   8.083   6.773
12894TIP3    H138559   5.272   8.010   6.830
12894TIP3    H238560   5.281   8.161   6.816
12895TIP3   OH238561   2.027   0.077   2.371
12895TIP3    H138562   2.048   0.133   2.446
12895TIP3    H238563   1.939   0.046   2.388
12896TIP3   OH238564   7.279   8.475   3.044
12896TIP3    H138565   7.265   8.522   3.126
12896TIP3    H238566   7.307   8.542   2.982
12897TIP3   OH238567   3.669   8.124   2.000
12897TIP3    H138568   3.576   8.124   1.975
12897TIP3    H238569   3.697   8.034   1.985
12898TIP3   OH238570   6.969   0.787   6.333
12898TIP3    H138571   6.992   0.802   6.241
12898TIP3    H238572   7.022   0.851   6.381
12899TIP3   OH238573   2.338   2.072   5.899
12899TIP3    H138574   2.328   1.980   5.875
12899TIP3    H238575   2.375   2.070   5.987
12900TIP3   OH238576   0.703   1.405   6.191
12900TIP3    H138577   0.616   1.368   6.176
12900TIP3    H238578   0.734   1.429   6.103
12901TIP3   OH238579   9.280   8.902   7.301
12901TIP3    H138580   9.303   8.968   7.366
12901TIP3    H238581   9.310   8.819   7.340
12902TIP3   OH238582   8.753   5.760   1.307
12902TIP3    H138583   8.836   5.796   1.339
12902TIP3    H238584   8.718   5.711   1.381
12903TIP3   OH238585   0.702   6.903   0.030
12903TIP3    H138586   0.781   6.942   0.068
12903TIP3    H238587   0.730   6.816   0.001
12904TIP3   OH238588   6.517   1.944   2.320
12904TIP3    H138589   6.585   1.975   2.380
12904TIP3    H238590   6.566   1.902   2.249
12905TIP3   OH238591   8.326   4.944   4.195
12905TIP3    H138592   8.312   4.849   4.204
12905TIP3    H238593   8.348   4.956   4.102
12906TIP3   OH238594   8.748   5.436   5.014
12906TIP3    H138595   8.811   5.406   4.948
12906TIP3    H238596   8.667   5.448   4.965
12907TIP3   OH238597   7.016   6.195   5.176
12907TIP3    H138598   6.954   6.239   5.234
12907TIP3    H238599   7.047   6.264   5.118
12908TIP3   OH238600   1.758   3.078   6.872
12908TIP3    H138601   1.684   3.018   6.861
12908TIP3    H238602   1.763   3.092   6.966
12909TIP3   OH238603   4.229   5.718   2.697
12909TIP3    H138604   4.295   5.718   2.766
12909TIP3    H238605   4.182   5.801   2.708
12910TIP3   OH238606   2.102   5.214   7.801
12910TIP3    H138607   2.059   5.298   7.821
12910TIP3    H238608   2.169   5.237   7.736
12911TIP3   OH238609   0.147   3.027   1.062
12911TIP3    H138610   0.107   3.061   0.982
12911TIP3    H238611   0.100   3.072   1.133
12912TIP3   OH238612   4.325   2.298   5.598
12912TIP3    H138613   4.345   2.205   5.588
12912TIP3    H238614   4.373   2.340   5.526
12913TIP3   OH238615   4.404   0.453   4.131
12913TIP3    H138616   4.443   0.368   4.111
12913TIP3    H238617   4.319   0.433   4.169
12914TIP3   OH238618   8.309   0.898   6.315
12914TIP3    H138619   8.255   0.943   6.250
12914TIP3    H238620   8.341   0.968   6.371
12915TIP3   OH238621   2.375   4.704   1.491
12915TIP3    H138622   2.433   4.777   1.512
12915TIP3    H238623   2.397   4.637   1.556
12916TIP3   OH238624   1.225   5.144   0.007
12916TIP3    H138625   1.280   5.074  -0.028
12916TIP3    H238626   1.287   5.210   0.037
12917TIP3   OH238627   2.742   5.663   0.826
12917TIP3    H138628   2.812   5.599   0.839
12917TIP3    H238629   2.741   5.714   0.907
12918TIP3   OH238630   4.666   2.985   5.813
12918TIP3    H138631   4.575   3.006   5.832
12918TIP3    H238632   4.701   2.949   5.895
12919TIP3   OH238633   0.808   2.677   6.232
12919TIP3    H138634   0.720   2.708   6.254
12919TIP3    H238635   0.818   2.596   6.283
12920TIP3   OH238636   0.717   1.170   1.309
12920TIP3    H138637   0.706   1.222   1.229
12920TIP3    H238638   0.634   1.123   1.318
12921TIP3   OH238639   9.199   4.158   1.176
12921TIP3    H138640   9.206   4.119   1.263
12921TIP3    H238641   9.277   4.214   1.169
12922TIP3   OH238642   0.248   4.623   4.798
12922TIP3    H138643   0.282   4.537   4.773
12922TIP3    H238644   0.324   4.681   4.791
12923TIP3   OH238645   6.125   7.137   7.503
12923TIP3    H138646   6.079   7.194   7.442
12923TIP3    H238647   6.151   7.194   7.575
12924TIP3   OH238648   6.053   0.602   4.032
12924TIP3    H138649   5.977   0.545   4.019
12924TIP3    H238650   6.078   0.630   3.944
12925TIP3   OH238651   8.659   8.438   0.655
12925TIP3    H138652   8.667   8.393   0.739
12925TIP3    H238653   8.735   8.496   0.652
12926TIP3   OH238654   7.324   6.583   0.784
12926TIP3    H138655   7.414   6.605   0.804
12926TIP3    H238656   7.281   6.668   0.769
12927TIP3   OH238657   3.392   6.641   5.248
12927TIP3    H138658   3.391   6.636   5.152
12927TIP3    H238659   3.436   6.724   5.267
12928TIP3   OH238660   2.484   8.059   6.880
12928TIP3    H138661   2.474   8.117   6.805
12928TIP3    H238662   2.566   8.086   6.920
12929TIP3   OH238663   6.194   5.005   7.783
12929TIP3    H138664   6.190   4.968   7.871
12929TIP3    H238665   6.130   4.954   7.733
12930TIP3   OH238666   2.520   2.678   6.807
12930TIP3    H138667   2.436   2.633   6.810
12930TIP3    H238668   2.581   2.613   6.771
12931TIP3   OH238669   6.225   1.950   4.984
12931TIP3    H138670   6.213   1.860   4.953
12931TIP3    H238671   6.136   1.983   4.995
12932TIP3   OH238672   5.641   7.639   1.661
12932TIP3    H138673   5.635   7.612   1.753
12932TIP3    H238674   5.590   7.574   1.613
12933TIP3   OH238675   4.769   3.751   3.098
12933TIP3    H138676   4.849   3.713   3.133
12933TIP3    H238677   4.758   3.710   3.012
12934TIP3   OH238678   8.609   6.137   1.171
12934TIP3    H138679   8.648   6.187   1.243
12934TIP3    H238680   8.609   6.046   1.202
12935TIP3   OH238681   0.060   8.562   3.357
12935TIP3    H138682  -0.025   8.600   3.381
12935TIP3    H238683   0.112   8.567   3.437
12936TIP3   OH238684   3.432   2.279   4.639
12936TIP3    H138685   3.494   2.322   4.580
12936TIP3    H238686   3.346   2.311   4.610
12937TIP3   OH238687   7.360   1.547   1.760
12937TIP3    H138688   7.413   1.625   1.743
12937TIP3    H238689   7.308   1.570   1.837
12938TIP3   OH238690   7.384   2.984   0.721
12938TIP3    H138691   7.344   3.070   0.717
12938TIP3    H238692   7.404   2.962   0.631
12939TIP3   OH238693   8.222   4.842   4.895
12939TIP3    H138694   8.251   4.882   4.977
12939TIP3    H238695   8.290   4.865   4.832
12940TIP3   OH238696   7.759   9.008   2.404
12940TIP3    H138697   7.759   8.914   2.382
12940TIP3    H238698   7.768   9.010   2.500
12941TIP3   OH238699   6.335   4.016   1.435
12941TIP3    H138700   6.285   3.940   1.465
12941TIP3    H238701   6.421   4.006   1.475
12942TIP3   OH238702   2.705   7.169   0.123
12942TIP3    H138703   2.644   7.095   0.121
12942TIP3    H238704   2.651   7.245   0.146
12943TIP3   OH238705   3.248   4.815   6.079
12943TIP3    H138706   3.269   4.885   6.017
12943TIP3    H238707   3.230   4.739   6.024
12944TIP3   OH238708   2.632   7.866   2.536
12944TIP3    H138709   2.563   7.799   2.545
12944TIP3    H238710   2.585   7.949   2.534
12945TIP3   OH238711   0.204   6.088   6.456
12945TIP3    H138712   0.154   6.083   6.537
12945TIP3    H238713   0.223   6.181   6.445
12946TIP3   OH238714   5.584   2.667   2.114
12946TIP3    H138715   5.566   2.582   2.074
12946TIP3    H238716   5.680   2.674   2.113
12947TIP3   OH238717   5.270   7.855   7.485
12947TIP3    H138718   5.272   7.903   7.567
12947TIP3    H238719   5.256   7.923   7.418
12948TIP3   OH238720   8.810   3.196   0.878
12948TIP3    H138721   8.884   3.226   0.825
12948TIP3    H238722   8.737   3.190   0.815
12949TIP3   OH238723   5.762   8.855   1.363
12949TIP3    H138724   5.850   8.818   1.354
12949TIP3    H238725   5.732   8.868   1.273
12950TIP3   OH238726   6.104   0.335   5.153
12950TIP3    H138727   6.071   0.399   5.090
12950TIP3    H238728   6.079   0.370   5.238
12951TIP3   OH238729   2.322   8.518   1.592
12951TIP3    H138730   2.232   8.537   1.567
12951TIP3    H238731   2.369   8.600   1.578
12952TIP3   OH238732   5.814   8.545   3.760
12952TIP3    H138733   5.871   8.477   3.724
12952TIP3    H238734   5.750   8.561   3.690
12953TIP3   OH238735   3.114   2.136   0.894
12953TIP3    H138736   3.110   2.207   0.829
12953TIP3    H238737   3.023   2.111   0.907
12954TIP3   OH238738   9.297   7.289   3.442
12954TIP3    H138739   9.305   7.384   3.438
12954TIP3    H238740   9.382   7.258   3.472
12955TIP3   OH238741   3.138   3.893   7.393
12955TIP3    H138742   3.195   3.967   7.413
12955TIP3    H238743   3.055   3.914   7.436
12956TIP3   OH238744   3.571   2.091   5.781
12956TIP3    H138745   3.602   2.034   5.711
12956TIP3    H238746   3.553   2.175   5.737
12957TIP3   OH238747   6.934   2.640   3.083
12957TIP3    H138748   6.841   2.649   3.105
12957TIP3    H238749   6.974   2.720   3.117
12958TIP3   OH238750   6.395   8.007   1.270
12958TIP3    H138751   6.306   8.025   1.299
12958TIP3    H238752   6.437   7.965   1.345
12959TIP3   OH238753   2.005   6.418   0.674
12959TIP3    H138754   1.941   6.385   0.611
12959TIP3    H238755   1.968   6.395   0.760
12960TIP3   OH238756   9.272   5.125   6.824
12960TIP3    H138757   9.276   5.045   6.772
12960TIP3    H238758   9.328   5.108   6.899
12961TIP3   OH238759   4.814   4.465   6.949
12961TIP3    H138760   4.856   4.514   6.879
12961TIP3    H238761   4.737   4.517   6.972
12962TIP3   OH238762   0.864   3.440   7.028
12962TIP3    H138763   0.908   3.520   7.056
12962TIP3    H238764   0.931   3.372   7.036
12963TIP3   OH238765   2.780   4.912   4.664
12963TIP3    H138766   2.790   4.819   4.683
12963TIP3    H238767   2.717   4.943   4.729
12964TIP3   OH238768   4.209   6.586   7.025
12964TIP3    H138769   4.250   6.559   6.943
12964TIP3    H238770   4.274   6.568   7.092
12965TIP3   OH238771   5.336   3.348   0.394
12965TIP3    H138772   5.387   3.429   0.386
12965TIP3    H238773   5.247   3.374   0.370
12966TIP3   OH238774   3.592   0.382   4.523
12966TIP3    H138775   3.588   0.478   4.530
12966TIP3    H238776   3.525   0.360   4.458
12967TIP3   OH238777   7.990   0.961   5.579
12967TIP3    H138778   8.032   0.932   5.660
12967TIP3    H238779   7.957   1.049   5.598
12968TIP3   OH238780   4.802   4.899   0.677
12968TIP3    H138781   4.837   4.988   0.667
12968TIP3    H238782   4.761   4.899   0.764
12969TIP3   OH238783   3.272   0.833   4.045
12969TIP3    H138784   3.269   0.921   4.083
12969TIP3    H238785   3.243   0.775   4.116
12970TIP3   OH238786   5.639   1.325   2.712
12970TIP3    H138787   5.721   1.339   2.760
12970TIP3    H238788   5.587   1.268   2.770
12971TIP3   OH238789   6.774   7.397   0.556
12971TIP3    H138790   6.812   7.349   0.630
12971TIP3    H238791   6.849   7.438   0.513
12972TIP3   OH238792   8.202   5.419   1.820
12972TIP3    H138793   8.290   5.402   1.854
12972TIP3    H238794   8.159   5.471   1.888
12973TIP3   OH238795   7.597   1.613   1.149
12973TIP3    H138796   7.665   1.600   1.215
12973TIP3    H238797   7.580   1.707   1.150
12974TIP3   OH238798   4.227   8.185   3.394
12974TIP3    H138799   4.227   8.272   3.433
12974TIP3    H238800   4.272   8.130   3.459
12975TIP3   OH238801   2.012   2.249   1.740
12975TIP3    H138802   1.988   2.340   1.723
12975TIP3    H238803   2.062   2.252   1.821
12976TIP3   OH238804   3.758   3.768   7.060
12976TIP3    H138805   3.832   3.736   7.009
12976TIP3    H238806   3.692   3.790   6.995
12977TIP3   OH238807   3.683   1.014   0.765
12977TIP3    H138808   3.698   0.952   0.693
12977TIP3    H238809   3.588   1.018   0.774
12978TIP3   OH238810   2.561   6.346   5.044
12978TIP3    H138811   2.622   6.314   4.978
12978TIP3    H238812   2.596   6.314   5.127
12979TIP3   OH238813   3.120   5.195   7.117
12979TIP3    H138814   3.026   5.185   7.135
12979TIP3    H238815   3.149   5.107   7.092
12980TIP3   OH238816   3.934   8.327   7.372
12980TIP3    H138817   3.851   8.370   7.355
12980TIP3    H238818   3.970   8.309   7.285
12981TIP3   OH238819   8.268   0.578   3.073
12981TIP3    H138820   8.178   0.561   3.047
12981TIP3    H238821   8.260   0.629   3.154
12982TIP3   OH238822   3.727   0.056   3.245
12982TIP3    H138823   3.733  -0.037   3.220
12982TIP3    H238824   3.775   0.102   3.177
12983TIP3   OH238825   3.048   5.619   2.210
12983TIP3    H138826   3.124   5.657   2.254
12983TIP3    H238827   2.988   5.692   2.198
12984TIP3   OH238828   1.190   0.087   4.260
12984TIP3    H138829   1.164   0.012   4.313
12984TIP3    H238830   1.281   0.103   4.284
12985TIP3   OH238831   3.327   4.227   4.027
12985TIP3    H138832   3.407   4.178   4.013
12985TIP3    H238833   3.278   4.175   4.091
12986TIP3   OH238834   0.184   6.415   6.246
12986TIP3    H138835   0.140   6.335   6.219
12986TIP3    H238836   0.277   6.393   6.247
12987TIP3   OH238837   4.712   3.690   2.796
12987TIP3    H138838   4.618   3.679   2.810
12987TIP3    H238839   4.751   3.607   2.825
12988TIP3   OH238840   7.889   3.308   1.695
12988TIP3    H138841   7.913   3.294   1.603
12988TIP3    H238842   7.963   3.355   1.733
12989TIP3   OH238843   6.032   6.603   5.535
12989TIP3    H138844   6.009   6.562   5.451
12989TIP3    H238845   5.953   6.650   5.561
12990TIP3   OH238846   7.746   5.050   7.485
12990TIP3    H138847   7.825   4.996   7.489
12990TIP3    H238848   7.674   4.987   7.496
12991TIP3   OH238849   4.595   0.314   7.219
12991TIP3    H138850   4.512   0.306   7.266
12991TIP3    H238851   4.643   0.382   7.267
12992TIP3   OH238852   9.324   1.831   3.381
12992TIP3    H138853   9.261   1.775   3.335
12992TIP3    H238854   9.337   1.788   3.466
12993TIP3   OH238855   8.860   7.087   1.918
12993TIP3    H138856   8.871   7.095   1.824
12993TIP3    H238857   8.928   7.142   1.956
12994TIP3   OH238858   6.140   1.952   3.323
12994TIP3    H138859   6.117   1.904   3.402
12994TIP3    H238860   6.235   1.963   3.328
12995TIP3   OH238861   8.945   4.740   7.696
12995TIP3    H138862   9.026   4.695   7.721
12995TIP3    H238863   8.885   4.669   7.673
12996TIP3   OH238864   2.131   6.947   4.336
12996TIP3    H138865   2.198   6.959   4.402
12996TIP3    H238866   2.080   7.028   4.338
12997TIP3   OH238867   9.466   0.121   3.000
12997TIP3    H138868   9.409   0.148   2.927
12997TIP3    H238869   9.550   0.163   2.981
12998TIP3   OH238870   0.128   6.258   5.502
12998TIP3    H138871   0.033   6.246   5.496
12998TIP3    H238872   0.143   6.285   5.593
12999TIP3   OH238873   4.086   6.336   3.328
12999TIP3    H138874   4.118   6.368   3.244
12999TIP3    H238875   3.991   6.328   3.317
13000TIP3   OH238876   4.991   4.210   3.977
13000TIP3    H138877   4.988   4.133   4.034
13000TIP3    H238878   4.905   4.251   3.990
13001TIP3   OH238879   1.580   3.375   0.989
13001TIP3    H138880   1.661   3.426   0.985
13001TIP3    H238881   1.579   3.325   0.908
13002TIP3   OH238882   6.011   2.384   0.060
13002TIP3    H138883   6.083   2.431   0.018
13002TIP3    H238884   6.049   2.301   0.088
13003TIP3   OH238885   0.315   2.169   6.873
13003TIP3    H138886   0.277   2.120   6.947
13003TIP3    H238887   0.409   2.159   6.883
13004TIP3   OH238888   7.546   6.062   5.441
13004TIP3    H138889   7.497   6.130   5.395
13004TIP3    H238890   7.486   5.987   5.444
13005TIP3   OH238891   3.824   5.425   3.105
13005TIP3    H138892   3.769   5.346   3.101
13005TIP3    H238893   3.782   5.480   3.171
13006TIP3   OH238894   3.328   2.459   5.714
13006TIP3    H138895   3.330   2.515   5.637
13006TIP3    H238896   3.353   2.372   5.681
13007TIP3   OH238897   5.294   8.606   6.086
13007TIP3    H138898   5.258   8.631   6.000
13007TIP3    H238899   5.375   8.559   6.065
13008TIP3   OH238900   2.871   5.554   3.111
13008TIP3    H138901   2.876   5.464   3.079
13008TIP3    H238902   2.788   5.587   3.077
13009TIP3   OH238903   3.390   0.232   6.721
13009TIP3    H138904   3.300   0.217   6.748
13009TIP3    H238905   3.442   0.214   6.799
13010TIP3   OH238906   8.191   4.160   6.616
13010TIP3    H138907   8.151   4.233   6.569
13010TIP3    H238908   8.283   4.160   6.587
13011TIP3   OH238909   5.134   8.399   0.481
13011TIP3    H138910   5.132   8.352   0.398
13011TIP3    H238911   5.057   8.456   0.478
13012TIP3   OH238912   1.998   6.617   5.061
13012TIP3    H138913   2.039   6.537   5.028
13012TIP3    H238914   1.904   6.598   5.061
13013TIP3   OH238915   9.266   5.702   0.354
13013TIP3    H138916   9.276   5.627   0.295
13013TIP3    H238917   9.356   5.733   0.368
13014TIP3   OH238918   5.038   7.759   3.204
13014TIP3    H138919   5.005   7.737   3.292
13014TIP3    H238920   4.961   7.755   3.148
13015TIP3   OH238921   2.529   3.339   3.515
13015TIP3    H138922   2.608   3.292   3.544
13015TIP3    H238923   2.457   3.278   3.530
13016TIP3   OH238924   2.183   8.762   7.317
13016TIP3    H138925   2.116   8.824   7.288
13016TIP3    H238926   2.245   8.815   7.367
13017TIP3   OH238927   3.265   8.804   3.695
13017TIP3    H138928   3.233   8.734   3.638
13017TIP3    H238929   3.229   8.783   3.781
13018TIP3   OH238930   5.890   8.203   0.056
13018TIP3    H138931   5.923   8.263   0.123
13018TIP3    H238932   5.922   8.117   0.083
13019TIP3   OH238933   0.841   3.923   6.779
13019TIP3    H138934   0.812   4.011   6.754
13019TIP3    H238935   0.903   3.938   6.850
13020TIP3   OH238936   7.991   1.690   4.634
13020TIP3    H138937   8.030   1.634   4.566
13020TIP3    H238938   7.913   1.641   4.663
13021TIP3   OH238939   9.024   7.310   3.466
13021TIP3    H138940   9.025   7.363   3.546
13021TIP3    H238941   9.116   7.286   3.452
13022TIP3   OH238942   5.288   0.961   5.877
13022TIP3    H138943   5.319   1.048   5.904
13022TIP3    H238944   5.291   0.909   5.957
13023TIP3   OH238945   1.866   6.027   3.601
13023TIP3    H138946   1.823   6.092   3.655
13023TIP3    H238947   1.958   6.051   3.602
13024TIP3   OH238948   1.421   5.841   6.382
13024TIP3    H138949   1.424   5.751   6.415
13024TIP3    H238950   1.392   5.893   6.457
13025TIP3   OH238951   6.174   7.825   1.605
13025TIP3    H138952   6.232   7.894   1.637
13025TIP3    H238953   6.104   7.820   1.670
13026TIP3   OH238954   0.952   3.571   0.808
13026TIP3    H138955   0.891   3.629   0.854
13026TIP3    H238956   0.919   3.568   0.718
13027TIP3   OH238957   6.583   8.541   2.981
13027TIP3    H138958   6.494   8.539   3.016
13027TIP3    H238959   6.602   8.634   2.969
13028TIP3   OH238960   5.087   3.666   6.988
13028TIP3    H138961   5.110   3.754   6.957
13028TIP3    H238962   5.146   3.608   6.940
13029TIP3   OH238963   3.712   5.461   3.371
13029TIP3    H138964   3.630   5.438   3.327
13029TIP3    H238965   3.736   5.383   3.421
13030TIP3   OH238966   1.825   3.027   3.451
13030TIP3    H138967   1.779   2.997   3.530
13030TIP3    H238968   1.865   3.110   3.477
13031TIP3   OH238969   6.716   7.769   0.620
13031TIP3    H138970   6.683   7.835   0.680
13031TIP3    H238971   6.725   7.815   0.536
13032TIP3   OH238972   1.857   7.406   6.346
13032TIP3    H138973   1.852   7.404   6.441
13032TIP3    H238974   1.942   7.447   6.328
13033TIP3   OH238975   6.353   7.947   2.506
13033TIP3    H138976   6.405   8.026   2.524
13033TIP3    H238977   6.322   7.918   2.592
13034TIP3   OH238978   2.640   8.250   7.298
13034TIP3    H138979   2.725   8.207   7.284
13034TIP3    H238980   2.602   8.204   7.373
13035TIP3   OH238981   7.215   6.413   2.378
13035TIP3    H138982   7.171   6.493   2.349
13035TIP3    H238983   7.144   6.350   2.388
13036TIP3   OH238984   5.102   6.740   0.038
13036TIP3    H138985   5.148   6.734  -0.045
13036TIP3    H238986   5.010   6.750   0.014
13037TIP3   OH238987   4.432   4.121   1.511
13037TIP3    H138988   4.402   4.171   1.434
13037TIP3    H238989   4.524   4.103   1.494
13038TIP3   OH238990   4.362   8.887   2.850
13038TIP3    H138991   4.306   8.823   2.807
13038TIP3    H238992   4.440   8.892   2.795
13039TIP3   OH238993   7.358   6.754   3.970
13039TIP3    H138994   7.331   6.741   3.879
13039TIP3    H238995   7.427   6.689   3.985
13040TIP3   OH238996   6.242   6.660   1.434
13040TIP3    H138997   6.301   6.669   1.509
13040TIP3    H238998   6.184   6.589   1.458
13041TIP3   OH238999   1.722   3.923   0.410
13041TIP3    H139000   1.642   3.965   0.378
13041TIP3    H239001   1.698   3.831   0.421
13042TIP3   OH239002   8.010   7.148   4.177
13042TIP3    H139003   7.971   7.067   4.208
13042TIP3    H239004   7.979   7.157   4.087
13043TIP3   OH239005   1.113   1.737   0.281
13043TIP3    H139006   1.197   1.778   0.299
13043TIP3    H239007   1.099   1.752   0.188
13044TIP3   OH239008   9.569   7.010   6.054
13044TIP3    H139009   9.653   7.031   6.094
13044TIP3    H239010   9.539   7.092   6.014
13045TIP3   OH239011   2.198   7.979   3.411
13045TIP3    H139012   2.255   8.054   3.397
13045TIP3    H239013   2.127   8.012   3.467
13046TIP3   OH239014   3.961   5.988   6.077
13046TIP3    H139015   3.970   5.933   6.155
13046TIP3    H239016   3.879   5.959   6.037
13047TIP3   OH239017   5.221   1.157   6.651
13047TIP3    H139018   5.219   1.096   6.724
13047TIP3    H239019   5.199   1.104   6.574
13048TIP3   OH239020   8.827   3.221   2.605
13048TIP3    H139021   8.867   3.280   2.541
13048TIP3    H239022   8.758   3.273   2.646
13049TIP3   OH239023   8.812   8.994   5.885
13049TIP3    H139024   8.875   8.960   5.822
13049TIP3    H239025   8.865   9.046   5.946
13050TIP3   OH239026   2.120   4.747   6.716
13050TIP3    H139027   2.102   4.839   6.734
13050TIP3    H239028   2.038   4.702   6.735
13051TIP3   OH239029   6.397   4.329   6.911
13051TIP3    H139030   6.426   4.246   6.874
13051TIP3    H239031   6.441   4.396   6.858
13052TIP3   OH239032   8.791   6.683   2.962
13052TIP3    H139033   8.794   6.775   2.990
13052TIP3    H239034   8.830   6.635   3.035
13053TIP3   OH239035   5.847   2.395   4.939
13053TIP3    H139036   5.787   2.342   4.991
13053TIP3    H239037   5.799   2.475   4.920
13054TIP3   OH239038   2.156   8.819   7.629
13054TIP3    H139039   2.096   8.747   7.647
13054TIP3    H239040   2.128   8.854   7.545
13055TIP3   OH239041   0.163   0.181   1.595
13055TIP3    H139042   0.089   0.219   1.643
13055TIP3    H239043   0.238   0.231   1.626
13056TIP3   OH239044   7.056   4.773   2.730
13056TIP3    H139045   7.002   4.713   2.678
13056TIP3    H239046   6.993   4.820   2.785
13057TIP3   OH239047   1.122   0.817   2.931
13057TIP3    H139048   1.126   0.735   2.981
13057TIP3    H239049   1.035   0.852   2.949
13058TIP3   OH239050   5.750   5.317   6.370
13058TIP3    H139051   5.841   5.317   6.343
13058TIP3    H239052   5.703   5.279   6.295
13059TIP3   OH239053   2.524   5.103   7.609
13059TIP3    H139054   2.460   5.080   7.677
13059TIP3    H239055   2.491   5.061   7.530
13060TIP3   OH239056   1.873   3.866   5.536
13060TIP3    H139057   1.846   3.863   5.444
13060TIP3    H239058   1.916   3.952   5.545
13061TIP3   OH239059   3.453   0.407   7.165
13061TIP3    H139060   3.508   0.431   7.240
13061TIP3    H239061   3.368   0.447   7.185
13062TIP3   OH239062   3.951   6.594   7.154
13062TIP3    H139063   4.024   6.610   7.094
13062TIP3    H239064   3.982   6.523   7.211
13063TIP3   OH239065   7.144   2.539   6.812
13063TIP3    H139066   7.137   2.621   6.764
13063TIP3    H239067   7.057   2.527   6.851
13064TIP3   OH239068   3.794   1.907   4.173
13064TIP3    H139069   3.745   1.878   4.096
13064TIP3    H239070   3.733   1.965   4.218
13065TIP3   OH239071   2.349   3.933   1.511
13065TIP3    H139072   2.387   3.847   1.493
13065TIP3    H239073   2.328   3.931   1.605
13066TIP3   OH239074   5.574   8.585   3.189
13066TIP3    H139075   5.600   8.627   3.271
13066TIP3    H239076   5.480   8.600   3.184
13067TIP3   OH239077   7.911   0.723   1.804
13067TIP3    H139078   7.965   0.762   1.736
13067TIP3    H239079   7.957   0.643   1.829
13068TIP3   OH239080   5.185   5.695   3.785
13068TIP3    H139081   5.117   5.680   3.850
13068TIP3    H239082   5.258   5.732   3.835
13069TIP3   OH239083   3.473   3.612   5.106
13069TIP3    H139084   3.565   3.606   5.132
13069TIP3    H239085   3.428   3.549   5.161
13070TIP3   OH239086   3.199   3.936   5.782
13070TIP3    H139087   3.114   3.975   5.761
13070TIP3    H239088   3.259   3.976   5.719
13071TIP3   OH239089   7.168   8.055   2.056
13071TIP3    H139090   7.230   7.997   2.100
13071TIP3    H239091   7.082   8.028   2.088
13072TIP3   OH239092   6.535   1.516   0.897
13072TIP3    H139093   6.549   1.514   0.802
13072TIP3    H239094   6.473   1.588   0.910
13073TIP3   OH239095   6.140   3.402   0.516
13073TIP3    H139096   6.058   3.352   0.514
13073TIP3    H239097   6.192   3.365   0.445
13074TIP3   OH239098   6.146   3.123   3.081
13074TIP3    H139099   6.186   3.191   3.135
13074TIP3    H239100   6.154   3.043   3.134
13075TIP3   OH239101   8.253   8.956   2.987
13075TIP3    H139102   8.328   8.916   3.031
13075TIP3    H239103   8.230   9.031   3.041
13076TIP3   OH239104   6.776   5.866   2.590
13076TIP3    H139105   6.802   5.805   2.660
13076TIP3    H239106   6.700   5.912   2.626
13077TIP3   OH239107   9.081   8.717   6.352
13077TIP3    H139108   9.009   8.726   6.414
13077TIP3    H239109   9.136   8.648   6.389
13078TIP3   OH239110   0.137   4.491   7.770
13078TIP3    H139111   0.141   4.502   7.675
13078TIP3    H239112   0.112   4.577   7.804
13079TIP3   OH239113   1.317   2.766   3.486
13079TIP3    H139114   1.257   2.694   3.503
13079TIP3    H239115   1.389   2.753   3.548
13080TIP3   OH239116   6.231   8.175   0.560
13080TIP3    H139117   6.188   8.122   0.494
13080TIP3    H239118   6.159   8.206   0.616
13081TIP3   OH239119   8.548   2.358   2.132
13081TIP3    H139120   8.463   2.395   2.106
13081TIP3    H239121   8.600   2.433   2.158
13082TIP3   OH239122   5.759   0.547   6.461
13082TIP3    H139123   5.755   0.566   6.555
13082TIP3    H239124   5.846   0.578   6.434
13083TIP3   OH239125   3.900   1.920   0.092
13083TIP3    H139126   3.972   1.859   0.109
13083TIP3    H239127   3.821   1.866   0.098
13084TIP3   OH239128   7.408   2.717   3.664
13084TIP3    H139129   7.424   2.764   3.746
13084TIP3    H239130   7.325   2.754   3.631
13085TIP3   OH239131   8.071   3.416   5.946
13085TIP3    H139132   8.012   3.385   6.015
13085TIP3    H239133   8.052   3.360   5.871
13086TIP3   OH239134   4.357   3.874   2.191
13086TIP3    H139135   4.418   3.810   2.155
13086TIP3    H239136   4.397   3.903   2.273
13087TIP3   OH239137   4.570   0.098   0.917
13087TIP3    H139138   4.493   0.140   0.880
13087TIP3    H239139   4.622   0.170   0.953
13088TIP3   OH239140   1.139   0.593   0.962
13088TIP3    H139141   1.136   0.584   0.867
13088TIP3    H239142   1.069   0.536   0.994
13089TIP3   OH239143   1.534   6.276   4.774
13089TIP3    H139144   1.458   6.273   4.715
13089TIP3    H239145   1.523   6.359   4.821
13090TIP3   OH239146   4.376   3.806   0.274
13090TIP3    H139147   4.342   3.771   0.192
13090TIP3    H239148   4.411   3.730   0.320
13091TIP3   OH239149   2.557   7.408   6.905
13091TIP3    H139150   2.648   7.435   6.917
13091TIP3    H239151   2.550   7.325   6.952
13092TIP3   OH239152   2.519   3.935   5.004
13092TIP3    H139153   2.480   3.860   4.958
13092TIP3    H239154   2.446   3.996   5.016
13093TIP3   OH239155   7.054   7.803   3.462
13093TIP3    H139156   6.976   7.858   3.456
13093TIP3    H239157   7.123   7.862   3.493
13094TIP3   OH239158   7.617   7.022   6.097
13094TIP3    H139159   7.702   6.978   6.100
13094TIP3    H239160   7.561   6.970   6.155
13095TIP3   OH239161   4.859   8.974   5.409
13095TIP3    H139162   4.876   9.061   5.372
13095TIP3    H239163   4.882   8.914   5.339
13096TIP3   OH239164   8.404   6.226   6.799
13096TIP3    H139165   8.323   6.175   6.808
13096TIP3    H239166   8.464   6.167   6.753
13097TIP3   OH239167   5.945   0.329   0.967
13097TIP3    H139168   5.960   0.243   1.008
13097TIP3    H239169   5.902   0.309   0.884
13098TIP3   OH239170   7.676   2.420   4.882
13098TIP3    H139171   7.724   2.337   4.885
13098TIP3    H239172   7.587   2.396   4.860
13099TIP3   OH239173   2.289   5.269   1.005
13099TIP3    H139174   2.282   5.188   1.055
13099TIP3    H239175   2.228   5.258   0.933
13100TIP3   OH239176   0.435   2.129   2.745
13100TIP3    H139177   0.363   2.075   2.777
13100TIP3    H239178   0.478   2.074   2.679
13101TIP3   OH239179   1.320   3.756   2.961
13101TIP3    H139180   1.242   3.759   3.018
13101TIP3    H239181   1.326   3.845   2.926
13102TIP3   OH239182   4.815   2.566   1.849
13102TIP3    H139183   4.802   2.645   1.796
13102TIP3    H239184   4.757   2.578   1.924
13103TIP3   OH239185   5.108   5.538   1.906
13103TIP3    H139186   5.191   5.502   1.875
13103TIP3    H239187   5.112   5.630   1.880
13104TIP3   OH239188   7.960   1.155   4.746
13104TIP3    H139189   7.937   1.062   4.753
13104TIP3    H239190   7.886   1.194   4.699
13105TIP3   OH239191   4.808   0.855   0.342
13105TIP3    H139192   4.830   0.762   0.340
13105TIP3    H239193   4.769   0.869   0.428
13106TIP3   OH239194   7.305   1.410   2.400
13106TIP3    H139195   7.285   1.469   2.326
13106TIP3    H239196   7.329   1.327   2.359
13107TIP3   OH239197   2.136   5.402   6.277
13107TIP3    H139198   2.069   5.449   6.327
13107TIP3    H239199   2.194   5.471   6.246
13108TIP3   OH239200   1.667   8.649   3.890
13108TIP3    H139201   1.646   8.581   3.826
13108TIP3    H239202   1.582   8.687   3.914
13109TIP3   OH239203   2.321   4.074   2.901
13109TIP3    H139204   2.393   4.133   2.879
13109TIP3    H239205   2.344   4.039   2.987
13110TIP3   OH239206   0.667   3.640   5.925
13110TIP3    H139207   0.586   3.671   5.964
13110TIP3    H239208   0.645   3.555   5.886
13111TIP3   OH239209   4.663   7.018   5.934
13111TIP3    H139210   4.572   7.012   5.966
13111TIP3    H239211   4.712   7.051   6.009
13112TIP3   OH239212   6.317   8.396   2.941
13112TIP3    H139213   6.312   8.354   3.027
13112TIP3    H239214   6.226   8.405   2.913
13113TIP3   OH239215   1.747   6.050   0.200
13113TIP3    H139216   1.769   5.958   0.194
13113TIP3    H239217   1.830   6.094   0.220
13114TIP3   OH239218   5.275   2.894   5.855
13114TIP3    H139219   5.213   2.894   5.781
13114TIP3    H239220   5.283   2.802   5.879
13115TIP3   OH239221   9.080   2.712   2.942
13115TIP3    H139222   9.004   2.748   2.896
13115TIP3    H239223   9.133   2.673   2.872
13116TIP3   OH239224   6.934   3.125   7.627
13116TIP3    H139225   6.899   3.055   7.682
13116TIP3    H239226   7.016   3.089   7.593
13117TIP3   OH239227   2.535   5.108   2.627
13117TIP3    H139228   2.590   5.077   2.699
13117TIP3    H239229   2.505   5.028   2.584
13118TIP3   OH239230   1.140   4.734   4.790
13118TIP3    H139231   1.200   4.664   4.765
13118TIP3    H239232   1.148   4.799   4.721
13119TIP3   OH239233   6.814   3.439   7.063
13119TIP3    H139234   6.897   3.396   7.042
13119TIP3    H239235   6.835   3.500   7.133
13120TIP3   OH239236   5.842   5.779   4.702
13120TIP3    H139237   5.854   5.714   4.631
13120TIP3    H239238   5.844   5.863   4.657
13121TIP3   OH239239   3.436   1.919   0.945
13121TIP3    H139240   3.414   1.874   1.027
13121TIP3    H239241   3.402   1.861   0.877
13122TIP3   OH239242   3.702   3.351   4.263
13122TIP3    H139243   3.742   3.303   4.336
13122TIP3    H239244   3.663   3.283   4.208
13123TIP3   OH239245   4.459   2.127   1.019
13123TIP3    H139246   4.438   2.205   0.967
13123TIP3    H239247   4.420   2.054   0.971
13124TIP3   OH239248   8.241   8.979   3.665
13124TIP3    H139249   8.281   8.980   3.752
13124TIP3    H239250   8.294   9.039   3.613
13125TIP3   OH239251   1.100   7.593   0.048
13125TIP3    H139252   1.191   7.618   0.064
13125TIP3    H239253   1.074   7.644  -0.029
13126TIP3   OH239254   3.875   5.561   2.557
13126TIP3    H139255   3.927   5.563   2.477
13126TIP3    H239256   3.924   5.503   2.616
13127TIP3   OH239257   3.853   5.844   2.632
13127TIP3    H139258   3.760   5.828   2.650
13127TIP3    H239259   3.886   5.760   2.598
13128TIP3   OH239260   9.173   5.814   4.349
13128TIP3    H139261   9.234   5.742   4.366
13128TIP3    H239262   9.151   5.848   4.436
13129TIP3   OH239263   4.093   7.609   5.192
13129TIP3    H139264   4.019   7.563   5.233
13129TIP3    H239265   4.157   7.540   5.175
13130TIP3   OH239266   8.804   5.088   2.275
13130TIP3    H139267   8.815   5.001   2.238
13130TIP3    H239268   8.862   5.144   2.224
13131TIP3   OH239269   0.060   4.367   3.311
13131TIP3    H139270   0.101   4.453   3.305
13131TIP3    H239271   0.037   4.344   3.221
13132TIP3   OH239272   7.688   2.044   7.573
13132TIP3    H139273   7.625   2.103   7.532
13132TIP3    H239274   7.685   2.066   7.666
13133TIP3   OH239275   8.978   8.631   2.863
13133TIP3    H139276   8.888   8.662   2.869
13133TIP3    H239277   8.980   8.552   2.917
13134TIP3   OH239278   4.320   7.055   7.608
13134TIP3    H139279   4.311   7.094   7.696
13134TIP3    H239280   4.333   7.130   7.550
13135TIP3   OH239281   4.897   7.108   1.577
13135TIP3    H139282   4.863   7.020   1.562
13135TIP3    H239283   4.896   7.150   1.491
13136TIP3   OH239284   1.878   8.745   6.603
13136TIP3    H139285   1.912   8.783   6.522
13136TIP3    H239286   1.840   8.661   6.576
13137TIP3   OH239287   4.972   5.811   4.802
13137TIP3    H139288   4.909   5.769   4.744
13137TIP3    H239289   5.027   5.740   4.833
13138TIP3   OH239290   8.510   5.903   4.168
13138TIP3    H139291   8.544   5.894   4.079
13138TIP3    H239292   8.434   5.961   4.159
13139TIP3   OH239293   6.059   5.945   6.146
13139TIP3    H139294   5.985   5.990   6.188
13139TIP3    H239295   6.020   5.902   6.070
13140TIP3   OH239296   8.848   6.699   1.140
13140TIP3    H139297   8.821   6.676   1.051
13140TIP3    H239298   8.913   6.633   1.164
13141TIP3   OH239299   9.517   3.100   7.238
13141TIP3    H139300   9.492   3.010   7.258
13141TIP3    H239301   9.448   3.132   7.181
13142TIP3   OH239302   6.796   2.929   1.305
13142TIP3    H139303   6.872   2.874   1.321
13142TIP3    H239304   6.771   2.909   1.214
13143TIP3   OH239305   5.352   0.144   1.897
13143TIP3    H139306   5.384   0.087   1.827
13143TIP3    H239307   5.341   0.086   1.972
13144TIP3   OH239308   8.003   0.189   7.644
13144TIP3    H139309   8.093   0.205   7.615
13144TIP3    H239310   7.960   0.274   7.635
13145TIP3   OH239311   1.390   0.083   2.706
13145TIP3    H139312   1.315   0.028   2.727
13145TIP3    H239313   1.352   0.169   2.687
13146TIP3   OH239314   9.175   0.173   6.061
13146TIP3    H139315   9.205   0.150   6.149
13146TIP3    H239316   9.243   0.139   6.003
13147TIP3   OH239317   8.233   3.933   0.990
13147TIP3    H139318   8.261   3.892   0.908
13147TIP3    H239319   8.306   3.917   1.050
13148TIP3   OH239320   3.990   5.975   0.038
13148TIP3    H139321   4.035   5.899   0.002
13148TIP3    H239322   4.059   6.026   0.081
13149TIP3   OH239323   5.269   7.804   2.633
13149TIP3    H139324   5.175   7.798   2.615
13149TIP3    H239325   5.298   7.880   2.583
13150TIP3   OH239326   0.941   6.943   3.648
13150TIP3    H139327   0.897   7.021   3.614
13150TIP3    H239328   0.969   6.895   3.570
13151TIP3   OH239329   0.374   3.285   5.700
13151TIP3    H139330   0.381   3.290   5.605
13151TIP3    H239331   0.381   3.191   5.720
13152TIP3   OH239332   0.790   3.193   3.142
13152TIP3    H139333   0.874   3.152   3.120
13152TIP3    H239334   0.738   3.123   3.181
13153TIP3   OH239335   5.279   6.350   3.921
13153TIP3    H139336   5.225   6.313   3.990
13153TIP3    H239337   5.270   6.445   3.931
13154TIP3   OH239338   2.237   2.262   0.867
13154TIP3    H139339   2.186   2.342   0.877
13154TIP3    H239340   2.175   2.191   0.885
13155TIP3   OH239341   4.029   7.827   3.865
13155TIP3    H139342   3.963   7.891   3.839
13155TIP3    H239343   4.027   7.760   3.796
13156TIP3   OH239344   6.230   8.303   3.214
13156TIP3    H139345   6.172   8.228   3.198
13156TIP3    H239346   6.296   8.270   3.274
13157TIP3   OH239347   8.181   8.468   5.062
13157TIP3    H139348   8.172   8.475   5.157
13157TIP3    H239349   8.105   8.516   5.028
13158TIP3   OH239350   6.398   4.819   2.924
13158TIP3    H139351   6.303   4.815   2.934
13158TIP3    H239352   6.431   4.747   2.979
13159TIP3   OH239353   1.936   2.260   6.241
13159TIP3    H139354   2.003   2.208   6.196
13159TIP3    H239355   1.871   2.279   6.174
13160TIP3   OH239356   2.849   1.583   5.228
13160TIP3    H139357   2.855   1.584   5.132
13160TIP3    H239358   2.814   1.669   5.250
13161TIP3   OH239359   6.492   6.903   4.735
13161TIP3    H139360   6.494   6.808   4.749
13161TIP3    H239361   6.485   6.913   4.640
13162TIP3   OH239362   7.004   5.890   5.416
13162TIP3    H139363   6.925   5.903   5.365
13162TIP3    H239364   7.071   5.867   5.351
13163TIP3   OH239365   3.915   6.633   6.105
13163TIP3    H139366   3.940   6.563   6.044
13163TIP3    H239367   3.842   6.595   6.155
13164TIP3   OH239368   1.370   6.714   4.387
13164TIP3    H139369   1.454   6.743   4.422
13164TIP3    H239370   1.369   6.619   4.401
13165TIP3   OH239371   7.896   8.739   7.249
13165TIP3    H139372   7.822   8.741   7.310
13165TIP3    H239373   7.856   8.718   7.164
13166TIP3   OH239374   6.004   1.881   5.679
13166TIP3    H139375   5.958   1.945   5.732
13166TIP3    H239376   5.939   1.813   5.660
13167TIP3   OH239377   5.740   1.240   7.152
13167TIP3    H139378   5.654   1.208   7.180
13167TIP3    H239379   5.780   1.165   7.106
13168TIP3   OH239380   1.241   2.432   6.463
13168TIP3    H139381   1.253   2.480   6.381
13168TIP3    H239382   1.330   2.420   6.497
13169TIP3   OH239383   8.418   1.243   2.144
13169TIP3    H139384   8.383   1.154   2.150
13169TIP3    H239385   8.477   1.251   2.219
13170TIP3   OH239386   6.477   4.037   1.064
13170TIP3    H139387   6.468   4.026   0.970
13170TIP3    H239388   6.454   3.952   1.101
13171TIP3   OH239389   6.951   7.478   6.095
13171TIP3    H139390   6.907   7.460   6.012
13171TIP3    H239391   7.011   7.550   6.075
13172TIP3   OH239392   5.871   1.752   0.442
13172TIP3    H139393   5.835   1.788   0.522
13172TIP3    H239394   5.908   1.827   0.396
13173TIP3   OH239395   4.915   1.246   2.045
13173TIP3    H139396   4.843   1.185   2.057
13173TIP3    H239397   4.944   1.267   2.133
13174TIP3   OH239398   1.441   7.887   7.806
13174TIP3    H139399   1.512   7.942   7.774
13174TIP3    H239400   1.465   7.798   7.781
13175TIP3   OH239401   4.072   1.862   3.568
13175TIP3    H139402   4.153   1.901   3.536
13175TIP3    H239403   4.034   1.819   3.492
13176TIP3   OH239404   1.586   1.942   0.018
13176TIP3    H139405   1.667   1.981   0.051
13176TIP3    H239406   1.520   2.011   0.029
13177TIP3   OH239407   3.485   4.291   5.462
13177TIP3    H139408   3.456   4.227   5.397
13177TIP3    H239409   3.554   4.246   5.511
13178TIP3   OH239410   2.597   0.133   6.093
13178TIP3    H139411   2.535   0.202   6.069
13178TIP3    H239412   2.631   0.160   6.179
13179TIP3   OH239413   8.050   6.436   2.302
13179TIP3    H139414   8.057   6.528   2.327
13179TIP3    H239415   8.103   6.390   2.367
13180TIP3   OH239416   2.510   6.259   3.538
13180TIP3    H139417   2.507   6.197   3.612
13180TIP3    H239418   2.587   6.313   3.555
13181TIP3   OH239419   0.001   4.736   4.738
13181TIP3    H139420  -0.017   4.794   4.812
13181TIP3    H239421   0.091   4.705   4.752
13182TIP3   OH239422   1.380   6.269   3.765
13182TIP3    H139423   1.461   6.286   3.811
13182TIP3    H239424   1.340   6.356   3.754
13183TIP3   OH239425   9.255   7.174   6.275
13183TIP3    H139426   9.204   7.170   6.356
13183TIP3    H239427   9.197   7.137   6.208
13184TIP3   OH239428   4.023   1.426   0.582
13184TIP3    H139429   4.060   1.490   0.642
13184TIP3    H239430   4.013   1.347   0.635
13185TIP3   OH239431   9.204   8.087   6.371
13185TIP3    H139432   9.139   8.068   6.304
13185TIP3    H239433   9.283   8.111   6.323
13186TIP3   OH239434   1.704   1.058   4.727
13186TIP3    H139435   1.656   1.057   4.810
13186TIP3    H239436   1.787   1.102   4.748
13187TIP3   OH239437   1.279   0.754   0.427
13187TIP3    H139438   1.202   0.765   0.483
13187TIP3    H239439   1.336   0.695   0.476
13188TIP3   OH239440   2.010   2.813   3.500
13188TIP3    H139441   2.055   2.829   3.583
13188TIP3    H239442   1.936   2.873   3.501
13189TIP3   OH239443   7.168   6.255   2.955
13189TIP3    H139444   7.194   6.167   2.984
13189TIP3    H239445   7.220   6.271   2.876
13190TIP3   OH239446   0.617   2.982   0.079
13190TIP3    H139447   0.625   3.008   0.171
13190TIP3    H239448   0.667   3.048   0.031
13191TIP3   OH239449   6.610   4.677   0.628
13191TIP3    H139450   6.648   4.600   0.586
13191TIP3    H239451   6.542   4.642   0.686
13192TIP3   OH239452   4.982   5.027   6.170
13192TIP3    H139453   4.977   5.051   6.262
13192TIP3    H239454   4.977   4.931   6.169
13193TIP3   OH239455   8.189   0.136   0.397
13193TIP3    H139456   8.102   0.096   0.400
13193TIP3    H239457   8.171   0.229   0.385
13194TIP3   OH239458   6.359   6.004   0.488
13194TIP3    H139459   6.294   6.047   0.433
13194TIP3    H239460   6.361   6.057   0.568
13195TIP3   OH239461   2.869   0.245   1.313
13195TIP3    H139462   2.916   0.264   1.232
13195TIP3    H239463   2.921   0.287   1.382
13196TIP3   OH239464   0.320   0.077   2.717
13196TIP3    H139465   0.308   0.167   2.748
13196TIP3    H239466   0.374   0.086   2.639
13197TIP3   OH239467   4.498   7.377   6.034
13197TIP3    H139468   4.416   7.339   6.065
13197TIP3    H239469   4.566   7.318   6.067
13198TIP3   OH239470   2.363   4.942   7.756
13198TIP3    H139471   2.343   4.850   7.774
13198TIP3    H239472   2.344   4.988   7.838
13199TIP3   OH239473   1.756   7.607   3.390
13199TIP3    H139474   1.799   7.583   3.472
13199TIP3    H239475   1.731   7.699   3.402
13200TIP3   OH239476   6.742   6.493   7.596
13200TIP3    H139477   6.831   6.480   7.629
13200TIP3    H239478   6.754   6.532   7.509
13201TIP3   OH239479   1.218   8.593   0.123
13201TIP3    H139480   1.217   8.686   0.143
13201TIP3    H239481   1.276   8.586   0.047
13202TIP3   OH239482   6.309   3.210   0.760
13202TIP3    H139483   6.384   3.262   0.731
13202TIP3    H239484   6.247   3.275   0.794
13203TIP3   OH239485   3.128   5.514   7.342
13203TIP3    H139486   3.106   5.550   7.428
13203TIP3    H239487   3.174   5.432   7.361
13204TIP3   OH239488   5.597   7.889   2.337
13204TIP3    H139489   5.621   7.815   2.394
13204TIP3    H239490   5.661   7.886   2.266
13205TIP3   OH239491   1.005   7.909   2.267
13205TIP3    H139492   1.027   7.887   2.177
13205TIP3    H239493   0.938   7.977   2.260
13206TIP3   OH239494   8.870   3.848   7.693
13206TIP3    H139495   8.893   3.756   7.683
13206TIP3    H239496   8.945   3.887   7.738
13207TIP3   OH239497   7.844   5.332   6.452
13207TIP3    H139498   7.769   5.384   6.424
13207TIP3    H239499   7.806   5.264   6.508
13208TIP3   OH239500   0.630   3.577   2.903
13208TIP3    H139501   0.616   3.505   2.964
13208TIP3    H239502   0.668   3.535   2.826
13209TIP3   OH239503   5.076   0.010   7.488
13209TIP3    H139504   5.023  -0.038   7.551
13209TIP3    H239505   5.098  -0.055   7.421
13210TIP3   OH239506   0.125   8.156   7.410
13210TIP3    H139507   0.130   8.250   7.394
13210TIP3    H239508   0.065   8.123   7.343
13211TIP3   OH239509   1.458   8.858   3.675
13211TIP3    H139510   1.471   8.771   3.635
13211TIP3    H239511   1.443   8.839   3.767
13212TIP3   OH239512   8.222   6.603   6.289
13212TIP3    H139513   8.312   6.599   6.257
13212TIP3    H239514   8.171   6.630   6.212
13213TIP3   OH239515   1.352   2.040   2.284
13213TIP3    H139516   1.331   2.102   2.213
13213TIP3    H239517   1.279   1.979   2.284
13214TIP3   OH239518   2.349   1.951   6.605
13214TIP3    H139519   2.424   1.991   6.649
13214TIP3    H239520   2.293   2.025   6.580
13215TIP3   OH239521   1.238   5.894   4.653
13215TIP3    H139522   1.146   5.890   4.681
13215TIP3    H239523   1.283   5.834   4.711
13216TIP3   OH239524   1.620   8.701   6.259
13216TIP3    H139525   1.538   8.721   6.304
13216TIP3    H239526   1.671   8.651   6.324
13217TIP3   OH239527   0.971   0.418   7.618
13217TIP3    H139528   1.043   0.480   7.633
13217TIP3    H239529   0.958   0.375   7.703
13218TIP3   OH239530   7.036   7.821   1.923
13218TIP3    H139531   6.961   7.818   1.983
13218TIP3    H239532   7.100   7.761   1.961
13219TIP3   OH239533   4.568   1.398   4.791
13219TIP3    H139534   4.661   1.404   4.814
13219TIP3    H239535   4.565   1.335   4.719
13220TIP3   OH239536   7.151   0.208   1.924
13220TIP3    H139537   7.138   0.159   1.842
13220TIP3    H239538   7.063   0.240   1.947
13221TIP3   OH239539   8.479   6.122   0.396
13221TIP3    H139540   8.484   6.027   0.384
13221TIP3    H239541   8.550   6.157   0.342
13222TIP3   OH239542   6.576   1.772   1.116
13222TIP3    H139543   6.516   1.714   1.069
13222TIP3    H239544   6.546   1.770   1.207
13223TIP3   OH239545   4.037   8.867   6.644
13223TIP3    H139546   4.106   8.828   6.698
13223TIP3    H239547   4.081   8.935   6.593
13224TIP3   OH239548   7.683   7.099   3.138
13224TIP3    H139549   7.691   7.066   3.228
13224TIP3    H239550   7.759   7.157   3.127
13225TIP3   OH239551   4.726   3.301   0.181
13225TIP3    H139552   4.709   3.394   0.197
13225TIP3    H239553   4.800   3.280   0.238
13226TIP3   OH239554   5.943   2.912   5.880
13226TIP3    H139555   6.027   2.871   5.861
13226TIP3    H239556   5.966   2.998   5.917
13227TIP3   OH239557   6.618   8.427   6.010
13227TIP3    H139558   6.668   8.400   6.087
13227TIP3    H239559   6.671   8.494   5.968
13228TIP3   OH239560   5.263   2.330   3.789
13228TIP3    H139561   5.212   2.411   3.781
13228TIP3    H239562   5.283   2.324   3.882
13229TIP3   OH239563   3.248   2.310   1.265
13229TIP3    H139564   3.165   2.318   1.219
13229TIP3    H239565   3.293   2.237   1.222
13230TIP3   OH239566   6.115   1.023   1.985
13230TIP3    H139567   6.070   0.939   1.989
13230TIP3    H239568   6.117   1.045   1.892
13231TIP3   OH239569   2.540   5.693   7.083
13231TIP3    H139570   2.632   5.671   7.067
13231TIP3    H239571   2.499   5.608   7.103
13232TIP3   OH239572   0.986   5.499   1.812
13232TIP3    H139573   0.997   5.557   1.737
13232TIP3    H239574   0.995   5.411   1.777
13233TIP3   OH239575   5.095   4.491   2.041
13233TIP3    H139576   5.095   4.523   2.131
13233TIP3    H239577   5.026   4.542   1.998
13234TIP3   OH239578   4.023   6.643   4.564
13234TIP3    H139579   4.055   6.732   4.547
13234TIP3    H239580   3.968   6.623   4.489
13235TIP3   OH239581   7.335   5.763   4.174
13235TIP3    H139582   7.316   5.728   4.087
13235TIP3    H239583   7.249   5.776   4.214
13236TIP3   OH239584   5.467   5.238   3.175
13236TIP3    H139585   5.445   5.148   3.152
13236TIP3    H239586   5.383   5.280   3.191
13237TIP3   OH239587   6.915   3.415   4.451
13237TIP3    H139588   6.901   3.492   4.506
13237TIP3    H239589   6.904   3.341   4.511
13238TIP3   OH239590   7.096   0.541   6.489
13238TIP3    H139591   7.172   0.489   6.515
13238TIP3    H239592   7.032   0.525   6.558
13239TIP3   OH239593   9.442   1.633   2.337
13239TIP3    H139594   9.479   1.615   2.424
13239TIP3    H239595   9.383   1.559   2.320
13240TIP3   OH239596   3.578   1.735   5.506
13240TIP3    H139597   3.514   1.748   5.436
13240TIP3    H239598   3.600   1.642   5.503
13241TIP3   OH239599   4.775   3.556   1.309
13241TIP3    H139600   4.843   3.497   1.339
13241TIP3    H239601   4.785   3.560   1.214
13242TIP3   OH239602   6.347   8.174   6.483
13242TIP3    H139603   6.273   8.115   6.500
13242TIP3    H239604   6.353   8.178   6.387
13243TIP3   OH239605   3.289   2.675   7.237
13243TIP3    H139606   3.265   2.759   7.199
13243TIP3    H239607   3.350   2.637   7.175
13244TIP3   OH239608   2.986   6.151   0.267
13244TIP3    H139609   2.936   6.198   0.200
13244TIP3    H239610   3.039   6.219   0.309
13245TIP3   OH239611   7.556   4.350   1.229
13245TIP3    H139612   7.568   4.298   1.150
13245TIP3    H239613   7.640   4.344   1.275
13246TIP3   OH239614   4.047   1.104   5.644
13246TIP3    H139615   4.022   1.114   5.552
13246TIP3    H239616   4.033   1.011   5.662
13247TIP3   OH239617   0.424   4.960   0.919
13247TIP3    H139618   0.375   5.003   0.850
13247TIP3    H239619   0.455   4.878   0.880
13248TIP3   OH239620   0.759   3.606   7.329
13248TIP3    H139621   0.838   3.631   7.281
13248TIP3    H239622   0.693   3.669   7.302
13249TIP3   OH239623   4.057   3.546   3.020
13249TIP3    H139624   4.126   3.544   3.087
13249TIP3    H239625   4.073   3.626   2.970
13250TIP3   OH239626   4.071   8.135   1.210
13250TIP3    H139627   4.045   8.201   1.274
13250TIP3    H239628   4.103   8.062   1.263
13251TIP3   OH239629   2.697   5.284   7.165
13251TIP3    H139630   2.765   5.351   7.175
13251TIP3    H239631   2.615   5.331   7.183
13252TIP3   OH239632   4.032   2.799   1.066
13252TIP3    H139633   4.093   2.783   1.138
13252TIP3    H239634   3.961   2.737   1.080
13253TIP3   OH239635   7.844   6.812   3.818
13253TIP3    H139636   7.816   6.898   3.788
13253TIP3    H239637   7.776   6.752   3.786
13254TIP3   OH239638   8.231   6.616   1.144
13254TIP3    H139639   8.233   6.671   1.066
13254TIP3    H239640   8.199   6.674   1.213
13255TIP3   OH239641   4.564   2.922   1.511
13255TIP3    H139642   4.614   2.852   1.553
13255TIP3    H239643   4.545   2.984   1.582
13256TIP3   OH239644   5.939   0.886   2.905
13256TIP3    H139645   5.929   0.871   3.000
13256TIP3    H239646   5.853   0.918   2.877
13257TIP3   OH239647   1.639   0.634   6.751
13257TIP3    H139648   1.657   0.628   6.845
13257TIP3    H239649   1.545   0.615   6.743
13258TIP3   OH239650   9.571   6.457   2.347
13258TIP3    H139651   9.482   6.481   2.373
13258TIP3    H239652   9.561   6.415   2.261
13259TIP3   OH239653   8.873   0.118   7.374
13259TIP3    H139654   8.968   0.112   7.362
13259TIP3    H239655   8.849   0.200   7.333
13260TIP3   OH239656   0.187   3.181   6.042
13260TIP3    H139657   0.216   3.116   5.978
13260TIP3    H239658   0.094   3.164   6.054
13261TIP3   OH239659   8.660   5.418   0.453
13261TIP3    H139660   8.749   5.395   0.427
13261TIP3    H239661   8.606   5.400   0.376
13262TIP3   OH239662   2.671   0.301   7.036
13262TIP3    H139663   2.736   0.251   6.987
13262TIP3    H239664   2.603   0.237   7.057
13263TIP3   OH239665   6.462   1.920   7.071
13263TIP3    H139666   6.499   1.856   7.010
13263TIP3    H239667   6.516   1.998   7.061
13264TIP3   OH239668   8.411   0.934   1.405
13264TIP3    H139669   8.443   0.987   1.331
13264TIP3    H239670   8.323   0.968   1.422
13265TIP3   OH239671   9.400   6.887   4.761
13265TIP3    H139672   9.363   6.918   4.678
13265TIP3    H239673   9.410   6.966   4.814
13266TIP3   OH239674   5.036   7.395   6.370
13266TIP3    H139675   4.988   7.396   6.287
13266TIP3    H239676   5.093   7.318   6.364
13267TIP3   OH239677   9.193   6.228   7.321
13267TIP3    H139678   9.123   6.291   7.310
13267TIP3    H239679   9.248   6.239   7.243
13268TIP3   OH239680   0.772   0.398   0.731
13268TIP3    H139681   0.731   0.389   0.817
13268TIP3    H239682   0.857   0.355   0.741
13269TIP3   OH239683   1.001   3.941   0.987
13269TIP3    H139684   0.977   4.033   0.999
13269TIP3    H239685   1.029   3.935   0.896
13270TIP3   OH239686   4.751   4.777   4.074
13270TIP3    H139687   4.789   4.690   4.078
13270TIP3    H239688   4.820   4.833   4.038
13271TIP3   OH239689   1.256   8.345   6.089
13271TIP3    H139690   1.277   8.375   6.000
13271TIP3    H239691   1.161   8.356   6.096
13272TIP3   OH239692   6.010   7.186   4.788
13272TIP3    H139693   6.015   7.263   4.730
13272TIP3    H239694   6.072   7.206   4.858
13273TIP3   OH239695   7.866   5.004   0.718
13273TIP3    H139696   7.876   4.911   0.737
13273TIP3    H239697   7.807   5.035   0.787
13274TIP3   OH239698   8.366   2.497   3.831
13274TIP3    H139699   8.287   2.505   3.884
13274TIP3    H239700   8.420   2.433   3.878
13275TIP3   OH239701   2.519   7.394   2.638
13275TIP3    H139702   2.474   7.357   2.714
13275TIP3    H239703   2.571   7.466   2.673
13276TIP3   OH239704   8.232   4.121   6.905
13276TIP3    H139705   8.299   4.053   6.897
13276TIP3    H239706   8.212   4.146   6.814
13277TIP3   OH239707   7.370   5.605   5.145
13277TIP3    H139708   7.435   5.637   5.207
13277TIP3    H239709   7.398   5.640   5.060
13278TIP3   OH239710   5.926   0.277   0.683
13278TIP3    H139711   5.842   0.324   0.682
13278TIP3    H239712   5.917   0.211   0.615
13279TIP3   OH239713   4.167   8.341   7.517
13279TIP3    H139714   4.226   8.400   7.469
13279TIP3    H239715   4.085   8.345   7.468
13280TIP3   OH239716   1.203   8.404   5.828
13280TIP3    H139717   1.131   8.376   5.772
13280TIP3    H239718   1.236   8.484   5.787
13281TIP3   OH239719   3.988   5.918   1.379
13281TIP3    H139720   4.038   5.927   1.297
13281TIP3    H239721   3.900   5.948   1.356
13282TIP3   OH239722   2.392   0.858   3.157
13282TIP3    H139723   2.392   0.778   3.211
13282TIP3    H239724   2.326   0.841   3.090
13283TIP3   OH239725   1.981   5.286   3.223
13283TIP3    H139726   1.958   5.273   3.131
13283TIP3    H239727   1.932   5.363   3.250
13284TIP3   OH239728   2.766   2.419   5.063
13284TIP3    H139729   2.763   2.442   4.971
13284TIP3    H239730   2.766   2.503   5.109
13285TIP3   OH239731   6.662   1.482   3.758
13285TIP3    H139732   6.578   1.485   3.804
13285TIP3    H239733   6.640   1.459   3.668
13286TIP3   OH239734   9.348   0.168   5.448
13286TIP3    H139735   9.304   0.188   5.365
13286TIP3    H239736   9.311   0.231   5.510
13287TIP3   OH239737   0.704   0.962   1.827
13287TIP3    H139738   0.679   0.889   1.884
13287TIP3    H239739   0.717   0.921   1.741
13288TIP3   OH239740   3.200   3.248   4.824
13288TIP3    H139741   3.292   3.230   4.841
13288TIP3    H239742   3.152   3.189   4.882
13289TIP3   OH239743   5.111   1.558   1.003
13289TIP3    H139744   5.096   1.631   0.943
13289TIP3    H239745   5.200   1.529   0.984
13290TIP3   OH239746   1.833   2.594   0.905
13290TIP3    H139747   1.918   2.557   0.883
13290TIP3    H239748   1.848   2.644   0.985
13291TIP3   OH239749   8.382   4.819   4.660
13291TIP3    H139750   8.477   4.821   4.649
13291TIP3    H239751   8.348   4.790   4.575
13292TIP3   OH239752   9.541   8.468   0.508
13292TIP3    H139753   9.628   8.434   0.489
13292TIP3    H239754   9.498   8.473   0.423
13293TIP3   OH239755   2.400   0.833   4.290
13293TIP3    H139756   2.359   0.817   4.375
13293TIP3    H239757   2.359   0.914   4.258
13294TIP3   OH239758   1.765   8.230   6.584
13294TIP3    H139759   1.684   8.202   6.541
13294TIP3    H239760   1.810   8.147   6.605
13295TIP3   OH239761   4.788   5.895   3.431
13295TIP3    H139762   4.782   5.837   3.507
13295TIP3    H239763   4.880   5.918   3.425
13296TIP3   OH239764   7.720   2.536   0.830
13296TIP3    H139765   7.660   2.579   0.891
13296TIP3    H239766   7.806   2.575   0.850
13297TIP3   OH239767   1.823   6.757   4.689
13297TIP3    H139768   1.771   6.687   4.650
13297TIP3    H239769   1.912   6.722   4.695
13298TIP3   OH239770   6.677   5.305   2.454
13298TIP3    H139771   6.746   5.239   2.462
13298TIP3    H239772   6.610   5.263   2.401
13299TIP3   OH239773   4.874   4.882   5.046
13299TIP3    H139774   4.820   4.864   5.122
13299TIP3    H239775   4.939   4.812   5.045
13300TIP3   OH239776   8.625   4.309   6.758
13300TIP3    H139777   8.643   4.223   6.795
13300TIP3    H239778   8.711   4.349   6.747
13301TIP3   OH239779   6.463   5.670   0.935
13301TIP3    H139780   6.401   5.678   0.863
13301TIP3    H239781   6.527   5.739   0.920
13302TIP3   OH239782   4.280   2.035   2.307
13302TIP3    H139783   4.297   1.941   2.317
13302TIP3    H239784   4.327   2.060   2.227
13303TIP3   OH239785   1.667   3.407   1.421
13303TIP3    H139786   1.618   3.488   1.433
13303TIP3    H239787   1.618   3.360   1.353
13304TIP3   OH239788   6.209   2.411   6.781
13304TIP3    H139789   6.289   2.367   6.751
13304TIP3    H239790   6.216   2.411   6.877
13305TIP3   OH239791   1.833   6.237   7.182
13305TIP3    H139792   1.770   6.284   7.128
13305TIP3    H239793   1.886   6.186   7.120
13306TIP3   OH239794   4.708   9.021   1.610
13306TIP3    H139795   4.662   8.997   1.530
13306TIP3    H239796   4.697   9.116   1.617
13307TIP3   OH239797   0.970   2.588   2.233
13307TIP3    H139798   1.032   2.627   2.295
13307TIP3    H239799   1.022   2.569   2.155
13308TIP3   OH239800   4.963   3.373   7.755
13308TIP3    H139801   4.867   3.380   7.749
13308TIP3    H239802   4.977   3.297   7.812
13309TIP3   OH239803   8.918   8.888   6.890
13309TIP3    H139804   8.863   8.908   6.814
13309TIP3    H239805   9.004   8.924   6.866
13310TIP3   OH239806   8.854   5.741   3.935
13310TIP3    H139807   8.944   5.716   3.959
13310TIP3    H239808   8.801   5.715   4.009
13311TIP3   OH239809   5.920   4.708   0.385
13311TIP3    H139810   5.881   4.683   0.301
13311TIP3    H239811   5.980   4.637   0.406
13312TIP3   OH239812   4.398   8.550   4.691
13312TIP3    H139813   4.355   8.466   4.677
13312TIP3    H239814   4.388   8.567   4.784
13313TIP3   OH239815   7.925   4.087   2.345
13313TIP3    H139816   8.007   4.038   2.349
13313TIP3    H239817   7.937   4.160   2.407
13314TIP3   OH239818   8.819   7.236   5.293
13314TIP3    H139819   8.776   7.208   5.374
13314TIP3    H239820   8.746   7.264   5.236
13315TIP3   OH239821   8.664   3.664   5.463
13315TIP3    H139822   8.656   3.695   5.553
13315TIP3    H239823   8.609   3.723   5.412
13316TIP3   OH239824   0.292   2.069   0.585
13316TIP3    H139825   0.344   2.114   0.651
13316TIP3    H239826   0.308   2.117   0.504
13317TIP3   OH239827   3.923   0.858   3.131
13317TIP3    H139828   4.010   0.819   3.143
13317TIP3    H239829   3.904   0.900   3.214
13318TIP3   OH239830   6.585   8.107   4.984
13318TIP3    H139831   6.669   8.068   5.009
13318TIP3    H239832   6.604   8.200   4.975
13319TIP3   OH239833   2.684   3.368   6.874
13319TIP3    H139834   2.740   3.297   6.905
13319TIP3    H239835   2.613   3.324   6.827
13320TIP3   OH239836   6.337   4.727   3.649
13320TIP3    H139837   6.387   4.800   3.613
13320TIP3    H239838   6.347   4.657   3.584
13321TIP3   OH239839   8.734   8.199   6.053
13321TIP3    H139840   8.755   8.122   6.106
13321TIP3    H239841   8.777   8.272   6.097
13322TIP3   OH239842   1.636   0.807   1.701
13322TIP3    H139843   1.711   0.788   1.645
13322TIP3    H239844   1.671   0.864   1.770
13323TIP3   OH239845   2.052   4.381   7.113
13323TIP3    H139846   1.997   4.310   7.146
13323TIP3    H239847   2.142   4.347   7.120
13324TIP3   OH239848   9.509   0.743   1.808
13324TIP3    H139849   9.585   0.752   1.866
13324TIP3    H239850   9.546   0.705   1.728
13325TIP3   OH239851   5.150   6.007   6.457
13325TIP3    H139852   5.088   6.020   6.386
13325TIP3    H239853   5.233   6.041   6.423
13326TIP3   OH239854   7.409   2.300   4.799
13326TIP3    H139855   7.458   2.249   4.734
13326TIP3    H239856   7.327   2.322   4.755
13327TIP3   OH239857   5.837   1.731   4.447
13327TIP3    H139858   5.915   1.751   4.499
13327TIP3    H239859   5.766   1.729   4.511
13328TIP3   OH239860   4.107   0.277   6.338
13328TIP3    H139861   4.040   0.210   6.324
13328TIP3    H239862   4.169   0.264   6.266
13329TIP3   OH239863   2.544   5.978   7.380
13329TIP3    H139864   2.518   5.992   7.471
13329TIP3    H239865   2.533   5.884   7.366
13330TIP3   OH239866   7.660   7.125   4.387
13330TIP3    H139867   7.652   7.063   4.315
13330TIP3    H239868   7.571   7.157   4.402
13331TIP3   OH239869   6.581   7.946   4.699
13331TIP3    H139870   6.632   8.026   4.685
13331TIP3    H239871   6.490   7.976   4.699
13332TIP3   OH239872   5.488   4.051   2.825
13332TIP3    H139873   5.525   4.100   2.751
13332TIP3    H239874   5.477   4.117   2.893
13333TIP3   OH239875   6.800   2.822   4.938
13333TIP3    H139876   6.884   2.830   4.983
13333TIP3    H239877   6.816   2.855   4.850
13334TIP3   OH239878   1.117   3.975   7.166
13334TIP3    H139879   1.113   4.065   7.198
13334TIP3    H239880   1.097   3.921   7.242
13335TIP3   OH239881   1.641   1.915   0.583
13335TIP3    H139882   1.679   1.997   0.613
13335TIP3    H239883   1.604   1.875   0.661
13336TIP3   OH239884   9.371   2.180   4.404
13336TIP3    H139885   9.348   2.103   4.456
13336TIP3    H239886   9.307   2.182   4.334
13337TIP3   OH239887   7.596   4.734   4.326
13337TIP3    H139888   7.671   4.741   4.384
13337TIP3    H239889   7.582   4.640   4.315
13338TIP3   OH239890   3.161   6.080   3.026
13338TIP3    H139891   3.219   6.086   2.950
13338TIP3    H239892   3.201   6.138   3.091
13339TIP3   OH239893   4.470   8.687   6.511
13339TIP3    H139894   4.439   8.750   6.445
13339TIP3    H239895   4.527   8.739   6.569
13340TIP3   OH239896   8.415   6.878   1.152
13340TIP3    H139897   8.332   6.890   1.106
13340TIP3    H239898   8.399   6.804   1.211
13341TIP3   OH239899   0.976   7.189   4.568
13341TIP3    H139900   0.925   7.263   4.600
13341TIP3    H239901   1.050   7.228   4.521
13342TIP3   OH239902   4.615   4.847   3.011
13342TIP3    H139903   4.579   4.920   2.959
13342TIP3    H239904   4.652   4.788   2.946
13343TIP3   OH239905   8.813   2.508   3.986
13343TIP3    H139906   8.856   2.556   4.057
13343TIP3    H239907   8.848   2.547   3.906
13344TIP3   OH239908   3.796   0.724   4.362
13344TIP3    H139909   3.782   0.819   4.361
13344TIP3    H239910   3.763   0.696   4.448
13345TIP3   OH239911   6.841   1.317   5.144
13345TIP3    H139912   6.756   1.315   5.100
13345TIP3    H239913   6.892   1.249   5.099
13346TIP3   OH239914   5.838   2.823   6.277
13346TIP3    H139915   5.832   2.778   6.192
13346TIP3    H239916   5.850   2.752   6.340
13347TIP3   OH239917   9.315   4.428   5.820
13347TIP3    H139918   9.286   4.520   5.820
13347TIP3    H239919   9.246   4.381   5.774
13348TIP3   OH239920   3.032   1.265   7.415
13348TIP3    H139921   2.971   1.193   7.428
13348TIP3    H239922   3.002   1.308   7.335
13349TIP3   OH239923   8.735   5.551   0.079
13349TIP3    H139924   8.823   5.544   0.114
13349TIP3    H239925   8.741   5.514  -0.009
13350TIP3   OH239926   8.246   4.395   7.070
13350TIP3    H139927   8.183   4.382   6.999
13350TIP3    H239928   8.309   4.323   7.058
13351TIP3   OH239929   3.202   3.704   6.120
13351TIP3    H139930   3.292   3.699   6.151
13351TIP3    H239931   3.203   3.660   6.035
13352TIP3   OH239932   0.872   3.424   1.926
13352TIP3    H139933   0.886   3.518   1.937
13352TIP3    H239934   0.952   3.393   1.883
13353TIP3   OH239935   7.533   3.227   0.989
13353TIP3    H139936   7.581   3.269   1.060
13353TIP3    H239937   7.594   3.224   0.916
13354TIP3   OH239938   2.545   0.016   0.853
13354TIP3    H139939   2.538   0.107   0.883
13354TIP3    H239940   2.625  -0.016   0.893
13355TIP3   OH239941   6.293   1.715   2.516
13355TIP3    H139942   6.277   1.633   2.469
13355TIP3    H239943   6.352   1.765   2.458
13356TIP3   OH239944   9.402   5.169   0.838
13356TIP3    H139945   9.455   5.193   0.763
13356TIP3    H239946   9.316   5.206   0.819
13357TIP3   OH239947   5.905   2.621   5.597
13357TIP3    H139948   5.985   2.643   5.550
13357TIP3    H239949   5.913   2.528   5.616
13358TIP3   OH239950   3.339   2.647   1.554
13358TIP3    H139951   3.387   2.610   1.480
13358TIP3    H239952   3.406   2.674   1.616
13359TIP3   OH239953   3.989   1.494   1.427
13359TIP3    H139954   3.918   1.473   1.366
13359TIP3    H239955   4.050   1.547   1.375
13360TIP3   OH239956   2.659   4.651   2.076
13360TIP3    H139957   2.738   4.619   2.031
13360TIP3    H239958   2.692   4.712   2.141
13361TIP3   OH239959   6.849   5.487   5.728
13361TIP3    H139960   6.779   5.546   5.700
13361TIP3    H239961   6.895   5.535   5.797
13362TIP3   OH239962   3.575   3.580   3.001
13362TIP3    H139963   3.624   3.535   2.932
13362TIP3    H239964   3.641   3.626   3.052
13363TIP3   OH239965   7.731   5.109   4.006
13363TIP3    H139966   7.665   5.152   4.060
13363TIP3    H239967   7.810   5.107   4.060
13364TIP3   OH239968   7.035   7.276   2.337
13364TIP3    H139969   6.978   7.226   2.279
13364TIP3    H239970   7.118   7.227   2.335
13365TIP3   OH239971   4.430   4.602   4.585
13365TIP3    H139972   4.438   4.572   4.494
13365TIP3    H239973   4.393   4.527   4.631
13366TIP3   OH239974   3.921   5.813   6.310
13366TIP3    H139975   3.845   5.847   6.357
13366TIP3    H239976   3.994   5.825   6.371
13367TIP3   OH239977   5.557   2.168   3.761
13367TIP3    H139978   5.467   2.149   3.789
13367TIP3    H239979   5.562   2.130   3.673
13368TIP3   OH239980   6.038   1.736   1.544
13368TIP3    H139981   6.078   1.746   1.631
13368TIP3    H239982   5.944   1.744   1.561
13369TIP3   OH239983   0.983   3.696   0.063
13369TIP3    H139984   0.965   3.617   0.114
13369TIP3    H239985   0.992   3.664  -0.027
13370TIP3   OH239986   6.575   2.507   3.115
13370TIP3    H139987   6.547   2.520   3.024
13370TIP3    H239988   6.589   2.595   3.149
13371TIP3   OH239989   8.285   1.763   1.172
13371TIP3    H139990   8.224   1.792   1.240
13371TIP3    H239991   8.356   1.828   1.175
13372TIP3   OH239992   5.079   0.839   1.201
13372TIP3    H139993   5.143   0.786   1.249
13372TIP3    H239994   5.023   0.877   1.268
13373TIP3   OH239995   1.870   0.583   6.392
13373TIP3    H139996   1.833   0.517   6.451
13373TIP3    H239997   1.864   0.665   6.440
13374TIP3   OH239998   3.762   0.651   4.081
13374TIP3    H139999   3.826   0.646   4.010
13374TIP3    H240000   3.813   0.677   4.158
13375TIP3   OH240001   0.400   1.982   7.796
13375TIP3    H140002   0.305   1.989   7.787
13375TIP3    H240003   0.420   2.028   7.878
13376TIP3   OH240004   2.202   5.683   6.279
13376TIP3    H140005   2.287   5.703   6.239
13376TIP3    H240006   2.222   5.671   6.372
13377TIP3   OH240007   4.012   3.623   5.834
13377TIP3    H140008   3.953   3.685   5.876
13377TIP3    H240009   3.966   3.595   5.755
13378TIP3   OH240010   3.570   2.595   2.744
13378TIP3    H140011   3.486   2.639   2.729
13378TIP3    H240012   3.591   2.555   2.660
13379TIP3   OH240013   4.509   7.649   3.524
13379TIP3    H140014   4.538   7.580   3.583
13379TIP3    H240015   4.414   7.652   3.536
13380TIP3   OH240016   6.572   6.910   0.727
13380TIP3    H140017   6.664   6.883   0.730
13380TIP3    H240018   6.576   7.003   0.704
13381TIP3   OH240019   3.261   8.123   4.996
13381TIP3    H140020   3.244   8.207   5.038
13381TIP3    H240021   3.291   8.067   5.068
13382TIP3   OH240022   6.771   1.203   1.403
13382TIP3    H140023   6.822   1.282   1.387
13382TIP3    H240024   6.832   1.131   1.388
13383TIP3   OH240025   4.888   6.718   7.593
13383TIP3    H140026   4.905   6.706   7.686
13383TIP3    H240027   4.971   6.700   7.550
13384TIP3   OH240028   3.692   5.910   6.443
13384TIP3    H140029   3.631   5.904   6.516
13384TIP3    H240030   3.677   5.998   6.407
13385TIP3   OH240031   1.372   5.121   4.037
13385TIP3    H140032   1.359   5.118   3.942
13385TIP3    H240033   1.284   5.114   4.073
13386TIP3   OH240034   6.265   5.543   5.844
13386TIP3    H140035   6.318   5.464   5.849
13386TIP3    H240036   6.206   5.528   5.770
13387TIP3   OH240037   0.150   3.775   6.122
13387TIP3    H140038   0.106   3.690   6.125
13387TIP3    H240039   0.243   3.755   6.126
13388TIP3   OH240040   2.119   6.130   3.552
13388TIP3    H140041   2.166   6.185   3.489
13388TIP3    H240042   2.177   6.126   3.628
13389TIP3   OH240043   0.356   4.429   2.414
13389TIP3    H140044   0.398   4.360   2.362
13389TIP3    H240045   0.333   4.386   2.496
13390TIP3   OH240046   4.650   2.317   4.951
13390TIP3    H140047   4.555   2.317   4.938
13390TIP3    H240048   4.683   2.252   4.889
13391TIP3   OH240049   2.578   1.570   7.054
13391TIP3    H140050   2.622   1.649   7.085
13391TIP3    H240051   2.570   1.583   6.959
13392TIP3   OH240052   3.561   0.063   3.465
13392TIP3    H140053   3.618   0.049   3.389
13392TIP3    H240054   3.605   0.132   3.515
13393TIP3   OH240055   2.054   8.422   5.307
13393TIP3    H140056   1.999   8.467   5.243
13393TIP3    H240057   2.136   8.406   5.261
13394TIP3   OH240058   2.935   3.909   4.018
13394TIP3    H140059   3.001   3.867   4.073
13394TIP3    H240060   2.963   4.000   4.013
13395TIP3   OH240061   9.369   6.129   2.634
13395TIP3    H140062   9.354   6.063   2.701
13395TIP3    H240063   9.455   6.165   2.654
13396TIP3   OH240064   7.108   8.246   3.231
13396TIP3    H140065   7.026   8.295   3.220
13396TIP3    H240066   7.081   8.154   3.225
13397TIP3   OH240067   6.904   3.476   0.885
13397TIP3    H140068   6.868   3.435   0.963
13397TIP3    H240069   6.836   3.537   0.856
13398TIP3   OH240070   7.944   0.913   2.488
13398TIP3    H140071   7.944   0.930   2.582
13398TIP3    H240072   7.877   0.972   2.453
13399TIP3   OH240073   7.898   5.518   5.389
13399TIP3    H140074   7.940   5.475   5.314
13399TIP3    H240075   7.967   5.569   5.430
13400TIP3   OH240076   1.553   3.272   0.722
13400TIP3    H140077   1.605   3.233   0.652
13400TIP3    H240078   1.499   3.337   0.678
13401TIP3   OH240079   6.985   6.238   2.461
13401TIP3    H140080   7.000   6.147   2.435
13401TIP3    H240081   6.987   6.237   2.557
13402TIP3   OH240082   2.149   4.824   4.386
13402TIP3    H140083   2.169   4.730   4.376
13402TIP3    H240084   2.181   4.864   4.305
13403TIP3   OH240085   7.163   5.957   2.969
13403TIP3    H140086   7.192   5.869   2.994
13403TIP3    H240087   7.141   5.950   2.876
13404TIP3   OH240088   7.886   4.546   1.613
13404TIP3    H140089   7.829   4.485   1.660
13404TIP3    H240090   7.840   4.630   1.617
13405TIP3   OH240091   0.642   3.717   6.751
13405TIP3    H140092   0.615   3.743   6.662
13405TIP3    H240093   0.727   3.758   6.763
13406TIP3   OH240094   8.286   8.937   6.889
13406TIP3    H140095   8.241   9.013   6.924
13406TIP3    H240096   8.216   8.874   6.871
13407TIP3   OH240097   3.188   0.417   5.603
13407TIP3    H140098   3.246   0.341   5.607
13407TIP3    H240099   3.164   0.433   5.694
13408TIP3   OH240100   7.752   4.159   1.459
13408TIP3    H140101   7.786   4.248   1.446
13408TIP3    H240102   7.815   4.102   1.416
13409TIP3   OH240103   4.167   2.009   1.033
13409TIP3    H140104   4.106   2.073   0.997
13409TIP3    H240105   4.117   1.927   1.035
13410TIP3   OH240106   9.298   0.165   6.327
13410TIP3    H140107   9.392   0.184   6.326
13410TIP3    H240108   9.292   0.074   6.357
13411TIP3   OH240109   8.647   2.570   2.510
13411TIP3    H140110   8.588   2.586   2.584
13411TIP3    H240111   8.691   2.488   2.531
13412TIP3   OH240112   6.307   4.126   4.749
13412TIP3    H140113   6.225   4.105   4.705
13412TIP3    H240114   6.289   4.110   4.842
13413TIP3   OH240115   4.732   8.680   7.084
13413TIP3    H140116   4.721   8.585   7.076
13413TIP3    H240117   4.667   8.706   7.150
13414TIP3   OH240118   1.911   1.424   2.246
13414TIP3    H140119   1.829   1.391   2.209
13414TIP3    H240120   1.958   1.346   2.276
13415TIP3   OH240121   6.794   3.043   2.546
13415TIP3    H140122   6.840   3.012   2.468
13415TIP3    H240123   6.733   2.972   2.568
13416TIP3   OH240124   0.162   3.425   7.488
13416TIP3    H140125   0.167   3.515   7.519
13416TIP3    H240126   0.249   3.405   7.454
13417TIP3   OH240127   6.106   7.143   2.545
13417TIP3    H140128   6.025   7.095   2.560
13417TIP3    H240129   6.092   7.228   2.586
13418TIP3   OH240130   4.985   1.323   2.294
13418TIP3    H140131   5.045   1.397   2.304
13418TIP3    H240132   4.960   1.299   2.383
13419TIP3   OH240133   2.943   8.289   7.767
13419TIP3    H140134   2.977   8.205   7.797
13419TIP3    H240135   3.011   8.322   7.708
13420TIP3   OH240136   1.075   5.472   5.382
13420TIP3    H140137   0.981   5.453   5.380
13420TIP3    H240138   1.098   5.466   5.475
13421TIP3   OH240139   4.358   0.755   0.104
13421TIP3    H140140   4.308   0.834   0.085
13421TIP3    H240141   4.422   0.749   0.033
13422TIP3   OH240142   5.571   4.442   1.269
13422TIP3    H140143   5.503   4.381   1.239
13422TIP3    H240144   5.610   4.398   1.345
13423TIP3   OH240145   5.506   0.223   4.539
13423TIP3    H140146   5.547   0.178   4.613
13423TIP3    H240147   5.492   0.312   4.570
13424TIP3   OH240148   5.775   7.419   0.275
13424TIP3    H140149   5.843   7.444   0.338
13424TIP3    H240150   5.804   7.335   0.240
13425TIP3   OH240151   3.583   3.344   1.571
13425TIP3    H140152   3.493   3.336   1.603
13425TIP3    H240153   3.613   3.254   1.561
13426TIP3   OH240154   3.433   3.039   7.340
13426TIP3    H140155   3.464   2.982   7.269
13426TIP3    H240156   3.350   3.074   7.307
13427TIP3   OH240157   5.117   3.236   5.862
13427TIP3    H140158   5.115   3.141   5.877
13427TIP3    H240159   5.033   3.267   5.895
13428TIP3   OH240160   5.735   7.999   5.505
13428TIP3    H140161   5.756   7.971   5.416
13428TIP3    H240162   5.781   8.083   5.515
13429TIP3   OH240163   7.000   0.316   3.690
13429TIP3    H140164   6.979   0.224   3.702
13429TIP3    H240165   7.073   0.317   3.627
13430TIP3   OH240166   0.644   1.741   1.336
13430TIP3    H140167   0.641   1.833   1.361
13430TIP3    H240168   0.687   1.697   1.409
13431TIP3   OH240169   5.918   1.533   6.382
13431TIP3    H140170   6.005   1.501   6.356
13431TIP3    H240171   5.859   1.462   6.359
13432TIP3   OH240172   8.727   0.728   2.726
13432TIP3    H140173   8.794   0.722   2.658
13432TIP3    H240174   8.651   0.684   2.688
13433TIP3   OH240175   1.142   8.858   4.140
13433TIP3    H140176   1.123   8.765   4.129
13433TIP3    H240177   1.172   8.886   4.054
13434TIP3   OH240178   9.381   7.202   0.021
13434TIP3    H140179   9.295   7.169  -0.007
13434TIP3    H240180   9.362   7.253   0.100
13435TIP3   OH240181   9.242   4.056   1.417
13435TIP3    H140182   9.191   4.067   1.497
13435TIP3    H240183   9.315   3.999   1.442
13436TIP3   OH240184   2.850   7.858   3.550
13436TIP3    H140185   2.898   7.820   3.477
13436TIP3    H240186   2.821   7.943   3.518
13437TIP3   OH240187   8.522   5.548   0.813
13437TIP3    H140188   8.472   5.473   0.782
13437TIP3    H240189   8.595   5.556   0.752
13438TIP3   OH240190   3.499   2.800   3.833
13438TIP3    H140191   3.551   2.768   3.759
13438TIP3    H240192   3.507   2.731   3.900
13439TIP3   OH240193   4.200   1.359   3.205
13439TIP3    H140194   4.117   1.394   3.236
13439TIP3    H240195   4.266   1.393   3.265
13440TIP3   OH240196   7.034   1.223   2.214
13440TIP3    H140197   7.102   1.290   2.200
13440TIP3    H240198   7.074   1.161   2.274
13441TIP3   OH240199   4.926   8.318   1.171
13441TIP3    H140200   4.990   8.351   1.234
13441TIP3    H240201   4.850   8.295   1.225
13442TIP3   OH240202   7.957   1.285   3.084
13442TIP3    H140203   7.925   1.277   2.994
13442TIP3    H240204   8.050   1.304   3.074
13443TIP3   OH240205   7.389   0.231   4.551
13443TIP3    H140206   7.484   0.241   4.555
13443TIP3    H240207   7.365   0.198   4.638
13444TIP3   OH240208   6.256   2.665   6.159
13444TIP3    H140209   6.186   2.600   6.149
13444TIP3    H240210   6.315   2.647   6.085
13445TIP3   OH240211   7.239   2.492   5.177
13445TIP3    H140212   7.145   2.483   5.166
13445TIP3    H240213   7.250   2.531   5.263
13446TIP3   OH240214   6.016   2.183   4.075
13446TIP3    H140215   5.965   2.190   4.156
13446TIP3    H240216   5.951   2.189   4.005
13447TIP3   OH240217   0.491   6.394   4.963
13447TIP3    H140218   0.455   6.451   5.031
13447TIP3    H240219   0.539   6.453   4.905
13448TIP3   OH240220   2.929   1.951   3.001
13448TIP3    H140221   3.023   1.936   3.013
13448TIP3    H240222   2.910   2.029   3.052
13449TIP3   OH240223   3.823   4.545   0.460
13449TIP3    H140224   3.908   4.515   0.492
13449TIP3    H240225   3.813   4.504   0.374
13450TIP3   OH240226   7.396   8.109   4.422
13450TIP3    H140227   7.410   8.019   4.392
13450TIP3    H240228   7.464   8.122   4.488
13451TIP3   OH240229   7.706   0.324   3.043
13451TIP3    H140230   7.785   0.368   3.074
13451TIP3    H240231   7.706   0.338   2.948
13452TIP3   OH240232   6.321   2.998   3.648
13452TIP3    H140233   6.353   3.088   3.640
13452TIP3    H240234   6.254   2.990   3.581
13453TIP3   OH240235   3.463   1.549   0.007
13453TIP3    H140236   3.429   1.511   0.087
13453TIP3    H240237   3.388   1.552  -0.053
13454TIP3   OH240238   8.404   7.017   2.166
13454TIP3    H140239   8.498   7.031   2.156
13454TIP3    H240240   8.386   7.048   2.255
13455TIP3   OH240241   7.004   5.534   3.860
13455TIP3    H140242   7.009   5.438   3.857
13455TIP3    H240243   7.093   5.563   3.837
13456TIP3   OH240244   5.769   6.494   2.290
13456TIP3    H140245   5.682   6.508   2.327
13456TIP3    H240246   5.828   6.544   2.346
13457TIP3   OH240247   8.212   8.662   1.690
13457TIP3    H140248   8.294   8.625   1.658
13457TIP3    H240249   8.154   8.587   1.703
13458TIP3   OH240250   4.900   0.180   0.846
13458TIP3    H140251   4.871   0.088   0.846
13458TIP3    H240252   4.874   0.214   0.761
13459TIP3   OH240253   3.920   0.134   5.944
13459TIP3    H140254   3.856   0.205   5.944
13459TIP3    H240255   3.944   0.125   5.851
13460TIP3   OH240256   8.106   0.890   0.434
13460TIP3    H140257   8.132   0.962   0.377
13460TIP3    H240258   8.168   0.895   0.508
13461TIP3   OH240259   0.789   4.021   6.465
13461TIP3    H140260   0.825   4.087   6.525
13461TIP3    H240261   0.756   3.952   6.522
13462TIP3   OH240262   8.039   7.256   6.934
13462TIP3    H140263   7.964   7.284   6.986
13462TIP3    H240264   8.011   7.173   6.895
13463TIP3   OH240265   8.097   4.286   5.849
13463TIP3    H140266   8.045   4.300   5.928
13463TIP3    H240267   8.139   4.370   5.832
13464TIP3   OH240268   4.866   5.440   0.282
13464TIP3    H140269   4.779   5.433   0.321
13464TIP3    H240270   4.909   5.510   0.331
13465TIP3   OH240271   7.741   6.334   5.281
13465TIP3    H140272   7.654   6.297   5.261
13465TIP3    H240273   7.724   6.400   5.348
13466TIP3   OH240274   5.101   6.323   6.282
13466TIP3    H140275   5.156   6.390   6.323
13466TIP3    H240276   5.052   6.371   6.215
13467TIP3   OH240277   4.543   7.283   5.479
13467TIP3    H140278   4.537   7.220   5.552
13467TIP3    H240279   4.624   7.331   5.497
13468TIP3   OH240280   0.613   2.564   4.030
13468TIP3    H140281   0.630   2.588   3.939
13468TIP3    H240282   0.527   2.601   4.049
13469TIP3   OH240283   7.767   1.093   2.339
13469TIP3    H140284   7.846   1.105   2.287
13469TIP3    H240285   7.715   1.171   2.321
13470TIP3   OH240286   0.782   0.424   2.791
13470TIP3    H140287   0.821   0.486   2.852
13470TIP3    H240288   0.851   0.359   2.774
13471TIP3   OH240289   8.566   7.504   6.628
13471TIP3    H140290   8.563   7.430   6.567
13471TIP3    H240291   8.659   7.524   6.638
13472TIP3   OH240292   4.943   3.421   2.262
13472TIP3    H140293   4.946   3.335   2.220
13472TIP3    H240294   4.995   3.411   2.341
13473TIP3   OH240295   0.843   2.994   6.945
13473TIP3    H140296   0.826   3.054   7.018
13473TIP3    H240297   0.770   2.932   6.947
13474TIP3   OH240298   1.848   8.794   2.920
13474TIP3    H140299   1.907   8.720   2.937
13474TIP3    H240300   1.830   8.789   2.826
13475TIP3   OH240301   2.988   0.564   6.574
13475TIP3    H140302   3.075   0.595   6.601
13475TIP3    H240303   2.944   0.642   6.541
13476TIP3   OH240304   5.954   4.804   3.283
13476TIP3    H140305   5.991   4.876   3.232
13476TIP3    H240306   5.995   4.811   3.368
13477TIP3   OH240307   8.814   2.434   4.402
13477TIP3    H140308   8.904   2.405   4.384
13477TIP3    H240309   8.760   2.357   4.383
13478TIP3   OH240310   0.979   3.390   2.840
13478TIP3    H140311   0.948   3.337   2.766
13478TIP3    H240312   1.063   3.424   2.811
13479TIP3   OH240313   6.078   3.957   7.354
13479TIP3    H140314   6.009   3.895   7.377
13479TIP3    H240315   6.075   3.961   7.258
13480TIP3   OH240316   2.213   3.708   0.962
13480TIP3    H140317   2.208   3.793   0.918
13480TIP3    H240318   2.300   3.674   0.938
13481TIP3   OH240319   2.035   6.164   0.221
13481TIP3    H140320   2.003   6.221   0.151
13481TIP3    H240321   2.092   6.220   0.274
13482TIP3   OH240322   0.260   5.921   5.598
13482TIP3    H140323   0.197   5.967   5.655
13482TIP3    H240324   0.318   5.875   5.659
13483TIP3   OH240325   9.353   0.755   5.053
13483TIP3    H140326   9.266   0.715   5.040
13483TIP3    H240327   9.337   0.849   5.047
13484TIP3   OH240328   5.434   4.868   4.124
13484TIP3    H140329   5.429   4.880   4.030
13484TIP3    H240330   5.343   4.865   4.153
13485TIP3   OH240331   2.668   0.380   2.371
13485TIP3    H140332   2.620   0.458   2.400
13485TIP3    H240333   2.707   0.345   2.451
13486TIP3   OH240334   1.085   6.431   1.420
13486TIP3    H140335   1.163   6.396   1.463
13486TIP3    H240336   1.112   6.516   1.386
13487TIP3   OH240337   4.196   3.126   2.226
13487TIP3    H140338   4.227   3.154   2.312
13487TIP3    H240339   4.196   3.207   2.174
13488TIP3   OH240340   3.942   5.908   2.959
13488TIP3    H140341   3.975   5.893   2.870
13488TIP3    H240342   3.850   5.933   2.947
13489TIP3   OH240343   3.044   3.457   3.327
13489TIP3    H140344   3.101   3.521   3.370
13489TIP3    H240345   3.003   3.506   3.255
13490TIP3   OH240346   8.551   0.485   6.386
13490TIP3    H140347   8.553   0.491   6.482
13490TIP3    H240348   8.482   0.421   6.368
13491TIP3   OH240349   2.847   3.321   3.068
13491TIP3    H140350   2.801   3.378   3.006
13491TIP3    H240351   2.925   3.371   3.093
13492TIP3   OH240352   5.148   8.750   6.259
13492TIP3    H140353   5.194   8.686   6.204
13492TIP3    H240354   5.081   8.787   6.202
13493TIP3   OH240355   6.972   2.591   5.161
13493TIP3    H140356   6.938   2.675   5.193
13493TIP3    H240357   7.020   2.614   5.082
13494TIP3   OH240358   6.312   8.985   0.864
13494TIP3    H140359   6.293   8.894   0.889
13494TIP3    H240360   6.402   8.982   0.830
13495TIP3   OH240361   7.120   7.092   6.399
13495TIP3    H140362   7.032   7.130   6.401
13495TIP3    H240363   7.172   7.154   6.347
13496TIP3   OH240364   4.170   6.857   7.259
13496TIP3    H140365   4.122   6.817   7.332
13496TIP3    H240366   4.243   6.797   7.243
13497TIP3   OH240367   4.967   6.010   0.482
13497TIP3    H140368   4.933   6.094   0.450
13497TIP3    H240369   4.975   5.956   0.403
13498TIP3   OH240370   3.394   5.839   5.438
13498TIP3    H140371   3.323   5.901   5.452
13498TIP3    H240372   3.452   5.851   5.513
13499TIP3   OH240373   3.132   1.832   6.008
13499TIP3    H140374   3.174   1.788   6.083
13499TIP3    H240375   3.039   1.820   6.024
13500TIP3   OH240376   4.353   5.736   2.091
13500TIP3    H140377   4.263   5.767   2.080
13500TIP3    H240378   4.388   5.734   2.002
13501TIP3   OH240379   5.417   3.818   7.077
13501TIP3    H140380   5.488   3.883   7.073
13501TIP3    H240381   5.364   3.835   7.000
13502TIP3   OH240382   5.586   8.391   1.580
13502TIP3    H140383   5.623   8.312   1.621
13502TIP3    H240384   5.606   8.461   1.641
13503TIP3   OH240385   4.219   5.256   7.156
13503TIP3    H140386   4.179   5.235   7.072
13503TIP3    H240387   4.224   5.172   7.202
13504TIP3   OH240388   7.402   2.191   5.871
13504TIP3    H140389   7.495   2.214   5.868
13504TIP3    H240390   7.399   2.100   5.841
13505TIP3   OH240391   6.293   5.466   3.362
13505TIP3    H140392   6.385   5.473   3.387
13505TIP3    H240393   6.247   5.447   3.443
13506TIP3   OH240394   4.619   1.341   3.373
13506TIP3    H140395   4.562   1.265   3.385
13506TIP3    H240396   4.651   1.333   3.283
13507TIP3   OH240397   7.264   5.393   6.629
13507TIP3    H140398   7.213   5.466   6.593
13507TIP3    H240399   7.342   5.434   6.666
13508TIP3   OH240400   6.978   6.094   1.954
13508TIP3    H140401   7.067   6.122   1.933
13508TIP3    H240402   6.985   6.000   1.968
13509TIP3   OH240403   3.128   4.310   3.861
13509TIP3    H140404   3.154   4.387   3.812
13509TIP3    H240405   3.201   4.293   3.920
13510TIP3   OH240406   4.674   1.841   6.897
13510TIP3    H140407   4.610   1.912   6.892
13510TIP3    H240408   4.672   1.814   6.989
13511TIP3   OH240409   1.660   2.747   5.676
13511TIP3    H140410   1.708   2.722   5.754
13511TIP3    H240411   1.702   2.697   5.605
13512TIP3   OH240412   2.378   3.569   0.192
13512TIP3    H140413   2.442   3.525   0.248
13512TIP3    H240414   2.373   3.515   0.114
13513TIP3   OH240415   1.280   7.140   3.735
13513TIP3    H140416   1.259   7.203   3.804
13513TIP3    H240417   1.229   7.171   3.659
13514TIP3   OH240418   8.411   5.157   4.663
13514TIP3    H140419   8.474   5.104   4.711
13514TIP3    H240420   8.373   5.097   4.599
13515TIP3   OH240421   2.726   1.807   7.120
13515TIP3    H140422   2.809   1.837   7.158
13515TIP3    H240423   2.699   1.880   7.063
13516TIP3   OH240424   8.376   2.136   3.620
13516TIP3    H140425   8.454   2.122   3.675
13516TIP3    H240426   8.315   2.068   3.648
13517TIP3   OH240427   8.503   0.961   2.246
13517TIP3    H140428   8.584   0.922   2.214
13517TIP3    H240429   8.436   0.896   2.228
13518TIP3   OH240430   3.746   1.508   3.955
13518TIP3    H140431   3.822   1.459   3.985
13518TIP3    H240432   3.735   1.481   3.864
13519TIP3   OH240433   9.291   7.693   3.202
13519TIP3    H140434   9.198   7.682   3.182
13519TIP3    H240435   9.335   7.631   3.144
13520TIP3   OH240436   5.054   6.442   6.026
13520TIP3    H140437   5.102   6.435   5.944
13520TIP3    H240438   4.970   6.399   6.008
13521TIP3   OH240439   0.300   8.774   6.344
13521TIP3    H140440   0.228   8.753   6.404
13521TIP3    H240441   0.299   8.869   6.336
13522TIP3   OH240442   6.366   6.237   6.305
13522TIP3    H140443   6.454   6.273   6.316
13522TIP3    H240444   6.378   6.142   6.306
13523TIP3   OH240445   8.694   1.068   7.606
13523TIP3    H140446   8.665   1.018   7.530
13523TIP3    H240447   8.613   1.104   7.643
13524TIP3   OH240448   1.753   7.352   4.250
13524TIP3    H140449   1.707   7.282   4.297
13524TIP3    H240450   1.739   7.332   4.158
13525TIP3   OH240451   8.891   6.359   7.064
13525TIP3    H140452   8.938   6.396   6.989
13525TIP3    H240453   8.802   6.342   7.031
13526TIP3   OH240454   7.704   0.640   1.546
13526TIP3    H140455   7.746   0.594   1.618
13526TIP3    H240456   7.666   0.570   1.492
13527TIP3   OH240457   4.636   4.417   3.684
13527TIP3    H140458   4.555   4.393   3.640
13527TIP3    H240459   4.666   4.496   3.639
13528TIP3   OH240460   8.206   7.479   5.993
13528TIP3    H140461   8.259   7.401   6.009
13528TIP3    H240462   8.268   7.544   5.960
13529TIP3   OH240463   5.525   6.175   1.171
13529TIP3    H140464   5.468   6.125   1.230
13529TIP3    H240465   5.470   6.192   1.094
13530TIP3   OH240466   1.761   4.228   7.556
13530TIP3    H140467   1.697   4.157   7.566
13530TIP3    H240468   1.721   4.286   7.491
13531TIP3   OH240469   0.051   1.613   6.128
13531TIP3    H140470  -0.014   1.550   6.099
13531TIP3    H240471   0.082   1.580   6.212
13532TIP3   OH240472   9.263   3.810   0.738
13532TIP3    H140473   9.192   3.850   0.689
13532TIP3    H240474   9.263   3.718   0.710
13533TIP3   OH240475   3.049   0.072   0.032
13533TIP3    H140476   3.142   0.062   0.009
13533TIP3    H240477   3.050   0.101   0.123
13534TIP3   OH240478   0.587   8.588   5.999
13534TIP3    H140479   0.537   8.560   6.076
13534TIP3    H240480   0.606   8.680   6.016
13535TIP3   OH240481   0.447   7.264   0.982
13535TIP3    H140482   0.447   7.295   1.072
13535TIP3    H240483   0.356   7.275   0.953
13536TIP3   OH240484   6.923   8.900   0.849
13536TIP3    H140485   6.876   8.979   0.820
13536TIP3    H240486   7.008   8.933   0.878
13537TIP3   OH240487   6.505   2.523   2.852
13537TIP3    H140488   6.476   2.452   2.794
13537TIP3    H240489   6.505   2.601   2.796
13538TIP3   OH240490   3.832   8.930   0.168
13538TIP3    H140491   3.866   8.906   0.082
13538TIP3    H240492   3.744   8.962   0.151
13539TIP3   OH240493   7.589   7.611   2.844
13539TIP3    H140494   7.553   7.553   2.911
13539TIP3    H240495   7.583   7.560   2.763
13540TIP3   OH240496   3.688   3.519   3.365
13540TIP3    H140497   3.729   3.538   3.280
13540TIP3    H240498   3.701   3.425   3.378
13541TIP3   OH240499   2.289   4.455   5.591
13541TIP3    H140500   2.242   4.381   5.554
13541TIP3    H240501   2.347   4.416   5.657
13542TIP3   OH240502   4.014   2.074   1.464
13542TIP3    H140503   3.964   2.119   1.396
13542TIP3    H240504   3.960   2.082   1.543
13543TIP3   OH240505   7.451   8.777   1.260
13543TIP3    H140506   7.403   8.859   1.272
13543TIP3    H240507   7.521   8.780   1.325
13544TIP3   OH240508   6.892   8.770   2.592
13544TIP3    H140509   6.869   8.816   2.511
13544TIP3    H240510   6.809   8.737   2.626
13545TIP3   OH240511   8.850   5.217   6.930
13545TIP3    H140512   8.854   5.252   7.019
13545TIP3    H240513   8.795   5.138   6.938
13546TIP3   OH240514   5.687   1.819   6.170
13546TIP3    H140515   5.776   1.821   6.134
13546TIP3    H240516   5.698   1.798   6.262
13547TIP3   OH240517   0.681   6.664   7.034
13547TIP3    H140518   0.638   6.683   7.117
13547TIP3    H240519   0.731   6.744   7.013
13548TIP3   OH240520   0.515   3.323   1.914
13548TIP3    H140521   0.514   3.380   1.837
13548TIP3    H240522   0.598   3.275   1.907
13549TIP3   OH240523   4.572   6.232   1.189
13549TIP3    H140524   4.628   6.243   1.266
13549TIP3    H240525   4.623   6.269   1.117
13550TIP3   OH240526   1.441   5.717   0.237
13550TIP3    H140527   1.517   5.774   0.222
13550TIP3    H240528   1.418   5.683   0.151
13551TIP3   OH240529   1.701   3.667   5.108
13551TIP3    H140530   1.767   3.687   5.042
13551TIP3    H240531   1.637   3.612   5.064
13552TIP3   OH240532   7.297   1.704   4.571
13552TIP3    H140533   7.232   1.644   4.536
13552TIP3    H240534   7.246   1.769   4.620
13553TIP3   OH240535   1.919   3.760  -0.000
13553TIP3    H140536   1.908   3.706   0.078
13553TIP3    H240537   1.838   3.747  -0.049
13554TIP3   OH240538   4.035   6.431   5.946
13554TIP3    H140539   3.979   6.418   5.870
13554TIP3    H240540   4.100   6.360   5.941
13555TIP3   OH240541   1.193   4.359   3.568
13555TIP3    H140542   1.182   4.297   3.641
13555TIP3    H240543   1.283   4.347   3.539
13556TIP3   OH240544   1.616   4.163   1.516
13556TIP3    H140545   1.633   4.070   1.503
13556TIP3    H240546   1.549   4.165   1.585
13557TIP3   OH240547   5.494   3.774   4.599
13557TIP3    H140548   5.415   3.722   4.614
13557TIP3    H240549   5.552   3.717   4.549
13558TIP3   OH240550   2.043   1.068   1.286
13558TIP3    H140551   2.084   1.154   1.297
13558TIP3    H240552   1.952   1.087   1.263
13559TIP3   OH240553   9.157   7.439   0.810
13559TIP3    H140554   9.123   7.351   0.828
13559TIP3    H240555   9.140   7.453   0.717
13560TIP3   OH240556   4.851   6.822   6.576
13560TIP3    H140557   4.821   6.743   6.620
13560TIP3    H240558   4.849   6.801   6.483
13561TIP3   OH240559   7.263   6.224   3.572
13561TIP3    H140560   7.321   6.194   3.501
13561TIP3    H240561   7.195   6.157   3.576
13562TIP3   OH240562   6.792   5.791   5.652
13562TIP3    H140563   6.815   5.824   5.739
13562TIP3    H240564   6.862   5.822   5.595
13563TIP3   OH240565   6.538   0.176   1.799
13563TIP3    H140566   6.583   0.202   1.719
13563TIP3    H240567   6.597   0.113   1.841
13564TIP3   OH240568   3.410   3.730   1.485
13564TIP3    H140569   3.463   3.779   1.422
13564TIP3    H240570   3.409   3.785   1.563
13565TIP3   OH240571   6.466   6.660   7.263
13565TIP3    H140572   6.457   6.657   7.359
13565TIP3    H240573   6.525   6.734   7.248
13566TIP3   OH240574   2.382   7.883   7.504
13566TIP3    H140575   2.425   7.818   7.560
13566TIP3    H240576   2.342   7.945   7.566
13567TIP3   OH240577   3.874   3.071   5.945
13567TIP3    H140578   3.917   3.037   6.024
13567TIP3    H240579   3.908   3.160   5.935
13568TIP3   OH240580   2.557   4.211   5.265
13568TIP3    H140581   2.483   4.187   5.209
13568TIP3    H240582   2.633   4.170   5.224
13569TIP3   OH240583   2.254   0.567   3.100
13569TIP3    H140584   2.250   0.639   3.037
13569TIP3    H240585   2.177   0.580   3.155
13570TIP3   OH240586   1.996   0.012   3.901
13570TIP3    H140587   2.014   0.101   3.870
13570TIP3    H240588   2.041   0.006   3.986
13571TIP3   OH240589   1.919   4.425   5.424
13571TIP3    H140590   1.863   4.467   5.488
13571TIP3    H240591   1.951   4.497   5.369
13572TIP3   OH240592   8.222   6.391   2.943
13572TIP3    H140593   8.187   6.420   2.859
13572TIP3    H240594   8.257   6.470   2.983
13573TIP3   OH240595   3.733   6.583   6.584
13573TIP3    H140596   3.792   6.654   6.557
13573TIP3    H240597   3.788   6.505   6.585
13574TIP3   OH240598   5.742   5.742   6.751
13574TIP3    H140599   5.777   5.700   6.830
13574TIP3    H240600   5.752   5.677   6.682
13575TIP3   OH240601   7.369   4.113   0.240
13575TIP3    H140602   7.394   4.147   0.326
13575TIP3    H240603   7.390   4.019   0.244
13576TIP3   OH240604   4.825   3.705   7.792
13576TIP3    H140605   4.887   3.633   7.805
13576TIP3    H240606   4.800   3.732   7.880
13577TIP3   OH240607   9.355   5.294   2.767
13577TIP3    H140608   9.284   5.303   2.831
13577TIP3    H240609   9.396   5.380   2.764
13578TIP3   OH240610   7.265   2.340   7.102
13578TIP3    H140611   7.188   2.393   7.122
13578TIP3    H240612   7.234   2.250   7.105
13579TIP3   OH240613   1.172   2.452   4.983
13579TIP3    H140614   1.120   2.502   5.046
13579TIP3    H240615   1.107   2.409   4.927
13580TIP3   OH240616   0.965   8.381   5.394
13580TIP3    H140617   1.029   8.402   5.326
13580TIP3    H240618   0.918   8.463   5.409
13581TIP3   OH240619   3.368   6.987   5.378
13581TIP3    H140620   3.403   7.060   5.429
13581TIP3    H240621   3.406   6.998   5.291
13582TIP3   OH240622   5.250   8.223   0.776
13582TIP3    H140623   5.310   8.159   0.816
13582TIP3    H240624   5.228   8.283   0.847
13583TIP3   OH240625   6.321   5.533   6.807
13583TIP3    H140626   6.235   5.561   6.774
13583TIP3    H240627   6.339   5.592   6.880
13584TIP3   OH240628   3.577   9.024   5.058
13584TIP3    H140629   3.494   8.984   5.082
13584TIP3    H240630   3.558   9.072   4.977
13585TIP3   OH240631   0.283   3.298   5.423
13585TIP3    H140632   0.291   3.375   5.368
13585TIP3    H240633   0.215   3.320   5.486
13586TIP3   OH240634   1.822   1.209   7.599
13586TIP3    H140635   1.881   1.196   7.525
13586TIP3    H240636   1.747   1.256   7.561
13587TIP3   OH240637   8.198   1.242   4.627
13587TIP3    H140638   8.130   1.183   4.661
13587TIP3    H240639   8.267   1.241   4.693
13588TIP3   OH240640   5.005   4.537   2.936
13588TIP3    H140641   4.946   4.490   2.877
13588TIP3    H240642   4.954   4.549   3.016
13589TIP3   OH240643   4.311   6.560   6.771
13589TIP3    H140644   4.346   6.647   6.752
13589TIP3    H240645   4.295   6.521   6.685
13590TIP3   OH240646   0.314   0.702   4.133
13590TIP3    H140647   0.230   0.744   4.117
13590TIP3    H240648   0.296   0.635   4.199
13591TIP3   OH240649   7.859   2.171   5.079
13591TIP3    H140650   7.772   2.147   5.110
13591TIP3    H240651   7.855   2.161   4.984
13592TIP3   OH240652   0.073   4.886   1.248
13592TIP3    H140653   0.081   4.791   1.255
13592TIP3    H240654   0.164   4.917   1.240
13593TIP3   OH240655   6.318   5.929   6.249
13593TIP3    H140656   6.296   5.838   6.270
13593TIP3    H240657   6.238   5.965   6.211
13594TIP3   OH240658   2.968   7.001   2.190
13594TIP3    H140659   2.886   7.036   2.153
13594TIP3    H240660   2.953   6.907   2.197
13595TIP3   OH240661   5.174   6.713   5.822
13595TIP3    H140662   5.163   6.798   5.781
13595TIP3    H240663   5.087   6.689   5.853
13596TIP3   OH240664   5.470   4.185   6.813
13596TIP3    H140665   5.563   4.192   6.835
13596TIP3    H240666   5.424   4.224   6.888
13597TIP3   OH240667   2.224   5.661   1.793
13597TIP3    H140668   2.304   5.624   1.831
13597TIP3    H240669   2.192   5.594   1.733
13598TIP3   OH240670   1.853   6.420   7.801
13598TIP3    H140671   1.790   6.491   7.811
13598TIP3    H240672   1.841   6.365   7.879
13599TIP3   OH240673   5.288   1.645   0.187
13599TIP3    H140674   5.270   1.564   0.235
13599TIP3    H240675   5.231   1.710   0.228
13600TIP3   OH240676   3.289   3.520   7.309
13600TIP3    H140677   3.332   3.594   7.264
13600TIP3    H240678   3.339   3.508   7.389
13601TIP3   OH240679   7.386   5.670   2.366
13601TIP3    H140680   7.436   5.589   2.374
13601TIP3    H240681   7.302   5.651   2.409
13602TIP3   OH240682   5.783   3.953   7.522
13602TIP3    H140683   5.722   3.882   7.503
13602TIP3    H240684   5.861   3.909   7.557
13603TIP3   OH240685   8.549   6.216   3.195
13603TIP3    H140686   8.541   6.302   3.237
13603TIP3    H240687   8.628   6.222   3.142
13604TIP3   OH240688   7.736   7.296   6.666
13604TIP3    H140689   7.796   7.318   6.595
13604TIP3    H240690   7.783   7.231   6.718
13605TIP3   OH240691   1.417   4.670   4.808
13605TIP3    H140692   1.456   4.746   4.851
13605TIP3    H240693   1.468   4.658   4.728
13606TIP3   OH240694   4.085   1.366   6.617
13606TIP3    H140695   4.002   1.384   6.661
13606TIP3    H240696   4.060   1.310   6.543
13607TIP3   OH240697   1.570   3.427   5.372
13607TIP3    H140698   1.620   3.350   5.398
13607TIP3    H240699   1.609   3.455   5.289
13608TIP3   OH240700   0.471   0.580   7.243
13608TIP3    H140701   0.437   0.606   7.329
13608TIP3    H240702   0.532   0.650   7.220
13609TIP3   OH240703   2.975   2.504   4.516
13609TIP3    H140704   2.911   2.443   4.479
13609TIP3    H240705   2.972   2.488   4.610
13610TIP3   OH240706   4.581   5.452   2.281
13610TIP3    H140707   4.530   5.530   2.260
13610TIP3    H240708   4.547   5.384   2.223
13611TIP3   OH240709   5.852   6.468   6.020
13611TIP3    H140710   5.930   6.431   5.980
13611TIP3    H240711   5.803   6.393   6.053
13612TIP3   OH240712   8.011   2.312   3.811
13612TIP3    H140713   7.974   2.400   3.813
13612TIP3    H240714   8.069   2.312   3.734
13613TIP3   OH240715   1.552   7.355   2.237
13613TIP3    H140716   1.590   7.290   2.177
13613TIP3    H240717   1.532   7.306   2.316
13614TIP3   OH240718   6.937   1.306   2.609
13614TIP3    H140719   6.919   1.263   2.692
13614TIP3    H240720   6.898   1.393   2.618
13615TIP3   OH240721   0.525   8.082   2.042
13615TIP3    H140722   0.511   8.127   1.958
13615TIP3    H240723   0.447   8.101   2.093
13616TIP3   OH240724   2.440   3.545   4.500
13616TIP3    H140725   2.519   3.509   4.460
13616TIP3    H240726   2.445   3.515   4.591
13617TIP3   OH240727   9.445   3.266   0.512
13617TIP3    H140728   9.540   3.258   0.507
13617TIP3    H240729   9.412   3.190   0.465
13618TIP3   OH240730   2.954   4.897   7.774
13618TIP3    H140731   2.993   4.901   7.861
13618TIP3    H240732   2.932   4.988   7.753
13619TIP3   OH240733   4.520   8.243   6.960
13619TIP3    H140734   4.573   8.318   6.985
13619TIP3    H240735   4.574   8.167   6.984
13620TIP3   OH240736   8.191   3.664   6.858
13620TIP3    H140737   8.205   3.635   6.768
13620TIP3    H240738   8.183   3.759   6.851
13621TIP3   OH240739   5.230   2.189   7.772
13621TIP3    H140740   5.140   2.218   7.787
13621TIP3    H240741   5.244   2.120   7.837
13622TIP3   OH240742   4.453   1.242   7.623
13622TIP3    H140743   4.368   1.251   7.665
13622TIP3    H240744   4.491   1.329   7.627
13623TIP3   OH240745   0.578   1.158   7.713
13623TIP3    H140746   0.646   1.181   7.650
13623TIP3    H240747   0.557   1.066   7.694
13624TIP3   OH240748   4.228   5.858   1.747
13624TIP3    H140749   4.253   5.836   1.658
13624TIP3    H240750   4.288   5.927   1.774
13625TIP3   OH240751   9.455   1.163   3.963
13625TIP3    H140752   9.444   1.202   4.049
13625TIP3    H240753   9.488   1.235   3.908
13626TIP3   OH240754   0.893   4.491   4.259
13626TIP3    H140755   0.844   4.524   4.184
13626TIP3    H240756   0.841   4.417   4.291
13627TIP3   OH240757   7.004   1.171   1.922
13627TIP3    H140758   7.026   1.197   2.012
13627TIP3    H240759   7.019   1.249   1.870
13628TIP3   OH240760   3.626   1.254   7.117
13628TIP3    H140761   3.647   1.188   7.052
13628TIP3    H240762   3.612   1.334   7.066
13629TIP3   OH240763   6.627   6.292   6.312
13629TIP3    H140764   6.648   6.208   6.270
13629TIP3    H240765   6.711   6.339   6.313
13630TIP3   OH240766   4.229   3.928   5.414
13630TIP3    H140767   4.285   3.885   5.349
13630TIP3    H240768   4.206   4.012   5.375
13631TIP3   OH240769   7.965   6.035   4.414
13631TIP3    H140770   7.942   6.021   4.322
13631TIP3    H240771   7.889   6.003   4.463
13632TIP3   OH240772   0.635   8.844   5.502
13632TIP3    H140773   0.632   8.756   5.539
13632TIP3    H240774   0.728   8.867   5.502
13633TIP3   OH240775   2.446   8.769   0.044
13633TIP3    H140776   2.477   8.842   0.099
13633TIP3    H240777   2.358   8.794   0.018
13634TIP3   OH240778   5.586   6.777   3.484
13634TIP3    H140779   5.548   6.701   3.529
13634TIP3    H240780   5.553   6.852   3.533
13635TIP3   OH240781   8.232   4.076   7.202
13635TIP3    H140782   8.302   4.012   7.191
13635TIP3    H240783   8.208   4.101   7.112
13636TIP3   OH240784   0.025   6.810   3.378
13636TIP3    H140785   0.064   6.845   3.458
13636TIP3    H240786  -0.022   6.731   3.406
13637TIP3   OH240787   6.010   2.089   1.756
13637TIP3    H140788   6.086   2.134   1.720
13637TIP3    H240789   6.024   2.090   1.851
13638TIP3   OH240790   5.631   7.221   5.309
13638TIP3    H140791   5.677   7.275   5.373
13638TIP3    H240792   5.590   7.283   5.250
13639TIP3   OH240793   8.165   3.952   2.417
13639TIP3    H140794   8.238   3.939   2.356
13639TIP3    H240795   8.136   3.863   2.439
13640TIP3   OH240796   9.294   6.325   1.716
13640TIP3    H140797   9.208   6.351   1.747
13640TIP3    H240798   9.310   6.241   1.759
13641TIP3   OH240799   7.479   2.380   3.303
13641TIP3    H140800   7.424   2.450   3.337
13641TIP3    H240801   7.567   2.418   3.299
13642TIP3   OH240802   3.560   3.056   1.568
13642TIP3    H140803   3.555   2.998   1.492
13642TIP3    H240804   3.520   3.005   1.639
13643TIP3   OH240805   7.728   5.136   4.842
13643TIP3    H140806   7.712   5.047   4.873
13643TIP3    H240807   7.823   5.141   4.830
13644TIP3   OH240808   6.833   6.624   0.297
13644TIP3    H140809   6.738   6.628   0.285
13644TIP3    H240810   6.866   6.706   0.262
13645TIP3   OH240811   3.441   4.332   3.207
13645TIP3    H140812   3.406   4.271   3.142
13645TIP3    H240813   3.534   4.311   3.212
13646TIP3   OH240814   8.927   8.614   2.080
13646TIP3    H140815   8.896   8.701   2.104
13646TIP3    H240816   8.850   8.558   2.092
13647TIP3   OH240817   4.392   7.344   4.470
13647TIP3    H140818   4.412   7.408   4.539
13647TIP3    H240819   4.310   7.303   4.499
13648TIP3   OH240820   8.990   1.674   0.474
13648TIP3    H140821   9.036   1.671   0.391
13648TIP3    H240822   8.975   1.767   0.490
13649TIP3   OH240823   8.910   3.959   1.678
13649TIP3    H140824   8.886   4.052   1.672
13649TIP3    H240825   8.941   3.937   1.590
13650TIP3   OH240826   2.430   8.156   3.278
13650TIP3    H140827   2.452   8.238   3.323
13650TIP3    H240828   2.398   8.183   3.192
13651TIP3   OH240829   5.634   0.829   2.386
13651TIP3    H140830   5.683   0.888   2.328
13651TIP3    H240831   5.549   0.873   2.397
13652TIP3   OH240832   6.114   1.058   1.450
13652TIP3    H140833   6.084   0.977   1.408
13652TIP3    H240834   6.193   1.081   1.402
13653TIP3   OH240835   3.449   8.237   1.801
13653TIP3    H140836   3.361   8.226   1.766
13653TIP3    H240837   3.486   8.310   1.751
13654TIP3   OH240838   1.850   2.105   4.760
13654TIP3    H140839   1.842   2.084   4.853
13654TIP3    H240840   1.921   2.049   4.728
13655TIP3   OH240841   2.554   0.923   6.164
13655TIP3    H140842   2.507   0.975   6.229
13655TIP3    H240843   2.485   0.885   6.109
13656TIP3   OH240844   8.122   0.129   6.919
13656TIP3    H140845   8.081   0.112   7.004
13656TIP3    H240846   8.209   0.163   6.941
13657TIP3   OH240847   0.820   8.323   0.539
13657TIP3    H140848   0.889   8.387   0.558
13657TIP3    H240849   0.854   8.240   0.572
13658TIP3   OH240850   3.709   6.242   4.463
13658TIP3    H140851   3.801   6.229   4.485
13658TIP3    H240852   3.693   6.183   4.390
13659TIP3   OH240853   9.353   6.985   1.194
13659TIP3    H140854   9.260   6.970   1.210
13659TIP3    H240855   9.355   7.029   1.108
13660TIP3   OH240856   2.867   0.618   1.790
13660TIP3    H140857   2.795   0.560   1.765
13660TIP3    H240858   2.840   0.656   1.873
13661TIP3   OH240859   4.694   7.256   2.002
13661TIP3    H140860   4.616   7.201   2.007
13661TIP3    H240861   4.711   7.266   1.909
13662TIP3   OH240862   8.715   6.085   5.378
13662TIP3    H140863   8.720   5.990   5.370
13662TIP3    H240864   8.725   6.102   5.472
13663TIP3   OH240865   6.448   2.242   0.544
13663TIP3    H140866   6.525   2.185   0.552
13663TIP3    H240867   6.374   2.186   0.566
13664TIP3   OH240868   1.064   0.877   5.805
13664TIP3    H140869   1.054   0.948   5.868
13664TIP3    H240870   1.102   0.918   5.728
13665TIP3   OH240871   7.368   2.959   3.210
13665TIP3    H140872   7.447   2.993   3.252
13665TIP3    H240873   7.297   2.980   3.270
13666TIP3   OH240874   6.494   7.461   7.022
13666TIP3    H140875   6.438   7.501   6.955
13666TIP3    H240876   6.434   7.408   7.075
13667TIP3   OH240877   1.969   7.918   6.095
13667TIP3    H140878   2.052   7.919   6.142
13667TIP3    H240879   1.904   7.901   6.162
13668TIP3   OH240880   7.995   1.970   6.120
13668TIP3    H140881   8.083   2.005   6.138
13668TIP3    H240882   7.987   1.973   6.025
13669TIP3   OH240883   5.866   2.715   0.790
13669TIP3    H140884   5.795   2.719   0.725
13669TIP3    H240885   5.835   2.653   0.856
13670TIP3   OH240886   6.006   4.433   2.568
13670TIP3    H140887   5.974   4.522   2.554
13670TIP3    H240888   5.960   4.403   2.646
13671TIP3   OH240889   8.338   6.417   5.520
13671TIP3    H140890   8.330   6.322   5.533
13671TIP3    H240891   8.249   6.450   5.533
13672TIP3   OH240892   0.641   7.438   7.808
13672TIP3    H140893   0.675   7.349   7.806
13672TIP3    H240894   0.547   7.429   7.823
13673TIP3   OH240895   4.221   7.740   1.508
13673TIP3    H140896   4.284   7.687   1.558
13673TIP3    H240897   4.154   7.677   1.480
13674TIP3   OH240898   2.772   3.713   3.444
13674TIP3    H140899   2.734   3.640   3.395
13674TIP3    H240900   2.847   3.741   3.391
13675TIP3   OH240901   5.607   6.149   4.198
13675TIP3    H140902   5.602   6.192   4.112
13675TIP3    H240903   5.700   6.124   4.206
13676TIP3   OH240904   3.457   6.099   5.220
13676TIP3    H140905   3.495   6.141   5.298
13676TIP3    H240906   3.524   6.108   5.153
13677TIP3   OH240907   1.473   3.713   3.187
13677TIP3    H140908   1.423   3.708   3.106
13677TIP3    H240909   1.437   3.789   3.233
13678TIP3   OH240910   5.774   6.840   2.312
13678TIP3    H140911   5.712   6.773   2.339
13678TIP3    H240912   5.848   6.829   2.372
13679TIP3   OH240913   0.256   4.647   5.119
13679TIP3    H140914   0.191   4.654   5.049
13679TIP3    H240915   0.204   4.634   5.198
13680TIP3   OH240916   7.907   1.410   0.853
13680TIP3    H140917   7.999   1.437   0.857
13680TIP3    H240918   7.893   1.384   0.762
13681TIP3   OH240919   1.869   3.342   0.147
13681TIP3    H140920   1.902   3.299   0.226
13681TIP3    H240921   1.906   3.430   0.150
13682TIP3   OH240922   6.687   4.052   2.397
13682TIP3    H140923   6.779   4.033   2.418
13682TIP3    H240924   6.684   4.147   2.389
13683TIP3   OH240925   2.373   4.674   3.967
13683TIP3    H140926   2.314   4.733   3.921
13683TIP3    H240927   2.334   4.588   3.957
13684TIP3   OH240928   3.880   7.628   3.278
13684TIP3    H140929   3.836   7.636   3.362
13684TIP3    H240930   3.964   7.585   3.298
13685TIP3   OH240931   5.498   6.982   0.051
13685TIP3    H140932   5.415   6.999   0.095
13685TIP3    H240933   5.475   6.924  -0.022
13686TIP3   OH240934   8.097   2.672   6.077
13686TIP3    H140935   8.060   2.607   6.137
13686TIP3    H240936   8.169   2.712   6.127
13687TIP3   OH240937   6.086   3.265   4.982
13687TIP3    H140938   6.037   3.183   4.994
13687TIP3    H240939   6.040   3.328   5.038
13688TIP3   OH240940   3.037   4.678   0.035
13688TIP3    H140941   3.074   4.591   0.024
13688TIP3    H240942   2.948   4.671   0.000
13689TIP3   OH240943   6.021   6.767   3.953
13689TIP3    H140944   5.935   6.749   3.914
13689TIP3    H240945   6.010   6.852   3.996
13690TIP3   OH240946   4.479   7.962   4.185
13690TIP3    H140947   4.436   7.927   4.263
13690TIP3    H240948   4.410   7.966   4.119
13691TIP3   OH240949   8.814   1.277   4.127
13691TIP3    H140950   8.747   1.317   4.183
13691TIP3    H240951   8.892   1.331   4.142
13692TIP3   OH240952   5.785   7.190   6.115
13692TIP3    H140953   5.849   7.258   6.094
13692TIP3    H240954   5.830   7.132   6.176
13693TIP3   OH240955   2.358   2.481   2.504
13693TIP3    H140956   2.367   2.443   2.416
13693TIP3    H240957   2.404   2.565   2.498
13694TIP3   OH240958   9.261   1.932   4.015
13694TIP3    H140959   9.271   1.970   3.927
13694TIP3    H240960   9.318   1.855   4.014
13695TIP3   OH240961   1.930   5.432   4.649
13695TIP3    H140962   1.935   5.525   4.630
13695TIP3    H240963   1.838   5.415   4.669
13696TIP3   OH240964   9.016   2.302   4.085
13696TIP3    H140965   8.980   2.388   4.107
13696TIP3    H240966   8.941   2.252   4.052
13697TIP3   OH240967   0.036   0.602   3.804
13697TIP3    H140968   0.111   0.545   3.786
13697TIP3    H240969  -0.040   0.551   3.776
13698TIP3   OH240970   6.328   0.738   6.360
13698TIP3    H140971   6.326   0.825   6.399
13698TIP3    H240972   6.412   0.702   6.386
13699TIP3   OH240973   2.362   7.891   2.693
13699TIP3    H140974   2.299   7.819   2.686
13699TIP3    H240975   2.385   7.893   2.786
13700TIP3   OH240976   7.114   4.352   1.553
13700TIP3    H140977   7.076   4.411   1.619
13700TIP3    H240978   7.155   4.411   1.489
13701TIP3   OH240979   6.930   8.042   3.159
13701TIP3    H140980   6.842   8.037   3.196
13701TIP3    H240981   6.925   7.990   3.079
13702TIP3   OH240982   5.469   4.996   4.796
13702TIP3    H140983   5.393   5.044   4.764
13702TIP3    H240984   5.437   4.951   4.875
13703TIP3   OH240985   8.685   4.699   1.101
13703TIP3    H140986   8.610   4.684   1.045
13703TIP3    H240987   8.761   4.691   1.043
13704TIP3   OH240988   5.097   0.329   3.466
13704TIP3    H140989   5.101   0.411   3.516
13704TIP3    H240990   5.003   0.315   3.452
13705TIP3   OH240991   0.685   7.457   0.485
13705TIP3    H140992   0.682   7.460   0.390
13705TIP3    H240993   0.610   7.510   0.513
13706TIP3   OH240994   7.950   6.553   3.400
13706TIP3    H140995   7.875   6.611   3.418
13706TIP3    H240996   7.910   6.467   3.384
13707TIP3   OH240997   0.082   6.385   5.754
13707TIP3    H140998   0.024   6.375   5.830
13707TIP3    H240999   0.045   6.458   5.704
13708TIP3   OH241000   4.493   3.965   4.821
13708TIP3    H141001   4.513   3.927   4.735
13708TIP3    H241002   4.488   4.059   4.805
13709TIP3   OH241003   4.303   8.214   4.448
13709TIP3    H141004   4.253   8.189   4.525
13709TIP3    H241005   4.267   8.161   4.377
13710TIP3   OH241006   5.035   4.425   7.363
13710TIP3    H141007   5.117   4.473   7.372
13710TIP3    H241008   4.967   4.490   7.375
13711TIP3   OH241009   2.606   4.037   0.847
13711TIP3    H141010   2.632   4.129   0.858
13711TIP3    H241011   2.567   4.013   0.931
13712TIP3   OH241012   2.450   2.908   4.434
13712TIP3    H141013   2.506   2.831   4.429
13712TIP3    H241014   2.505   2.979   4.401
13713TIP3   OH241015   7.458   7.423   0.731
13713TIP3    H141016   7.542   7.447   0.691
13713TIP3    H241017   7.402   7.499   0.717
13714TIP3   OH241018   3.122   7.822   7.353
13714TIP3    H141019   3.091   7.733   7.339
13714TIP3    H241020   3.182   7.838   7.280
13715TIP3   OH241021   2.813   6.363   6.016
13715TIP3    H141022   2.883   6.413   5.975
13715TIP3    H241023   2.736   6.380   5.961
13716TIP3   OH241024   6.411   7.995   4.070
13716TIP3    H141025   6.375   7.922   4.020
13716TIP3    H241026   6.335   8.037   4.109
13717TIP3   OH241027   8.078   0.331   3.258
13717TIP3    H141028   8.051   0.382   3.182
13717TIP3    H241029   8.142   0.386   3.303
13718TIP3   OH241030   3.507   1.147   3.065
13718TIP3    H141031   3.589   1.101   3.082
13718TIP3    H241032   3.466   1.154   3.151
13719TIP3   OH241033   9.152   6.027   7.600
13719TIP3    H141034   9.183   5.964   7.534
13719TIP3    H241035   9.065   6.052   7.570
13720TIP3   OH241036   5.471   8.173   3.060
13720TIP3    H141037   5.498   8.176   3.152
13720TIP3    H241038   5.463   8.265   3.035
13721TIP3   OH241039   5.353   8.454   4.153
13721TIP3    H141040   5.445   8.435   4.172
13721TIP3    H241041   5.340   8.544   4.182
13722TIP3   OH241042   5.346   0.752   3.802
13722TIP3    H141043   5.275   0.733   3.740
13722TIP3    H241044   5.417   0.693   3.776
13723TIP3   OH241045   0.045   0.723   0.030
13723TIP3    H141046   0.101   0.682   0.096
13723TIP3    H241047  -0.043   0.692   0.049
13724TIP3   OH241048   6.026   3.057   4.670
13724TIP3    H141049   6.032   2.991   4.601
13724TIP3    H241050   5.962   3.119   4.638
13725TIP3   OH241051   2.685   0.182   6.347
13725TIP3    H141052   2.766   0.187   6.399
13725TIP3    H241053   2.623   0.139   6.405
13726TIP3   OH241054   2.471   1.805   3.216
13726TIP3    H141055   2.450   1.844   3.301
13726TIP3    H241056   2.533   1.735   3.237
13727TIP3   OH241057   0.491   5.543   5.648
13727TIP3    H141058   0.576   5.537   5.605
13727TIP3    H241059   0.427   5.536   5.578
13728TIP3   OH241060   7.371   3.824   4.839
13728TIP3    H141061   7.312   3.752   4.862
13728TIP3    H241062   7.380   3.875   4.920
13729TIP3   OH241063   1.444   7.807   0.700
13729TIP3    H141064   1.458   7.866   0.626
13729TIP3    H241065   1.404   7.729   0.662
13730TIP3   OH241066   5.624   7.776   6.346
13730TIP3    H141067   5.695   7.778   6.410
13730TIP3    H241068   5.584   7.863   6.351
13731TIP3   OH241069   7.477   7.141   2.108
13731TIP3    H141070   7.537   7.145   2.182
13731TIP3    H241071   7.533   7.146   2.031
13732TIP3   OH241072   2.221   2.008   3.920
13732TIP3    H141073   2.254   2.026   3.832
13732TIP3    H241074   2.139   1.961   3.905
13733TIP3   OH241075   3.088   8.415   2.468
13733TIP3    H141076   3.061   8.357   2.539
13733TIP3    H241077   3.136   8.359   2.407
13734TIP3   OH241078   3.914   6.874   1.890
13734TIP3    H141079   3.961   6.806   1.843
13734TIP3    H241080   3.897   6.837   1.976
13735TIP3   OH241081   2.508   1.667   5.367
13735TIP3    H141082   2.567   1.601   5.403
13735TIP3    H241083   2.427   1.656   5.416
13736TIP3   OH241084   0.959   7.249   1.304
13736TIP3    H141085   1.000   7.334   1.322
13736TIP3    H241086   0.877   7.272   1.260
13737TIP3   OH241087   2.423   2.324   4.696
13737TIP3    H141088   2.434   2.299   4.788
13737TIP3    H241089   2.331   2.353   4.691
13738TIP3   OH241090   1.773   7.294   3.706
13738TIP3    H141091   1.825   7.216   3.724
13738TIP3    H241092   1.719   7.270   3.630
13739TIP3   OH241093   5.542   6.534   4.311
13739TIP3    H141094   5.504   6.446   4.317
13739TIP3    H241095   5.580   6.549   4.398
13740TIP3   OH241096   4.182   3.578   6.749
13740TIP3    H141097   4.184   3.665   6.787
13740TIP3    H241098   4.205   3.519   6.821
13741TIP3   OH241099   3.985   2.409   5.210
13741TIP3    H141100   3.909   2.434   5.264
13741TIP3    H241101   3.954   2.334   5.159
13742TIP3   OH241102   6.483   2.993   3.322
13742TIP3    H141103   6.570   2.955   3.307
13742TIP3    H241104   6.436   2.927   3.373
13743TIP3   OH241105   5.193   8.450   7.190
13743TIP3    H141106   5.271   8.471   7.138
13743TIP3    H241107   5.129   8.516   7.165
13744TIP3   OH241108   7.868   4.591   2.536
13744TIP3    H141109   7.803   4.658   2.557
13744TIP3    H241110   7.948   4.622   2.577
13745TIP3   OH241111   6.262   3.727   7.291
13745TIP3    H141112   6.285   3.678   7.370
13745TIP3    H241113   6.189   3.783   7.317
13746TIP3   OH241114   4.807   4.603   3.569
13746TIP3    H141115   4.889   4.594   3.617
13746TIP3    H241116   4.773   4.688   3.595
13747TIP3   OH241117   5.293   8.914   4.388
13747TIP3    H141118   5.329   8.902   4.475
13747TIP3    H241119   5.255   9.002   4.389
13748TIP3   OH241120   7.333   1.297   2.815
13748TIP3    H141121   7.377   1.235   2.873
13748TIP3    H241122   7.271   1.243   2.766
13749TIP3   OH241123   7.155   2.805   3.593
13749TIP3    H141124   7.090   2.788   3.660
13749TIP3    H241125   7.105   2.826   3.515
13750TIP3   OH241126   3.525   1.941   6.507
13750TIP3    H141127   3.555   1.972   6.422
13750TIP3    H241128   3.542   1.846   6.506
13751TIP3   OH241129   8.744   0.161   5.710
13751TIP3    H141130   8.688   0.086   5.730
13751TIP3    H241131   8.762   0.154   5.617
13752TIP3   OH241132   0.336   7.675   3.561
13752TIP3    H141133   0.294   7.681   3.475
13752TIP3    H241134   0.410   7.736   3.556
13753TIP3   OH241135   9.191   6.621   7.295
13753TIP3    H141136   9.154   6.581   7.374
13753TIP3    H241137   9.227   6.705   7.325
13754TIP3   OH241138   7.955   5.907   6.769
13754TIP3    H141139   7.862   5.930   6.777
13754TIP3    H241140   7.964   5.828   6.822
13755TIP3   OH241141   3.928   1.176   0.423
13755TIP3    H141142   3.962   1.169   0.334
13755TIP3    H241143   3.835   1.193   0.411
13756TIP3   OH241144   3.713   8.790   5.571
13756TIP3    H141145   3.769   8.817   5.644
13756TIP3    H241146   3.770   8.791   5.495
13757TIP3   OH241147   7.785   2.396   1.073
13757TIP3    H141148   7.723   2.379   1.001
13757TIP3    H241149   7.871   2.390   1.032
13758TIP3   OH241150   4.983   7.685   1.310
13758TIP3    H141151   4.907   7.635   1.338
13758TIP3    H241152   4.975   7.690   1.215
13759TIP3   OH241153   1.172   0.126   3.979
13759TIP3    H141154   1.166   0.104   4.072
13759TIP3    H241155   1.178   0.221   3.977
13760TIP3   OH241156   8.365   5.198   6.203
13760TIP3    H141157   8.321   5.246   6.273
13760TIP3    H241158   8.315   5.220   6.125
13761TIP3   OH241159   4.988   4.111   1.923
13761TIP3    H141160   4.968   4.018   1.935
13761TIP3    H241161   4.971   4.128   1.831
13762TIP3   OH241162   4.730   3.081   4.057
13762TIP3    H141163   4.820   3.049   4.060
13762TIP3    H241164   4.702   3.082   4.149
13763TIP3   OH241165   7.829   1.170   5.633
13763TIP3    H141166   7.746   1.218   5.634
13763TIP3    H241167   7.871   1.191   5.716
13764TIP3   OH241168   1.773   0.487   7.585
13764TIP3    H141169   1.868   0.478   7.580
13764TIP3    H241170   1.759   0.563   7.642
13765TIP3   OH241171   4.566   2.237   3.224
13765TIP3    H141172   4.496   2.240   3.289
13765TIP3    H241173   4.532   2.182   3.154
13766TIP3   OH241174   9.519   3.407   0.217
13766TIP3    H141175   9.538   3.335   0.157
13766TIP3    H241176   9.576   3.391   0.292
13767TIP3   OH241177   5.473   0.830   0.146
13767TIP3    H141178   5.505   0.857   0.232
13767TIP3    H241179   5.552   0.822   0.093
13768TIP3   OH241180   6.836   3.077   3.507
13768TIP3    H141181   6.833   3.173   3.506
13768TIP3    H241182   6.748   3.051   3.534
13769TIP3   OH241183   7.744   4.357   2.751
13769TIP3    H141184   7.796   4.318   2.680
13769TIP3    H241185   7.797   4.430   2.782
13770TIP3   OH241186   7.398   5.070   0.832
13770TIP3    H141187   7.310   5.081   0.797
13770TIP3    H241188   7.442   5.153   0.813
13771TIP3   OH241189   8.124   6.629   1.911
13771TIP3    H141190   8.142   6.665   1.998
13771TIP3    H241191   8.186   6.557   1.901
13772TIP3   OH241192   5.771   0.455   2.583
13772TIP3    H141193   5.760   0.363   2.607
13772TIP3    H241194   5.831   0.489   2.650
13773TIP3   OH241195   2.801   2.657   0.392
13773TIP3    H141196   2.758   2.597   0.454
13773TIP3    H241197   2.744   2.655   0.314
13774TIP3   OH241198   8.426   1.782   2.283
13774TIP3    H141199   8.491   1.748   2.221
13774TIP3    H241200   8.473   1.850   2.331
13775TIP3   OH241201   3.684   7.712   3.831
13775TIP3    H141202   3.697   7.646   3.899
13775TIP3    H241203   3.696   7.665   3.749
13776TIP3   OH241204   3.420   7.549   3.502
13776TIP3    H141205   3.386   7.472   3.548
13776TIP3    H241206   3.497   7.574   3.553
13777TIP3   OH241207   5.994   3.051   6.338
13777TIP3    H141208   6.071   2.996   6.326
13777TIP3    H241209   5.920   2.991   6.327
13778TIP3   OH241210   6.302   5.305   4.274
13778TIP3    H141211   6.296   5.214   4.303
13778TIP3    H241212   6.216   5.323   4.235
13779TIP3   OH241213   9.023   8.805   3.301
13779TIP3    H141214   9.023   8.794   3.396
13779TIP3    H241215   9.054   8.894   3.287
13780TIP3   OH241216   8.587   6.527   5.422
13780TIP3    H141217   8.510   6.471   5.424
13780TIP3    H241218   8.564   6.597   5.361
13781TIP3   OH241219   5.105   1.010   4.072
13781TIP3    H141220   5.141   0.922   4.063
13781TIP3    H241221   5.068   1.011   4.161
13782TIP3   OH241222   5.775   5.029   6.976
13782TIP3    H141223   5.851   5.087   6.979
13782TIP3    H241224   5.716   5.070   6.912
13783TIP3   OH241225   4.661   8.222   1.945
13783TIP3    H141226   4.710   8.303   1.959
13783TIP3    H241227   4.607   8.213   2.023
13784TIP3   OH241228   5.995   8.282   1.637
13784TIP3    H141229   6.005   8.293   1.543
13784TIP3    H241230   5.989   8.371   1.672
13785TIP3   OH241231   0.835   6.760   2.680
13785TIP3    H141232   0.772   6.690   2.664
13785TIP3    H241233   0.881   6.770   2.597
13786TIP3   OH241234   5.004   0.699   1.770
13786TIP3    H141235   5.079   0.701   1.828
13786TIP3    H241236   4.949   0.629   1.804
13787TIP3   OH241237   4.170   3.415   6.392
13787TIP3    H141238   4.086   3.370   6.397
13787TIP3    H241239   4.149   3.507   6.400
13788TIP3   OH241240   0.436   6.620   6.885
13788TIP3    H141241   0.451   6.622   6.791
13788TIP3    H241242   0.515   6.658   6.923
13789TIP3   OH241243   6.008   6.688   1.865
13789TIP3    H141244   5.947   6.756   1.834
13789TIP3    H241245   6.094   6.730   1.864
13790TIP3   OH241246   2.859   0.841   4.798
13790TIP3    H141247   2.809   0.850   4.880
13790TIP3    H241248   2.792   0.835   4.730
13791TIP3   OH241249   2.510   3.646   1.119
13791TIP3    H141250   2.484   3.572   1.174
13791TIP3    H241251   2.489   3.618   1.030
13792TIP3   OH241252   6.490   3.685   1.376
13792TIP3    H141253   6.499   3.758   1.437
13792TIP3    H241254   6.430   3.625   1.420
13793TIP3   OH241255   2.701   5.995   5.214
13793TIP3    H141256   2.770   5.932   5.236
13793TIP3    H241257   2.715   6.067   5.275
13794TIP3   OH241258   3.855   4.349   3.775
13794TIP3    H141259   3.775   4.392   3.807
13794TIP3    H241260   3.896   4.314   3.854
13795TIP3   OH241261   8.020   2.110   1.428
13795TIP3    H141262   8.111   2.118   1.457
13795TIP3    H241263   7.970   2.104   1.509
13796TIP3   OH241264   7.111   2.438   3.890
13796TIP3    H141265   7.067   2.464   3.809
13796TIP3    H241266   7.050   2.379   3.933
13797TIP3   OH241267   6.805   7.280   7.250
13797TIP3    H141268   6.889   7.241   7.275
13797TIP3    H241269   6.739   7.224   7.291
13798TIP3   OH241270   1.475   3.904   0.780
13798TIP3    H141271   1.506   3.987   0.745
13798TIP3    H241272   1.470   3.918   0.875
13799TIP3   OH241273   6.370   5.474   6.523
13799TIP3    H141274   6.458   5.443   6.498
13799TIP3    H241275   6.374   5.481   6.618
13800TIP3   OH241276   1.459   3.031   5.134
13800TIP3    H141277   1.494   3.091   5.068
13800TIP3    H241278   1.423   2.958   5.084
13801TIP3   OH241279   6.242   5.086   3.502
13801TIP3    H141280   6.330   5.110   3.473
13801TIP3    H241281   6.188   5.162   3.482
13802TIP3   OH241282   0.883   1.630   4.963
13802TIP3    H141283   0.909   1.687   5.035
13802TIP3    H241284   0.843   1.689   4.899
13803TIP3   OH241285   6.171   0.424   6.466
13803TIP3    H141286   6.255   0.422   6.513
13803TIP3    H241287   6.194   0.446   6.376
13804TIP3   OH241288   0.856   5.903   5.596
13804TIP3    H141289   0.887   5.993   5.586
13804TIP3    H241290   0.914   5.866   5.663
13805TIP3   OH241291   3.274   7.430   7.745
13805TIP3    H141292   3.317   7.381   7.816
13805TIP3    H241293   3.342   7.438   7.678
13806TIP3   OH241294   5.997   0.184   6.426
13806TIP3    H141295   5.960   0.252   6.368
13806TIP3    H241296   6.032   0.233   6.501
13807TIP3   OH241297   4.863   7.854   2.980
13807TIP3    H141298   4.849   7.949   2.982
13807TIP3    H241299   4.776   7.817   3.000
13808TIP3   OH241300   4.635   7.742   0.577
13808TIP3    H141301   4.697   7.720   0.647
13808TIP3    H241302   4.689   7.746   0.498
13809TIP3   OH241303   1.839   8.400   5.467
13809TIP3    H141304   1.869   8.422   5.555
13809TIP3    H241305   1.920   8.386   5.418
13810TIP3   OH241306   2.730   6.587   4.203
13810TIP3    H141307   2.777   6.503   4.208
13810TIP3    H241308   2.659   6.578   4.266
13811TIP3   OH241309   2.945   0.826   3.591
13811TIP3    H141310   2.853   0.832   3.617
13811TIP3    H241311   2.942   0.812   3.496
13812TIP3   OH241312   8.786   6.332   1.887
13812TIP3    H141313   8.778   6.410   1.943
13812TIP3    H241314   8.707   6.282   1.904
13813TIP3   OH241315   1.956   3.382   5.667
13813TIP3    H141316   1.882   3.343   5.714
13813TIP3    H241317   1.953   3.475   5.690
13814TIP3   OH241318   4.677   2.399   1.205
13814TIP3    H141319   4.640   2.343   1.136
13814TIP3    H241320   4.646   2.487   1.185
13815TIP3   OH241321   1.772   4.073   1.816
13815TIP3    H141322   1.807   4.131   1.749
13815TIP3    H241323   1.680   4.099   1.824
13816TIP3   OH241324   8.681   6.002   3.607
13816TIP3    H141325   8.609   6.017   3.546
13816TIP3    H241326   8.659   6.055   3.684
13817TIP3   OH241327   4.179   8.140   0.946
13817TIP3    H141328   4.269   8.170   0.953
13817TIP3    H241329   4.142   8.154   1.033
13818TIP3   OH241330   9.550   2.223   0.457
13818TIP3    H141331   9.588   2.179   0.381
13818TIP3    H241332   9.467   2.259   0.425
13819TIP3   OH241333   0.154   7.162   7.612
13819TIP3    H141334   0.149   7.074   7.648
13819TIP3    H241335   0.199   7.152   7.528
13820TIP3   OH241336   7.777   7.794   4.842
13820TIP3    H141337   7.797   7.807   4.934
13820TIP3    H241338   7.801   7.703   4.824
13821TIP3   OH241339   0.586   1.157   2.113
13821TIP3    H141340   0.547   1.210   2.182
13821TIP3    H241341   0.536   1.075   2.115
13822TIP3   OH241342   8.654   5.569   5.828
13822TIP3    H141343   8.655   5.498   5.892
13822TIP3    H241344   8.618   5.529   5.749
13823TIP3   OH241345   8.895   2.286   0.691
13823TIP3    H141346   8.873   2.372   0.655
13823TIP3    H241347   8.919   2.233   0.614
13824TIP3   OH241348   7.181   6.618   5.786
13824TIP3    H141349   7.240   6.652   5.853
13824TIP3    H241350   7.123   6.558   5.833
13825TIP3   OH241351   9.490   2.404   1.728
13825TIP3    H141352   9.540   2.440   1.801
13825TIP3    H241353   9.516   2.458   1.653
13826TIP3   OH241354   5.757   1.058   2.304
13826TIP3    H141355   5.732   1.103   2.223
13826TIP3    H241356   5.845   1.023   2.287
13827TIP3   OH241357   9.432   5.007   1.920
13827TIP3    H141358   9.466   5.007   1.831
13827TIP3    H241359   9.461   5.090   1.957
13828TIP3   OH241360   3.150   6.288   5.713
13828TIP3    H141361   3.241   6.257   5.709
13828TIP3    H241362   3.148   6.364   5.655
13829TIP3   OH241363   6.841   6.933   6.222
13829TIP3    H141364   6.916   6.877   6.200
13829TIP3    H241365   6.765   6.883   6.194
13830TIP3   OH241366   5.503   7.270   7.350
13830TIP3    H141367   5.416   7.309   7.338
13830TIP3    H241368   5.563   7.343   7.342
13831TIP3   OH241369   0.080   7.228   4.292
13831TIP3    H141370   0.029   7.300   4.328
13831TIP3    H241371   0.131   7.195   4.365
13832TIP3   OH241372   7.402   0.394   6.136
13832TIP3    H141373   7.460   0.459   6.175
13832TIP3    H241374   7.314   0.420   6.163
13833TIP3   OH241375   3.062   3.615   5.602
13833TIP3    H141376   3.144   3.634   5.556
13833TIP3    H241377   3.002   3.684   5.575
13834TIP3   OH241378   0.032   0.352   7.021
13834TIP3    H141379   0.085   0.334   6.944
13834TIP3    H241380   0.043   0.446   7.037
13835TIP3   OH241381   5.617   7.974   6.747
13835TIP3    H141382   5.567   7.940   6.673
13835TIP3    H241383   5.670   7.901   6.777
13836TIP3   OH241384   2.753   0.412   6.581
13836TIP3    H141385   2.833   0.465   6.584
13836TIP3    H241386   2.785   0.322   6.566
13837TIP3   OH241387   4.759   7.915   2.663
13837TIP3    H141388   4.825   7.917   2.732
13837TIP3    H241389   4.698   7.847   2.690
13838TIP3   OH241390   6.811   2.864   7.048
13838TIP3    H141391   6.895   2.822   7.029
13838TIP3    H241392   6.811   2.876   7.143
13839TIP3   OH241393   1.473   8.612   7.077
13839TIP3    H141394   1.543   8.605   7.012
13839TIP3    H241395   1.516   8.651   7.154
13840TIP3   OH241396   0.609   0.318   0.347
13840TIP3    H141397   0.531   0.350   0.391
13840TIP3    H241398   0.675   0.386   0.363
13841TIP3   OH241399   6.168   3.145   5.830
13841TIP3    H141400   6.215   3.185   5.903
13841TIP3    H241401   6.228   3.150   5.757
13842TIP3   OH241402   7.018   8.646   6.193
13842TIP3    H141403   6.971   8.683   6.119
13842TIP3    H241404   7.109   8.637   6.163
13843TIP3   OH241405   2.369   4.334   0.212
13843TIP3    H141406   2.449   4.297   0.251
13843TIP3    H241407   2.346   4.272   0.143
13844TIP3   OH241408   2.765   6.940   1.665
13844TIP3    H141409   2.727   6.861   1.626
13844TIP3    H241410   2.749   7.009   1.601
13845TIP3   OH241411   2.170   3.434   3.658
13845TIP3    H141412   2.159   3.339   3.654
13845TIP3    H241413   2.123   3.467   3.582
13846TIP3   OH241414   7.463   6.269   5.249
13846TIP3    H141415   7.471   6.332   5.178
13846TIP3    H241416   7.370   6.267   5.269
13847TIP3   OH241417   3.058   5.663   6.224
13847TIP3    H141418   3.011   5.713   6.158
13847TIP3    H241419   3.022   5.693   6.308
13848TIP3   OH241420   9.429   3.246   1.483
13848TIP3    H141421   9.343   3.205   1.472
13848TIP3    H241422   9.467   3.203   1.559
13849TIP3   OH241423   0.517   6.297   2.861
13849TIP3    H141424   0.611   6.316   2.863
13849TIP3    H241425   0.498   6.279   2.769
13850TIP3   OH241426   1.944   6.391   6.776
13850TIP3    H141427   1.946   6.303   6.738
13850TIP3    H241428   2.014   6.439   6.731
13851TIP3   OH241429   4.847   7.896   6.003
13851TIP3    H141430   4.866   7.990   6.012
13851TIP3    H241431   4.770   7.893   5.946
13852TIP3   OH241432   3.666   6.096   4.236
13852TIP3    H141433   3.573   6.097   4.257
13852TIP3    H241434   3.671   6.134   4.148
13853TIP3   OH241435   4.093   6.120   4.273
13853TIP3    H141436   4.009   6.129   4.227
13853TIP3    H241437   4.155   6.166   4.217
13854TIP3   OH241438   5.436   3.618   0.349
13854TIP3    H141439   5.376   3.646   0.418
13854TIP3    H241440   5.476   3.699   0.317
13855TIP3   OH241441   4.358   7.719   0.576
13855TIP3    H141442   4.453   7.721   0.592
13855TIP3    H241443   4.345   7.779   0.503
13856TIP3   OH241444   5.395   3.715   3.579
13856TIP3    H141445   5.420   3.763   3.658
13856TIP3    H241446   5.445   3.757   3.509
13857TIP3   OH241447   7.156   7.622   4.185
13857TIP3    H141448   7.169   7.716   4.170
13857TIP3    H241449   7.119   7.617   4.273
13858TIP3   OH241450   0.702   1.416   2.240
13858TIP3    H141451   0.734   1.505   2.255
13858TIP3    H241452   0.608   1.426   2.228
13859TIP3   OH241453   5.134   5.679   5.742
13859TIP3    H141454   5.170   5.675   5.831
13859TIP3    H241455   5.208   5.655   5.686
13860TIP3   OH241456   8.270   3.940   5.606
13860TIP3    H141457   8.209   4.012   5.586
13860TIP3    H241458   8.352   3.965   5.563
13861TIP3   OH241459   0.591   8.480   0.651
13861TIP3    H141460   0.642   8.410   0.611
13861TIP3    H241461   0.609   8.472   0.745
13862TIP3   OH241462   0.639   4.479   4.939
13862TIP3    H141463   0.732   4.457   4.928
13862TIP3    H241464   0.638   4.540   5.012
13863TIP3   OH241465   8.358   5.076   3.919
13863TIP3    H141466   8.349   5.171   3.914
13863TIP3    H241467   8.422   5.054   3.852
13864TIP3   OH241468   3.129   0.335   6.268
13864TIP3    H141469   3.038   0.356   6.251
13864TIP3    H241470   3.138   0.342   6.363
13865TIP3   OH241471   4.274   5.317   2.542
13865TIP3    H141472   4.250   5.338   2.452
13865TIP3    H241473   4.253   5.395   2.592
13866TIP3   OH241474   3.165   1.908   6.664
13866TIP3    H141475   3.184   1.893   6.756
13866TIP3    H241476   3.249   1.893   6.619
13867TIP3   OH241477   1.389   3.063   1.590
13867TIP3    H141478   1.320   3.064   1.524
13867TIP3    H241479   1.342   3.054   1.673
13868TIP3   OH241480   4.314   0.317   1.095
13868TIP3    H141481   4.255   0.380   1.137
13868TIP3    H241482   4.386   0.370   1.061
13869TIP3   OH241483   5.304   5.995   1.189
13869TIP3    H141484   5.313   5.916   1.137
13869TIP3    H241485   5.281   5.964   1.277
13870TIP3   OH241486   4.029   0.160   7.598
13870TIP3    H141487   4.122   0.139   7.605
13870TIP3    H241488   3.995   0.156   7.687
13871TIP3   OH241489   8.670   0.007   1.159
13871TIP3    H141490   8.764  -0.006   1.142
13871TIP3    H241491   8.638  -0.079   1.186
13872TIP3   OH241492   2.239   2.506   2.154
13872TIP3    H141493   2.274   2.514   2.065
13872TIP3    H241494   2.303   2.452   2.199
13873TIP3   OH241495   2.716   7.172   4.394
13873TIP3    H141496   2.774   7.224   4.338
13873TIP3    H241497   2.726   7.082   4.361
13874TIP3   OH241498   7.755   7.569   3.110
13874TIP3    H141499   7.749   7.658   3.077
13874TIP3    H241500   7.698   7.518   3.054
13875TIP3   OH241501   2.214   7.558   7.060
13875TIP3    H141502   2.292   7.557   7.004
13875TIP3    H241503   2.248   7.569   7.149
13876TIP3   OH241504   0.661   7.794   7.060
13876TIP3    H141505   0.756   7.790   7.072
13876TIP3    H241506   0.641   7.887   7.050
13877TIP3   OH241507   1.604   8.793   7.597
13877TIP3    H141508   1.639   8.710   7.628
13877TIP3    H241509   1.509   8.785   7.609
13878TIP3   OH241510   6.965   3.847   1.547
13878TIP3    H141511   6.950   3.941   1.538
13878TIP3    H241512   7.022   3.838   1.623
13879TIP3   OH241513   1.940   8.678   6.992
13879TIP3    H141514   1.950   8.589   6.958
13879TIP3    H241515   2.027   8.717   6.984
13880TIP3   OH241516   6.346   7.378   2.652
13880TIP3    H141517   6.419   7.414   2.703
13880TIP3    H241518   6.293   7.331   2.716
13881TIP3   OH241519   1.905   1.730   0.765
13881TIP3    H141520   1.931   1.779   0.687
13881TIP3    H241521   1.888   1.797   0.831
13882TIP3   OH241522   0.099   5.587   3.315
13882TIP3    H141523   0.116   5.628   3.231
13882TIP3    H241524   0.113   5.494   3.300
13883TIP3   OH241525   6.122   1.727   7.253
13883TIP3    H141526   6.048   1.766   7.300
13883TIP3    H241527   6.083   1.689   7.174
13884TIP3   OH241528   1.107   6.252   3.220
13884TIP3    H141529   1.046   6.290   3.156
13884TIP3    H241530   1.117   6.161   3.191
13885TIP3   OH241531   4.223   8.419   3.511
13885TIP3    H141532   4.266   8.473   3.444
13885TIP3    H241533   4.194   8.482   3.577
13886TIP3   OH241534   0.551   0.738   3.083
13886TIP3    H141535   0.631   0.786   3.060
13886TIP3    H241536   0.481   0.801   3.074
13887TIP3   OH241537   8.464   5.586   5.279
13887TIP3    H141538   8.395   5.530   5.313
13887TIP3    H241539   8.534   5.581   5.344
13888TIP3   OH241540   2.423   6.917   5.777
13888TIP3    H141541   2.354   6.852   5.790
13888TIP3    H241542   2.384   7.000   5.805
13889TIP3   OH241543   9.500   6.406   7.705
13889TIP3    H141544   9.572   6.384   7.647
13889TIP3    H241545   9.425   6.358   7.670
13890TIP3   OH241546   3.806   6.950   0.947
13890TIP3    H141547   3.765   6.912   1.024
13890TIP3    H241548   3.898   6.924   0.953
13891TIP3   OH241549   1.865   6.839   5.682
13891TIP3    H141550   1.896   6.749   5.679
13891TIP3    H241551   1.878   6.873   5.594
13892TIP3   OH241552   6.638   5.909   1.245
13892TIP3    H141553   6.666   5.983   1.191
13892TIP3    H241554   6.706   5.901   1.311
13893TIP3   OH241555   3.005   2.804   3.602
13893TIP3    H141556   2.928   2.748   3.592
13893TIP3    H241557   3.078   2.743   3.616
13894TIP3   OH241558   5.237   5.386   6.153
13894TIP3    H141559   5.236   5.306   6.100
13894TIP3    H241560   5.146   5.397   6.181
13895TIP3   OH241561   7.700   1.620   3.924
13895TIP3    H141562   7.715   1.711   3.899
13895TIP3    H241563   7.758   1.569   3.866
13896TIP3   OH241564   7.427   5.863   1.114
13896TIP3    H141565   7.513   5.847   1.154
13896TIP3    H241566   7.447   5.906   1.031
13897TIP3   OH241567   3.462   8.129   1.190
13897TIP3    H141568   3.536   8.164   1.141
13897TIP3    H241569   3.395   8.111   1.125
13898TIP3   OH241570   6.668   6.714   6.968
13898TIP3    H141571   6.751   6.677   6.940
13898TIP3    H241572   6.673   6.806   6.943
13899TIP3   OH241573   0.649   0.949   5.845
13899TIP3    H141574   0.698   1.030   5.859
13899TIP3    H241575   0.622   0.922   5.933
13900TIP3   OH241576   3.220   5.667   0.371
13900TIP3    H141577   3.183   5.750   0.341
13900TIP3    H241578   3.235   5.617   0.290
13901TIP3   OH241579   0.151   8.017   3.469
13901TIP3    H141580   0.071   7.966   3.479
13901TIP3    H241581   0.124   8.108   3.476
13902TIP3   OH241582   4.377   6.614   2.398
13902TIP3    H141583   4.376   6.709   2.396
13902TIP3    H241584   4.288   6.589   2.420
13903TIP3   OH241585   8.463   2.859   0.313
13903TIP3    H141586   8.530   2.898   0.257
13903TIP3    H241587   8.386   2.853   0.256
13904TIP3   OH241588   5.937   2.876   4.877
13904TIP3    H141589   5.959   2.949   4.820
13904TIP3    H241590   6.016   2.823   4.880
13905TIP3   OH241591   3.018   0.100   5.120
13905TIP3    H141592   3.070   0.035   5.073
13905TIP3    H241593   3.083   0.155   5.164
13906TIP3   OH241594   7.661   0.410   1.393
13906TIP3    H141595   7.720   0.425   1.319
13906TIP3    H241596   7.573   0.420   1.356
13907TIP3   OH241597   1.943   7.001   6.299
13907TIP3    H141598   1.999   7.024   6.372
13907TIP3    H241599   1.986   7.040   6.222
13908TIP3   OH241600   0.956   4.674   2.275
13908TIP3    H141601   0.907   4.598   2.244
13908TIP3    H241602   0.910   4.750   2.238
13909TIP3   OH241603   1.676   4.792   6.223
13909TIP3    H141604   1.599   4.833   6.184
13909TIP3    H241605   1.720   4.749   6.149
13910TIP3   OH241606   5.462   8.322   4.809
13910TIP3    H141607   5.439   8.406   4.768
13910TIP3    H241608   5.495   8.346   4.896
13911TIP3   OH241609   7.453   1.379   3.624
13911TIP3    H141610   7.405   1.434   3.686
13911TIP3    H241611   7.462   1.434   3.546
13912TIP3   OH241612   7.287   1.559   2.901
13912TIP3    H141613   7.280   1.469   2.870
13912TIP3    H241614   7.336   1.604   2.832
13913TIP3   OH241615   6.258   6.198   0.005
13913TIP3    H141616   6.190   6.190   0.071
13913TIP3    H241617   6.260   6.113  -0.038
13914TIP3   OH241618   0.912   6.928   7.495
13914TIP3    H141619   0.887   6.962   7.409
13914TIP3    H241620   0.923   6.834   7.481
13915TIP3   OH241621   7.756   6.808   1.035
13915TIP3    H141622   7.811   6.884   1.021
13915TIP3    H241623   7.812   6.733   1.013
13916TIP3   OH241624   1.797   6.483   3.629
13916TIP3    H141625   1.712   6.480   3.585
13916TIP3    H241626   1.860   6.463   3.560
13917TIP3   OH241627   1.128   4.972   7.015
13917TIP3    H141628   1.064   4.971   6.944
13917TIP3    H241629   1.176   4.890   7.005
13918TIP3   OH241630   2.360   8.237   1.645
13918TIP3    H141631   2.329   8.162   1.594
13918TIP3    H241632   2.297   8.307   1.625
13919TIP3   OH241633   3.150   3.745   3.448
13919TIP3    H141634   3.234   3.772   3.411
13919TIP3    H241635   3.084   3.781   3.389
13920TIP3   OH241636   4.463   5.632   5.228
13920TIP3    H141637   4.496   5.575   5.158
13920TIP3    H241638   4.397   5.580   5.273
13921TIP3   OH241639   5.595   7.350   1.589
13921TIP3    H141640   5.639   7.326   1.508
13921TIP3    H241641   5.522   7.289   1.596
13922TIP3   OH241642   0.390   7.389   5.388
13922TIP3    H141643   0.460   7.450   5.409
13922TIP3    H241644   0.435   7.307   5.367
13923TIP3   OH241645   0.443   8.749   5.740
13923TIP3    H141646   0.494   8.702   5.807
13923TIP3    H241647   0.493   8.828   5.723
13924TIP3   OH241648   2.470   5.210   3.823
13924TIP3    H141649   2.440   5.294   3.788
13924TIP3    H241650   2.547   5.233   3.876
13925TIP3   OH241651   8.853   1.457   3.790
13925TIP3    H141652   8.888   1.376   3.829
13925TIP3    H241653   8.929   1.515   3.785
13926TIP3   OH241654   0.623   1.849   4.486
13926TIP3    H141655   0.575   1.932   4.489
13926TIP3    H241656   0.555   1.782   4.484
13927TIP3   OH241657   2.284   6.846   3.499
13927TIP3    H141658   2.335   6.768   3.481
13927TIP3    H241659   2.195   6.823   3.473
13928TIP3   OH241660   2.731   4.944   7.473
13928TIP3    H141661   2.689   4.858   7.469
13928TIP3    H241662   2.666   5.001   7.513
13929TIP3   OH241663   9.144   1.538   0.731
13929TIP3    H141664   9.192   1.455   0.723
13929TIP3    H241665   9.059   1.512   0.768
13930TIP3   OH241666   7.775   6.434   4.256
13930TIP3    H141667   7.703   6.496   4.256
13930TIP3    H241668   7.829   6.459   4.181
13931TIP3   OH241669   6.763   4.014   3.712
13931TIP3    H141670   6.789   4.098   3.675
13931TIP3    H241671   6.798   3.949   3.651
13932TIP3   OH241672   6.885   2.628   1.960
13932TIP3    H141673   6.944   2.625   2.035
13932TIP3    H241674   6.889   2.718   1.930
13933TIP3   OH241675   1.924   5.752   5.394
13933TIP3    H141676   1.831   5.733   5.393
13933TIP3    H241677   1.965   5.673   5.430
13934TIP3   OH241678   5.341   4.766   7.550
13934TIP3    H141679   5.253   4.767   7.513
13934TIP3    H241680   5.364   4.859   7.558
13935TIP3   OH241681   1.307   2.407   5.973
13935TIP3    H141682   1.367   2.346   5.931
13935TIP3    H241683   1.289   2.369   6.058
13936TIP3   OH241684   4.737   2.051   1.628
13936TIP3    H141685   4.698   2.090   1.550
13936TIP3    H241686   4.673   1.985   1.655
13937TIP3   OH241687   0.922   5.522   2.242
13937TIP3    H141688   1.015   5.528   2.219
13937TIP3    H241689   0.887   5.455   2.183
13938TIP3   OH241690   8.441   0.933   3.806
13938TIP3    H141691   8.479   0.933   3.894
13938TIP3    H241692   8.472   1.014   3.766
13939TIP3   OH241693   8.018   8.028   2.339
13939TIP3    H141694   7.945   8.081   2.305
13939TIP3    H241695   8.005   7.942   2.300
13940TIP3   OH241696   4.340   5.105   4.036
13940TIP3    H141697   4.418   5.084   4.088
13940TIP3    H241698   4.375   5.140   3.954
13941TIP3   OH241699   9.267   3.435   3.478
13941TIP3    H141700   9.353   3.395   3.465
13941TIP3    H241701   9.208   3.380   3.426
13942TIP3   OH241702   9.253   2.671   5.861
13942TIP3    H141703   9.336   2.656   5.906
13942TIP3    H241704   9.188   2.628   5.917
13943TIP3   OH241705   7.602   3.803   7.545
13943TIP3    H141706   7.631   3.712   7.541
13943TIP3    H241707   7.507   3.799   7.533
13944TIP3   OH241708   8.237   8.706   0.302
13944TIP3    H141709   8.307   8.642   0.291
13944TIP3    H241710   8.281   8.787   0.326
13945TIP3   OH241711   1.616   0.124   7.759
13945TIP3    H141712   1.549   0.191   7.749
13945TIP3    H241713   1.683   0.147   7.695
13946TIP3   OH241714   0.244   1.155   4.495
13946TIP3    H141715   0.237   1.089   4.426
13946TIP3    H241716   0.337   1.152   4.521
13947TIP3   OH241717   4.577   2.043   2.750
13947TIP3    H141718   4.659   2.088   2.730
13947TIP3    H241719   4.554   1.998   2.668
13948TIP3   OH241720   6.549   2.377   2.565
13948TIP3    H141721   6.605   2.358   2.490
13948TIP3    H241722   6.539   2.472   2.564
13949TIP3   OH241723   7.721   7.818   3.014
13949TIP3    H141724   7.755   7.905   2.995
13949TIP3    H241725   7.652   7.804   2.949
13950TIP3   OH241726   0.714   7.596   6.515
13950TIP3    H141727   0.758   7.512   6.524
13950TIP3    H241728   0.720   7.636   6.601
13951TIP3   OH241729   5.598   5.220   3.783
13951TIP3    H141730   5.639   5.304   3.762
13951TIP3    H241731   5.666   5.155   3.769
13952TIP3   OH241732   1.443   5.355   3.458
13952TIP3    H141733   1.377   5.406   3.505
13952TIP3    H241734   1.523   5.406   3.465
13953TIP3   OH241735   4.461   2.511   6.670
13953TIP3    H141736   4.415   2.595   6.664
13953TIP3    H241737   4.399   2.447   6.636
13954TIP3   OH241738   4.963   0.598   3.360
13954TIP3    H141739   4.915   0.613   3.442
13954TIP3    H241740   4.987   0.685   3.330
13955TIP3   OH241741   8.167   5.493   2.588
13955TIP3    H141742   8.218   5.545   2.650
13955TIP3    H241743   8.174   5.403   2.620
13956TIP3   OH241744   9.476   1.237   6.826
13956TIP3    H141745   9.467   1.146   6.855
13956TIP3    H241746   9.552   1.270   6.873
13957TIP3   OH241747   6.035   5.962   3.267
13957TIP3    H141748   6.129   5.954   3.280
13957TIP3    H241749   6.004   6.011   3.343
13958TIP3   OH241750   7.522   5.710   0.773
13958TIP3    H141751   7.576   5.733   0.848
13958TIP3    H241752   7.585   5.697   0.702
13959TIP3   OH241753   8.799   8.896   3.500
13959TIP3    H141754   8.871   8.950   3.530
13959TIP3    H241755   8.720   8.946   3.522
13960TIP3   OH241756   4.962   5.028   7.581
13960TIP3    H141757   5.038   5.082   7.558
13960TIP3    H241758   4.991   4.938   7.566
13961TIP3   OH241759   8.316   4.655   7.042
13961TIP3    H141760   8.316   4.571   6.996
13961TIP3    H241761   8.386   4.647   7.106
13962TIP3   OH241762   1.165   3.508   4.724
13962TIP3    H141763   1.104   3.572   4.688
13962TIP3    H241764   1.229   3.494   4.654
13963TIP3   OH241765   9.027   0.459   5.328
13963TIP3    H141766   8.951   0.419   5.286
13963TIP3    H241767   9.011   0.451   5.422
13964TIP3   OH241768   7.749   3.530   7.491
13964TIP3    H141769   7.821   3.561   7.436
13964TIP3    H241770   7.736   3.439   7.464
13965TIP3   OH241771   1.182   2.496   5.341
13965TIP3    H141772   1.172   2.591   5.333
13965TIP3    H241773   1.275   2.481   5.328
13966TIP3   OH241774   5.306   7.007   4.418
13966TIP3    H141775   5.241   7.067   4.383
13966TIP3    H241776   5.333   6.954   4.344
13967TIP3   OH241777   0.426   6.051   0.452
13967TIP3    H141778   0.418   6.116   0.383
13967TIP3    H241779   0.389   5.971   0.415
13968TIP3   OH241780   4.776   1.266   7.742
13968TIP3    H141781   4.689   1.230   7.726
13968TIP3    H241782   4.761   1.357   7.768
13969TIP3   OH241783   6.514   2.028   3.606
13969TIP3    H141784   6.432   2.076   3.620
13969TIP3    H241785   6.574   2.063   3.672
13970TIP3   OH241786   6.972   2.543   2.469
13970TIP3    H141787   6.980   2.451   2.495
13970TIP3    H241788   6.920   2.583   2.538
13971TIP3   OH241789   9.327   2.981   1.267
13971TIP3    H141790   9.300   3.031   1.343
13971TIP3    H241791   9.246   2.950   1.227
13972TIP3   OH241792   9.289   5.557   5.385
13972TIP3    H141793   9.351   5.484   5.386
13972TIP3    H241794   9.334   5.628   5.431
13973TIP3   OH241795   6.458   2.608   2.148
13973TIP3    H141796   6.497   2.626   2.233
13973TIP3    H241797   6.533   2.587   2.091
13974TIP3   OH241798   8.975   7.069   0.088
13974TIP3    H141799   8.894   7.080   0.038
13974TIP3    H241800   9.044   7.070   0.021
13975TIP3   OH241801   8.061   4.175   1.402
13975TIP3    H141802   8.134   4.235   1.413
13975TIP3    H241803   8.062   4.152   1.309
13976TIP3   OH241804   5.708   8.953   0.369
13976TIP3    H141805   5.799   8.978   0.354
13976TIP3    H241806   5.710   8.905   0.452
13977TIP3   OH241807   0.021   7.020   5.209
13977TIP3    H141808   0.039   7.076   5.285
13977TIP3    H241809   0.107   6.984   5.186
13978TIP3   OH241810   3.768   0.945   4.832
13978TIP3    H141811   3.844   0.989   4.871
13978TIP3    H241812   3.721   1.014   4.786
13979TIP3   OH241813   8.030   6.025   6.186
13979TIP3    H141814   8.010   6.019   6.093
13979TIP3    H241815   8.049   6.117   6.201
13980TIP3   OH241816   2.498   3.729   7.525
13980TIP3    H141817   2.530   3.652   7.572
13980TIP3    H241818   2.526   3.803   7.579
13981TIP3   OH241819   9.088   1.303   5.556
13981TIP3    H141820   9.143   1.225   5.546
13981TIP3    H241821   9.094   1.326   5.648
13982TIP3   OH241822   8.815   4.242   5.516
13982TIP3    H141823   8.800   4.169   5.456
13982TIP3    H241824   8.818   4.201   5.603
13983TIP3   OH241825   1.074   8.929   6.728
13983TIP3    H141826   1.063   8.987   6.803
13983TIP3    H241827   0.986   8.920   6.691
13984TIP3   OH241828   7.461   3.882   3.260
13984TIP3    H141829   7.526   3.930   3.208
13984TIP3    H241830   7.424   3.948   3.318
13985TIP3   OH241831   5.464   1.122   5.422
13985TIP3    H141832   5.410   1.053   5.460
13985TIP3    H241833   5.527   1.144   5.492
13986TIP3   OH241834   0.850   6.024   5.104
13986TIP3    H141835   0.834   5.930   5.099
13986TIP3    H241836   0.823   6.049   5.192
13987TIP3   OH241837   0.596   4.041   0.537
13987TIP3    H141838   0.687   4.029   0.511
13987TIP3    H241839   0.596   4.034   0.632
13988TIP3   OH241840   0.193   0.717   3.402
13988TIP3    H141841   0.099   0.703   3.409
13988TIP3    H241842   0.201   0.793   3.344
13989TIP3   OH241843   3.952   1.178   0.119
13989TIP3    H141844   3.897   1.103   0.096
13989TIP3    H241845   3.892   1.252   0.122
13990TIP3   OH241846   1.622   1.167   3.344
13990TIP3    H141847   1.528   1.171   3.327
13990TIP3    H241848   1.631   1.187   3.437
13991TIP3   OH241849   0.888   2.078   5.843
13991TIP3    H141850   0.909   2.052   5.754
13991TIP3    H241851   0.862   2.170   5.835
13992TIP3   OH241852   5.031   4.016   4.198
13992TIP3    H141853   5.050   3.952   4.266
13992TIP3    H241854   5.098   4.001   4.131
13993TIP3   OH241855   7.988   4.804   1.716
13993TIP3    H141856   8.017   4.792   1.626
13993TIP3    H241857   8.065   4.836   1.762
13994TIP3   OH241858   6.152   5.357   7.105
13994TIP3    H141859   6.225   5.357   7.043
13994TIP3    H241860   6.103   5.437   7.085
13995TIP3   OH241861   1.853   2.694   7.625
13995TIP3    H141862   1.788   2.755   7.657
13995TIP3    H241863   1.820   2.608   7.651
13996TIP3   OH241864   1.812   1.248   4.092
13996TIP3    H141865   1.846   1.199   4.167
13996TIP3    H241866   1.888   1.259   4.034
13997TIP3   OH241867   1.235   1.419   6.655
13997TIP3    H141868   1.145   1.393   6.637
13997TIP3    H241869   1.237   1.436   6.749
13998TIP3   OH241870   3.193   2.511   6.830
13998TIP3    H141871   3.279   2.541   6.860
13998TIP3    H241872   3.208   2.423   6.796
13999TIP3   OH241873   5.169   4.793   4.154
13999TIP3    H141874   5.088   4.806   4.203
13999TIP3    H241875   5.143   4.800   4.062
14000TIP3   OH241876   6.958   6.567   5.389
14000TIP3    H141877   6.946   6.661   5.407
14000TIP3    H241878   6.907   6.550   5.310
14001TIP3   OH241879   6.317   7.753   1.897
14001TIP3    H141880   6.250   7.803   1.942
14001TIP3    H241881   6.336   7.679   1.954
14002TIP3   OH241882   1.533   4.321   6.465
14002TIP3    H141883   1.459   4.357   6.416
14002TIP3    H241884   1.502   4.319   6.556
14003TIP3   OH241885   1.746   0.918   3.391
14003TIP3    H141886   1.691   0.995   3.383
14003TIP3    H241887   1.792   0.929   3.474
14004TIP3   OH241888   1.628   7.826   0.343
14004TIP3    H141889   1.598   7.910   0.306
14004TIP3    H241890   1.661   7.778   0.267
14005TIP3   OH241891   0.480   3.831   4.095
14005TIP3    H141892   0.436   3.755   4.057
14005TIP3    H241893   0.549   3.795   4.151
14006TIP3   OH241894   4.485   3.581   0.358
14006TIP3    H141895   4.495   3.564   0.264
14006TIP3    H241896   4.509   3.498   0.400
14007TIP3   OH241897   7.616   8.606   6.252
14007TIP3    H141898   7.617   8.696   6.285
14007TIP3    H241899   7.690   8.602   6.191
14008TIP3   OH241900   2.606   6.497   3.185
14008TIP3    H141901   2.628   6.523   3.095
14008TIP3    H241902   2.522   6.451   3.177
14009TIP3   OH241903   6.381   6.199   6.020
14009TIP3    H141904   6.402   6.191   6.113
14009TIP3    H241905   6.403   6.290   5.999
14010TIP3   OH241906   1.391   7.076   0.968
14010TIP3    H141907   1.451   7.126   1.023
14010TIP3    H241908   1.327   7.141   0.938
14011TIP3   OH241909   5.362   2.694   3.977
14011TIP3    H141910   5.412   2.614   3.991
14011TIP3    H241911   5.271   2.668   3.992
14012TIP3   OH241912   0.575   4.051   3.673
14012TIP3    H141913   0.523   3.993   3.616
14012TIP3    H241914   0.538   4.037   3.761
14013TIP3   OH241915   6.267   5.881   1.386
14013TIP3    H141916   6.195   5.849   1.441
14013TIP3    H241917   6.288   5.808   1.328
14014TIP3   OH241918   4.482   8.242   5.218
14014TIP3    H141919   4.539   8.219   5.292
14014TIP3    H241920   4.525   8.317   5.177
14015TIP3   OH241921   6.236   3.866   4.972
14015TIP3    H141922   6.209   3.774   4.966
14015TIP3    H241923   6.256   3.879   5.065
14016TIP3   OH241924   3.703   1.438   5.468
14016TIP3    H141925   3.623   1.419   5.516
14016TIP3    H241926   3.773   1.402   5.522
14017TIP3   OH241927   5.150   6.667   7.527
14017TIP3    H141928   5.184   6.742   7.577
14017TIP3    H241929   5.211   6.658   7.453
14018TIP3   OH241930   8.996   4.384   0.987
14018TIP3    H141931   9.029   4.296   0.971
14018TIP3    H241932   8.927   4.397   0.922
14019TIP3   OH241933   8.335   4.445   6.491
14019TIP3    H141934   8.260   4.430   6.435
14019TIP3    H241935   8.367   4.532   6.468
14020TIP3   OH241936   6.214   6.439   0.565
14020TIP3    H141937   6.209   6.533   0.546
14020TIP3    H241938   6.226   6.398   0.479
14021TIP3   OH241939   6.547   3.399   0.648
14021TIP3    H141940   6.512   3.462   0.585
14021TIP3    H241941   6.585   3.330   0.593
14022TIP3   OH241942   1.321   1.012   4.866
14022TIP3    H141943   1.335   0.954   4.791
14022TIP3    H241944   1.357   1.096   4.839
14023TIP3   OH241945   0.130   5.631   2.555
14023TIP3    H141946   0.154   5.594   2.640
14023TIP3    H241947   0.096   5.718   2.576
14024TIP3   OH241948   8.089   5.597   5.563
14024TIP3    H141949   8.056   5.670   5.615
14024TIP3    H241950   8.155   5.556   5.619
14025TIP3   OH241951   1.151   2.895   2.859
14025TIP3    H141952   1.166   2.978   2.905
14025TIP3    H241953   1.090   2.917   2.789
14026TIP3   OH241954   2.760   2.026   4.438
14026TIP3    H141955   2.838   2.001   4.488
14026TIP3    H241956   2.721   1.943   4.411
14027TIP3   OH241957   0.042   6.406   0.056
14027TIP3    H141958   0.035   6.424   0.150
14027TIP3    H241959   0.069   6.315   0.052
14028TIP3   OH241960   9.490   5.581   7.384
14028TIP3    H141961   9.489   5.677   7.386
14028TIP3    H241962   9.431   5.555   7.455
14029TIP3   OH241963   6.949   1.482   0.777
14029TIP3    H141964   6.898   1.410   0.814
14029TIP3    H241965   6.992   1.522   0.852
14030TIP3   OH241966   5.570   0.178   4.923
14030TIP3    H141967   5.524   0.121   4.862
14030TIP3    H241968   5.502   0.211   4.982
14031TIP3   OH241969   7.366   1.970   2.926
14031TIP3    H141970   7.314   2.037   2.882
14031TIP3    H241971   7.367   1.896   2.865
14032TIP3   OH241972   8.035   3.619   3.908
14032TIP3    H141973   7.960   3.596   3.963
14032TIP3    H241974   8.002   3.614   3.819
14033TIP3   OH241975   8.576   5.372   6.940
14033TIP3    H141976   8.512   5.321   6.991
14033TIP3    H241977   8.600   5.314   6.867
14034TIP3   OH241978   7.166   8.809   2.425
14034TIP3    H141979   7.245   8.837   2.378
14034TIP3    H241980   7.135   8.888   2.468
14035TIP3   OH241981   1.103   7.352   5.430
14035TIP3    H141982   1.051   7.362   5.510
14035TIP3    H241983   1.131   7.261   5.431
14036TIP3   OH241984   0.311   0.351   2.764
14036TIP3    H141985   0.269   0.412   2.703
14036TIP3    H241986   0.396   0.391   2.782
14037TIP3   OH241987   2.385   2.275   1.455
14037TIP3    H141988   2.470   2.317   1.446
14037TIP3    H241989   2.406   2.185   1.481
14038TIP3   OH241990   0.920   2.424   3.423
14038TIP3    H141991   0.942   2.348   3.477
14038TIP3    H241992   0.888   2.386   3.341
14039TIP3   OH241993   8.589   4.484   4.548
14039TIP3    H141994   8.645   4.544   4.598
14039TIP3    H241995   8.616   4.496   4.457
14040TIP3   OH241996   1.436   2.331   6.613
14040TIP3    H141997   1.404   2.241   6.602
14040TIP3    H241998   1.490   2.327   6.692
14041TIP3   OH241999   9.113   5.872   1.098
14041TIP3    H142000   9.200   5.913   1.096
14041TIP3    H242001   9.097   5.855   1.191
14042TIP3   OH242002   4.634   6.084   0.014
14042TIP3    H142003   4.614   6.078  -0.079
14042TIP3    H242004   4.553   6.115   0.054
14043TIP3   OH242005   8.229   0.281   4.788
14043TIP3    H142006   8.281   0.202   4.774
14043TIP3    H242007   8.289   0.353   4.768
14044TIP3   OH242008   0.062   7.807   2.684
14044TIP3    H142009  -0.031   7.807   2.704
14044TIP3    H242010   0.084   7.900   2.671
14045TIP3   OH242011   6.330   6.159   3.881
14045TIP3    H142012   6.342   6.065   3.896
14045TIP3    H242013   6.378   6.201   3.952
14046TIP3   OH242014   0.868   7.795   0.135
14046TIP3    H142015   0.784   7.830   0.107
14046TIP3    H242016   0.873   7.709   0.094
14047TIP3   OH242017   1.475   6.003   5.549
14047TIP3    H142018   1.504   6.086   5.588
14047TIP3    H242019   1.502   6.009   5.457
14048TIP3   OH242020   1.170   0.717   0.191
14048TIP3    H142021   1.172   0.719   0.287
14048TIP3    H242022   1.082   0.687   0.169
14049TIP3   OH242023   5.374   6.997   1.506
14049TIP3    H142024   5.364   7.065   1.572
14049TIP3    H242025   5.377   6.915   1.555
14050TIP3   OH242026   2.415   4.914   5.076
14050TIP3    H142027   2.358   4.901   5.151
14050TIP3    H242028   2.501   4.934   5.113
14051TIP3   OH242029   6.011   0.652   6.373
14051TIP3    H142030   6.096   0.626   6.336
14051TIP3    H242031   6.032   0.727   6.429
14052TIP3   OH242032   2.003   8.206   4.568
14052TIP3    H142033   2.060   8.247   4.502
14052TIP3    H242034   2.044   8.229   4.651
14053TIP3   OH242035   7.116   2.627   4.937
14053TIP3    H142036   7.196   2.609   4.987
14053TIP3    H242037   7.103   2.548   4.885
14054TIP3   OH242038   8.240   8.000   7.256
14054TIP3    H142039   8.286   7.954   7.185
14054TIP3    H242040   8.260   8.093   7.241
14055TIP3   OH242041   4.973   5.178   5.948
14055TIP3    H142042   4.911   5.250   5.959
14055TIP3    H242043   4.970   5.131   6.032
14056TIP3   OH242044   0.808   3.964   4.172
14056TIP3    H142045   0.838   3.908   4.244
14056TIP3    H242046   0.876   3.955   4.105
14057TIP3   OH242047   8.993   2.627   0.908
14057TIP3    H142048   8.927   2.614   0.840
14057TIP3    H242049   9.001   2.722   0.917
14058TIP3   OH242050   3.666   2.066   2.070
14058TIP3    H142051   3.602   2.024   2.014
14058TIP3    H242052   3.750   2.028   2.043
14059TIP3   OH242053   8.071   7.749   0.611
14059TIP3    H142054   8.038   7.826   0.565
14059TIP3    H242055   8.047   7.764   0.703
14060TIP3   OH242056   8.335   8.934   0.426
14060TIP3    H142057   8.388   8.915   0.504
14060TIP3    H242058   8.388   8.995   0.375
14061TIP3   OH242059   5.587   2.566   6.846
14061TIP3    H142060   5.544   2.532   6.768
14061TIP3    H242061   5.623   2.489   6.890
14062TIP3   OH242062   3.747   4.915   3.772
14062TIP3    H142063   3.767   4.870   3.854
14062TIP3    H242064   3.656   4.891   3.754
14063TIP3   OH242065   8.982   1.631   3.024
14063TIP3    H142066   8.940   1.546   3.038
14063TIP3    H242067   9.072   1.610   2.999
14064TIP3   OH242068   5.309   2.556   7.237
14064TIP3    H142069   5.350   2.619   7.178
14064TIP3    H242070   5.363   2.557   7.315
14065TIP3   OH242071   8.280   1.188   6.368
14065TIP3    H142072   8.332   1.212   6.291
14065TIP3    H242073   8.344   1.185   6.439
14066TIP3   OH242074   0.275   8.325   3.703
14066TIP3    H142075   0.222   8.351   3.628
14066TIP3    H242076   0.282   8.229   3.696
14067TIP3   OH242077   0.221   8.135   0.840
14067TIP3    H142078   0.142   8.178   0.808
14067TIP3    H242079   0.265   8.201   0.893
14068TIP3   OH242080   2.477   0.368   2.137
14068TIP3    H142081   2.523   0.419   2.204
14068TIP3    H242082   2.389   0.355   2.173
14069TIP3   OH242083   5.718   0.728   1.142
14069TIP3    H142084   5.700   0.767   1.056
14069TIP3    H242085   5.724   0.634   1.125
14070TIP3   OH242086   2.163   4.417   7.815
14070TIP3    H142087   2.086   4.444   7.864
14070TIP3    H242088   2.131   4.398   7.727
14071TIP3   OH242089   3.230   5.546   6.963
14071TIP3    H142090   3.213   5.493   7.041
14071TIP3    H242091   3.171   5.621   6.972
14072TIP3   OH242092   4.647   2.823   0.123
14072TIP3    H142093   4.725   2.775   0.097
14072TIP3    H242094   4.674   2.872   0.201
14073TIP3   OH242095   2.431   8.673   2.252
14073TIP3    H142096   2.380   8.627   2.319
14073TIP3    H242097   2.438   8.611   2.180
14074TIP3   OH242098   7.442   6.515   2.236
14074TIP3    H142099   7.525   6.469   2.243
14074TIP3    H242100   7.375   6.449   2.254
14075TIP3   OH242101   8.530   5.830   5.156
14075TIP3    H142102   8.507   5.897   5.221
14075TIP3    H242103   8.490   5.750   5.189
14076TIP3   OH242104   5.173   2.100   4.452
14076TIP3    H142105   5.235   2.124   4.383
14076TIP3    H242106   5.146   2.184   4.489
14077TIP3   OH242107   7.816   4.522   5.313
14077TIP3    H142108   7.841   4.613   5.330
14077TIP3    H242109   7.899   4.473   5.318
14078TIP3   OH242110   7.570   1.271   4.925
14078TIP3    H142111   7.654   1.259   4.969
14078TIP3    H242112   7.542   1.183   4.901
14079TIP3   OH242113   4.340   6.855   5.484
14079TIP3    H142114   4.429   6.885   5.466
14079TIP3    H242115   4.348   6.760   5.490
14080TIP3   OH242116   0.439   5.723   5.004
14080TIP3    H142117   0.419   5.783   5.076
14080TIP3    H242118   0.477   5.778   4.937
14081TIP3   OH242119   0.152   8.990   1.218
14081TIP3    H142120   0.169   9.008   1.126
14081TIP3    H242121   0.238   8.973   1.256
14082TIP3   OH242122   8.365   1.411   5.231
14082TIP3    H142123   8.375   1.454   5.316
14082TIP3    H242124   8.307   1.469   5.182
14083TIP3   OH242125   7.560   8.134   7.684
14083TIP3    H142126   7.489   8.136   7.620
14083TIP3    H242127   7.525   8.181   7.760
14084TIP3   OH242128   0.783   8.430   7.082
14084TIP3    H142129   0.739   8.433   7.167
14084TIP3    H242130   0.806   8.520   7.063
14085TIP3   OH242131   2.289   2.854   2.423
14085TIP3    H142132   2.279   2.942   2.387
14085TIP3    H242133   2.241   2.856   2.506
14086TIP3   OH242134   7.313   8.061   3.841
14086TIP3    H142135   7.376   8.001   3.801
14086TIP3    H242136   7.232   8.010   3.847
14087TIP3   OH242137   7.740   6.172   3.084
14087TIP3    H142138   7.682   6.172   3.008
14087TIP3    H242139   7.828   6.179   3.048
14088TIP3   OH242140   8.667   3.691   1.074
14088TIP3    H142141   8.738   3.649   1.024
14088TIP3    H242142   8.591   3.682   1.017
14089TIP3   OH242143   0.657   7.693   5.999
14089TIP3    H142144   0.678   7.612   5.951
14089TIP3    H242145   0.638   7.664   6.088
14090TIP3   OH242146   0.044   2.565   1.542
14090TIP3    H142147   0.102   2.533   1.473
14090TIP3    H242148   0.063   2.658   1.549
14091TIP3   OH242149   7.254   8.814   5.608
14091TIP3    H142150   7.291   8.857   5.531
14091TIP3    H242151   7.289   8.724   5.603
14092TIP3   OH242152   7.687   0.803   6.446
14092TIP3    H142153   7.732   0.799   6.531
14092TIP3    H242154   7.748   0.762   6.385
14093TIP3   OH242155   0.641   0.672   0.222
14093TIP3    H142156   0.587   0.746   0.195
14093TIP3    H242157   0.583   0.596   0.215
14094TIP3   OH242158   1.841   3.020   5.534
14094TIP3    H142159   1.927   2.981   5.547
14094TIP3    H242160   1.788   2.950   5.496
14095TIP3   OH242161   0.261   8.208   7.650
14095TIP3    H142162   0.202   8.225   7.723
14095TIP3    H242163   0.203   8.189   7.576
14096TIP3   OH242164   4.806   8.409   0.138
14096TIP3    H142165   4.751   8.333   0.154
14096TIP3    H242166   4.744   8.479   0.115
14097TIP3   OH242167   3.113   4.076   5.334
14097TIP3    H142168   3.117   4.145   5.267
14097TIP3    H242169   3.035   4.098   5.386
14098TIP3   OH242170   5.283   5.615   3.531
14098TIP3    H142171   5.366   5.664   3.523
14098TIP3    H242172   5.261   5.621   3.624
14099TIP3   OH242173   0.236   6.511   7.037
14099TIP3    H142174   0.306   6.550   6.985
14099TIP3    H242175   0.256   6.537   7.127
14100TIP3   OH242176   3.931   2.158   2.658
14100TIP3    H142177   3.868   2.227   2.638
14100TIP3    H242178   3.969   2.134   2.574
14101TIP3   OH242179   9.256   0.683   1.557
14101TIP3    H142180   9.208   0.608   1.521
14101TIP3    H242181   9.347   0.669   1.530
14102TIP3   OH242182   2.129   0.624   1.978
14102TIP3    H142183   2.047   0.592   2.015
14102TIP3    H242184   2.128   0.594   1.887
14103TIP3   OH242185   7.043   8.620   5.521
14103TIP3    H142186   7.024   8.634   5.614
14103TIP3    H242187   7.132   8.585   5.520
14104TIP3   OH242188   5.628   8.059   6.356
14104TIP3    H142189   5.620   8.139   6.408
14104TIP3    H242190   5.698   8.078   6.294
14105TIP3   OH242191   7.073   2.904   0.950
14105TIP3    H142192   7.066   2.989   0.906
14105TIP3    H242193   7.108   2.845   0.883
14106TIP3   OH242194   6.452   5.399   5.588
14106TIP3    H142195   6.540   5.363   5.595
14106TIP3    H242196   6.462   5.492   5.610
14107TIP3   OH242197   4.552   6.995   3.925
14107TIP3    H142198   4.473   7.020   3.972
14107TIP3    H242199   4.596   7.078   3.906
14108TIP3   OH242200   9.102   5.686   5.842
14108TIP3    H142201   9.100   5.781   5.833
14108TIP3    H242202   9.074   5.670   5.932
14109TIP3   OH242203   3.245   8.080   2.939
14109TIP3    H142204   3.229   7.993   2.975
14109TIP3    H242205   3.165   8.129   2.957
14110TIP3   OH242206   2.238   5.924   6.655
14110TIP3    H142207   2.328   5.958   6.648
14110TIP3    H242208   2.185   5.987   6.606
14111TIP3   OH242209   6.752   8.665   2.307
14111TIP3    H142210   6.843   8.678   2.280
14111TIP3    H242211   6.716   8.606   2.241
14112TIP3   OH242212   8.068   2.692   1.337
14112TIP3    H142213   8.099   2.619   1.283
14112TIP3    H242214   7.979   2.710   1.305
14113TIP3   OH242215   4.821   4.681   6.306
14113TIP3    H142216   4.827   4.615   6.237
14113TIP3    H242217   4.903   4.673   6.354
14114TIP3   OH242218   8.000   1.180   1.329
14114TIP3    H142219   7.918   1.131   1.334
14114TIP3    H242220   7.972   1.271   1.314
14115TIP3   OH242221   1.653   8.948   0.832
14115TIP3    H142222   1.588   8.880   0.848
14115TIP3    H242223   1.713   8.910   0.768
14116TIP3   OH242224   6.824   7.049   1.212
14116TIP3    H142225   6.751   7.093   1.256
14116TIP3    H242226   6.836   7.099   1.131
14117TIP3   OH242227   3.376   2.731   2.001
14117TIP3    H142228   3.296   2.693   1.967
14117TIP3    H242229   3.376   2.709   2.094
14118TIP3   OH242230   8.090   2.095   4.503
14118TIP3    H142231   8.116   2.069   4.415
14118TIP3    H242232   8.010   2.045   4.520
14119TIP3   OH242233   4.833   3.546   6.096
14119TIP3    H142234   4.889   3.488   6.148
14119TIP3    H242235   4.829   3.504   6.010
14120TIP3   OH242236   4.890   2.118   2.688
14120TIP3    H142237   4.902   2.095   2.780
14120TIP3    H242238   4.978   2.128   2.654
14121TIP3   OH242239   4.488   3.479   1.854
14121TIP3    H142240   4.471   3.534   1.777
14121TIP3    H242241   4.582   3.462   1.851
14122TIP3   OH242242   0.272   6.661   3.676
14122TIP3    H142243   0.241   6.752   3.685
14122TIP3    H242244   0.362   6.664   3.707
14123TIP3   OH242245   1.621   5.139   5.402
14123TIP3    H142246   1.590   5.186   5.325
14123TIP3    H242247   1.716   5.132   5.389
14124TIP3   OH242248   3.590   5.185   6.755
14124TIP3    H142249   3.592   5.249   6.683
14124TIP3    H242250   3.598   5.100   6.711
14125TIP3   OH242251   9.347   8.768   4.866
14125TIP3    H142252   9.427   8.820   4.874
14125TIP3    H242253   9.277   8.833   4.856
14126TIP3   OH242254   0.683   7.937   4.324
14126TIP3    H142255   0.661   7.851   4.360
14126TIP3    H242256   0.651   7.999   4.389
14127TIP3   OH242257   2.464   2.314   5.327
14127TIP3    H142258   2.480   2.220   5.333
14127TIP3    H242259   2.543   2.354   5.365
14128TIP3   OH242260   7.579   6.003   3.733
14128TIP3    H142261   7.562   5.920   3.689
14128TIP3    H242262   7.595   6.065   3.662
14129TIP3   OH242263   9.135   3.307   5.631
14129TIP3    H142264   9.090   3.389   5.652
14129TIP3    H242265   9.218   3.335   5.591
14130TIP3   OH242266   9.500   5.177   4.455
14130TIP3    H142267   9.423   5.179   4.399
14130TIP3    H242268   9.503   5.264   4.495
14131TIP3   OH242269   9.295   4.495   5.391
14131TIP3    H142270   9.299   4.576   5.442
14131TIP3    H242271   9.237   4.439   5.441
14132TIP3   OH242272   6.949   8.787   3.497
14132TIP3    H142273   6.965   8.710   3.443
14132TIP3    H242274   6.951   8.860   3.435
14133TIP3   OH242275   7.913   1.747   7.073
14133TIP3    H142276   7.906   1.655   7.100
14133TIP3    H242277   7.999   1.752   7.031
14134TIP3   OH242278   8.703   2.930   4.248
14134TIP3    H142279   8.702   2.852   4.304
14134TIP3    H242280   8.691   2.897   4.159
14135TIP3   OH242281   9.488   0.963   1.545
14135TIP3    H142282   9.411   0.942   1.493
14135TIP3    H242283   9.480   0.907   1.623
14136TIP3   OH242284   3.610   6.291   2.867
14136TIP3    H142285   3.676   6.344   2.823
14136TIP3    H242286   3.532   6.298   2.812
14137TIP3   OH242287   3.305   7.356   0.734
14137TIP3    H142288   3.280   7.364   0.642
14137TIP3    H242289   3.228   7.320   0.778
14138TIP3   OH242290   1.143   0.099   5.999
14138TIP3    H142291   1.147   0.194   5.994
14138TIP3    H242292   1.218   0.069   5.947
14139TIP3   OH242293   6.597   6.383   1.570
14139TIP3    H142294   6.675   6.420   1.609
14139TIP3    H242295   6.572   6.311   1.628
14140TIP3   OH242296   7.006   0.302   3.992
14140TIP3    H142297   6.958   0.232   3.948
14140TIP3    H242298   7.046   0.352   3.921
14141TIP3   OH242299   6.120   2.416   0.833
14141TIP3    H142300   6.030   2.391   0.856
14141TIP3    H242301   6.151   2.466   0.909
14142TIP3   OH242302   7.156   5.829   0.770
14142TIP3    H142303   7.067   5.809   0.741
14142TIP3    H242304   7.156   5.812   0.864
14143TIP3   OH242305   4.892   4.102   5.031
14143TIP3    H142306   4.892   4.087   4.936
14143TIP3    H242307   4.951   4.176   5.044
14144TIP3   OH242308   4.044   7.431   3.948
14144TIP3    H142309   4.040   7.412   3.854
14144TIP3    H242310   4.135   7.414   3.972
14145TIP3   OH242311   1.500   8.101   7.517
14145TIP3    H142312   1.541   8.047   7.449
14145TIP3    H242313   1.435   8.153   7.470
14146TIP3   OH242314   7.469   4.605   6.179
14146TIP3    H142315   7.562   4.611   6.203
14146TIP3    H242316   7.469   4.597   6.084
14147TIP3   OH242317   0.789   5.427   3.563
14147TIP3    H142318   0.748   5.504   3.526
14147TIP3    H242319   0.775   5.358   3.499
14148TIP3   OH242320   8.139   2.691   3.326
14148TIP3    H142321   8.162   2.690   3.233
14148TIP3    H242322   8.121   2.600   3.348
14149TIP3   OH242323   4.291   0.467   0.193
14149TIP3    H142324   4.375   0.444   0.153
14149TIP3    H242325   4.242   0.512   0.124
14150TIP3   OH242326   7.483   2.465   1.616
14150TIP3    H142327   7.558   2.479   1.558
14150TIP3    H242328   7.474   2.548   1.664
14151TIP3   OH242329   5.242   4.859   5.827
14151TIP3    H142330   5.161   4.846   5.876
14151TIP3    H242331   5.309   4.815   5.879
14152TIP3   OH242332   0.880   2.494   2.576
14152TIP3    H142333   0.911   2.550   2.647
14152TIP3    H242334   0.848   2.555   2.510
14153TIP3   OH242335   1.620   3.611   6.355
14153TIP3    H142336   1.560   3.547   6.393
14153TIP3    H242337   1.564   3.683   6.325
14154TIP3   OH242338   7.200   0.859   1.528
14154TIP3    H142339   7.196   0.844   1.622
14154TIP3    H242340   7.293   0.858   1.507
14155TIP3   OH242341   4.161   0.754   3.172
14155TIP3    H142342   4.141   0.668   3.207
14155TIP3    H242343   4.240   0.741   3.120
14156TIP3   OH242344   7.298   6.994   7.310
14156TIP3    H142345   7.348   7.064   7.267
14156TIP3    H242346   7.217   6.989   7.260
14157TIP3   OH242347   0.886   0.661   4.670
14157TIP3    H142348   0.935   0.721   4.726
14157TIP3    H242349   0.808   0.711   4.644
14158TIP3   OH242350   8.768   5.459   1.362
14158TIP3    H142351   8.717   5.438   1.440
14158TIP3    H242352   8.799   5.375   1.329
14159TIP3   OH242353   3.705   6.793   2.811
14159TIP3    H142354   3.687   6.748   2.894
14159TIP3    H242355   3.629   6.773   2.756
14160TIP3   OH242356   1.449   6.244   6.405
14160TIP3    H142357   1.397   6.286   6.474
14160TIP3    H242358   1.540   6.252   6.435
14161TIP3   OH242359   2.365   2.605   4.242
14161TIP3    H142360   2.359   2.698   4.222
14161TIP3    H242361   2.377   2.562   4.157
14162TIP3   OH242362   1.130   1.605   0.925
14162TIP3    H142363   1.178   1.685   0.943
14162TIP3    H242364   1.165   1.575   0.840
14163TIP3   OH242365   4.392   2.399   0.895
14163TIP3    H142366   4.376   2.455   0.971
14163TIP3    H242367   4.313   2.406   0.842
14164TIP3   OH242368   3.576   5.752   4.521
14164TIP3    H142369   3.552   5.837   4.483
14164TIP3    H242370   3.659   5.769   4.566
14165TIP3   OH242371   6.028   5.025   0.118
14165TIP3    H142372   5.977   5.105   0.104
14165TIP3    H242373   6.117   5.048   0.090
14166TIP3   OH242374   5.031   2.288   7.171
14166TIP3    H142375   5.118   2.249   7.171
14166TIP3    H242376   5.044   2.377   7.137
14167TIP3   OH242377   0.151   5.827   6.329
14167TIP3    H142378   0.197   5.745   6.308
14167TIP3    H242379   0.151   5.830   6.425
14168TIP3   OH242380   3.256   1.827   1.827
14168TIP3    H142381   3.201   1.905   1.821
14168TIP3    H242382   3.263   1.796   1.736
14169TIP3   OH242383   1.958   0.980   3.915
14169TIP3    H142384   1.929   0.997   4.004
14169TIP3    H242385   2.050   1.005   3.914
14170TIP3   OH242386   6.224   2.054   1.959
14170TIP3    H142387   6.311   2.093   1.962
14170TIP3    H242388   6.221   1.997   2.035
14171TIP3   OH242389   4.496   2.877   4.519
14171TIP3    H142390   4.408   2.916   4.523
14171TIP3    H242391   4.549   2.931   4.577
14172TIP3   OH242392   5.628   2.236   6.926
14172TIP3    H142393   5.654   2.173   6.859
14172TIP3    H242394   5.593   2.182   6.997
14173TIP3   OH242395   8.164   7.059   5.166
14173TIP3    H142396   8.240   7.021   5.123
14173TIP3    H242397   8.170   7.028   5.256
14174TIP3   OH242398   4.332   4.162   7.292
14174TIP3    H142399   4.347   4.254   7.315
14174TIP3    H242400   4.239   4.148   7.310
14175TIP3   OH242401   4.880   3.226   4.707
14175TIP3    H142402   4.890   3.312   4.666
14175TIP3    H242403   4.859   3.245   4.799
14176TIP3   OH242404   7.000   1.133   4.966
14176TIP3    H142405   7.063   1.064   4.943
14176TIP3    H242406   6.981   1.176   4.882
14177TIP3   OH242407   9.468   8.030   6.526
14177TIP3    H142408   9.382   8.073   6.529
14177TIP3    H242409   9.451   7.944   6.488
14178TIP3   OH242410   6.253   6.779   1.861
14178TIP3    H142411   6.276   6.826   1.781
14178TIP3    H242412   6.337   6.758   1.902
14179TIP3   OH242413   4.113   4.660   6.550
14179TIP3    H142414   4.054   4.585   6.560
14179TIP3    H242415   4.200   4.622   6.552
14180TIP3   OH242416   2.295   7.988   7.056
14180TIP3    H142417   2.374   8.009   7.006
14180TIP3    H242418   2.228   7.972   6.990
14181TIP3   OH242419   4.401   6.826   3.196
14181TIP3    H142420   4.314   6.865   3.208
14181TIP3    H242421   4.421   6.784   3.279
14182TIP3   OH242422   1.135   3.578   1.992
14182TIP3    H142423   1.154   3.508   2.055
14182TIP3    H242424   1.142   3.536   1.906
14183TIP3   OH242425   6.945   3.537   3.301
14183TIP3    H142426   6.852   3.524   3.323
14183TIP3    H242427   6.950   3.628   3.273
14184TIP3   OH242428   1.187   2.700   2.639
14184TIP3    H142429   1.137   2.749   2.574
14184TIP3    H242430   1.167   2.743   2.722
14185TIP3   OH242431   7.173   1.099   6.321
14185TIP3    H142432   7.130   1.062   6.398
14185TIP3    H242433   7.168   1.030   6.255
14186TIP3   OH242434   1.602   1.204   5.945
14186TIP3    H142435   1.598   1.295   5.975
14186TIP3    H242436   1.663   1.162   6.004
14187TIP3   OH242437   1.156   4.120   3.332
14187TIP3    H142438   1.200   4.204   3.343
14187TIP3    H242439   1.147   4.110   3.237
14188TIP3   OH242440   9.198   3.443   2.596
14188TIP3    H142441   9.190   3.502   2.521
14188TIP3    H242442   9.153   3.363   2.568
14189TIP3   OH242443   2.769   4.203   7.630
14189TIP3    H142444   2.730   4.167   7.710
14189TIP3    H242445   2.824   4.275   7.661
14190TIP3   OH242446   3.882   4.916   2.498
14190TIP3    H142447   3.842   4.837   2.534
14190TIP3    H242448   3.921   4.960   2.573
14191TIP3   OH242449   0.774   2.553   0.533
14191TIP3    H142450   0.708   2.552   0.464
14191TIP3    H242451   0.855   2.528   0.489
14192TIP3   OH242452   8.452   4.868   6.906
14192TIP3    H142453   8.384   4.888   6.841
14192TIP3    H242454   8.414   4.798   6.959
14193TIP3   OH242455   2.935   1.749   6.193
14193TIP3    H142456   2.872   1.712   6.254
14193TIP3    H242457   2.948   1.839   6.224
14194TIP3   OH242458   0.757   5.652   2.819
14194TIP3    H142459   0.699   5.579   2.843
14194TIP3    H242460   0.699   5.717   2.779
14195TIP3   OH242461   6.852   5.483   3.451
14195TIP3    H142462   6.861   5.578   3.459
14195TIP3    H242463   6.935   5.455   3.413
14196TIP3   OH242464   2.544   7.830   0.764
14196TIP3    H142465   2.639   7.828   0.751
14196TIP3    H242466   2.511   7.884   0.692
14197TIP3   OH242467   1.816   2.615   5.499
14197TIP3    H142468   1.787   2.538   5.450
14197TIP3    H242469   1.899   2.589   5.538
14198TIP3   OH242470   1.732   3.727   7.045
14198TIP3    H142471   1.717   3.747   6.952
14198TIP3    H242472   1.826   3.740   7.057
14199TIP3   OH242473   1.217   4.293   5.266
14199TIP3    H142474   1.268   4.289   5.346
14199TIP3    H242475   1.195   4.202   5.247
14200TIP3   OH242476   2.175   0.739   2.655
14200TIP3    H142477   2.082   0.741   2.675
14200TIP3    H242478   2.201   0.647   2.667
14201TIP3   OH242479   7.160   0.996   6.086
14201TIP3    H142480   7.181   1.070   6.030
14201TIP3    H242481   7.240   0.944   6.089
14202TIP3   OH242482   7.594   8.116   7.214
14202TIP3    H142483   7.648   8.148   7.286
14202TIP3    H242484   7.656   8.096   7.144
14203TIP3   OH242485   3.435   8.485   1.084
14203TIP3    H142486   3.340   8.469   1.082
14203TIP3    H242487   3.443   8.576   1.110
14204TIP3   OH242488   7.331   4.955   3.221
14204TIP3    H142489   7.288   4.967   3.306
14204TIP3    H242490   7.295   5.024   3.166
14205TIP3   OH242491   3.803   1.189   6.901
14205TIP3    H142492   3.843   1.272   6.873
14205TIP3    H242493   3.876   1.127   6.904
14206TIP3   OH242494   0.333   0.424   3.317
14206TIP3    H142495   0.264   0.440   3.252
14206TIP3    H242496   0.369   0.512   3.335
14207TIP3   OH242497   8.118   2.492   2.865
14207TIP3    H142498   8.066   2.418   2.831
14207TIP3    H242499   8.184   2.508   2.799
14208TIP3   OH242500   5.575   5.634   1.316
14208TIP3    H142501   5.509   5.577   1.275
14208TIP3    H242502   5.646   5.575   1.339
14209TIP3   OH242503   5.155   2.515   3.111
14209TIP3    H142504   5.085   2.538   3.172
14209TIP3    H242505   5.146   2.420   3.099
14210TIP3   OH242506   7.874   0.918   2.037
14210TIP3    H142507   7.853   0.894   2.127
14210TIP3    H242508   7.796   0.961   2.004
14211TIP3   OH242509   2.806   0.735   0.047
14211TIP3    H142510   2.740   0.698   0.105
14211TIP3    H242511   2.848   0.659   0.006
14212TIP3   OH242512   6.663   4.482   3.342
14212TIP3    H142513   6.667   4.411   3.277
14212TIP3    H242514   6.720   4.550   3.307
14213TIP3   OH242515   7.311   4.670   5.567
14213TIP3    H142516   7.239   4.733   5.579
14213TIP3    H242517   7.389   4.725   5.555
14214TIP3   OH242518   8.602   7.234   1.858
14214TIP3    H142519   8.668   7.167   1.876
14214TIP3    H242520   8.531   7.186   1.814
14215TIP3   OH242521   4.255   4.713   0.524
14215TIP3    H142522   4.186   4.701   0.589
14215TIP3    H242523   4.335   4.724   0.576
14216TIP3   OH242524   4.249   6.922   6.403
14216TIP3    H142525   4.210   6.867   6.335
14216TIP3    H242526   4.343   6.912   6.390
14217TIP3   OH242527   0.553   3.028   3.737
14217TIP3    H142528   0.616   2.958   3.717
14217TIP3    H242529   0.477   3.008   3.682
14218TIP3   OH242530   0.028   6.613   7.527
14218TIP3    H142531   0.071   6.628   7.612
14218TIP3    H242532  -0.053   6.663   7.532
14219TIP3   OH242533   2.641   8.398   5.333
14219TIP3    H142534   2.645   8.333   5.263
14219TIP3    H242535   2.679   8.477   5.294
14220TIP3   OH242536   8.587   3.214   7.631
14220TIP3    H142537   8.562   3.273   7.559
14220TIP3    H242538   8.567   3.126   7.597
14221TIP3   OH242539   2.097   3.233   3.027
14221TIP3    H142540   2.132   3.303   2.971
14221TIP3    H242541   2.024   3.196   2.976
14222TIP3   OH242542   2.999   4.292   1.614
14222TIP3    H142543   2.939   4.364   1.596
14222TIP3    H242544   2.943   4.220   1.641
14223TIP3   OH242545   8.647   0.092   0.387
14223TIP3    H142546   8.717   0.027   0.399
14223TIP3    H242547   8.664   0.157   0.456
14224TIP3   OH242548   4.153   5.961   2.161
14224TIP3    H142549   4.111   6.044   2.139
14224TIP3    H242550   4.207   5.982   2.238
14225TIP3   OH242551   3.287   7.422   2.635
14225TIP3    H142552   3.219   7.486   2.655
14225TIP3    H242553   3.359   7.475   2.601
14226TIP3   OH242554   6.959   2.804   3.993
14226TIP3    H142555   6.899   2.730   4.002
14226TIP3    H242556   6.931   2.848   3.913
14227TIP3   OH242557   1.510   5.541   2.088
14227TIP3    H142558   1.529   5.601   2.160
14227TIP3    H242559   1.556   5.579   2.013
14228TIP3   OH242560   6.403   5.513   2.293
14228TIP3    H142561   6.471   5.537   2.357
14228TIP3    H242562   6.328   5.489   2.347
14229TIP3   OH242563   3.812   1.068   6.208
14229TIP3    H142564   3.800   1.106   6.121
14229TIP3    H242565   3.725   1.036   6.232
14230TIP3   OH242566   5.800   5.881   2.263
14230TIP3    H142567   5.874   5.823   2.247
14230TIP3    H242568   5.725   5.822   2.269
14231TIP3   OH242569   8.373   8.765   4.037
14231TIP3    H142570   8.369   8.859   4.053
14231TIP3    H242571   8.285   8.742   4.007
14232TIP3   OH242572   9.036   1.910   0.616
14232TIP3    H142573   9.130   1.893   0.616
14232TIP3    H242574   9.027   1.992   0.567
14233TIP3   OH242575   1.932   6.687   0.678
14233TIP3    H142576   2.010   6.742   0.676
14233TIP3    H242577   1.965   6.599   0.661
14234TIP3   OH242578   8.914   5.635   1.119
14234TIP3    H142579   8.981   5.599   1.177
14234TIP3    H242580   8.845   5.664   1.177
14235TIP3   OH242581   1.855   7.550   5.234
14235TIP3    H142582   1.839   7.456   5.236
14235TIP3    H242583   1.789   7.587   5.293
14236TIP3   OH242584   3.930   2.514   3.286
14236TIP3    H142585   3.883   2.537   3.206
14236TIP3    H242586   3.873   2.450   3.330
14237TIP3   OH242587   2.805   6.645   2.466
14237TIP3    H142588   2.886   6.602   2.492
14237TIP3    H242589   2.799   6.722   2.523
14238TIP3   OH242590   7.215   7.405   6.531
14238TIP3    H142591   7.203   7.377   6.440
14238TIP3    H242592   7.201   7.326   6.583
14239TIP3   OH242593   7.848   3.437   6.661
14239TIP3    H142594   7.817   3.473   6.743
14239TIP3    H242595   7.942   3.459   6.659
14240TIP3   OH242596   1.413   5.096   1.182
14240TIP3    H142597   1.351   5.159   1.148
14240TIP3    H242598   1.396   5.016   1.133
14241TIP3   OH242599   4.656   4.858   4.875
14241TIP3    H142600   4.738   4.867   4.923
14241TIP3    H242601   4.677   4.885   4.785
14242TIP3   OH242602   2.798   1.840   2.572
14242TIP3    H142603   2.828   1.906   2.634
14242TIP3    H242604   2.878   1.812   2.527
14243TIP3   OH242605   3.267   2.270   6.735
14243TIP3    H142606   3.266   2.231   6.648
14243TIP3    H242607   3.235   2.200   6.793
14244TIP3   OH242608   4.835   5.406   2.957
14244TIP3    H142609   4.867   5.489   2.921
14244TIP3    H242610   4.757   5.387   2.905
14245TIP3   OH242611   3.476   5.555   0.794
14245TIP3    H142612   3.508   5.609   0.722
14245TIP3    H242613   3.552   5.542   0.851
14246TIP3   OH242614   5.650   7.397   6.710
14246TIP3    H142615   5.651   7.423   6.802
14246TIP3    H242616   5.741   7.374   6.691
14247TIP3   OH242617   6.318   8.588   6.814
14247TIP3    H142618   6.362   8.509   6.847
14247TIP3    H242619   6.342   8.591   6.722
14248TIP3   OH242620   4.298   1.750   6.327
14248TIP3    H142621   4.372   1.707   6.370
14248TIP3    H242622   4.253   1.795   6.399
14249TIP3   OH242623   2.578   8.409   7.043
14249TIP3    H142624   2.594   8.316   7.027
14249TIP3    H242625   2.564   8.414   7.138
14250TIP3   OH242626   1.593   3.449   2.741
14250TIP3    H142627   1.562   3.379   2.799
14250TIP3    H242628   1.638   3.510   2.800
14251TIP3   OH242629   0.927   2.129   0.285
14251TIP3    H142630   0.875   2.098   0.211
14251TIP3    H242631   0.862   2.151   0.352
14252TIP3   OH242632   6.433   1.343   7.457
14252TIP3    H142633   6.484   1.417   7.424
14252TIP3    H242634   6.341   1.369   7.444
14253TIP3   OH242635   6.919   4.390   4.783
14253TIP3    H142636   6.940   4.301   4.810
14253TIP3    H242637   6.887   4.382   4.693
14254TIP3   OH242638   0.531   7.408   5.777
14254TIP3    H142639   0.459   7.461   5.812
14254TIP3    H242640   0.552   7.449   5.694
14255TIP3   OH242641   7.604   8.688   2.274
14255TIP3    H142642   7.628   8.595   2.270
14255TIP3    H242643   7.605   8.709   2.367
14256TIP3   OH242644   8.828   5.795   0.860
14256TIP3    H142645   8.747   5.844   0.849
14256TIP3    H242646   8.819   5.752   0.945
14257TIP3   OH242647   4.329   8.747   7.599
14257TIP3    H142648   4.358   8.677   7.541
14257TIP3    H242649   4.244   8.717   7.632
14258TIP3   OH242650   0.623   7.282   4.435
14258TIP3    H142651   0.688   7.301   4.367
14258TIP3    H242652   0.673   7.242   4.505
14259TIP3   OH242653   5.271   4.937   6.300
14259TIP3    H142654   5.205   4.978   6.356
14259TIP3    H242655   5.280   4.996   6.226
14260TIP3   OH242656   6.959   2.259   7.085
14260TIP3    H142657   7.002   2.251   7.000
14260TIP3    H242658   7.005   2.331   7.129
14261TIP3   OH242659   5.200   4.463   5.468
14261TIP3    H142660   5.182   4.377   5.505
14261TIP3    H242661   5.266   4.501   5.526
14262TIP3   OH242662   5.610   5.047   5.130
14262TIP3    H142663   5.664   5.024   5.054
14262TIP3    H242664   5.649   4.998   5.202
14263TIP3   OH242665   8.272   3.726   1.832
14263TIP3    H142666   8.206   3.743   1.899
14263TIP3    H242667   8.293   3.812   1.796
14264TIP3   OH242668   2.613   0.748   1.352
14264TIP3    H142669   2.699   0.778   1.381
14264TIP3    H242670   2.576   0.821   1.303
14265TIP3   OH242671   1.632   6.096   4.386
14265TIP3    H142672   1.694   6.137   4.445
14265TIP3    H242673   1.617   6.009   4.423
14266TIP3   OH242674   2.403   5.284   6.948
14266TIP3    H142675   2.316   5.324   6.956
14266TIP3    H242676   2.392   5.216   6.882
14267TIP3   OH242677   6.177   4.706   3.010
14267TIP3    H142678   6.082   4.696   3.000
14267TIP3    H242679   6.201   4.643   3.077
14268TIP3   OH242680   1.435   0.320   6.582
14268TIP3    H142681   1.438   0.296   6.490
14268TIP3    H242682   1.477   0.247   6.628
14269TIP3   OH242683   0.189   4.909   5.493
14269TIP3    H142684   0.248   4.975   5.458
14269TIP3    H242685   0.133   4.885   5.419
14270TIP3   OH242686   4.109   5.726   3.157
14270TIP3    H142687   4.057   5.791   3.108
14270TIP3    H242688   4.181   5.777   3.194
14271TIP3   OH242689   4.522   5.185   7.653
14271TIP3    H142690   4.559   5.273   7.657
14271TIP3    H242691   4.579   5.139   7.591
14272TIP3   OH242692   6.639   2.615   6.076
14272TIP3    H142693   6.594   2.675   6.136
14272TIP3    H242694   6.569   2.561   6.040
14273TIP3   OH242695   5.409   1.685   6.332
14273TIP3    H142696   5.377   1.722   6.414
14273TIP3    H242697   5.387   1.751   6.266
14274TIP3   OH242698   2.801   1.154   2.589
14274TIP3    H142699   2.874   1.102   2.553
14274TIP3    H242700   2.836   1.243   2.594
14275TIP3   OH242701   5.619   4.622   1.644
14275TIP3    H142702   5.670   4.698   1.673
14275TIP3    H242703   5.584   4.648   1.558
14276TIP3   OH242704   1.890   0.621   4.511
14276TIP3    H142705   1.953   0.686   4.480
14276TIP3    H242706   1.848   0.588   4.431
14277TIP3   OH242707   0.572   2.981   2.102
14277TIP3    H142708   0.627   2.997   2.024
14277TIP3    H242709   0.487   3.017   2.079
14278TIP3   OH242710   1.047   7.460   4.058
14278TIP3    H142711   0.991   7.483   4.132
14278TIP3    H242712   1.135   7.486   4.085
14279TIP3   OH242713   8.068   8.484   1.456
14279TIP3    H142714   8.144   8.542   1.454
14279TIP3    H242715   8.013   8.514   1.383
14280TIP3   OH242716   1.173   1.685   2.022
14280TIP3    H142717   1.249   1.735   2.052
14280TIP3    H242718   1.184   1.599   2.063
14281TIP3   OH242719   1.341   3.820   6.964
14281TIP3    H142720   1.318   3.900   6.917
14281TIP3    H242721   1.265   3.763   6.952
14282TIP3   OH242722   2.034   3.011   7.087
14282TIP3    H142723   1.950   2.967   7.072
14282TIP3    H242724   2.064   2.977   7.171
14283TIP3   OH242725   5.527   7.218   2.348
14283TIP3    H142726   5.491   7.129   2.348
14283TIP3    H242727   5.609   7.211   2.398
14284TIP3   OH242728   7.220   6.442   6.084
14284TIP3    H142729   7.289   6.441   6.018
14284TIP3    H242730   7.202   6.349   6.101
14285TIP3   OH242731   3.964   1.657   3.775
14285TIP3    H142732   3.998   1.618   3.855
14285TIP3    H242733   3.981   1.591   3.707
14286TIP3   OH242734   3.233   3.257   3.797
14286TIP3    H142735   3.296   3.326   3.773
14286TIP3    H242736   3.224   3.205   3.717
14287TIP3   OH242737   6.250   5.404   3.628
14287TIP3    H142738   6.247   5.326   3.684
14287TIP3    H242739   6.327   5.452   3.657
14288TIP3   OH242740   7.986   0.165   1.303
14288TIP3    H142741   7.952   0.244   1.259
14288TIP3    H242742   7.962   0.177   1.395
14289TIP3   OH242743   1.219   0.971   3.467
14289TIP3    H142744   1.264   0.892   3.436
14289TIP3    H242745   1.282   1.042   3.451
14290TIP3   OH242746   3.850   6.185   1.483
14290TIP3    H142747   3.820   6.233   1.559
14290TIP3    H242748   3.945   6.186   1.488
14291TIP3   OH242749   8.825   4.997   1.089
14291TIP3    H142750   8.796   4.966   1.004
14291TIP3    H242751   8.873   4.923   1.126
14292TIP3   OH242752   8.265   5.005   5.151
14292TIP3    H142753   8.313   5.002   5.233
14292TIP3    H242754   8.294   5.085   5.108
14293TIP3   OH242755   6.310   3.655   6.157
14293TIP3    H142756   6.380   3.676   6.095
14293TIP3    H242757   6.337   3.573   6.197
14294TIP3   OH242758   7.359   0.070   0.733
14294TIP3    H142759   7.396  -0.011   0.698
14294TIP3    H242760   7.420   0.096   0.803
14295TIP3   OH242761   8.297   4.360   3.805
14295TIP3    H142762   8.226   4.363   3.869
14295TIP3    H242763   8.289   4.274   3.764
14296TIP3   OH242764   2.094   5.337   5.630
14296TIP3    H142765   2.035   5.391   5.578
14296TIP3    H242766   2.132   5.398   5.694
14297TIP3   OH242767   0.166   1.974   3.643
14297TIP3    H142768   0.121   1.998   3.562
14297TIP3    H242769   0.203   2.057   3.675
14298TIP3   OH242770   1.503   5.124   5.851
14298TIP3    H142771   1.572   5.133   5.786
14298TIP3    H242772   1.450   5.204   5.842
14299TIP3   OH242773   5.912   2.241   2.068
14299TIP3    H142774   5.867   2.275   1.991
14299TIP3    H242775   5.931   2.318   2.121
14300TIP3   OH242776   8.442   0.962   4.801
14300TIP3    H142777   8.522   0.928   4.760
14300TIP3    H242778   8.438   1.054   4.773
14301TIP3   OH242779   2.086   2.301   3.455
14301TIP3    H142780   2.049   2.381   3.419
14301TIP3    H242781   2.106   2.322   3.546
14302TIP3   OH242782   7.359   1.494   1.081
14302TIP3    H142783   7.434   1.539   1.119
14302TIP3    H242784   7.396   1.448   1.005
14303TIP3   OH242785   0.187   2.210   5.702
14303TIP3    H142786   0.194   2.191   5.796
14303TIP3    H242787   0.146   2.132   5.665
14304TIP3   OH242788   6.295   2.551   6.404
14304TIP3    H142789   6.283   2.596   6.320
14304TIP3    H242790   6.384   2.517   6.400
14305TIP3   OH242791   1.181   7.521   3.820
14305TIP3    H142792   1.164   7.585   3.889
14305TIP3    H242793   1.229   7.451   3.864
14306TIP3   OH242794   4.585   4.749   6.480
14306TIP3    H142795   4.626   4.836   6.484
14306TIP3    H242796   4.494   4.765   6.507
14307TIP3   OH242797   8.294   7.012   3.570
14307TIP3    H142798   8.204   7.039   3.589
14307TIP3    H242799   8.336   7.091   3.537
14308TIP3   OH242800   3.583   3.994   2.937
14308TIP3    H142801   3.677   3.989   2.956
14308TIP3    H242802   3.578   4.008   2.843
14309TIP3   OH242803   9.428   7.251   5.949
14309TIP3    H142804   9.441   7.293   6.034
14309TIP3    H242805   9.513   7.258   5.905
14310TIP3   OH242806   1.668   2.286   4.671
14310TIP3    H142807   1.695   2.369   4.711
14310TIP3    H242808   1.731   2.222   4.704
14311TIP3   OH242809   4.038   4.018   4.606
14311TIP3    H142810   4.124   3.992   4.574
14311TIP3    H242811   4.009   3.944   4.661
14312TIP3   OH242812   3.684   6.165   6.337
14312TIP3    H142813   3.597   6.178   6.300
14312TIP3    H242814   3.735   6.125   6.267
14313TIP3   OH242815   2.804   6.955   6.548
14313TIP3    H142816   2.874   6.916   6.495
14313TIP3    H242817   2.728   6.956   6.490
14314TIP3   OH242818   8.642   3.861   0.760
14314TIP3    H142819   8.715   3.801   0.740
14314TIP3    H242820   8.664   3.897   0.846
14315TIP3   OH242821   6.354   0.999   1.210
14315TIP3    H142822   6.336   1.003   1.117
14315TIP3    H242823   6.362   0.905   1.229
14316TIP3   OH242824   6.345   4.846   1.617
14316TIP3    H142825   6.384   4.797   1.544
14316TIP3    H242826   6.375   4.800   1.695
14317TIP3   OH242827   7.607   0.572   0.164
14317TIP3    H142828   7.561   0.536   0.088
14317TIP3    H242829   7.637   0.495   0.213
14318TIP3   OH242830   3.738   3.796   0.388
14318TIP3    H142831   3.828   3.772   0.366
14318TIP3    H242832   3.726   3.765   0.478
14319TIP3   OH242833   1.517   5.303   7.461
14319TIP3    H142834   1.571   5.226   7.443
14319TIP3    H242835   1.427   5.272   7.454
14320TIP3   OH242836   9.125   5.302   5.688
14320TIP3    H142837   9.132   5.382   5.636
14320TIP3    H242838   9.214   5.264   5.686
14321TIP3   OH242839   8.086   3.601   1.514
14321TIP3    H142840   8.173   3.574   1.543
14321TIP3    H242841   8.026   3.564   1.580
14322TIP3   OH242842   6.572   5.405   0.932
14322TIP3    H142843   6.585   5.408   0.837
14322TIP3    H242844   6.579   5.496   0.960
14323TIP3   OH242845   1.820   2.613   4.969
14323TIP3    H142846   1.832   2.651   5.055
14323TIP3    H242847   1.907   2.587   4.941
14324TIP3   OH242848   6.612   2.934   4.463
14324TIP3    H142849   6.630   2.960   4.373
14324TIP3    H242850   6.516   2.932   4.469
14325TIP3   OH242851   9.024   4.320   6.549
14325TIP3    H142852   8.973   4.310   6.630
14325TIP3    H242853   9.024   4.414   6.532
14326TIP3   OH242854   8.480   1.197   3.284
14326TIP3    H142855   8.462   1.285   3.318
14326TIP3    H242856   8.495   1.210   3.190
14327TIP3   OH242857   3.319   2.223   7.224
14327TIP3    H142858   3.268   2.263   7.295
14327TIP3    H242859   3.377   2.162   7.269
14328TIP3   OH242860   4.723   4.541   5.391
14328TIP3    H142861   4.641   4.573   5.354
14328TIP3    H242862   4.789   4.564   5.326
14329TIP3   OH242863   3.494   8.841   4.195
14329TIP3    H142864   3.449   8.757   4.202
14329TIP3    H242865   3.463   8.879   4.113
14330TIP3   OH242866   6.120   4.172   5.033
14330TIP3    H142867   6.078   4.100   4.985
14330TIP3    H242868   6.049   4.212   5.083
14331TIP3   OH242869   1.667   6.008   2.879
14331TIP3    H142870   1.642   5.966   2.796
14331TIP3    H242871   1.588   6.005   2.932
14332TIP3   OH242872   4.859   8.323   6.764
14332TIP3    H142873   4.910   8.247   6.735
14332TIP3    H242874   4.837   8.304   6.855
14333TIP3   OH242875   1.831   1.324   4.999
14333TIP3    H142876   1.868   1.248   5.043
14333TIP3    H242877   1.737   1.305   4.995
14334TIP3   OH242878   9.490   5.184   1.118
14334TIP3    H142879   9.430   5.254   1.093
14334TIP3    H242880   9.551   5.178   1.045
14335TIP3   OH242881   6.418   6.635   0.762
14335TIP3    H142882   6.510   6.663   0.767
14335TIP3    H242883   6.423   6.540   0.759
14336TIP3   OH242884   8.166   7.836   6.557
14336TIP3    H142885   8.253   7.814   6.592
14336TIP3    H242886   8.117   7.753   6.560
14337TIP3   OH242887   3.443   1.628   4.326
14337TIP3    H142888   3.533   1.640   4.355
14337TIP3    H242889   3.451   1.589   4.239
14338TIP3   OH242890   8.501   4.595   7.716
14338TIP3    H142891   8.455   4.516   7.689
14338TIP3    H242892   8.473   4.609   7.806
14339TIP3   OH242893   4.411   2.706   0.081
14339TIP3    H142894   4.499   2.744   0.079
14339TIP3    H242895   4.424   2.613   0.065
14340TIP3   OH242896   6.851   6.157   3.559
14340TIP3    H142897   6.896   6.228   3.514
14340TIP3    H242898   6.917   6.089   3.569
14341TIP3   OH242899   7.565   7.934   2.825
14341TIP3    H142900   7.580   7.859   2.766
14341TIP3    H242901   7.470   7.942   2.830
14342TIP3   OH242902   6.496   5.479   3.708
14342TIP3    H142903   6.499   5.417   3.781
14342TIP3    H242904   6.586   5.511   3.699
14343TIP3   OH242905   3.576   2.887   7.124
14343TIP3    H142906   3.580   2.793   7.141
14343TIP3    H242907   3.523   2.895   7.044
14344TIP3   OH242908   0.856   7.120   4.910
14344TIP3    H142909   0.852   7.045   4.968
14344TIP3    H242910   0.949   7.135   4.896
14345TIP3   OH242911   1.094   4.017   4.567
14345TIP3    H142912   1.033   4.090   4.570
14345TIP3    H242913   1.176   4.053   4.601
14346TIP3   OH242914   2.999   2.918   3.914
14346TIP3    H142915   2.970   2.998   3.958
14346TIP3    H242916   2.993   2.938   3.821
14347TIP3   OH242917   2.515   4.317   3.023
14347TIP3    H142918   2.560   4.395   3.054
14347TIP3    H242919   2.503   4.332   2.929
14348TIP3   OH242920   2.122   5.910   2.373
14348TIP3    H142921   2.170   5.948   2.446
14348TIP3    H242922   2.030   5.927   2.393
14349TIP3   OH242923   2.054   8.321   7.752
14349TIP3    H142924   2.030   8.394   7.694
14349TIP3    H242925   2.008   8.245   7.715
14350TIP3   OH242926   4.319   5.423   2.897
14350TIP3    H142927   4.362   5.470   2.970
14350TIP3    H242928   4.228   5.450   2.902
14351TIP3   OH242929   0.089   1.300   7.424
14351TIP3    H142930   0.003   1.326   7.456
14351TIP3    H242931   0.093   1.332   7.334
14352TIP3   OH242932   6.103   0.695   7.373
14352TIP3    H142933   6.051   0.618   7.350
14352TIP3    H242934   6.076   0.762   7.311
14353TIP3   OH242935   0.800   3.831   5.760
14353TIP3    H142936   0.770   3.749   5.798
14353TIP3    H242937   0.731   3.894   5.782
14354TIP3   OH242938   0.944   4.254   1.046
14354TIP3    H142939   0.864   4.226   1.002
14354TIP3    H242940   0.995   4.297   0.978
14355TIP3   OH242941   1.388   8.248   7.338
14355TIP3    H142942   1.451   8.242   7.266
14355TIP3    H242943   1.324   8.313   7.309
14356TIP3   OH242944   8.499   3.167   3.822
14356TIP3    H142945   8.453   3.098   3.775
14356TIP3    H242946   8.591   3.149   3.808
14357TIP3   OH242947   4.244   0.074   7.360
14357TIP3    H142948   4.185   0.000   7.346
14357TIP3    H242949   4.304   0.071   7.286
14358TIP3   OH242950   0.902   0.932   2.732
14358TIP3    H142951   0.826   0.942   2.675
14358TIP3    H242952   0.958   1.007   2.711
14359TIP3   OH242953   7.607   8.208   0.620
14359TIP3    H142954   7.607   8.113   0.609
14359TIP3    H242955   7.612   8.221   0.715
14360TIP3   OH242956   0.235   5.533   3.786
14360TIP3    H142957   0.255   5.602   3.722
14360TIP3    H242958   0.217   5.580   3.867
14361TIP3   OH242959   8.948   3.836   4.804
14361TIP3    H142960   8.882   3.817   4.871
14361TIP3    H242961   8.979   3.924   4.826
14362TIP3   OH242962   3.133   7.909   3.355
14362TIP3    H142963   3.221   7.872   3.357
14362TIP3    H242964   3.076   7.836   3.334
14363TIP3   OH242965   8.243   1.863   3.335
14363TIP3    H142966   8.188   1.921   3.284
14363TIP3    H242967   8.257   1.787   3.279
14364TIP3   OH242968   6.688   4.051   5.725
14364TIP3    H142969   6.772   4.006   5.727
14364TIP3    H242970   6.639   4.010   5.654
14365TIP3   OH242971   1.012   1.642   4.046
14365TIP3    H142972   0.955   1.588   3.991
14365TIP3    H242973   1.069   1.687   3.984
14366TIP3   OH242974   6.623   0.244   3.214
14366TIP3    H142975   6.571   0.182   3.162
14366TIP3    H242976   6.591   0.233   3.303
14367TIP3   OH242977   6.774   4.016   4.267
14367TIP3    H142978   6.806   4.080   4.204
14367TIP3    H242979   6.853   3.972   4.298
14368TIP3   OH242980   1.996   6.235   2.194
14368TIP3    H142981   2.003   6.144   2.165
14368TIP3    H242982   2.031   6.235   2.283
14369TIP3   OH242983   4.526   4.528   6.335
14369TIP3    H142984   4.551   4.620   6.345
14369TIP3    H242985   4.609   4.480   6.340
14370TIP3   OH242986   8.838   8.921   2.723
14370TIP3    H142987   8.917   8.898   2.673
14370TIP3    H242988   8.773   8.945   2.657
14371TIP3   OH242989   4.273   0.255   4.664
14371TIP3    H142990   4.219   0.179   4.684
14371TIP3    H242991   4.309   0.237   4.577
14372TIP3   OH242992   0.456   4.181   0.323
14372TIP3    H142993   0.456   4.135   0.407
14372TIP3    H242994   0.363   4.198   0.304
14373TIP3   OH242995   8.888   7.047   7.071
14373TIP3    H142996   8.948   6.993   7.124
14373TIP3    H242997   8.820   6.986   7.043
14374TIP3   OH242998   1.935   0.386   3.411
14374TIP3    H142999   1.857   0.401   3.463
14374TIP3    H243000   1.918   0.303   3.366
14375TIP3   OH243001   5.550   0.338   7.376
14375TIP3    H143002   5.484   0.339   7.307
14375TIP3    H243003   5.613   0.272   7.348
14376TIP3   OH243004   9.392   6.202   3.632
14376TIP3    H143005   9.455   6.274   3.629
14376TIP3    H243006   9.410   6.159   3.715
14377TIP3   OH243007   9.119   4.087   3.262
14377TIP3    H143008   9.058   4.153   3.230
14377TIP3    H243009   9.071   4.005   3.260
14378TIP3   OH243010   0.938   6.564   3.851
14378TIP3    H143011   0.970   6.553   3.762
14378TIP3    H243012   1.017   6.565   3.905
14379TIP3   OH243013   5.327   2.787   3.367
14379TIP3    H143014   5.307   2.855   3.431
14379TIP3    H243015   5.273   2.809   3.291
14380TIP3   OH243016   6.135   1.831   1.816
14380TIP3    H143017   6.140   1.926   1.828
14380TIP3    H243018   6.216   1.797   1.852
14381TIP3   OH243019   8.826   5.426   4.736
14381TIP3    H143020   8.846   5.358   4.671
14381TIP3    H243021   8.905   5.480   4.739
14382TIP3   OH243022   6.054   1.852   4.107
14382TIP3    H143023   6.125   1.908   4.138
14382TIP3    H243024   5.974   1.904   4.120
14383TIP3   OH243025   6.337   6.112   5.057
14383TIP3    H143026   6.341   6.181   5.123
14383TIP3    H243027   6.401   6.137   4.991
14384TIP3   OH243028   0.291   2.736   5.839
14384TIP3    H143029   0.279   2.641   5.842
14384TIP3    H243030   0.289   2.758   5.746
14385TIP3   OH243031   9.382   0.869   3.777
14385TIP3    H143032   9.442   0.818   3.830
14385TIP3    H243033   9.438   0.915   3.715
14386TIP3   OH243034   5.529   1.697   3.892
14386TIP3    H143035   5.563   1.779   3.929
14386TIP3    H243036   5.594   1.672   3.826
14387TIP3   OH243037   1.833   5.751   3.453
14387TIP3    H143038   1.874   5.737   3.538
14387TIP3    H243039   1.888   5.817   3.410
14388TIP3   OH243040   4.495   8.277   6.533
14388TIP3    H143041   4.427   8.337   6.502
14388TIP3    H243042   4.578   8.320   6.509
14389TIP3   OH243043   1.333   6.329   5.029
14389TIP3    H143044   1.313   6.241   4.996
14389TIP3    H243045   1.331   6.319   5.124
14390TIP3   OH243046   1.389   7.453   3.092
14390TIP3    H143047   1.384   7.391   3.165
14390TIP3    H243048   1.305   7.442   3.046
14391TIP3   OH243049   1.028   5.601   0.912
14391TIP3    H143050   1.027   5.695   0.897
14391TIP3    H243051   1.083   5.590   0.990
14392TIP3   OH243052   6.898   1.149   2.861
14392TIP3    H143053   6.858   1.102   2.787
14392TIP3    H243054   6.859   1.108   2.938
14393TIP3   OH243055   4.172   8.621   5.586
14393TIP3    H143056   4.086   8.608   5.546
14393TIP3    H243057   4.155   8.621   5.680
14394TIP3   OH243058   5.485   6.470   7.282
14394TIP3    H143059   5.562   6.435   7.328
14394TIP3    H243060   5.419   6.401   7.290
14395TIP3   OH243061   6.337   0.608   1.982
14395TIP3    H143062   6.335   0.596   2.077
14395TIP3    H243063   6.342   0.520   1.946
14396TIP3   OH243064   5.839   8.899   3.630
14396TIP3    H143065   5.879   8.945   3.555
14396TIP3    H243066   5.774   8.841   3.590
14397TIP3   OH243067   0.011   2.044   4.023
14397TIP3    H143068   0.011   2.088   3.939
14397TIP3    H243069   0.048   2.108   4.084
14398TIP3   OH243070   9.139   0.829   6.351
14398TIP3    H143071   9.049   0.838   6.320
14398TIP3    H243072   9.144   0.739   6.383
14399TIP3   OH243073   1.063   8.538   2.974
14399TIP3    H143074   1.076   8.601   2.903
14399TIP3    H243075   1.019   8.588   3.043
14400TIP3   OH243076   2.180   1.121   7.684
14400TIP3    H143077   2.105   1.110   7.625
14400TIP3    H243078   2.248   1.159   7.628
14401TIP3   OH243079   9.061   6.794   4.236
14401TIP3    H143080   9.065   6.760   4.146
14401TIP3    H243081   9.151   6.814   4.259
14402TIP3   OH243082   0.608   3.797   5.225
14402TIP3    H143083   0.592   3.886   5.256
14402TIP3    H243084   0.630   3.806   5.133
14403TIP3   OH243085   3.570   2.307   6.439
14403TIP3    H143086   3.513   2.375   6.475
14403TIP3    H243087   3.513   2.232   6.424
14404TIP3   OH243088   7.995   2.358   0.099
14404TIP3    H143089   8.018   2.275   0.141
14404TIP3    H243090   8.078   2.404   0.090
14405TIP3   OH243091   4.341   2.327   2.006
14405TIP3    H143092   4.371   2.335   2.096
14405TIP3    H243093   4.418   2.298   1.957
14406TIP3   OH243094   8.942   3.121   5.424
14406TIP3    H143095   8.935   3.078   5.339
14406TIP3    H243096   9.032   3.156   5.426
14407TIP3   OH243097   2.363   1.808   2.749
14407TIP3    H143098   2.359   1.849   2.835
14407TIP3    H243099   2.445   1.758   2.750
14408TIP3   OH243100   5.267   5.649   5.975
14408TIP3    H143101   5.290   5.598   6.053
14408TIP3    H243102   5.205   5.715   6.007
14409TIP3   OH243103   2.872   3.983   2.110
14409TIP3    H143104   2.927   3.906   2.094
14409TIP3    H243105   2.880   3.999   2.204
14410TIP3   OH243106   8.166   6.335   3.839
14410TIP3    H143107   8.114   6.265   3.797
14410TIP3    H243108   8.175   6.402   3.771
14411TIP3   OH243109   5.696   0.466   1.092
14411TIP3    H143110   5.624   0.404   1.082
14411TIP3    H243111   5.775   0.412   1.094
14412TIP3   OH243112   1.795   3.579   1.987
14412TIP3    H143113   1.819   3.523   1.914
14412TIP3    H243114   1.734   3.643   1.950
14413TIP3   OH243115   8.841   1.263   0.391
14413TIP3    H143116   8.935   1.280   0.387
14413TIP3    H243117   8.814   1.293   0.478
14414TIP3   OH243118   0.278   1.792   6.264
14414TIP3    H143119   0.362   1.770   6.224
14414TIP3    H243120   0.270   1.887   6.252
14415TIP3   OH243121   0.895   7.953   1.676
14415TIP3    H143122   0.897   7.861   1.652
14415TIP3    H243123   0.809   7.966   1.715
14416TIP3   OH243124   9.472   1.779   4.401
14416TIP3    H143125   9.478   1.794   4.307
14416TIP3    H243126   9.433   1.692   4.410
14417TIP3   OH243127   9.282   6.258   6.554
14417TIP3    H143128   9.238   6.326   6.503
14417TIP3    H243129   9.243   6.176   6.525
14418TIP3   OH243130   5.233   4.178   0.477
14418TIP3    H143131   5.250   4.138   0.562
14418TIP3    H243132   5.175   4.252   0.495
14419TIP3   OH243133   5.751   5.083   6.562
14419TIP3    H143134   5.663   5.062   6.530
14419TIP3    H243135   5.788   5.140   6.495
14420TIP3   OH243136   6.625   2.842   2.640
14420TIP3    H143137   6.541   2.829   2.597
14420TIP3    H243138   6.604   2.850   2.733
14421TIP3   OH243139   2.214   1.885   1.195
14421TIP3    H143140   2.289   1.878   1.255
14421TIP3    H243141   2.253   1.914   1.112
14422TIP3   OH243142   3.375   4.791   0.936
14422TIP3    H143143   3.430   4.796   1.014
14422TIP3    H243144   3.311   4.723   0.955
14423TIP3   OH243145   5.628   5.057   5.535
14423TIP3    H143146   5.719   5.087   5.537
14423TIP3    H243147   5.577   5.135   5.555
14424TIP3   OH243148   0.363   2.358   0.006
14424TIP3    H143149   0.387   2.425  -0.058
14424TIP3    H243150   0.446   2.315   0.028
14425TIP3   OH243151   4.156   2.761   0.802
14425TIP3    H143152   4.113   2.748   0.886
14425TIP3    H243153   4.086   2.756   0.737
14426TIP3   OH243154   6.778   1.380   0.132
14426TIP3    H143155   6.784   1.414   0.221
14426TIP3    H243156   6.743   1.453   0.081
14427TIP3   OH243157   8.040   2.796   2.132
14427TIP3    H143158   7.965   2.737   2.137
14427TIP3    H243159   8.031   2.852   2.209
14428TIP3   OH243160   3.288   1.089   0.491
14428TIP3    H143161   3.199   1.121   0.480
14428TIP3    H243162   3.344   1.165   0.473
14429TIP3   OH243163   9.129   5.870   3.438
14429TIP3    H143164   9.173   5.817   3.505
14429TIP3    H243165   9.179   5.852   3.358
14430TIP3   OH243166   7.397   8.580   3.523
14430TIP3    H143167   7.425   8.667   3.553
14430TIP3    H243168   7.446   8.565   3.442
14431TIP3   OH243169   5.806   0.501   0.376
14431TIP3    H143170   5.847   0.573   0.328
14431TIP3    H243171   5.857   0.424   0.354
14432TIP3   OH243172   5.396   6.292   6.479
14432TIP3    H143173   5.419   6.369   6.427
14432TIP3    H243174   5.358   6.327   6.559
14433TIP3   OH243175   2.691   7.940   3.818
14433TIP3    H143176   2.630   7.908   3.751
14433TIP3    H243177   2.768   7.966   3.768
14434TIP3   OH243178   3.251   7.346   0.152
14434TIP3    H143179   3.155   7.348   0.144
14434TIP3    H243180   3.275   7.258   0.122
14435TIP3   OH243181   0.749   4.114   2.031
14435TIP3    H143182   0.735   4.090   1.939
14435TIP3    H243183   0.764   4.208   2.029
14436TIP3   OH243184   2.407   1.615   4.447
14436TIP3    H143185   2.398   1.522   4.468
14436TIP3    H243186   2.334   1.657   4.491
14437TIP3   OH243187   3.553   4.529   4.738
14437TIP3    H143188   3.462   4.510   4.763
14437TIP3    H243189   3.602   4.453   4.768
14438TIP3   OH243190   5.782   4.954   0.375
14438TIP3    H143191   5.828   5.038   0.383
14438TIP3    H243192   5.847   4.888   0.401
14439TIP3   OH243193   4.603   8.578   5.297
14439TIP3    H143194   4.681   8.524   5.281
14439TIP3    H243195   4.574   8.553   5.384
14440TIP3   OH243196   4.967   2.550   4.682
14440TIP3    H143197   4.987   2.460   4.655
14440TIP3    H243198   4.920   2.540   4.765
14441TIP3   OH243199   5.631   4.997   1.957
14441TIP3    H143200   5.681   5.021   2.035
14441TIP3    H243201   5.572   5.071   1.943
14442TIP3   OH243202   5.311   5.430   1.702
14442TIP3    H143203   5.290   5.385   1.620
14442TIP3    H243204   5.315   5.359   1.768
14443TIP3   OH243205   4.881   4.805   2.647
14443TIP3    H143206   4.882   4.894   2.682
14443TIP3    H243207   4.827   4.811   2.568
14444TIP3   OH243208   8.101   6.458   5.176
14444TIP3    H143209   8.019   6.506   5.177
14444TIP3    H243210   8.160   6.513   5.124
14445TIP3   OH243211   2.718   3.806   3.910
14445TIP3    H143212   2.653   3.821   3.978
14445TIP3    H243213   2.802   3.828   3.952
14446TIP3   OH243214   0.693   9.000   2.183
14446TIP3    H143215   0.670   8.916   2.222
14446TIP3    H243216   0.707   9.058   2.258
14447TIP3   OH243217   3.021   7.209   5.583
14447TIP3    H143218   3.025   7.160   5.501
14447TIP3    H243219   2.933   7.193   5.617
14448TIP3   OH243220   0.217   7.781   0.053
14448TIP3    H143221   0.141   7.726   0.033
14448TIP3    H243222   0.182   7.850   0.109
14449TIP3   OH243223   8.767   0.508   5.593
14449TIP3    H143224   8.701   0.441   5.611
14449TIP3    H243225   8.717   0.588   5.579
14450TIP3   OH243226   3.982   8.532   6.969
14450TIP3    H143227   3.952   8.493   6.888
14450TIP3    H243228   3.986   8.626   6.951
14451TIP3   OH243229   2.417   1.426   5.650
14451TIP3    H143230   2.479   1.484   5.694
14451TIP3    H243231   2.468   1.350   5.626
14452TIP3   OH243232   2.232   1.628   3.125
14452TIP3    H143233   2.277   1.696   3.176
14452TIP3    H243234   2.292   1.609   3.053
14453TIP3   OH243235   2.214   6.458   2.671
14453TIP3    H143236   2.183   6.469   2.581
14453TIP3    H243237   2.292   6.513   2.676
14454TIP3   OH243238   5.284   4.477   5.184
14454TIP3    H143239   5.361   4.533   5.173
14454TIP3    H243240   5.274   4.468   5.278
14455TIP3   OH243241   2.359   3.687   2.815
14455TIP3    H143242   2.328   3.644   2.895
14455TIP3    H243243   2.365   3.616   2.750
14456TIP3   OH243244   5.225   3.370   3.710
14456TIP3    H143245   5.314   3.392   3.682
14456TIP3    H243246   5.169   3.435   3.666
14457TIP3   OH243247   5.845   8.950   4.061
14457TIP3    H143248   5.891   8.910   4.135
14457TIP3    H243249   5.797   9.023   4.100
14458TIP3   OH243250   7.987   7.521   1.794
14458TIP3    H143251   7.946   7.601   1.824
14458TIP3    H243252   8.045   7.495   1.866
14459TIP3   OH243253   8.686   0.618   6.149
14459TIP3    H143254   8.744   0.632   6.224
14459TIP3    H243255   8.719   0.677   6.081
14460TIP3   OH243256   0.507   8.390   6.735
14460TIP3    H143257   0.464   8.321   6.785
14460TIP3    H243258   0.475   8.471   6.775
14461TIP3   OH243259   3.714   7.405   5.138
14461TIP3    H143260   3.661   7.393   5.059
14461TIP3    H243261   3.703   7.323   5.186
14462TIP3   OH243262   9.266   0.426   5.977
14462TIP3    H143263   9.346   0.389   5.939
14462TIP3    H243264   9.228   0.353   6.027
14463TIP3   OH243265   8.916   7.667   4.525
14463TIP3    H143266   8.921   7.762   4.533
14463TIP3    H243267   8.955   7.634   4.607
14464TIP3   OH243268   0.096   2.952   5.633
14464TIP3    H143269   0.029   2.972   5.568
14464TIP3    H243270   0.164   2.906   5.584
14465TIP3   OH243271   1.669   0.301   2.037
14465TIP3    H143272   1.596   0.357   2.063
14465TIP3    H243273   1.647   0.215   2.072
14466TIP3   OH243274   4.533   5.100   2.885
14466TIP3    H143275   4.611   5.134   2.841
14466TIP3    H243276   4.465   5.102   2.819
14467TIP3   OH243277   0.095   1.256   5.934
14467TIP3    H143278   0.071   1.213   5.852
14467TIP3    H243279   0.181   1.294   5.917
14468TIP3   OH243280   5.562   8.942   5.057
14468TIP3    H143281   5.611   9.020   5.031
14468TIP3    H243282   5.590   8.925   5.147
14469TIP3   OH243283   2.991   3.389   6.734
14469TIP3    H143284   2.949   3.401   6.819
14469TIP3    H243285   2.927   3.421   6.670
14470TIP3   OH243286   9.315   5.960   2.845
14470TIP3    H143287   9.282   6.046   2.871
14470TIP3    H243288   9.251   5.898   2.879
14471TIP3   OH243289   4.729   4.058   1.406
14471TIP3    H143290   4.747   4.061   1.500
14471TIP3    H243291   4.709   3.966   1.388
14472TIP3   OH243292   9.468   5.407   7.705
14472TIP3    H143293   9.390   5.425   7.653
14472TIP3    H243294   9.497   5.493   7.735
14473TIP3   OH243295   6.312   5.221   4.613
14473TIP3    H143296   6.344   5.308   4.589
14473TIP3    H243297   6.307   5.173   4.530
14474TIP3   OH243298   2.752   9.024   6.783
14474TIP3    H143299   2.734   9.005   6.691
14474TIP3    H243300   2.804   8.949   6.813
14475TIP3   OH243301   6.583   9.018   5.683
14475TIP3    H143302   6.643   8.990   5.614
14475TIP3    H243303   6.533   8.939   5.704
14476TIP3   OH243304   4.644   6.518   7.330
14476TIP3    H143305   4.604   6.501   7.415
14476TIP3    H243306   4.619   6.443   7.276
14477TIP3   OH243307   8.380   4.104   5.038
14477TIP3    H143308   8.327   4.024   5.040
14477TIP3    H243309   8.394   4.125   5.130
14478TIP3   OH243310   3.669   2.980   1.287
14478TIP3    H143311   3.735   2.968   1.218
14478TIP3    H243312   3.596   2.924   1.261
14479TIP3   OH243313   2.669   7.901   4.905
14479TIP3    H143314   2.639   7.866   4.821
14479TIP3    H243315   2.590   7.941   4.944
14480TIP3   OH243316   5.414   6.553   2.066
14480TIP3    H143317   5.417   6.538   2.160
14480TIP3    H243318   5.400   6.648   2.058
14481TIP3   OH243319   9.536   8.510   2.414
14481TIP3    H143320   9.533   8.432   2.469
14481TIP3    H243321   9.490   8.485   2.334
14482TIP3   OH243322   8.150   1.662   6.905
14482TIP3    H143323   8.139   1.582   6.955
14482TIP3    H243324   8.139   1.636   6.814
14483TIP3   OH243325   3.941   8.714   0.837
14483TIP3    H143326   3.935   8.705   0.742
14483TIP3    H243327   3.862   8.670   0.870
14484TIP3   OH243328   0.682   4.561   5.826
14484TIP3    H143329   0.666   4.600   5.911
14484TIP3    H243330   0.636   4.477   5.828
14485TIP3   OH243331   1.918   1.763   4.450
14485TIP3    H143332   1.856   1.827   4.486
14485TIP3    H243333   1.925   1.786   4.357
14486TIP3   OH243334   6.576   0.090   7.223
14486TIP3    H143335   6.598   0.015   7.277
14486TIP3    H243336   6.556   0.160   7.286
14487TIP3   OH243337   4.304   8.868   5.143
14487TIP3    H143338   4.238   8.846   5.077
14487TIP3    H243339   4.275   8.952   5.179
14488TIP3   OH243340   2.910   2.651   3.282
14488TIP3    H143341   2.994   2.625   3.320
14488TIP3    H243342   2.930   2.669   3.190
14489TIP3   OH243343   2.872   1.531   2.287
14489TIP3    H143344   2.805   1.591   2.253
14489TIP3    H243345   2.897   1.569   2.371
14490TIP3   OH243346   5.348   8.362   1.016
14490TIP3    H143347   5.430   8.329   0.981
14490TIP3    H243348   5.319   8.294   1.077
14491TIP3   OH243349   1.664   2.108   4.342
14491TIP3    H143350   1.611   2.174   4.297
14491TIP3    H243351   1.648   2.027   4.293
14492TIP3   OH243352   1.194   3.123   1.789
14492TIP3    H143353   1.133   3.109   1.861
14492TIP3    H243354   1.160   3.200   1.743
14493TIP3   OH243355   2.574   8.337   4.491
14493TIP3    H143356   2.575   8.324   4.396
14493TIP3    H243357   2.543   8.254   4.526
14494TIP3   OH243358   7.501   8.550   5.886
14494TIP3    H143359   7.509   8.635   5.844
14494TIP3    H243360   7.502   8.487   5.814
14495TIP3   OH243361   0.618   6.723   7.325
14495TIP3    H143362   0.702   6.760   7.297
14495TIP3    H243363   0.642   6.657   7.391
14496TIP3   OH243364   3.970   6.523   3.617
14496TIP3    H143365   4.058   6.484   3.625
14496TIP3    H243366   3.967   6.557   3.528
14497TIP3   OH243367   0.578   8.384   7.344
14497TIP3    H143368   0.553   8.394   7.436
14497TIP3    H243369   0.617   8.297   7.340
14498TIP3   OH243370   1.431   1.821   4.369
14498TIP3    H143371   1.490   1.853   4.301
14498TIP3    H243372   1.415   1.729   4.345
14499TIP3   OH243373   9.363   2.858   3.070
14499TIP3    H143374   9.389   2.931   3.014
14499TIP3    H243375   9.290   2.891   3.122
14500TIP3   OH243376   8.728   2.067   0.545
14500TIP3    H143377   8.734   1.986   0.494
14500TIP3    H243378   8.789   2.127   0.503
14501TIP3   OH243379   8.902   1.463   0.836
14501TIP3    H143380   8.909   1.368   0.838
14501TIP3    H243381   8.820   1.481   0.791
14502TIP3   OH243382   9.060   5.066   2.759
14502TIP3    H143383   9.078   5.124   2.685
14502TIP3    H243384   8.987   5.012   2.730
14503TIP3   OH243385   3.622   4.591   1.057
14503TIP3    H143386   3.668   4.570   0.976
14503TIP3    H243387   3.689   4.587   1.125
14504TIP3   OH243388   2.982   5.161   4.175
14504TIP3    H143389   2.909   5.131   4.230
14504TIP3    H243390   2.973   5.111   4.094
14505TIP3   OH243391   0.296   4.991   7.654
14505TIP3    H143392   0.318   4.925   7.588
14505TIP3    H243393   0.270   5.068   7.602
14506TIP3   OH243394   2.576   1.431   7.798
14506TIP3    H143395   2.660   1.465   7.767
14506TIP3    H243396   2.513   1.455   7.730
14507TIP3   OH243397   6.379   1.610   4.337
14507TIP3    H143398   6.407   1.604   4.246
14507TIP3    H243399   6.287   1.636   4.332
14508TIP3   OH243400   2.578   4.493   7.588
14508TIP3    H143401   2.596   4.563   7.525
14508TIP3    H243402   2.654   4.494   7.646
14509TIP3   OH243403   6.672   2.807   3.869
14509TIP3    H143404   6.620   2.830   3.946
14509TIP3    H243405   6.663   2.712   3.861
14510TIP3   OH243406   6.909   6.567   1.172
14510TIP3    H143407   6.859   6.640   1.208
14510TIP3    H243408   7.000   6.598   1.173
14511TIP3   OH243409   0.581   0.042   1.438
14511TIP3    H143410   0.526  -0.016   1.492
14511TIP3    H243411   0.669   0.033   1.475
14512TIP3   OH243412   0.946   5.950   6.529
14512TIP3    H143413   0.875   5.896   6.566
14512TIP3    H243414   0.975   6.004   6.603
14513TIP3   OH243415   7.630   1.999   1.905
14513TIP3    H143416   7.693   1.930   1.926
14513TIP3    H243417   7.681   2.080   1.912
14514TIP3   OH243418   7.247   7.375   5.556
14514TIP3    H143419   7.312   7.306   5.543
14514TIP3    H243420   7.172   7.348   5.504
14515TIP3   OH243421   2.519   8.827   6.532
14515TIP3    H143422   2.531   8.920   6.513
14515TIP3    H243423   2.498   8.788   6.447
14516TIP3   OH243424   7.074   2.475   5.399
14516TIP3    H143425   7.020   2.488   5.477
14516TIP3    H243426   7.030   2.527   5.331
14517TIP3   OH243427   7.911   1.689   4.219
14517TIP3    H143428   7.941   1.608   4.260
14517TIP3    H243429   7.986   1.718   4.166
14518TIP3   OH243430   6.543   6.404   3.787
14518TIP3    H143431   6.637   6.389   3.792
14518TIP3    H243432   6.515   6.354   3.710
14519TIP3   OH243433   0.879   4.461   5.488
14519TIP3    H143434   0.880   4.430   5.398
14519TIP3    H243435   0.906   4.553   5.481
14520TIP3   OH243436   7.908   7.921   6.446
14520TIP3    H143437   7.995   7.928   6.487
14520TIP3    H243438   7.915   7.975   6.367
14521TIP3   OH243439   5.534   5.488   3.084
14521TIP3    H143440   5.552   5.401   3.120
14521TIP3    H243441   5.560   5.548   3.153
14522TIP3   OH243442   7.568   7.997   5.035
14522TIP3    H143443   7.660   8.024   5.043
14522TIP3    H243444   7.543   8.026   4.947
14523TIP3   OH243445   9.384   0.937   1.091
14523TIP3    H143446   9.355   0.858   1.045
14523TIP3    H243447   9.357   1.009   1.033
14524TIP3   OH243448   3.507   5.418   3.089
14524TIP3    H143449   3.512   5.464   3.006
14524TIP3    H243450   3.556   5.338   3.076
14525TIP3   OH243451   0.020   3.311   4.364
14525TIP3    H143452  -0.030   3.255   4.304
14525TIP3    H243453   0.096   3.338   4.314
14526TIP3   OH243454   2.650   0.812   4.620
14526TIP3    H143455   2.680   0.723   4.600
14526TIP3    H243456   2.557   0.803   4.637
14527TIP3   OH243457   6.199   3.341   3.285
14527TIP3    H143458   6.284   3.323   3.326
14527TIP3    H243459   6.164   3.415   3.334
14528TIP3   OH243460   8.939   1.126   7.040
14528TIP3    H143461   8.903   1.055   6.986
14528TIP3    H243462   8.863   1.176   7.069
14529TIP3   OH243463   4.729   0.842   1.107
14529TIP3    H143464   4.709   0.929   1.141
14529TIP3    H243465   4.655   0.788   1.134
14530TIP3   OH243466   7.095   7.255   6.745
14530TIP3    H143467   7.057   7.315   6.810
14530TIP3    H243468   7.027   7.189   6.731
14531TIP3   OH243469   2.944   2.823   6.552
14531TIP3    H143470   2.915   2.912   6.575
14531TIP3    H243471   2.866   2.781   6.515
14532TIP3   OH243472   5.015   8.147   4.775
14532TIP3    H143473   5.103   8.163   4.741
14532TIP3    H243474   4.958   8.155   4.698
14533TIP3   OH243475   6.312   1.493   6.109
14533TIP3    H143476   6.322   1.427   6.041
14533TIP3    H243477   6.402   1.514   6.135
14534TIP3   OH243478   4.919   5.904   2.331
14534TIP3    H143479   4.963   5.987   2.350
14534TIP3    H243480   4.931   5.891   2.237
14535TIP3   OH243481   6.253   0.323   6.892
14535TIP3    H143482   6.344   0.336   6.867
14535TIP3    H243483   6.227   0.404   6.935
14536TIP3   OH243484   5.869   2.437   3.978
14536TIP3    H143485   5.829   2.488   3.907
14536TIP3    H243486   5.816   2.457   4.054
14537TIP3   OH243487   5.216   3.493   1.737
14537TIP3    H143488   5.232   3.438   1.814
14537TIP3    H243489   5.260   3.575   1.756
14538TIP3   OH243490   5.695   0.449   3.250
14538TIP3    H143491   5.736   0.474   3.334
14538TIP3    H243492   5.724   0.517   3.189
14539TIP3   OH243493   8.632   7.914   5.689
14539TIP3    H143494   8.651   7.959   5.607
14539TIP3    H243495   8.688   7.956   5.754
14540TIP3   OH243496   7.727   5.624   0.060
14540TIP3    H143497   7.783   5.687   0.105
14540TIP3    H243498   7.659   5.678   0.019
14541TIP3   OH243499   2.415   1.115   6.384
14541TIP3    H143500   2.392   1.048   6.449
14541TIP3    H243501   2.395   1.198   6.427
14542TIP3   OH243502   4.550   8.469   1.164
14542TIP3    H143503   4.596   8.548   1.193
14542TIP3    H243504   4.617   8.418   1.118
14543TIP3   OH243505   6.626   5.804   4.193
14543TIP3    H143506   6.563   5.872   4.215
14543TIP3    H243507   6.603   5.730   4.249
14544TIP3   OH243508   2.997   3.609   7.271
14544TIP3    H143509   3.077   3.574   7.311
14544TIP3    H243510   2.930   3.543   7.289
14545TIP3   OH243511   1.555   8.982   1.684
14545TIP3    H143512   1.607   8.902   1.678
14545TIP3    H243513   1.516   8.980   1.771
14546TIP3   OH243514   4.331   1.154   2.417
14546TIP3    H143515   4.402   1.200   2.463
14546TIP3    H243516   4.330   1.193   2.329
14547TIP3   OH243517   6.434   7.569   5.730
14547TIP3    H143518   6.454   7.631   5.800
14547TIP3    H243519   6.490   7.595   5.658
14548TIP3   OH243520   0.883   6.648   0.908
14548TIP3    H143521   0.922   6.564   0.885
14548TIP3    H243522   0.789   6.633   0.902
14549TIP3   OH243523   1.734   4.898   2.401
14549TIP3    H143524   1.785   4.817   2.396
14549TIP3    H243525   1.697   4.908   2.313
14550TIP3   OH243526   8.591   6.109   2.329
14550TIP3    H143527   8.555   6.036   2.277
14550TIP3    H243528   8.577   6.082   2.420
14551TIP3   OH243529   4.242   8.822   6.275
14551TIP3    H143530   4.204   8.897   6.320
14551TIP3    H243531   4.197   8.746   6.313
14552TIP3   OH243532   7.838   5.980   5.835
14552TIP3    H143533   7.783   6.058   5.820
14552TIP3    H243534   7.780   5.906   5.817
14553TIP3   OH243535   7.073   4.060   0.995
14553TIP3    H143536   7.161   4.087   0.970
14553TIP3    H243537   7.059   4.101   1.081
14554TIP3   OH243538   4.518   4.796   7.715
14554TIP3    H143539   4.426   4.809   7.690
14554TIP3    H243540   4.551   4.732   7.652
14555TIP3   OH243541   4.465   7.565   0.199
14555TIP3    H143542   4.372   7.571   0.175
14555TIP3    H243543   4.467   7.507   0.274
14556TIP3   OH243544   4.866   5.156   0.284
14556TIP3    H143545   4.949   5.130   0.322
14556TIP3    H243546   4.867   5.252   0.286
14557TIP3   OH243547   3.588   3.073   6.246
14557TIP3    H143548   3.619   3.012   6.314
14557TIP3    H243549   3.493   3.060   6.245
14558TIP3   OH243550   3.664   4.209   6.333
14558TIP3    H143551   3.651   4.303   6.347
14558TIP3    H243552   3.752   4.192   6.366
14559TIP3   OH243553   3.778   3.049   0.897
14559TIP3    H143554   3.857   3.060   0.950
14559TIP3    H243555   3.761   2.955   0.897
14560TIP3   OH243556   7.115   5.593   6.499
14560TIP3    H143557   7.149   5.622   6.414
14560TIP3    H243558   7.094   5.674   6.545
14561TIP3   OH243559   6.409   8.310   5.357
14561TIP3    H143560   6.323   8.269   5.350
14561TIP3    H243561   6.392   8.394   5.399
14562TIP3   OH243562   4.112   8.179   0.350
14562TIP3    H143563   4.143   8.260   0.389
14562TIP3    H243564   4.107   8.198   0.256
14563TIP3   OH243565   5.796   3.874   7.215
14563TIP3    H143566   5.813   3.819   7.138
14563TIP3    H243567   5.736   3.823   7.268
14564TIP3   OH243568   3.576   2.948   2.332
14564TIP3    H143569   3.655   2.927   2.282
14564TIP3    H243570   3.578   3.043   2.341
14565TIP3   OH243571   5.430   0.674   1.270
14565TIP3    H143572   5.525   0.678   1.263
14565TIP3    H243573   5.403   0.765   1.285
14566TIP3   OH243574   9.400   6.451   0.816
14566TIP3    H143575   9.306   6.467   0.815
14566TIP3    H243576   9.422   6.439   0.909
14567TIP3   OH243577   3.246   8.188   2.335
14567TIP3    H143578   3.243   8.130   2.258
14567TIP3    H243579   3.329   8.236   2.326
14568TIP3   OH243580   4.644   2.057   0.320
14568TIP3    H143581   4.585   2.097   0.255
14568TIP3    H243582   4.649   2.122   0.390
14569TIP3   OH243583   1.897   3.252   3.729
14569TIP3    H143584   1.972   3.199   3.701
14569TIP3    H243585   1.874   3.218   3.815
14570TIP3   OH243586   9.395   6.484   3.254
14570TIP3    H143587   9.372   6.391   3.254
14570TIP3    H243588   9.435   6.498   3.340
14571TIP3   OH243589   2.718   6.104   5.777
14571TIP3    H143590   2.643   6.074   5.725
14571TIP3    H243591   2.690   6.188   5.812
14572TIP3   OH243592   6.888   7.741   1.017
14572TIP3    H143593   6.894   7.702   1.104
14572TIP3    H243594   6.874   7.667   0.958
14573TIP3   OH243595   7.516   3.335   0.066
14573TIP3    H143596   7.463   3.325  -0.013
14573TIP3    H243597   7.605   3.351   0.034
14574TIP3   OH243598   5.811   7.012   0.501
14574TIP3    H143599   5.786   6.947   0.435
14574TIP3    H243600   5.787   6.972   0.584
14575TIP3   OH243601   1.215   4.808   0.262
14575TIP3    H143602   1.278   4.810   0.190
14575TIP3    H243603   1.145   4.751   0.231
14576TIP3   OH243604   8.240   3.142   5.366
14576TIP3    H143605   8.232   3.047   5.361
14576TIP3    H243606   8.333   3.157   5.382
14577TIP3   OH243607   6.938   8.443   2.533
14577TIP3    H143608   7.013   8.498   2.555
14577TIP3    H243609   6.861   8.494   2.560
14578TIP3   OH243610   5.678   1.172   2.042
14578TIP3    H143611   5.710   1.133   1.961
14578TIP3    H243612   5.667   1.265   2.021
14579TIP3   OH243613   2.414   7.389   6.274
14579TIP3    H143614   2.324   7.403   6.243
14579TIP3    H243615   2.434   7.467   6.325
14580TIP3   OH243616   4.028   1.728   0.983
14580TIP3    H143617   3.978   1.652   0.954
14580TIP3    H243618   3.987   1.754   1.065
14581TIP3   OH243619   3.858   7.864   4.810
14581TIP3    H143620   3.774   7.909   4.806
14581TIP3    H243621   3.885   7.857   4.718
14582TIP3   OH243622   0.669   4.290   5.299
14582TIP3    H143623   0.756   4.304   5.263
14582TIP3    H243624   0.617   4.362   5.264
14583TIP3   OH243625   8.058   8.954   1.246
14583TIP3    H143626   7.997   8.888   1.211
14583TIP3    H243627   8.022   8.976   1.332
14584TIP3   OH243628   3.706   3.765   4.592
14584TIP3    H143629   3.647   3.754   4.518
14584TIP3    H243630   3.657   3.732   4.668
14585TIP3   OH243631   4.691   2.060   4.501
14585TIP3    H143632   4.603   2.095   4.507
14585TIP3    H243633   4.679   1.965   4.499
14586TIP3   OH243634   1.863   8.222   7.303
14586TIP3    H143635   1.905   8.278   7.237
14586TIP3    H243636   1.906   8.137   7.291
14587TIP3   OH243637   4.007   7.113   7.547
14587TIP3    H143638   4.068   7.042   7.566
14587TIP3    H243639   3.929   7.069   7.513
14588TIP3   OH243640   2.054   2.640   5.736
14588TIP3    H143641   2.053   2.557   5.687
14588TIP3    H243642   1.994   2.624   5.810
14589TIP3   OH243643   4.575   3.710   3.591
14589TIP3    H143644   4.585   3.780   3.527
14589TIP3    H243645   4.652   3.655   3.580
14590TIP3   OH243646   5.447   7.675   1.090
14590TIP3    H143647   5.428   7.639   1.004
14590TIP3    H243648   5.371   7.729   1.112
14591TIP3   OH243649   1.834   4.803   5.102
14591TIP3    H143650   1.847   4.892   5.070
14591TIP3    H243651   1.923   4.767   5.108
14592TIP3   OH243652   0.579   2.725   6.340
14592TIP3    H143653   0.520   2.651   6.351
14592TIP3    H243654   0.523   2.802   6.353
14593TIP3   OH243655   8.424   1.047   0.473
14593TIP3    H143656   8.490   1.061   0.540
14593TIP3    H243657   8.350   1.007   0.520
14594TIP3   OH243658   1.732   2.870   3.243
14594TIP3    H143659   1.666   2.938   3.226
14594TIP3    H243660   1.797   2.913   3.298
14595TIP3   OH243661   5.003   0.574   4.120
14595TIP3    H143662   4.955   0.642   4.167
14595TIP3    H243663   5.074   0.621   4.075
14596TIP3   OH243664   1.535   3.092   6.333
14596TIP3    H143665   1.527   2.997   6.342
14596TIP3    H243666   1.454   3.120   6.292
14597TIP3   OH243667   3.495   0.716   5.428
14597TIP3    H143668   3.523   0.735   5.338
14597TIP3    H243669   3.569   0.741   5.482
14598TIP3   OH243670   6.647   5.388   1.233
14598TIP3    H143671   6.571   5.438   1.203
14598TIP3    H243672   6.715   5.407   1.168
14599TIP3   OH243673   6.167   0.730   6.764
14599TIP3    H143674   6.259   0.719   6.741
14599TIP3    H243675   6.124   0.651   6.731
14600TIP3   OH243676   3.004   5.361   5.536
14600TIP3    H143677   3.013   5.446   5.493
14600TIP3    H243678   2.994   5.298   5.465
14601TIP3   OH243679   4.595   0.493   0.341
14601TIP3    H143680   4.690   0.482   0.338
14601TIP3    H243681   4.571   0.513   0.250
14602TIP3   OH243682   2.060   3.817   0.582
14602TIP3    H143683   2.119   3.790   0.653
14602TIP3    H243684   2.017   3.895   0.616
14603TIP3   OH243685   2.056   6.076   0.969
14603TIP3    H143686   1.985   6.017   0.994
14603TIP3    H243687   2.039   6.156   1.019
14604TIP3   OH243688   1.984   4.505   6.830
14604TIP3    H143689   2.000   4.454   6.910
14604TIP3    H243690   1.894   4.484   6.805
14605TIP3   OH243691   5.784   1.469   4.728
14605TIP3    H143692   5.838   1.415   4.786
14605TIP3    H243693   5.710   1.413   4.705
14606TIP3   OH243694   9.382   8.142   4.534
14606TIP3    H143695   9.364   8.195   4.612
14606TIP3    H243696   9.475   8.158   4.515
14607TIP3   OH243697   4.202   7.474   6.169
14607TIP3    H143698   4.184   7.563   6.138
14607TIP3    H243699   4.146   7.464   6.246
14608TIP3   OH243700   2.426   1.200   4.098
14608TIP3    H143701   2.408   1.292   4.081
14608TIP3    H243702   2.485   1.201   4.173
14609TIP3   OH243703   9.270   2.433   0.108
14609TIP3    H143704   9.278   2.371   0.036
14609TIP3    H243705   9.271   2.378   0.187
14610TIP3   OH243706   8.829   2.064   6.941
14610TIP3    H143707   8.798   2.131   7.002
14610TIP3    H243708   8.838   2.109   6.858
14611TIP3   OH243709   4.996   1.025   3.123
14611TIP3    H143710   4.905   1.006   3.099
14611TIP3    H243711   5.042   1.029   3.039
14612TIP3   OH243712   5.271   0.858   1.400
14612TIP3    H143713   5.255   0.929   1.339
14612TIP3    H243714   5.347   0.887   1.451
14613TIP3   OH243715   9.160   4.541   0.484
14613TIP3    H143716   9.202   4.523   0.568
14613TIP3    H243717   9.221   4.506   0.419
14614TIP3   OH243718   2.407   8.042   4.304
14614TIP3    H143719   2.492   8.035   4.261
14614TIP3    H243720   2.406   8.130   4.340
14615TIP3   OH243721   3.101   8.831   4.986
14615TIP3    H143722   3.195   8.814   4.974
14615TIP3    H243723   3.068   8.843   4.897
14616TIP3   OH243724   2.273   1.517   3.800
14616TIP3    H143725   2.338   1.587   3.790
14616TIP3    H243726   2.229   1.513   3.715
14617TIP3   OH243727   0.358   3.897   7.263
14617TIP3    H143728   0.267   3.871   7.251
14617TIP3    H243729   0.368   3.976   7.210
14618TIP3   OH243730   9.181   0.926   3.025
14618TIP3    H143731   9.242   0.926   2.952
14618TIP3    H243732   9.113   0.989   3.000
14619TIP3   OH243733   5.653   7.508   3.236
14619TIP3    H143734   5.603   7.534   3.159
14619TIP3    H243735   5.592   7.517   3.309
14620TIP3   OH243736   0.374   1.950   5.690
14620TIP3    H143737   0.397   1.886   5.623
14620TIP3    H243738   0.420   2.030   5.664
14621TIP3   OH243739   5.248   6.320   5.794
14621TIP3    H143740   5.321   6.352   5.848
14621TIP3    H243741   5.243   6.227   5.813
14622TIP3   OH243742   2.751   0.361   3.237
14622TIP3    H143743   2.662   0.347   3.204
14622TIP3    H243744   2.774   0.449   3.206
14623TIP3   OH243745   7.038   5.634   5.524
14623TIP3    H143746   7.107   5.620   5.588
14623TIP3    H243747   7.006   5.723   5.542
14624TIP3   OH243748   3.675   8.007   2.891
14624TIP3    H143749   3.628   7.926   2.873
14624TIP3    H243750   3.654   8.064   2.817
14625TIP3   OH243751   3.305   3.879   2.638
14625TIP3    H143752   3.350   3.964   2.641
14625TIP3    H243753   3.306   3.855   2.545
14626TIP3   OH243754   8.997   4.648   2.766
14626TIP3    H143755   8.965   4.735   2.743
14626TIP3    H243756   8.977   4.594   2.689
14627TIP3   OH243757   7.737   8.013   5.636
14627TIP3    H143758   7.816   7.979   5.680
14627TIP3    H243759   7.769   8.045   5.552
14628TIP3   OH243760   5.930   0.578   2.769
14628TIP3    H143761   6.018   0.552   2.794
14628TIP3    H243762   5.934   0.674   2.766
14629TIP3   OH243763   5.907   6.172   3.061
14629TIP3    H143764   5.907   6.266   3.040
14629TIP3    H243765   5.987   6.160   3.112
14630TIP3   OH243766   9.021   5.680   5.370
14630TIP3    H143767   8.986   5.661   5.284
14630TIP3    H243768   9.111   5.649   5.368
14631TIP3   OH243769   6.080   7.654   5.186
14631TIP3    H143770   6.076   7.728   5.125
14631TIP3    H243771   6.011   7.672   5.250
14632TIP3   OH243772   4.214   5.840   5.675
14632TIP3    H143773   4.243   5.851   5.585
14632TIP3    H243774   4.130   5.885   5.679
14633TIP3   OH243775   3.590   2.316   7.088
14633TIP3    H143776   3.569   2.335   6.996
14633TIP3    H243777   3.507   2.324   7.134
14634TIP3   OH243778   8.335   2.728   5.661
14634TIP3    H143779   8.389   2.792   5.613
14634TIP3    H243780   8.389   2.649   5.665
14635TIP3   OH243781   9.280   6.978   3.353
14635TIP3    H143782   9.260   7.067   3.383
14635TIP3    H243783   9.339   6.943   3.420
14636TIP3   OH243784   1.474   4.021   2.572
14636TIP3    H143785   1.406   4.088   2.574
14636TIP3    H243786   1.529   4.040   2.648
14637TIP3   OH243787   9.294   3.595   7.498
14637TIP3    H143788   9.370   3.621   7.446
14637TIP3    H243789   9.226   3.657   7.473
14638TIP3   OH243790   9.480   4.441   6.167
14638TIP3    H143791   9.400   4.434   6.219
14638TIP3    H243792   9.468   4.520   6.115
14639TIP3   OH243793   4.237   6.453   4.340
14639TIP3    H143794   4.148   6.489   4.337
14639TIP3    H243795   4.237   6.383   4.275
14640TIP3   OH243796   7.816   0.023   0.865
14640TIP3    H143797   7.886  -0.032   0.901
14640TIP3    H243798   7.856   0.070   0.793
14641TIP3   OH243799   2.184   2.001   0.628
14641TIP3    H143800   2.222   2.026   0.543
14641TIP3    H243801   2.201   1.907   0.635
14642TIP3   OH243802   7.498   5.508   4.678
14642TIP3    H143803   7.436   5.456   4.729
14642TIP3    H243804   7.564   5.445   4.649
14643TIP3   OH243805   1.766   6.614   6.825
14643TIP3    H143806   1.710   6.642   6.752
14643TIP3    H243807   1.766   6.519   6.819
14644TIP3   OH243808   5.953   2.013   4.930
14644TIP3    H143809   5.867   2.038   4.962
14644TIP3    H243810   5.937   1.940   4.870
14645TIP3   OH243811   7.681   5.459   2.067
14645TIP3    H143812   7.656   5.546   2.038
14645TIP3    H243813   7.739   5.473   2.142
14646TIP3   OH243814   1.758   3.358   2.169
14646TIP3    H143815   1.792   3.439   2.132
14646TIP3    H243816   1.831   3.320   2.217
14647TIP3   OH243817   5.093   3.205   2.664
14647TIP3    H143818   5.149   3.139   2.702
14647TIP3    H243819   5.023   3.156   2.620
14648TIP3   OH243820   0.513   7.290   7.594
14648TIP3    H143821   0.505   7.225   7.525
14648TIP3    H243822   0.552   7.242   7.668
14649TIP3   OH243823   0.072   5.360   0.503
14649TIP3    H143824   0.162   5.393   0.498
14649TIP3    H243825   0.053   5.357   0.597
14650TIP3   OH243826   2.152   1.453   0.588
14650TIP3    H143827   2.212   1.461   0.662
14650TIP3    H243828   2.065   1.457   0.628
14651TIP3   OH243829   6.754   0.946   6.349
14651TIP3    H143830   6.823   0.883   6.329
14651TIP3    H243831   6.734   0.931   6.441
14652TIP3   OH243832   5.955   0.169   4.118
14652TIP3    H143833   5.866   0.195   4.141
14652TIP3    H243834   5.944   0.098   4.055
14653TIP3   OH243835   6.979   1.598   2.293
14653TIP3    H143836   6.971   1.659   2.365
14653TIP3    H243837   6.890   1.590   2.258
14654TIP3   OH243838   8.499   2.516   5.612
14654TIP3    H143839   8.517   2.428   5.647
14654TIP3    H243840   8.463   2.500   5.525
14655TIP3   OH243841   0.124   2.357   4.743
14655TIP3    H143842   0.095   2.309   4.821
14655TIP3    H243843   0.050   2.351   4.682
14656TIP3   OH243844   7.722   1.909   2.866
14656TIP3    H143845   7.813   1.881   2.852
14656TIP3    H243846   7.724   1.955   2.950
14657TIP3   OH243847   8.003   4.854   5.144
14657TIP3    H143848   8.070   4.923   5.147
14657TIP3    H243849   7.989   4.838   5.051
14658TIP3   OH243850   3.461   5.892   1.246
14658TIP3    H143851   3.500   5.804   1.251
14658TIP3    H243852   3.450   5.908   1.152
14659TIP3   OH243853   5.489   7.895   0.553
14659TIP3    H143854   5.399   7.905   0.521
14659TIP3    H243855   5.491   7.945   0.634
14660TIP3   OH243856   9.071   5.018   6.614
14660TIP3    H143857   9.061   4.949   6.549
14660TIP3    H243858   8.982   5.032   6.648
14661TIP3   OH243859   0.636   8.062   7.048
14661TIP3    H143860   0.551   8.062   7.093
14661TIP3    H243861   0.624   8.122   6.974
14662TIP3   OH243862   0.808   0.255   2.069
14662TIP3    H143863   0.873   0.316   2.106
14662TIP3    H243864   0.845   0.169   2.084
14663TIP3   OH243865   1.081   2.652   0.349
14663TIP3    H143866   1.025   2.580   0.319
14663TIP3    H243867   1.022   2.711   0.394
14664TIP3   OH243868   2.628   7.173   3.070
14664TIP3    H143869   2.694   7.239   3.047
14664TIP3    H243870   2.677   7.091   3.074
14665TIP3   OH243871   8.786   7.533   5.336
14665TIP3    H143872   8.811   7.607   5.392
14665TIP3    H243873   8.757   7.574   5.254
14666TIP3   OH243874   1.058   8.142   2.954
14666TIP3    H143875   0.968   8.173   2.946
14666TIP3    H243876   1.050   8.054   2.990
14667TIP3   OH243877   8.694   0.558   1.653
14667TIP3    H143878   8.733   0.471   1.642
14667TIP3    H243879   8.646   0.573   1.572
14668TIP3   OH243880   2.235   2.860   4.776
14668TIP3    H143881   2.329   2.840   4.782
14668TIP3    H243882   2.198   2.786   4.728
14669TIP3   OH243883   4.198   3.032   7.397
14669TIP3    H143884   4.141   3.108   7.386
14669TIP3    H243885   4.264   3.060   7.461
14670TIP3   OH243886   9.193   8.523   1.990
14670TIP3    H143887   9.115   8.554   2.036
14670TIP3    H243888   9.212   8.591   1.926
14671TIP3   OH243889   6.247   2.815   3.220
14671TIP3    H143890   6.329   2.806   3.171
14671TIP3    H243891   6.216   2.725   3.230
14672TIP3   OH243892   7.574   8.386   2.063
14672TIP3    H143893   7.638   8.342   2.119
14672TIP3    H243894   7.489   8.350   2.090
14673TIP3   OH243895   4.290   5.926   4.095
14673TIP3    H143896   4.209   5.948   4.049
14673TIP3    H243897   4.330   6.011   4.115
14674TIP3   OH243898   4.140   6.356   2.636
14674TIP3    H143899   4.177   6.419   2.698
14674TIP3    H243900   4.176   6.272   2.663
14675TIP3   OH243901   1.965   1.751   0.379
14675TIP3    H143902   1.979   1.828   0.324
14675TIP3    H243903   1.872   1.753   0.399
14676TIP3   OH243904   1.777   8.877   3.988
14676TIP3    H143905   1.763   8.795   3.941
14676TIP3    H243906   1.761   8.945   3.922
14677TIP3   OH243907   9.045   7.931   5.147
14677TIP3    H143908   9.026   7.937   5.241
14677TIP3    H243909   9.135   7.963   5.139
14678TIP3   OH243910   6.047   8.158   3.461
14678TIP3    H143911   5.954   8.140   3.453
14678TIP3    H243912   6.089   8.097   3.400
14679TIP3   OH243913   3.534   0.106   6.905
14679TIP3    H143914   3.528   0.147   6.991
14679TIP3    H243915   3.628   0.095   6.890
14680TIP3   OH243916   2.886   7.024   3.670
14680TIP3    H143917   2.896   7.033   3.576
14680TIP3    H243918   2.915   6.934   3.689
14681TIP3   OH243919   9.015   6.029   5.118
14681TIP3    H143920   9.015   6.064   5.029
14681TIP3    H243921   8.926   5.994   5.129
14682TIP3   OH243922   5.470   5.715   6.758
14682TIP3    H143923   5.564   5.731   6.772
14682TIP3    H243924   5.452   5.754   6.673
14683TIP3   OH243925   2.323   4.653   4.905
14683TIP3    H143926   2.396   4.664   4.965
14683TIP3    H243927   2.292   4.742   4.889
14684TIP3   OH243928   5.871   6.054   4.190
14684TIP3    H143929   5.901   6.069   4.100
14684TIP3    H243930   5.898   6.132   4.238
14685TIP3   OH243931   1.347   2.232   5.227
14685TIP3    H143932   1.254   2.213   5.240
14685TIP3    H243933   1.391   2.184   5.298
14686TIP3   OH243934   5.480   1.770   5.671
14686TIP3    H143935   5.448   1.740   5.756
14686TIP3    H243936   5.403   1.771   5.614
14687TIP3   OH243937   7.218   4.197   5.334
14687TIP3    H143938   7.294   4.148   5.366
14687TIP3    H243939   7.205   4.165   5.245
14688TIP3   OH243940   0.779   2.626   7.202
14688TIP3    H143941   0.775   2.593   7.112
14688TIP3    H243942   0.694   2.666   7.216
14689TIP3   OH243943   8.173   6.220   3.282
14689TIP3    H143944   8.244   6.157   3.284
14689TIP3    H243945   8.158   6.237   3.188
14690TIP3   OH243946   3.092   8.757   3.927
14690TIP3    H143947   3.051   8.670   3.923
14690TIP3    H243948   3.034   8.813   3.875
14691TIP3   OH243949   2.927   5.298   1.173
14691TIP3    H143950   2.918   5.206   1.200
14691TIP3    H243951   2.845   5.339   1.199
14692TIP3   OH243952   3.951   0.718   0.180
14692TIP3    H143953   4.017   0.693   0.115
14692TIP3    H243954   4.000   0.760   0.250
14693TIP3   OH243955   6.056   1.550   4.708
14693TIP3    H143956   6.094   1.483   4.652
14693TIP3    H243957   5.965   1.524   4.719
14694TIP3   OH243958   6.492   1.685   1.389
14694TIP3    H143959   6.446   1.629   1.452
14694TIP3    H243960   6.524   1.758   1.442
14695TIP3   OH243961   3.085   0.239   7.420
14695TIP3    H143962   3.031   0.255   7.343
14695TIP3    H243963   3.145   0.169   7.394
14696TIP3   OH243964   5.859   8.606   4.198
14696TIP3    H143965   5.828   8.588   4.109
14696TIP3    H243966   5.793   8.665   4.235
14697TIP3   OH243967   4.185   6.565   1.047
14697TIP3    H143968   4.239   6.494   1.080
14697TIP3    H243969   4.246   6.636   1.029
14698TIP3   OH243970   1.006   5.357   4.577
14698TIP3    H143971   1.077   5.293   4.569
14698TIP3    H243972   0.927   5.304   4.591
14699TIP3   OH243973   8.467   3.876   1.175
14699TIP3    H143974   8.487   3.889   1.267
14699TIP3    H243975   8.460   3.781   1.165
14700TIP3   OH243976   4.946   3.564   7.385
14700TIP3    H143977   5.008   3.492   7.399
14700TIP3    H243978   4.864   3.534   7.424
14701TIP3   OH243979   5.695   1.019   0.907
14701TIP3    H143980   5.722   0.927   0.912
14701TIP3    H243981   5.755   1.058   0.844
14702TIP3   OH243982   4.100   4.660   7.780
14702TIP3    H143983   4.183   4.659   7.828
14702TIP3    H243984   4.093   4.572   7.742
14703TIP3   OH243985   5.123   3.666   6.177
14703TIP3    H143986   5.035   3.660   6.139
14703TIP3    H243987   5.110   3.647   6.270
14704TIP3   OH243988   5.236   5.532   2.649
14704TIP3    H143989   5.257   5.513   2.741
14704TIP3    H243990   5.275   5.618   2.633
14705TIP3   OH243991   5.214   0.494   6.130
14705TIP3    H143992   5.125   0.509   6.096
14705TIP3    H243993   5.221   0.398   6.135
14706TIP3   OH243994   4.999   2.091   1.096
14706TIP3    H143995   4.916   2.107   1.053
14706TIP3    H243996   4.989   2.004   1.135
14707TIP3   OH243997   0.123   8.833   5.139
14707TIP3    H143998   0.066   8.761   5.112
14707TIP3    H243999   0.212   8.799   5.125
14708TIP3   OH244000   1.078   5.235   0.813
14708TIP3    H144001   1.131   5.161   0.787
14708TIP3    H244002   1.131   5.312   0.793
14709TIP3   OH244003   9.449   2.273   3.823
14709TIP3    H144004   9.523   2.258   3.764
14709TIP3    H244005   9.425   2.364   3.808
14710TIP3   OH244006   0.518   6.630   4.399
14710TIP3    H144007   0.452   6.570   4.432
14710TIP3    H244008   0.482   6.663   4.316
14711TIP3   OH244009   6.006   2.236   2.462
14711TIP3    H144010   5.912   2.218   2.457
14711TIP3    H244011   6.040   2.211   2.376
14712TIP3   OH244012   7.305   3.577   7.514
14712TIP3    H144013   7.314   3.601   7.607
14712TIP3    H244014   7.246   3.643   7.478
14713TIP3   OH244015   3.727   2.910   1.897
14713TIP3    H144016   3.736   2.894   1.991
14713TIP3    H244017   3.816   2.900   1.863
14714TIP3   OH244018   4.205   6.417   3.552
14714TIP3    H144019   4.238   6.334   3.585
14714TIP3    H244020   4.195   6.403   3.458
14715TIP3   OH244021   2.962   6.139   5.598
14715TIP3    H144022   2.889   6.130   5.659
14715TIP3    H244023   3.018   6.205   5.637
14716TIP3   OH244024   9.455   3.315   2.252
14716TIP3    H144025   9.383   3.376   2.235
14716TIP3    H244026   9.414   3.245   2.303
14717TIP3   OH244027   1.919   0.738   0.981
14717TIP3    H144028   1.993   0.773   1.031
14717TIP3    H244029   1.903   0.652   1.020
14718TIP3   OH244030   8.842   1.736   5.959
14718TIP3    H144031   8.862   1.820   5.999
14718TIP3    H244032   8.816   1.680   6.033
14719TIP3   OH244033   4.318   0.045   1.276
14719TIP3    H144034   4.345   0.120   1.224
14719TIP3    H244035   4.230   0.068   1.307
14720TIP3   OH244036   0.113   7.955   0.235
14720TIP3    H144037   0.043   7.891   0.222
14720TIP3    H244038   0.071   8.027   0.281
14721TIP3   OH244039   8.760   1.982   4.488
14721TIP3    H144040   8.783   1.906   4.435
14721TIP3    H244041   8.843   2.015   4.521
14722TIP3   OH244042   8.044   3.770   6.569
14722TIP3    H144043   8.056   3.818   6.487
14722TIP3    H244044   8.122   3.714   6.575
14723TIP3   OH244045   1.423   4.187   0.314
14723TIP3    H144046   1.349   4.183   0.375
14723TIP3    H244047   1.401   4.123   0.247
14724TIP3   OH244048   8.617   6.476   0.627
14724TIP3    H144049   8.578   6.478   0.540
14724TIP3    H244050   8.709   6.498   0.614
14725TIP3   OH244051   0.679   6.496   2.344
14725TIP3    H144052   0.616   6.457   2.405
14725TIP3    H244053   0.633   6.499   2.261
14726TIP3   OH244054   1.163   7.407   4.464
14726TIP3    H144055   1.102   7.442   4.528
14726TIP3    H244056   1.247   7.449   4.484
14727TIP3   OH244057   4.132   1.066   2.008
14727TIP3    H144058   4.206   1.112   2.046
14727TIP3    H244059   4.160   0.974   2.003
14728TIP3   OH244060   2.244   2.644   3.936
14728TIP3    H144061   2.156   2.641   3.972
14728TIP3    H244062   2.271   2.552   3.931
14729TIP3   OH244063   6.577   6.824   0.252
14729TIP3    H144064   6.633   6.897   0.280
14729TIP3    H244065   6.544   6.787   0.333
14730TIP3   OH244066   4.839   2.865   7.012
14730TIP3    H144067   4.910   2.929   7.015
14730TIP3    H244068   4.818   2.855   6.919
14731TIP3   OH244069   5.794   7.035   4.579
14731TIP3    H144070   5.708   6.999   4.604
14731TIP3    H244071   5.850   7.017   4.655
14732TIP3   OH244072   4.606   0.786   6.634
14732TIP3    H144073   4.591   0.830   6.718
14732TIP3    H244074   4.524   0.797   6.586
14733TIP3   OH244075   1.059   7.579   7.754
14733TIP3    H144076   1.001   7.630   7.697
14733TIP3    H244077   1.007   7.564   7.834
14734TIP3   OH244078   2.676   6.202   2.609
14734TIP3    H144079   2.722   6.164   2.684
14734TIP3    H244080   2.675   6.131   2.544
14735TIP3   OH244081   4.122   4.216   0.342
14735TIP3    H144082   4.052   4.208   0.278
14735TIP3    H244083   4.109   4.142   0.401
14736TIP3   OH244084   8.063   2.800   0.253
14736TIP3    H144085   8.103   2.792   0.166
14736TIP3    H244086   8.120   2.861   0.299
14737TIP3   OH244087   5.457   6.796   4.277
14737TIP3    H144088   5.388   6.771   4.215
14737TIP3    H244089   5.497   6.713   4.303
14738TIP3   OH244090   7.283   4.654   3.306
14738TIP3    H144091   7.293   4.705   3.226
14738TIP3    H244092   7.246   4.715   3.369
14739TIP3   OH244093   9.144   7.198   0.308
14739TIP3    H144094   9.138   7.136   0.381
14739TIP3    H244095   9.109   7.149   0.233
14740TIP3   OH244096   2.508   6.073   1.786
14740TIP3    H144097   2.457   5.994   1.805
14740TIP3    H244098   2.443   6.138   1.762
14741TIP3   OH244099   3.012   3.078   4.982
14741TIP3    H144100   2.932   3.063   5.032
14741TIP3    H244101   3.082   3.063   5.045
14742TIP3   OH244102   4.799   4.928   1.967
14742TIP3    H144103   4.869   4.994   1.964
14742TIP3    H244104   4.779   4.919   2.060
14743TIP3   OH244105   7.056   1.684   5.632
14743TIP3    H144106   7.083   1.594   5.648
14743TIP3    H244107   7.049   1.691   5.537
14744TIP3   OH244108   5.808   8.209   4.197
14744TIP3    H144109   5.733   8.268   4.200
14744TIP3    H244110   5.821   8.191   4.104
14745TIP3   OH244111   8.212   2.720   5.108
14745TIP3    H144112   8.139   2.764   5.064
14745TIP3    H244113   8.219   2.635   5.064
14746TIP3   OH244114   9.294   2.863   6.108
14746TIP3    H144115   9.213   2.820   6.081
14746TIP3    H244116   9.359   2.794   6.111
14747TIP3   OH244117   0.830   7.692   3.967
14747TIP3    H144118   0.777   7.642   4.028
14747TIP3    H244119   0.920   7.665   3.986
14748TIP3   OH244120   1.464   3.776   1.180
14748TIP3    H144121   1.368   3.778   1.175
14748TIP3    H244122   1.493   3.836   1.111
14749TIP3   OH244123   7.400   7.464   4.135
14749TIP3    H144124   7.334   7.528   4.160
14749TIP3    H244125   7.434   7.497   4.052
14750TIP3   OH244126   4.580   7.809   1.740
14750TIP3    H144127   4.494   7.771   1.759
14750TIP3    H244128   4.628   7.737   1.698
14751TIP3   OH244129   2.499   4.796   5.754
14751TIP3    H144130   2.487   4.881   5.797
14751TIP3    H244131   2.420   4.785   5.701
14752TIP3   OH244132   8.111   4.063   7.718
14752TIP3    H144133   8.143   4.090   7.632
14752TIP3    H244134   8.182   4.012   7.756
14753TIP3   OH244135   4.981   1.703   5.363
14753TIP3    H144136   4.933   1.627   5.397
14753TIP3    H244137   4.965   1.772   5.426
14754TIP3   OH244138   2.630   0.501   3.745
14754TIP3    H144139   2.549   0.528   3.702
14754TIP3    H244140   2.670   0.584   3.774
14755TIP3   OH244141   7.105   4.645   1.059
14755TIP3    H144142   7.064   4.592   0.991
14755TIP3    H244143   7.191   4.605   1.073
14756TIP3   OH244144   4.956   4.394   4.941
14756TIP3    H144145   5.025   4.340   4.977
14756TIP3    H244146   4.998   4.444   4.871
14757TIP3   OH244147   4.936   0.977   1.396
14757TIP3    H144148   4.922   1.068   1.369
14757TIP3    H244149   4.970   0.984   1.485
14758TIP3   OH244150   6.511   2.467   7.622
14758TIP3    H144151   6.564   2.522   7.564
14758TIP3    H244152   6.551   2.380   7.615
14759TIP3   OH244153   6.794   6.697   0.894
14759TIP3    H144154   6.795   6.624   0.832
14759TIP3    H244155   6.718   6.680   0.950
14760TIP3   OH244156   0.567   6.941   4.841
14760TIP3    H144157   0.620   6.973   4.767
14760TIP3    H244158   0.566   7.015   4.902
14761TIP3   OH244159   4.183   2.617   6.371
14761TIP3    H144160   4.099   2.582   6.401
14761TIP3    H244161   4.221   2.546   6.319
14762TIP3   OH244162   4.992   8.675   0.289
14762TIP3    H144163   5.076   8.720   0.291
14762TIP3    H244164   4.960   8.678   0.380
14763TIP3   OH244165   8.571   3.537   3.331
14763TIP3    H144166   8.626   3.503   3.401
14763TIP3    H244167   8.499   3.582   3.376
14764TIP3   OH244168   6.372   0.619   7.482
14764TIP3    H144169   6.286   0.639   7.447
14764TIP3    H244170   6.363   0.531   7.519
14765TIP3   OH244171   1.891   5.774   0.815
14765TIP3    H144172   1.986   5.782   0.806
14765TIP3    H244173   1.879   5.689   0.858
14766TIP3   OH244174   3.450   1.930   0.180
14766TIP3    H144175   3.516   1.871   0.144
14766TIP3    H244176   3.481   1.950   0.268
14767TIP3   OH244177   2.455   7.255   4.516
14767TIP3    H144178   2.541   7.239   4.478
14767TIP3    H244179   2.447   7.191   4.587
14768TIP3   OH244180   6.143   0.278   3.939
14768TIP3    H144181   6.182   0.360   3.969
14768TIP3    H244182   6.080   0.255   4.008
14769TIP3   OH244183   1.954   5.450   4.967
14769TIP3    H144184   1.991   5.490   5.045
14769TIP3    H244185   1.982   5.507   4.895
14770TIP3   OH244186   8.696   5.347   3.526
14770TIP3    H144187   8.680   5.421   3.468
14770TIP3    H244188   8.744   5.284   3.472
14771TIP3   OH244189   0.482   1.206   6.943
14771TIP3    H144190   0.452   1.293   6.916
14771TIP3    H244191   0.554   1.185   6.883
14772TIP3   OH244192   1.514   0.134   4.032
14772TIP3    H144193   1.603   0.103   4.049
14772TIP3    H244194   1.475   0.066   3.978
14773TIP3   OH244195   6.876   8.817   1.640
14773TIP3    H144196   6.892   8.893   1.696
14773TIP3    H244197   6.954   8.763   1.649
14774TIP3   OH244198   0.728   3.430   4.358
14774TIP3    H144199   0.823   3.441   4.366
14774TIP3    H244200   0.711   3.346   4.403
14775TIP3   OH244201   1.314   8.253   2.959
14775TIP3    H144202   1.310   8.315   2.886
14775TIP3    H244203   1.230   8.207   2.956
14776TIP3   OH244204   6.741   7.380   4.646
14776TIP3    H144205   6.775   7.294   4.621
14776TIP3    H244206   6.687   7.407   4.572
14777TIP3   OH244207   3.713   1.898   3.408
14777TIP3    H144208   3.702   1.929   3.497
14777TIP3    H244209   3.700   1.976   3.354
14778TIP3   OH244210   3.895   0.233   7.309
14778TIP3    H144211   3.946   0.234   7.390
14778TIP3    H244212   3.922   0.312   7.263
14779TIP3   OH244213   0.519   5.701   3.025
14779TIP3    H144214   0.512   5.770   3.091
14779TIP3    H244215   0.609   5.708   2.992
14780TIP3   OH244216   1.674   8.971   0.399
14780TIP3    H144217   1.631   8.886   0.406
14780TIP3    H244218   1.711   8.973   0.311
14781TIP3   OH244219   9.226   3.795   5.609
14781TIP3    H144220   9.258   3.837   5.529
14781TIP3    H244221   9.133   3.818   5.613
14782TIP3   OH244222   1.403   5.196   2.519
14782TIP3    H144223   1.320   5.223   2.559
14782TIP3    H244224   1.380   5.171   2.430
14783TIP3   OH244225   4.526   5.538   7.389
14783TIP3    H144226   4.506   5.446   7.377
14783TIP3    H244227   4.610   5.539   7.434
14784TIP3   OH244228   7.961   1.453   1.193
14784TIP3    H144229   8.040   1.484   1.148
14784TIP3    H244230   7.912   1.405   1.126
14785TIP3   OH244231   7.787   5.732   4.233
14785TIP3    H144232   7.769   5.684   4.152
14785TIP3    H244233   7.749   5.819   4.219
14786TIP3   OH244234   0.074   0.999   2.390
14786TIP3    H144235   0.042   0.996   2.300
14786TIP3    H244236   0.110   1.088   2.398
14787TIP3   OH244237   6.223   1.655   7.493
14787TIP3    H144238   6.213   1.676   7.400
14787TIP3    H244239   6.217   1.739   7.538
14788TIP3   OH244240   8.985   1.273   5.957
14788TIP3    H144241   8.981   1.305   6.047
14788TIP3    H244242   8.994   1.352   5.904
14789TIP3   OH244243   7.319   1.285   7.701
14789TIP3    H144244   7.266   1.361   7.678
14789TIP3    H244245   7.264   1.235   7.762
14790TIP3   OH244246   8.952   8.541   5.861
14790TIP3    H144247   9.011   8.605   5.901
14790TIP3    H244248   8.865   8.574   5.881
14791TIP3   OH244249   2.571   1.736   7.362
14791TIP3    H144250   2.650   1.737   7.308
14791TIP3    H244251   2.499   1.734   7.298
14792TIP3   OH244252   7.567   2.086   2.168
14792TIP3    H144253   7.574   2.050   2.080
14792TIP3    H244254   7.522   2.018   2.218
14793TIP3   OH244255   6.379   7.375   6.145
14793TIP3    H144256   6.461   7.401   6.103
14793TIP3    H244257   6.311   7.399   6.082
14794TIP3   OH244258   1.741   7.848   7.477
14794TIP3    H144259   1.689   7.867   7.399
14794TIP3    H244260   1.747   7.752   7.479
14795TIP3   OH244261   7.135   4.374   0.588
14795TIP3    H144262   7.218   4.327   0.593
14795TIP3    H244263   7.116   4.381   0.495
14796TIP3   OH244264   8.941   0.073   1.792
14796TIP3    H144265   8.870   0.087   1.854
14796TIP3    H244266   9.010   0.133   1.821
14797TIP3   OH244267   9.140   3.603   1.260
14797TIP3    H144268   9.055   3.565   1.236
14797TIP3    H244269   9.152   3.676   1.199
14798TIP3   OH244270   2.663   4.030   2.648
14798TIP3    H144271   2.661   4.116   2.691
14798TIP3    H244272   2.598   3.978   2.695
14799TIP3   OH244273   3.011   3.752   1.242
14799TIP3    H144274   2.929   3.736   1.194
14799TIP3    H244275   2.985   3.804   1.318
14800TIP3   OH244276   3.663   8.230   3.616
14800TIP3    H144277   3.722   8.191   3.552
14800TIP3    H244278   3.714   8.233   3.697
14801TIP3   OH244279   8.425   2.612   2.855
14801TIP3    H144280   8.515   2.594   2.827
14801TIP3    H244281   8.370   2.567   2.791
14802TIP3   OH244282   5.512   4.100   5.311
14802TIP3    H144283   5.607   4.104   5.321
14802TIP3    H244284   5.477   4.131   5.394
14803TIP3   OH244285   5.226   8.886   2.939
14803TIP3    H144286   5.266   8.949   3.000
14803TIP3    H244287   5.134   8.882   2.966
14804TIP3   OH244288   2.051   6.135   1.573
14804TIP3    H144289   2.033   6.053   1.618
14804TIP3    H244290   1.978   6.147   1.512
14805TIP3   OH244291   2.745   2.435   3.972
14805TIP3    H144292   2.750   2.420   3.878
14805TIP3    H244293   2.834   2.457   3.998
14806TIP3   OH244294   5.161   0.499   6.877
14806TIP3    H144295   5.137   0.590   6.895
14806TIP3    H244296   5.081   0.460   6.842
14807TIP3   OH244297   1.682   1.674   4.817
14807TIP3    H144298   1.771   1.642   4.803
14807TIP3    H244299   1.637   1.657   4.735
14808TIP3   OH244300   5.497   4.951   7.047
14808TIP3    H144301   5.581   4.946   7.093
14808TIP3    H244302   5.438   4.895   7.097
14809TIP3   OH244303   6.432   7.789   2.302
14809TIP3    H144304   6.429   7.845   2.379
14809TIP3    H244305   6.522   7.758   2.298
14810TIP3   OH244306   8.696   4.046   7.670
14810TIP3    H144307   8.626   3.984   7.647
14810TIP3    H244308   8.771   3.991   7.690
14811TIP3   OH244309   3.713   5.589   4.832
14811TIP3    H144310   3.665   5.523   4.781
14811TIP3    H244311   3.659   5.603   4.909
14812TIP3   OH244312   4.915   1.431   6.533
14812TIP3    H144313   4.971   1.366   6.491
14812TIP3    H244314   4.954   1.444   6.620
14813TIP3   OH244315   3.373   2.365   3.651
14813TIP3    H144316   3.354   2.457   3.631
14813TIP3    H244317   3.331   2.350   3.736
14814TIP3   OH244318   3.740   7.873   1.927
14814TIP3    H144319   3.676   7.802   1.923
14814TIP3    H244320   3.825   7.830   1.920
14815TIP3   OH244321   9.277   6.622   4.808
14815TIP3    H144322   9.337   6.694   4.827
14815TIP3    H244323   9.236   6.646   4.725
14816TIP3   OH244324   7.998   2.617   4.842
14816TIP3    H144325   7.988   2.571   4.925
14816TIP3    H244326   8.019   2.707   4.866
14817TIP3   OH244327   4.887   7.487   4.395
14817TIP3    H144328   4.839   7.411   4.429
14817TIP3    H244329   4.832   7.519   4.324
14818TIP3   OH244330   1.382   1.982   5.412
14818TIP3    H144331   1.451   1.917   5.400
14818TIP3    H244332   1.388   2.007   5.504
14819TIP3   OH244333   8.482   9.002   1.073
14819TIP3    H144334   8.523   9.071   1.125
14819TIP3    H244335   8.434   8.950   1.138
14820TIP3   OH244336   8.832   1.364   2.975
14820TIP3    H144337   8.790   1.355   2.889
14820TIP3    H244338   8.766   1.405   3.030
14821TIP3   OH244339   6.965   7.763   5.478
14821TIP3    H144340   6.978   7.704   5.405
14821TIP3    H244341   7.048   7.809   5.488
14822TIP3   OH244342   1.750   0.153   7.273
14822TIP3    H144343   1.841   0.161   7.302
14822TIP3    H244344   1.717   0.076   7.319
14823TIP3   OH244345   8.384   1.975   4.071
14823TIP3    H144346   8.337   1.994   4.152
14823TIP3    H244347   8.338   2.026   4.004
14824TIP3   OH244348   1.002   4.041   6.294
14824TIP3    H144349   0.983   3.963   6.241
14824TIP3    H244350   0.934   4.042   6.360
14825TIP3   OH244351   9.362   5.787   2.533
14825TIP3    H144352   9.293   5.844   2.498
14825TIP3    H244353   9.320   5.738   2.603
14826TIP3   OH244354   8.745   3.885   7.061
14826TIP3    H144355   8.816   3.825   7.041
14826TIP3    H244356   8.771   3.927   7.143
14827TIP3   OH244357   3.156   8.444   1.112
14827TIP3    H144358   3.094   8.409   1.176
14827TIP3    H244359   3.104   8.500   1.056
14828TIP3   OH244360   9.509   0.545   2.222
14828TIP3    H144361   9.467   0.531   2.307
14828TIP3    H244362   9.455   0.612   2.180
14829TIP3   OH244363   8.352   5.115   2.927
14829TIP3    H144364   8.355   5.210   2.917
14829TIP3    H244365   8.328   5.102   3.019
14830TIP3   OH244366   2.190   6.685   4.473
14830TIP3    H144367   2.120   6.720   4.417
14830TIP3    H244368   2.160   6.701   4.562
14831TIP3   OH244369   0.360   6.663   5.879
14831TIP3    H144370   0.386   6.726   5.946
14831TIP3    H244371   0.442   6.624   5.849
14832TIP3   OH244372   1.306   1.864   0.612
14832TIP3    H144373   1.377   1.801   0.630
14832TIP3    H244374   1.327   1.899   0.525
14833TIP3   OH244375   5.099   8.420   5.670
14833TIP3    H144376   5.152   8.480   5.616
14833TIP3    H244377   5.144   8.336   5.664
14834TIP3   OH244378   0.160   4.065   1.710
14834TIP3    H144379   0.119   4.152   1.704
14834TIP3    H244380   0.203   4.065   1.795
14835TIP3   OH244381   3.049   6.514   6.599
14835TIP3    H144382   3.017   6.593   6.642
14835TIP3    H244383   3.142   6.529   6.585
14836TIP3   OH244384   6.604   7.701   4.592
14836TIP3    H144385   6.588   7.794   4.606
14836TIP3    H244386   6.680   7.681   4.647
14837TIP3   OH244387   2.623   1.343   3.695
14837TIP3    H144388   2.706   1.295   3.704
14837TIP3    H244389   2.637   1.400   3.620
14838TIP3   OH244390   3.246   4.223   0.398
14838TIP3    H144391   3.230   4.192   0.309
14838TIP3    H244392   3.335   4.258   0.395
14839TIP3   OH244393   4.363   2.338   6.303
14839TIP3    H144394   4.293   2.281   6.336
14839TIP3    H244395   4.431   2.332   6.369
14840TIP3   OH244396   2.927   5.183   6.049
14840TIP3    H144397   2.859   5.145   6.104
14840TIP3    H244398   2.897   5.167   5.959
14841TIP3   OH244399   5.324   8.801   7.494
14841TIP3    H144400   5.258   8.869   7.480
14841TIP3    H244401   5.274   8.719   7.496
14842TIP3   OH244402   2.742   8.480   5.719
14842TIP3    H144403   2.813   8.439   5.671
14842TIP3    H244404   2.772   8.481   5.810
14843TIP3   OH244405   6.780   6.528   0.672
14843TIP3    H144406   6.770   6.433   0.673
14843TIP3    H244407   6.847   6.544   0.605
14844TIP3   OH244408   5.105   4.164   3.329
14844TIP3    H144409   5.188   4.118   3.345
14844TIP3    H244410   5.038   4.103   3.359
14845TIP3   OH244411   8.051   2.918   2.396
14845TIP3    H144412   8.112   2.951   2.462
14845TIP3    H244413   7.966   2.920   2.440
14846TIP3   OH244414   1.389   7.096   6.106
14846TIP3    H144415   1.356   7.181   6.078
14846TIP3    H244416   1.447   7.069   6.034
14847TIP3   OH244417   4.303   1.097   5.600
14847TIP3    H144418   4.298   1.009   5.561
14847TIP3    H244419   4.221   1.107   5.648
14848TIP3   OH244420   7.694   4.412   5.104
14848TIP3    H144421   7.749   4.455   5.039
14848TIP3    H244422   7.699   4.467   5.182
14849TIP3   OH244423   2.107   5.273   5.229
14849TIP3    H144424   2.116   5.244   5.138
14849TIP3    H244425   2.110   5.369   5.224
14850TIP3   OH244426   1.531   5.890   3.305
14850TIP3    H144427   1.540   5.795   3.295
14850TIP3    H244428   1.443   5.902   3.339
14851TIP3   OH244429   2.676   6.276   1.880
14851TIP3    H144430   2.630   6.345   1.928
14851TIP3    H244431   2.620   6.199   1.890
14852TIP3   OH244432   2.512   2.624   4.978
14852TIP3    H144433   2.576   2.568   4.935
14852TIP3    H244434   2.562   2.701   5.005
14853TIP3   OH244435   7.789   1.450   1.962
14853TIP3    H144436   7.789   1.354   1.957
14853TIP3    H244437   7.702   1.471   1.996
14854TIP3   OH244438   7.567   6.017   0.528
14854TIP3    H144439   7.473   6.000   0.537
14854TIP3    H244440   7.571   6.105   0.491
14855TIP3   OH244441   2.820   0.797   2.349
14855TIP3    H144442   2.893   0.834   2.300
14855TIP3    H244443   2.861   0.741   2.415
14856TIP3   OH244444   2.928   5.505   6.777
14856TIP3    H144445   2.933   5.577   6.840
14856TIP3    H244446   3.002   5.448   6.799
14857TIP3   OH244447   0.060   3.570   3.392
14857TIP3    H144448  -0.010   3.633   3.376
14857TIP3    H244449   0.016   3.485   3.390
14858TIP3   OH244450   3.793   1.915   6.305
14858TIP3    H144451   3.884   1.909   6.277
14858TIP3    H244452   3.744   1.867   6.239
14859TIP3   OH244453   1.131   7.088   5.421
14859TIP3    H144454   1.127   7.036   5.342
14859TIP3    H244455   1.126   7.024   5.493
14860TIP3   OH244456   7.959   0.126   2.592
14860TIP3    H144457   7.903   0.150   2.518
14860TIP3    H244458   8.021   0.199   2.599
14861TIP3   OH244459   6.276   3.066   4.889
14861TIP3    H144460   6.310   3.076   4.800
14861TIP3    H244461   6.234   3.150   4.907
14862TIP3   OH244462   5.170   8.024   7.296
14862TIP3    H144463   5.145   8.113   7.320
14862TIP3    H244464   5.244   8.034   7.236
14863TIP3   OH244465   8.712   1.052   2.917
14863TIP3    H144466   8.772   1.013   2.981
14863TIP3    H244467   8.650   0.982   2.896
14864TIP3   OH244468   4.946   4.293   6.496
14864TIP3    H144469   4.986   4.351   6.561
14864TIP3    H244470   5.020   4.263   6.443
14865TIP3   OH244471   8.360   4.259   0.923
14865TIP3    H144472   8.378   4.244   1.016
14865TIP3    H244473   8.272   4.224   0.910
14866TIP3   OH244474   3.082   7.413   2.872
14866TIP3    H144475   3.023   7.423   2.946
14866TIP3    H244476   3.073   7.495   2.823
14867TIP3   OH244477   4.134   8.094   4.645
14867TIP3    H144478   4.201   8.026   4.645
14867TIP3    H244479   4.051   8.046   4.643
14868TIP3   OH244480   8.459   6.309   3.617
14868TIP3    H144481   8.514   6.244   3.661
14868TIP3    H244482   8.493   6.393   3.648
14869TIP3   OH244483   9.392   6.943   3.604
14869TIP3    H144484   9.307   6.985   3.618
14869TIP3    H244485   9.391   6.866   3.661
14870TIP3   OH244486   4.053   7.742   2.532
14870TIP3    H144487   4.113   7.813   2.553
14870TIP3    H244488   4.030   7.703   2.616
14871TIP3   OH244489   5.045   3.441   5.583
14871TIP3    H144490   5.061   3.410   5.673
14871TIP3    H244491   5.016   3.532   5.595
14872TIP3   OH244492   0.700   0.993   0.819
14872TIP3    H144493   0.746   0.925   0.867
14872TIP3    H244494   0.642   0.946   0.759
14873TIP3   OH244495   4.205   3.483   5.979
14873TIP3    H144496   4.276   3.547   5.975
14873TIP3    H244497   4.139   3.516   5.917
14874TIP3   OH244498   8.811   6.298   2.949
14874TIP3    H144499   8.839   6.299   3.040
14874TIP3    H244500   8.885   6.334   2.901
14875TIP3   OH244501   7.933   8.779   5.665
14875TIP3    H144502   7.923   8.769   5.570
14875TIP3    H244503   7.847   8.809   5.695
14876TIP3   OH244504   5.523   2.749   4.689
14876TIP3    H144505   5.518   2.655   4.707
14876TIP3    H244506   5.432   2.777   4.680
14877TIP3   OH244507   1.128   2.966   4.305
14877TIP3    H144508   1.042   3.007   4.311
14877TIP3    H244509   1.174   2.996   4.383
14878TIP3   OH244510   4.087   4.231   0.656
14878TIP3    H144511   4.086   4.322   0.686
14878TIP3    H244512   3.994   4.208   0.644
14879TIP3   OH244513   7.246   6.757   1.796
14879TIP3    H144514   7.275   6.814   1.867
14879TIP3    H244515   7.326   6.711   1.768
14880TIP3   OH244516   1.109   3.514   3.748
14880TIP3    H144517   1.173   3.533   3.818
14880TIP3    H244518   1.073   3.429   3.772
14881TIP3   OH244519   9.046   6.186   2.002
14881TIP3    H144520   9.005   6.242   1.937
14881TIP3    H244521   8.974   6.143   2.047
14882TIP3   OH244522   4.994   6.523   0.581
14882TIP3    H144523   5.087   6.501   0.590
14882TIP3    H244524   4.979   6.589   0.649
14883TIP3   OH244525   6.794   4.298   1.321
14883TIP3    H144526   6.733   4.336   1.258
14883TIP3    H244527   6.825   4.218   1.278
14884TIP3   OH244528   1.961   0.403   5.934
14884TIP3    H144529   1.933   0.444   6.015
14884TIP3    H244530   1.922   0.316   5.936
14885TIP3   OH244531   1.618   2.066   2.343
14885TIP3    H144532   1.526   2.069   2.315
14885TIP3    H244533   1.667   2.056   2.261
14886TIP3   OH244534   6.184   8.881   4.649
14886TIP3    H144535   6.098   8.851   4.620
14886TIP3    H244536   6.244   8.856   4.578
14887TIP3   OH244537   4.615   6.419   5.473
14887TIP3    H144538   4.626   6.396   5.381
14887TIP3    H244539   4.540   6.368   5.502
14888TIP3   OH244540   2.339   1.105   3.257
14888TIP3    H144541   2.340   1.024   3.206
14888TIP3    H244542   2.386   1.168   3.203
14889TIP3   OH244543   9.446   1.375   4.555
14889TIP3    H144544   9.386   1.411   4.490
14889TIP3    H244545   9.533   1.398   4.523
14890TIP3   OH244546   0.605   1.123   3.712
14890TIP3    H144547   0.530   1.182   3.714
14890TIP3    H244548   0.645   1.138   3.627
14891TIP3   OH244549   9.338   4.865   3.660
14891TIP3    H144550   9.431   4.888   3.661
14891TIP3    H244551   9.308   4.891   3.572
14892TIP3   OH244552   0.149   0.137   4.292
14892TIP3    H144553   0.229   0.170   4.333
14892TIP3    H244554   0.147   0.044   4.316
14893TIP3   OH244555   7.097   5.584   2.431
14893TIP3    H144556   7.126   5.501   2.468
14893TIP3    H244557   7.002   5.577   2.425
14894TIP3   OH244558   5.972   8.968   1.594
14894TIP3    H144559   5.876   8.973   1.598
14894TIP3    H244560   5.989   8.893   1.537
14895TIP3   OH244561   5.370   8.632   1.662
14895TIP3    H144562   5.335   8.717   1.637
14895TIP3    H244563   5.417   8.648   1.743
14896TIP3   OH244564   4.501   1.662   1.930
14896TIP3    H144565   4.407   1.677   1.942
14896TIP3    H244566   4.506   1.602   1.855
14897TIP3   OH244567   9.507   6.860   0.845
14897TIP3    H144568   9.592   6.817   0.856
14897TIP3    H244569   9.487   6.850   0.751
14898TIP3   OH244570   6.604   3.589   1.131
14898TIP3    H144571   6.538   3.624   1.191
14898TIP3    H244572   6.559   3.581   1.047
14899TIP3   OH244573   1.334   7.056   0.242
14899TIP3    H144574   1.366   6.999   0.172
14899TIP3    H244575   1.271   7.114   0.198
14900TIP3   OH244576   9.304   8.741   0.232
14900TIP3    H144577   9.312   8.765   0.139
14900TIP3    H244578   9.210   8.729   0.245
14901TIP3   OH244579   1.257   5.640   2.707
14901TIP3    H144580   1.217   5.610   2.626
14901TIP3    H244581   1.183   5.657   2.766
14902TIP3   OH244582   1.505   9.029   6.405
14902TIP3    H144583   1.562   8.998   6.476
14902TIP3    H244584   1.449   8.953   6.385
14903TIP3   OH244585   7.119   6.014   6.383
14903TIP3    H144586   7.040   6.061   6.358
14903TIP3    H244587   7.137   6.043   6.473
14904TIP3   OH244588   6.949   4.450   6.483
14904TIP3    H144589   6.940   4.499   6.401
14904TIP3    H244590   6.921   4.361   6.461
14905TIP3   OH244591   3.858   4.788   3.988
14905TIP3    H144592   3.929   4.725   3.975
14905TIP3    H244593   3.839   4.784   4.082
14906TIP3   OH244594   7.471   4.039   1.104
14906TIP3    H144595   7.513   3.970   1.053
14906TIP3    H244596   7.445   3.995   1.186
14907TIP3   OH244597   6.130   8.613   4.102
14907TIP3    H144598   6.053   8.614   4.159
14907TIP3    H244599   6.143   8.704   4.077
14908TIP3   OH244600   3.431   4.075   5.280
14908TIP3    H144601   3.492   4.001   5.279
14908TIP3    H244602   3.385   4.069   5.197
14909TIP3   OH244603   8.956   8.038   2.525
14909TIP3    H144604   8.948   8.049   2.431
14909TIP3    H244605   8.866   8.021   2.555
14910TIP3   OH244606   6.622   5.053   0.092
14910TIP3    H144607   6.711   5.076   0.121
14910TIP3    H244608   6.565   5.106   0.147
14911TIP3   OH244609   3.886   4.476   6.567
14911TIP3    H144610   3.816   4.526   6.609
14911TIP3    H244611   3.868   4.482   6.474
14912TIP3   OH244612   6.300   2.604   3.543
14912TIP3    H144613   6.335   2.620   3.455
14912TIP3    H244614   6.367   2.637   3.602
14913TIP3   OH244615   9.433   7.404   4.132
14913TIP3    H144616   9.375   7.408   4.208
14913TIP3    H244617   9.380   7.365   4.063
14914TIP3   OH244618   2.141   1.701   0.019
14914TIP3    H144619   2.163   1.674   0.108
14914TIP3    H244620   2.224   1.734  -0.017
14915TIP3   OH244621   2.941   4.337   5.857
14915TIP3    H144622   2.913   4.273   5.923
14915TIP3    H244623   3.022   4.301   5.822
14916TIP3   OH244624   5.269   3.017   6.913
14916TIP3    H144625   5.353   2.979   6.886
14916TIP3    H244626   5.259   3.095   6.858
14917TIP3   OH244627   6.020   2.961   3.780
14917TIP3    H144628   6.023   2.942   3.687
14917TIP3    H244629   5.945   3.020   3.791
14918TIP3   OH244630   4.263   8.732   4.276
14918TIP3    H144631   4.330   8.666   4.262
14918TIP3    H244632   4.306   8.815   4.257
14919TIP3   OH244633   0.092   8.146   6.987
14919TIP3    H144634   0.056   8.136   6.899
14919TIP3    H244635   0.108   8.057   7.017
14920TIP3   OH244636   7.579   8.442   4.811
14920TIP3    H144637   7.671   8.434   4.836
14920TIP3    H244638   7.578   8.509   4.742
14921TIP3   OH244639   3.784   1.255   0.846
14921TIP3    H144640   3.770   1.165   0.814
14921TIP3    H244641   3.756   1.310   0.773
14922TIP3   OH244642   1.904   4.820   5.665
14922TIP3    H144643   1.926   4.855   5.751
14922TIP3    H244644   1.810   4.838   5.655
14923TIP3   OH244645   0.271   1.312   6.155
14923TIP3    H144646   0.179   1.319   6.179
14923TIP3    H244647   0.274   1.239   6.093
14924TIP3   OH244648   2.925   1.930   0.649
14924TIP3    H144649   2.903   1.994   0.718
14924TIP3    H244650   2.868   1.953   0.576
14925TIP3   OH244651   5.662   4.660   0.196
14925TIP3    H144652   5.701   4.737   0.154
14925TIP3    H244653   5.569   4.678   0.198
14926TIP3   OH244654   3.521   3.768   7.241
14926TIP3    H144655   3.480   3.846   7.279
14926TIP3    H244656   3.591   3.802   7.186
14927TIP3   OH244657   4.756   6.492   1.123
14927TIP3    H144658   4.717   6.524   1.204
14927TIP3    H244659   4.825   6.554   1.103
14928TIP3   OH244660   0.771   0.811   0.433
14928TIP3    H144661   0.726   0.773   0.358
14928TIP3    H244662   0.702   0.824   0.498
14929TIP3   OH244663   2.966   6.357   3.001
14929TIP3    H144664   3.055   6.357   3.036
14929TIP3    H244665   2.922   6.427   3.049
14930TIP3   OH244666   1.173   4.253   2.282
14930TIP3    H144667   1.126   4.196   2.221
14930TIP3    H244668   1.265   4.227   2.273
14931TIP3   OH244669   6.982   1.201   4.715
14931TIP3    H144670   6.913   1.216   4.651
14931TIP3    H244671   7.005   1.109   4.706
14932TIP3   OH244672   8.201   6.551   5.839
14932TIP3    H144673   8.235   6.518   5.923
14932TIP3    H244674   8.142   6.482   5.809
14933TIP3   OH244675   5.893   7.966   5.253
14933TIP3    H144676   5.900   8.061   5.247
14933TIP3    H244677   5.955   7.933   5.189
14934TIP3   OH244678   2.091   8.510   2.719
14934TIP3    H144679   2.063   8.435   2.666
14934TIP3    H244680   2.148   8.560   2.661
14935TIP3   OH244681   6.915   6.858   6.496
14935TIP3    H144682   6.820   6.859   6.508
14935TIP3    H244683   6.929   6.907   6.415
14936TIP3   OH244684   4.849   8.116   4.554
14936TIP3    H144685   4.892   8.146   4.473
14936TIP3    H244686   4.757   8.138   4.541
14937TIP3   OH244687   6.270   5.550   5.207
14937TIP3    H144688   6.214   5.621   5.175
14937TIP3    H244689   6.263   5.482   5.139
14938TIP3   OH244690   9.227   0.633   2.928
14938TIP3    H144691   9.165   0.695   2.965
14938TIP3    H244692   9.295   0.687   2.889
14939TIP3   OH244693   7.962   5.027   7.143
14939TIP3    H144694   7.923   4.955   7.094
14939TIP3    H244695   7.902   5.039   7.217
14940TIP3   OH244696   0.978   6.052   4.061
14940TIP3    H144697   1.053   6.067   4.004
14940TIP3    H244698   0.937   6.139   4.070
14941TIP3   OH244699   6.106   5.943   4.572
14941TIP3    H144700   6.044   6.016   4.569
14941TIP3    H244701   6.106   5.916   4.664
14942TIP3   OH244702   9.474   0.383   0.850
14942TIP3    H144703   9.557   0.338   0.865
14942TIP3    H244704   9.414   0.344   0.913
14943TIP3   OH244705   2.829   3.411   5.221
14943TIP3    H144706   2.808   3.432   5.312
14943TIP3    H244707   2.918   3.443   5.208
14944TIP3   OH244708   1.095   6.444   3.030
14944TIP3    H144709   1.161   6.486   2.974
14944TIP3    H244710   1.012   6.484   3.003
14945TIP3   OH244711   0.831   2.336   3.141
14945TIP3    H144712   0.859   2.246   3.159
14945TIP3    H244713   0.743   2.326   3.105
14946TIP3   OH244714   4.177   0.578   0.864
14946TIP3    H144715   4.177   0.572   0.959
14946TIP3    H244716   4.254   0.630   0.843
14947TIP3   OH244717   8.492   1.963   4.566
14947TIP3    H144718   8.585   1.976   4.545
14947TIP3    H244719   8.460   2.050   4.588
14948TIP3   OH244720   4.717   3.863   0.072
14948TIP3    H144721   4.810   3.869   0.050
14948TIP3    H244722   4.677   3.819  -0.003
14949TIP3   OH244723   7.321   2.652   7.028
14949TIP3    H144724   7.354   2.588   7.091
14949TIP3    H244725   7.293   2.599   6.953
14950TIP3   OH244726   8.432   8.615   6.863
14950TIP3    H144727   8.441   8.685   6.927
14950TIP3    H244728   8.506   8.557   6.881
14951TIP3   OH244729   4.373   8.655   6.068
14951TIP3    H144730   4.312   8.718   6.105
14951TIP3    H244731   4.405   8.604   6.143
14952TIP3   OH244732   1.474   0.767   7.327
14952TIP3    H144733   1.448   0.694   7.384
14952TIP3    H244734   1.466   0.732   7.238
14953TIP3   OH244735   3.955   5.694   3.811
14953TIP3    H144736   3.891   5.689   3.740
14953TIP3    H244737   3.966   5.604   3.840
14954TIP3   OH244738   3.609   7.193   3.346
14954TIP3    H144739   3.578   7.215   3.434
14954TIP3    H244740   3.628   7.278   3.306
14955TIP3   OH244741   9.221   6.981   2.967
14955TIP3    H144742   9.229   6.931   3.049
14955TIP3    H244743   9.289   7.048   2.973
14956TIP3   OH244744   1.587   7.213   6.911
14956TIP3    H144745   1.615   7.195   6.821
14956TIP3    H244746   1.505   7.163   6.921
14957TIP3   OH244747   4.769   0.815   1.959
14957TIP3    H144748   4.852   0.789   1.921
14957TIP3    H244749   4.714   0.737   1.955
14958TIP3   OH244750   5.215   7.806   1.068
14958TIP3    H144751   5.156   7.864   1.115
14958TIP3    H244752   5.160   7.733   1.040
14959TIP3   OH244753   4.646   7.199   4.994
14959TIP3    H144754   4.730   7.184   5.037
14959TIP3    H244755   4.589   7.233   5.063
14960TIP3   OH244756   0.179   6.202   4.456
14960TIP3    H144757   0.155   6.258   4.529
14960TIP3    H244758   0.114   6.132   4.456
14961TIP3   OH244759   3.830   2.971   6.582
14961TIP3    H144760   3.761   2.933   6.527
14961TIP3    H244761   3.810   3.064   6.585
14962TIP3   OH244762   1.799   0.442   6.650
14962TIP3    H144763   1.768   0.359   6.687
14962TIP3    H244764   1.728   0.503   6.666
14963TIP3   OH244765   0.937   1.609   1.885
14963TIP3    H144766   1.021   1.641   1.919
14963TIP3    H244767   0.932   1.518   1.914
14964TIP3   OH244768   5.813   4.593   5.712
14964TIP3    H144769   5.896   4.640   5.722
14964TIP3    H244770   5.746   4.658   5.729
14965TIP3   OH244771   6.043   5.477   4.511
14965TIP3    H144772   6.045   5.462   4.606
14965TIP3    H244773   6.022   5.391   4.474
14966TIP3   OH244774   3.593   1.492   7.779
14966TIP3    H144775   3.550   1.465   7.860
14966TIP3    H244776   3.675   1.444   7.778
14967TIP3   OH244777   4.428   3.236   5.120
14967TIP3    H144778   4.482   3.209   5.194
14967TIP3    H244779   4.374   3.307   5.154
14968TIP3   OH244780   8.175   6.925   2.433
14968TIP3    H144781   8.237   6.956   2.499
14968TIP3    H244782   8.155   7.002   2.381
14969TIP3   OH244783   4.608   0.427   1.490
14969TIP3    H144784   4.649   0.352   1.534
14969TIP3    H244785   4.521   0.433   1.529
14970TIP3   OH244786   2.448   0.854   6.902
14970TIP3    H144787   2.447   0.763   6.930
14970TIP3    H244788   2.365   0.866   6.855
14971TIP3   OH244789   4.425   8.821   7.020
14971TIP3    H144790   4.461   8.794   6.935
14971TIP3    H244791   4.390   8.908   7.004
14972TIP3   OH244792   8.058   8.772   3.596
14972TIP3    H144793   8.113   8.850   3.606
14972TIP3    H244794   7.987   8.784   3.658
14973TIP3   OH244795   5.640   0.234   0.214
14973TIP3    H144796   5.669   0.144   0.198
14973TIP3    H244797   5.721   0.284   0.222
14974TIP3   OH244798   9.031   4.616   6.512
14974TIP3    H144799   9.015   4.703   6.474
14974TIP3    H244800   8.986   4.618   6.596
14975TIP3   OH244801   9.310   7.235   4.467
14975TIP3    H144802   9.341   7.325   4.470
14975TIP3    H244803   9.296   7.212   4.559
14976TIP3   OH244804   0.948   3.989   0.134
14976TIP3    H144805   0.946   3.896   0.108
14976TIP3    H244806   0.928   3.988   0.227
14977TIP3   OH244807   1.474   6.195   0.954
14977TIP3    H144808   1.506   6.106   0.939
14977TIP3    H244809   1.454   6.228   0.867
14978TIP3   OH244810   8.402   6.858   4.960
14978TIP3    H144811   8.456   6.835   4.884
14978TIP3    H244812   8.399   6.953   4.959
14979TIP3   OH244813   9.046   1.830   2.366
14979TIP3    H144814   9.037   1.786   2.451
14979TIP3    H244815   8.959   1.863   2.346
14980TIP3   OH244816   7.503   2.313   4.337
14980TIP3    H144817   7.492   2.353   4.250
14980TIP3    H244818   7.417   2.276   4.356
14981TIP3   OH244819   5.475   6.126   4.634
14981TIP3    H144820   5.500   6.096   4.721
14981TIP3    H244821   5.503   6.056   4.575
14982TIP3   OH244822   5.585   7.889   7.787
14982TIP3    H144823   5.648   7.828   7.825
14982TIP3    H244824   5.609   7.893   7.694
14983TIP3   OH244825   6.924   4.450   5.154
14983TIP3    H144826   7.014   4.483   5.164
14983TIP3    H244827   6.910   4.448   5.059
14984TIP3   OH244828   3.701   5.462   5.482
14984TIP3    H144829   3.623   5.493   5.527
14984TIP3    H244830   3.774   5.494   5.536
14985TIP3   OH244831   5.947   8.930   4.935
14985TIP3    H144832   6.025   8.876   4.942
14985TIP3    H244833   5.939   8.973   5.020
14986TIP3   OH244834   4.084   5.556   3.574
14986TIP3    H144835   4.110   5.489   3.511
14986TIP3    H244836   4.006   5.521   3.617
14987TIP3   OH244837   0.467   4.624   2.110
14987TIP3    H144838   0.402   4.686   2.144
14987TIP3    H244839   0.417   4.567   2.052
14988TIP3   OH244840   0.776   0.094   2.330
14988TIP3    H144841   0.755   0.092   2.423
14988TIP3    H244842   0.691   0.086   2.286
14989TIP3   OH244843   5.827   6.051   4.650
14989TIP3    H144844   5.831   6.088   4.562
14989TIP3    H244845   5.800   6.124   4.706
14990TIP3   OH244846   6.986   0.250   7.247
14990TIP3    H144847   7.047   0.294   7.187
14990TIP3    H244848   6.906   0.301   7.242
14991TIP3   OH244849   3.024   3.141   1.972
14991TIP3    H144850   3.033   3.235   1.987
14991TIP3    H244851   3.113   3.108   1.970
14992TIP3   OH244852   8.607   2.273   5.105
14992TIP3    H144853   8.591   2.195   5.053
14992TIP3    H244854   8.670   2.245   5.172
14993TIP3   OH244855   3.639   6.161   3.954
14993TIP3    H144856   3.604   6.249   3.940
14993TIP3    H244857   3.568   6.103   3.924
14994TIP3   OH244858   4.702   5.611   0.777
14994TIP3    H144859   4.730   5.647   0.693
14994TIP3    H244860   4.607   5.618   0.775
14995TIP3   OH244861   2.719   8.447   6.765
14995TIP3    H144862   2.772   8.500   6.825
14995TIP3    H244863   2.754   8.358   6.773
14996TIP3   OH244864   4.590   7.457   0.937
14996TIP3    H144865   4.529   7.531   0.930
14996TIP3    H244866   4.630   7.452   0.850
14997TIP3   OH244867   9.215   7.440   0.545
14997TIP3    H144868   9.145   7.430   0.481
14997TIP3    H244869   9.271   7.363   0.533
14998TIP3   OH244870   2.805   6.766   1.260
14998TIP3    H144871   2.712   6.768   1.284
14998TIP3    H244872   2.807   6.719   1.177
14999TIP3   OH244873   1.176   8.536   5.153
14999TIP3    H144874   1.221   8.482   5.088
14999TIP3    H244875   1.244   8.556   5.218
15000TIP3   OH244876   0.708   6.211   2.092
15000TIP3    H144877   0.731   6.252   2.009
15000TIP3    H244878   0.784   6.157   2.115
15001TIP3   OH244879   0.256   2.561   1.276
15001TIP3    H144880   0.215   2.478   1.250
15001TIP3    H244881   0.193   2.628   1.251
15002TIP3   OH244882   1.727   7.554   1.043
15002TIP3    H144883   1.648   7.568   0.990
15002TIP3    H244884   1.794   7.606   0.999
15003TIP3   OH244885   4.059   4.520   3.433
15003TIP3    H144886   3.976   4.521   3.481
15003TIP3    H244887   4.111   4.590   3.473
15004TIP3   OH244888   4.115   7.202   2.583
15004TIP3    H144889   4.083   7.270   2.643
15004TIP3    H244890   4.123   7.246   2.498
15005TIP3   OH244891   8.976   1.536   4.858
15005TIP3    H144892   8.903   1.486   4.893
15005TIP3    H244893   9.054   1.486   4.884
15006TIP3   OH244894   2.697   1.817   2.960
15006TIP3    H144895   2.687   1.759   3.036
15006TIP3    H244896   2.760   1.883   2.988
15007TIP3   OH244897   3.170   4.294   2.094
15007TIP3    H144898   3.164   4.387   2.072
15007TIP3    H244899   3.090   4.256   2.056
15008TIP3   OH244900   5.615   6.718   5.309
15008TIP3    H144901   5.611   6.808   5.276
15008TIP3    H244902   5.688   6.678   5.261
15009TIP3   OH244903   2.239   4.570   3.118
15009TIP3    H144904   2.270   4.565   3.027
15009TIP3    H244905   2.152   4.610   3.111
15010TIP3   OH244906   7.317   5.663   1.424
15010TIP3    H144907   7.295   5.611   1.347
15010TIP3    H244908   7.286   5.751   1.403
15011TIP3   OH244909   9.254   3.820   4.907
15011TIP3    H144910   9.205   3.824   4.825
15011TIP3    H244911   9.274   3.912   4.927
15012TIP3   OH244912   8.867   6.907   4.372
15012TIP3    H144913   8.835   6.854   4.445
15012TIP3    H244914   8.922   6.848   4.321
15013TIP3   OH244915   7.188   3.188   3.239
15013TIP3    H144916   7.148   3.171   3.154
15013TIP3    H244917   7.203   3.282   3.240
15014TIP3   OH244918   8.264   3.012   2.039
15014TIP3    H144919   8.227   2.992   1.953
15014TIP3    H244920   8.339   3.069   2.020
15015TIP3   OH244921   0.404   8.932   2.339
15015TIP3    H144922   0.361   8.947   2.423
15015TIP3    H244923   0.468   8.863   2.357
15016TIP3   OH244924   6.485   7.182   3.083
15016TIP3    H144925   6.524   7.269   3.089
15016TIP3    H244926   6.553   7.122   3.114
15017TIP3   OH244927   6.891   8.301   0.660
15017TIP3    H144928   6.830   8.362   0.617
15017TIP3    H244929   6.908   8.340   0.745
15018TIP3   OH244930   4.375   4.174   7.012
15018TIP3    H144931   4.295   4.226   7.007
15018TIP3    H244932   4.389   4.159   7.105
15019TIP3   OH244933   1.836   3.254   4.265
15019TIP3    H144934   1.907   3.194   4.241
15019TIP3    H244935   1.874   3.312   4.331
15020TIP3   OH244936   6.416   7.287   2.197
15020TIP3    H144937   6.365   7.366   2.213
15020TIP3    H244938   6.471   7.277   2.275
15021TIP3   OH244939   2.951   3.983   5.090
15021TIP3    H144940   3.008   4.060   5.089
15021TIP3    H244941   3.006   3.912   5.123
15022TIP3   OH244942   5.645   2.920   5.962
15022TIP3    H144943   5.740   2.913   5.972
15022TIP3    H244944   5.613   2.831   5.973
15023TIP3   OH244945   3.402   1.830   5.331
15023TIP3    H144946   3.410   1.815   5.236
15023TIP3    H244947   3.410   1.925   5.340
15024TIP3   OH244948   3.154   8.671   2.524
15024TIP3    H144949   3.141   8.577   2.508
15024TIP3    H244950   3.066   8.704   2.543
15025TIP3   OH244951   3.011   6.866   6.399
15025TIP3    H144952   3.037   6.841   6.311
15025TIP3    H244953   3.064   6.811   6.457
15026TIP3   OH244954   8.481   1.148   6.540
15026TIP3    H144955   8.560   1.194   6.511
15026TIP3    H244956   8.480   1.161   6.635
15027TIP3   OH244957   0.930   4.922   6.379
15027TIP3    H144958   1.014   4.887   6.352
15027TIP3    H244959   0.947   5.014   6.398
15028TIP3   OH244960   0.979   3.265   3.884
15028TIP3    H144961   0.886   3.262   3.863
15028TIP3    H244962   1.013   3.181   3.855
15029TIP3   OH244963   3.053   1.296   1.466
15029TIP3    H144964   3.086   1.341   1.388
15029TIP3    H244965   3.087   1.207   1.459
15030TIP3   OH244966   6.028   5.790   6.439
15030TIP3    H144967   6.117   5.797   6.404
15030TIP3    H244968   6.013   5.873   6.484
15031TIP3   OH244969   0.971   6.141   0.316
15031TIP3    H144970   0.943   6.217   0.265
15031TIP3    H244971   1.063   6.160   0.338
15032TIP3   OH244972   0.995   1.519   3.517
15032TIP3    H144973   0.926   1.533   3.452
15032TIP3    H244974   0.951   1.530   3.602
15033TIP3   OH244975   6.401   8.581   5.452
15033TIP3    H144976   6.419   8.606   5.361
15033TIP3    H244977   6.449   8.646   5.504
15034TIP3   OH244978   0.758   3.904   2.688
15034TIP3    H144979   0.754   3.846   2.612
15034TIP3    H244980   0.766   3.992   2.651
15035TIP3   OH244981   2.400   1.362   1.993
15035TIP3    H144982   2.382   1.456   1.992
15035TIP3    H244983   2.399   1.336   1.901
15036TIP3   OH244984   6.130   4.134   0.341
15036TIP3    H144985   6.049   4.083   0.338
15036TIP3    H244986   6.123   4.194   0.266
15037TIP3   OH244987   3.452   1.514   5.335
15037TIP3    H144988   3.467   1.431   5.290
15037TIP3    H244989   3.429   1.575   5.266
15038TIP3   OH244990   9.427   4.046   5.006
15038TIP3    H144991   9.492   4.062   5.074
15038TIP3    H244992   9.385   4.131   4.992
15039TIP3   OH244993   4.177   8.867   3.517
15039TIP3    H144994   4.233   8.934   3.478
15039TIP3    H244995   4.185   8.791   3.459
15040TIP3   OH244996   6.890   2.634   1.090
15040TIP3    H144997   6.915   2.664   1.178
15040TIP3    H244998   6.860   2.544   1.103
15041TIP3   OH244999   0.913   6.658   5.310
15041TIP3    H145000   1.008   6.648   5.306
15041TIP3    H245001   0.892   6.658   5.403
15042TIP3   OH245002   2.385   3.698   4.927
15042TIP3    H145003   2.308   3.645   4.907
15042TIP3    H245004   2.436   3.646   4.989
15043TIP3   OH245005   2.009   1.446   7.541
15043TIP3    H145006   1.921   1.464   7.575
15043TIP3    H245007   2.065   1.451   7.618
15044TIP3   OH245008   4.676   4.673   2.788
15044TIP3    H145009   4.684   4.579   2.803
15044TIP3    H245010   4.764   4.701   2.763
15045TIP3   OH245011   1.966   3.738   6.186
15045TIP3    H145012   1.930   3.808   6.131
15045TIP3    H245013   1.919   3.747   6.269
15046TIP3   OH245014   3.624   6.978   2.120
15046TIP3    H145015   3.548   7.034   2.134
15046TIP3    H245016   3.696   7.040   2.103
15047TIP3   OH245017   0.668   1.539   6.548
15047TIP3    H145018   0.654   1.485   6.626
15047TIP3    H245019   0.763   1.545   6.540
15048TIP3   OH245020   7.460   8.156   1.146
15048TIP3    H145021   7.528   8.155   1.213
15048TIP3    H245022   7.378   8.150   1.195
15049TIP3   OH245023   2.090   8.382   0.744
15049TIP3    H145024   2.060   8.295   0.769
15049TIP3    H245025   2.045   8.401   0.662
15050TIP3   OH245026   7.584   7.557   1.949
15050TIP3    H145027   7.629   7.567   1.865
15050TIP3    H245028   7.621   7.477   1.987
15051TIP3   OH245029   7.784   6.843   6.292
15051TIP3    H145030   7.876   6.853   6.316
15051TIP3    H245031   7.736   6.880   6.366
15052TIP3   OH245032   9.127   0.571   7.528
15052TIP3    H145033   9.159   0.617   7.451
15052TIP3    H245034   9.073   0.635   7.574
15053TIP3   OH245035   1.527   4.804   2.747
15053TIP3    H145036   1.450   4.756   2.715
15053TIP3    H245037   1.596   4.737   2.753
15054TIP3   OH245038   1.723   4.592   2.070
15054TIP3    H145039   1.646   4.551   2.031
15054TIP3    H245040   1.689   4.662   2.125
15055TIP3   OH245041   9.248   0.167   1.677
15055TIP3    H145042   9.227   0.087   1.628
15055TIP3    H245043   9.343   0.165   1.685
15056TIP3   OH245044   6.995   6.820   5.665
15056TIP3    H145045   7.061   6.777   5.720
15056TIP3    H245046   7.031   6.908   5.650
15057TIP3   OH245047   0.807   0.752   0.973
15057TIP3    H145048   0.897   0.723   0.986
15057TIP3    H245049   0.766   0.743   1.059
15058TIP3   OH245050   3.454   0.009   6.321
15058TIP3    H145051   3.364   0.041   6.311
15058TIP3    H245052   3.492   0.066   6.388
15059TIP3   OH245053   7.123   3.780   6.591
15059TIP3    H145054   7.136   3.776   6.686
15059TIP3    H245055   7.146   3.870   6.568
15060TIP3   OH245056   9.142   6.530   4.106
15060TIP3    H145057   9.046   6.530   4.097
15060TIP3    H245058   9.158   6.517   4.199
15061TIP3   OH245059   3.222   6.797   0.650
15061TIP3    H145060   3.269   6.875   0.681
15061TIP3    H245061   3.273   6.766   0.575
15062TIP3   OH245062   6.706   6.238   1.955
15062TIP3    H145063   6.680   6.192   1.875
15062TIP3    H245064   6.801   6.246   1.948
15063TIP3   OH245065   1.534   1.935   2.777
15063TIP3    H145066   1.615   1.946   2.827
15063TIP3    H245067   1.562   1.913   2.689
15064TIP3   OH245068   2.366   1.798   3.486
15064TIP3    H145069   2.389   1.787   3.579
15064TIP3    H245070   2.329   1.886   3.481
15065TIP3   OH245071   3.361   7.669   4.535
15065TIP3    H145072   3.343   7.754   4.574
15065TIP3    H245073   3.313   7.607   4.590
15066TIP3   OH245074   7.822   5.725   7.032
15066TIP3    H145075   7.903   5.677   7.020
15066TIP3    H245076   7.759   5.659   7.062
15067TIP3   OH245077   8.357   0.133   4.395
15067TIP3    H145078   8.400   0.171   4.319
15067TIP3    H245079   8.290   0.197   4.420
15068TIP3   OH245080   7.474   3.406   5.763
15068TIP3    H145081   7.420   3.477   5.728
15068TIP3    H245082   7.549   3.451   5.802
15069TIP3   OH245083   1.898   7.397   5.932
15069TIP3    H145084   1.979   7.383   5.883
15069TIP3    H245085   1.898   7.327   5.998
15070TIP3   OH245086   7.717   4.048   5.535
15070TIP3    H145087   7.765   4.074   5.614
15070TIP3    H245088   7.753   4.103   5.465
15071TIP3   OH245089   8.966   5.659   5.107
15071TIP3    H145090   8.988   5.586   5.049
15071TIP3    H245091   8.942   5.731   5.048
15072TIP3   OH245092   4.426   4.534   1.352
15072TIP3    H145093   4.485   4.608   1.336
15072TIP3    H245094   4.348   4.553   1.300
15073TIP3   OH245095   6.924   4.644   4.202
15073TIP3    H145096   6.992   4.577   4.193
15073TIP3    H245097   6.917   4.658   4.296
15074TIP3   OH245098   4.495   6.634   1.826
15074TIP3    H145099   4.576   6.652   1.779
15074TIP3    H245100   4.487   6.707   1.888
15075TIP3   OH245101   4.948   0.862   2.624
15075TIP3    H145102   4.907   0.859   2.710
15075TIP3    H245103   4.892   0.806   2.570
15076TIP3   OH245104   8.974   0.683   7.743
15076TIP3    H145105   8.881   0.703   7.734
15076TIP3    H245106   8.995   0.707   7.834
15077TIP3   OH245107   2.105   6.542   1.255
15077TIP3    H145108   2.106   6.540   1.159
15077TIP3    H245109   2.197   6.539   1.279
15078TIP3   OH245110   7.576   3.993   2.062
15078TIP3    H145111   7.553   3.923   2.124
15078TIP3    H245112   7.621   4.058   2.116
15079TIP3   OH245113   4.604   1.919   5.196
15079TIP3    H145114   4.686   1.961   5.219
15079TIP3    H245115   4.613   1.829   5.228
15080TIP3   OH245116   4.550   6.206   6.708
15080TIP3    H145117   4.561   6.173   6.619
15080TIP3    H245118   4.637   6.197   6.747
15081TIP3   OH245119   5.813   5.992   2.858
15081TIP3    H145120   5.884   6.022   2.802
15081TIP3    H245121   5.810   6.055   2.930
15082TIP3   OH245122   5.530   3.880   0.728
15082TIP3    H145123   5.578   3.824   0.667
15082TIP3    H245124   5.568   3.967   0.716
15083TIP3   OH245125   9.546   0.305   2.000
15083TIP3    H145126   9.568   0.226   2.049
15083TIP3    H245127   9.460   0.330   2.032
15084TIP3   OH245128   8.340   7.708   2.515
15084TIP3    H145129   8.273   7.689   2.581
15084TIP3    H245130   8.349   7.803   2.515
15085TIP3   OH245131   2.932   2.982   7.363
15085TIP3    H145132   2.856   3.015   7.317
15085TIP3    H245133   2.936   2.889   7.340
15086TIP3   OH245134   5.317   7.915   7.782
15086TIP3    H145135   5.278   7.853   7.844
15086TIP3    H245136   5.410   7.893   7.782
15087TIP3   OH245137   1.926   8.715   4.404
15087TIP3    H145138   1.969   8.685   4.484
15087TIP3    H245139   1.948   8.649   4.338
15088TIP3   OH245140   0.692   5.072   2.339
15088TIP3    H145141   0.744   5.149   2.362
15088TIP3    H245142   0.619   5.107   2.288
15089TIP3   OH245143   4.756   7.451   3.466
15089TIP3    H145144   4.842   7.416   3.442
15089TIP3    H245145   4.739   7.414   3.553
15090TIP3   OH245146   7.802   1.640   1.778
15090TIP3    H145147   7.796   1.561   1.833
15090TIP3    H245148   7.863   1.615   1.708
15091TIP3   OH245149   4.278   5.751   5.957
15091TIP3    H145150   4.291   5.817   5.889
15091TIP3    H245151   4.185   5.729   5.952
15092TIP3   OH245152   4.172   5.177   2.925
15092TIP3    H145153   4.120   5.174   2.844
15092TIP3    H245154   4.244   5.236   2.905
15093TIP3   OH245155   0.956   1.135   6.718
15093TIP3    H145156   1.025   1.147   6.784
15093TIP3    H245157   0.879   1.109   6.769
15094TIP3   OH245158   2.988   7.596   4.033
15094TIP3    H145159   3.056   7.535   4.006
15094TIP3    H245160   3.031   7.653   4.097
15095TIP3   OH245161   8.986   0.383   2.552
15095TIP3    H145162   8.992   0.369   2.458
15095TIP3    H245163   8.956   0.299   2.587
15096TIP3   OH245164   6.167   8.962   0.368
15096TIP3    H145165   6.236   8.998   0.312
15096TIP3    H245166   6.090   9.015   0.348
15097TIP3   OH245167   5.731   4.605   2.111
15097TIP3    H145168   5.653   4.591   2.057
15097TIP3    H245169   5.795   4.642   2.051
15098TIP3   OH245170   5.337   3.283   6.820
15098TIP3    H145171   5.429   3.265   6.800
15098TIP3    H245172   5.329   3.378   6.818
15099TIP3   OH245173   3.016   6.532   2.793
15099TIP3    H145174   2.980   6.489   2.871
15099TIP3    H245175   3.032   6.461   2.731
15100TIP3   OH245176   5.120   4.604   4.398
15100TIP3    H145177   5.064   4.651   4.459
15100TIP3    H245178   5.068   4.594   4.319
15101TIP3   OH245179   2.560   6.051   4.399
15101TIP3    H145180   2.569   5.990   4.326
15101TIP3    H245181   2.475   6.093   4.386
15102TIP3   OH245182   4.585   1.182   5.093
15102TIP3    H145183   4.590   1.139   5.008
15102TIP3    H245184   4.596   1.275   5.074
15103TIP3   OH245185   1.096   2.405   7.360
15103TIP3    H145186   1.096   2.374   7.451
15103TIP3    H245187   1.013   2.374   7.324
15104TIP3   OH245188   7.707   5.163   7.050
15104TIP3    H145189   7.758   5.236   7.016
15104TIP3    H245190   7.622   5.170   7.007
15105TIP3   OH245191   2.758   6.967   2.703
15105TIP3    H145192   2.818   6.894   2.722
15105TIP3    H245193   2.809   7.024   2.645
15106TIP3   OH245194   3.830   8.669   5.163
15106TIP3    H145195   3.784   8.585   5.162
15106TIP3    H245196   3.905   8.656   5.105
15107TIP3   OH245197   4.703   8.721   6.683
15107TIP3    H145198   4.770   8.788   6.700
15107TIP3    H245199   4.672   8.697   6.770
15108TIP3   OH245200   8.873   0.727   4.095
15108TIP3    H145201   8.830   0.811   4.082
15108TIP3    H245202   8.927   0.715   4.017
15109TIP3   OH245203   5.387   2.224   0.286
15109TIP3    H145204   5.330   2.161   0.243
15109TIP3    H245205   5.373   2.306   0.238
15110TIP3   OH245206   2.623   8.509   2.011
15110TIP3    H145207   2.585   8.515   1.923
15110TIP3    H245208   2.681   8.433   2.007
15111TIP3   OH245209   4.255   6.011   4.812
15111TIP3    H145210   4.341   6.042   4.842
15111TIP3    H245211   4.271   5.922   4.781
15112TIP3   OH245212   4.900   2.477   0.509
15112TIP3    H145213   4.888   2.422   0.431
15112TIP3    H245214   4.978   2.441   0.551
15113TIP3   OH245215   0.045   3.596   4.022
15113TIP3    H145216   0.087   3.624   3.940
15113TIP3    H245217   0.044   3.675   4.076
15114TIP3   OH245218   7.292   5.187   4.455
15114TIP3    H145219   7.290   5.172   4.360
15114TIP3    H245220   7.370   5.140   4.485
15115TIP3   OH245221   2.805   1.311   1.115
15115TIP3    H145222   2.849   1.227   1.121
15115TIP3    H245223   2.791   1.338   1.206
15116TIP3   OH245224   3.105   6.239   6.052
15116TIP3    H145225   3.082   6.160   6.003
15116TIP3    H245226   3.049   6.308   6.015
15117TIP3   OH245227   6.782   4.798   5.091
15117TIP3    H145228   6.820   4.777   5.176
15117TIP3    H245229   6.739   4.883   5.104
15118TIP3   OH245230   6.584   4.550   2.142
15118TIP3    H145231   6.674   4.521   2.156
15118TIP3    H245232   6.530   4.486   2.187
15119TIP3   OH245233   4.873   5.994   4.993
15119TIP3    H145234   4.933   6.068   4.994
15119TIP3    H245235   4.906   5.937   4.924
15120TIP3   OH245236   4.621   3.776   4.320
15120TIP3    H145237   4.656   3.837   4.255
15120TIP3    H245238   4.620   3.691   4.274
15121TIP3   OH245239   4.458   0.026   1.581
15121TIP3    H145240   4.497  -0.019   1.507
15121TIP3    H245241   4.490   0.116   1.575
15122TIP3   OH245242   8.967   4.146   6.073
15122TIP3    H145243   9.029   4.147   6.001
15122TIP3    H245244   8.901   4.081   6.048
15123TIP3   OH245245   7.068   2.870   2.919
15123TIP3    H145246   7.020   2.933   2.865
15123TIP3    H245247   7.038   2.887   3.008
15124TIP3   OH245248   4.062   5.526   2.343
15124TIP3    H145249   4.099   5.447   2.303
15124TIP3    H245250   4.138   5.574   2.375
15125TIP3   OH245251   7.262   2.578   3.053
15125TIP3    H145252   7.260   2.663   3.008
15125TIP3    H245253   7.189   2.583   3.115
15126TIP3   OH245254   9.321   2.464   6.500
15126TIP3    H145255   9.376   2.442   6.424
15126TIP3    H245256   9.383   2.492   6.567
15127TIP3   OH245257   5.698   0.726   2.615
15127TIP3    H145258   5.737   0.647   2.578
15127TIP3    H245259   5.682   0.782   2.539
15128TIP3   OH245260   1.954   7.276   2.242
15128TIP3    H145261   1.912   7.360   2.223
15128TIP3    H245262   1.934   7.259   2.333
15129TIP3   OH245263   0.738   2.001   0.094
15129TIP3    H145264   0.741   1.920   0.144
15129TIP3    H245265   0.753   1.974   0.003
15130TIP3   OH245266   0.489   2.017   6.445
15130TIP3    H145267   0.433   2.016   6.523
15130TIP3    H245268   0.521   1.927   6.437
15131TIP3   OH245269   5.577   7.634   2.456
15131TIP3    H145270   5.518   7.559   2.464
15131TIP3    H245271   5.604   7.653   2.546
15132TIP3   OH245272   2.233   7.697   4.266
15132TIP3    H145273   2.200   7.661   4.184
15132TIP3    H245274   2.205   7.634   4.333
15133TIP3   OH245275   1.306   3.549   0.773
15133TIP3    H145276   1.262   3.617   0.721
15133TIP3    H245277   1.399   3.563   0.757
15134TIP3   OH245278   8.470   6.180   4.428
15134TIP3    H145279   8.544   6.218   4.380
15134TIP3    H245280   8.477   6.216   4.516
15135TIP3   OH245281   9.555   0.244   5.633
15135TIP3    H145282   9.634   0.194   5.612
15135TIP3    H245283   9.484   0.194   5.594
15136TIP3   OH245284   3.840   4.540   4.502
15136TIP3    H145285   3.918   4.519   4.553
15136TIP3    H245286   3.772   4.484   4.538
15137TIP3   OH245287   1.284   4.346   3.901
15137TIP3    H145288   1.255   4.290   3.828
15137TIP3    H245289   1.208   4.351   3.958
15138TIP3   OH245290   6.538   2.823   6.267
15138TIP3    H145291   6.450   2.806   6.236
15138TIP3    H245292   6.549   2.918   6.261
15139TIP3   OH245293   8.449   8.921   6.599
15139TIP3    H145294   8.540   8.950   6.605
15139TIP3    H245295   8.411   8.945   6.684
15140TIP3   OH245296   8.948   6.813   6.023
15140TIP3    H145297   8.863   6.852   6.043
15140TIP3    H245298   8.981   6.784   6.108
15141TIP3   OH245299   9.409   0.954   5.834
15141TIP3    H145300   9.344   0.942   5.764
15141TIP3    H245301   9.370   0.910   5.910
15142TIP3   OH245302   4.059   7.881   4.992
15142TIP3    H145303   3.983   7.875   4.935
15142TIP3    H245304   4.087   7.972   4.986
15143TIP3   OH245305   2.258   5.362   0.669
15143TIP3    H145306   2.335   5.354   0.725
15143TIP3    H245307   2.211   5.280   0.681
15144TIP3   OH245308   8.733   7.493   2.114
15144TIP3    H145309   8.764   7.420   2.167
15144TIP3    H245310   8.752   7.466   2.024
15145TIP3   OH245311   3.922   7.775   1.571
15145TIP3    H145312   4.000   7.801   1.620
15145TIP3    H245313   3.952   7.702   1.516
15146TIP3   OH245314   2.905   6.768   1.835
15146TIP3    H145315   2.842   6.772   1.907
15146TIP3    H245316   2.869   6.825   1.768
15147TIP3   OH245317   4.502   3.403   2.888
15147TIP3    H145318   4.467   3.346   2.957
15147TIP3    H245319   4.433   3.404   2.822
15148TIP3   OH245320   5.376   5.183   4.352
15148TIP3    H145321   5.294   5.133   4.344
15148TIP3    H245322   5.362   5.262   4.300
15149TIP3   OH245323   7.377   7.670   1.068
15149TIP3    H145324   7.362   7.737   1.002
15149TIP3    H245325   7.434   7.606   1.025
15150TIP3   OH245326   6.006   6.754   4.880
15150TIP3    H145327   6.047   6.671   4.854
15150TIP3    H245328   6.048   6.820   4.826
15151TIP3   OH245329   3.714   1.634   3.314
15151TIP3    H145330   3.712   1.724   3.346
15151TIP3    H245331   3.626   1.600   3.333
15152TIP3   OH245332   6.640   3.566   3.343
15152TIP3    H145333   6.626   3.474   3.366
15152TIP3    H245334   6.628   3.614   3.425
15153TIP3   OH245335   6.586   4.238   0.424
15153TIP3    H145336   6.666   4.197   0.391
15153TIP3    H245337   6.597   4.331   0.404
15154TIP3   OH245338   4.775   9.013   7.453
15154TIP3    H145339   4.782   9.073   7.527
15154TIP3    H245340   4.681   9.002   7.441
15155TIP3   OH245341   6.299   5.517   4.892
15155TIP3    H145342   6.255   5.582   4.838
15155TIP3    H245343   6.391   5.521   4.865
15156TIP3   OH245344   7.139   6.132   0.760
15156TIP3    H145345   7.109   6.047   0.727
15156TIP3    H245346   7.144   6.188   0.682
15157TIP3   OH245347   3.849   6.334   0.009
15157TIP3    H145348   3.800   6.254   0.028
15157TIP3    H245349   3.809   6.368  -0.071
15158TIP3   OH245350   4.454   6.771   6.652
15158TIP3    H145351   4.518   6.814   6.709
15158TIP3    H245352   4.494   6.773   6.565
15159TIP3   OH245353   0.313   3.049   2.889
15159TIP3    H145354   0.328   3.082   2.800
15159TIP3    H245355   0.400   3.049   2.929
15160TIP3   OH245356   7.609   0.740   3.168
15160TIP3    H145357   7.679   0.797   3.198
15160TIP3    H245358   7.580   0.693   3.247
15161TIP3   OH245359   7.842   7.209   6.253
15161TIP3    H145360   7.886   7.248   6.328
15161TIP3    H245361   7.907   7.212   6.183
15162TIP3   OH245362   7.587   8.658   0.787
15162TIP3    H145363   7.524   8.592   0.758
15162TIP3    H245364   7.597   8.716   0.712
15163TIP3   OH245365   3.954   1.916   0.629
15163TIP3    H145366   3.871   1.919   0.677
15163TIP3    H245367   3.982   1.825   0.634
15164TIP3   OH245368   6.362   2.202   3.897
15164TIP3    H145369   6.348   2.269   3.829
15164TIP3    H245370   6.319   2.123   3.862
15165TIP3   OH245371   1.059   3.089   1.393
15165TIP3    H145372   1.085   3.111   1.304
15165TIP3    H245373   1.114   3.014   1.416
15166TIP3   OH245374   4.436   3.758   2.799
15166TIP3    H145375   4.420   3.852   2.793
15166TIP3    H245376   4.352   3.721   2.826
15167TIP3   OH245377   8.549   7.933   3.683
15167TIP3    H145378   8.539   7.900   3.772
15167TIP3    H245379   8.534   8.027   3.690
15168TIP3   OH245380   8.147   7.353   5.234
15168TIP3    H145381   8.104   7.377   5.316
15168TIP3    H245382   8.122   7.262   5.220
15169TIP3   OH245383   0.958   3.743   6.352
15169TIP3    H145384   0.967   3.694   6.271
15169TIP3    H245385   0.878   3.708   6.393
15170TIP3   OH245386   7.406   1.002   7.706
15170TIP3    H145387   7.368   1.052   7.778
15170TIP3    H245388   7.338   1.005   7.638
15171TIP3   OH245389   6.503   0.656   4.055
15171TIP3    H145390   6.597   0.641   4.062
15171TIP3    H245391   6.463   0.573   4.078
15172TIP3   OH245392   3.332   3.759   7.567
15172TIP3    H145393   3.288   3.802   7.494
15172TIP3    H245394   3.300   3.806   7.645
15173TIP3   OH245395   3.433   5.959   7.429
15173TIP3    H145396   3.517   5.922   7.457
15173TIP3    H245397   3.384   5.883   7.397
15174TIP3   OH245398   9.494   2.950   2.623
15174TIP3    H145399   9.521   2.858   2.625
15174TIP3    H245400   9.524   2.986   2.707
15175TIP3   OH245401   4.260   6.999   6.983
15175TIP3    H145402   4.340   6.989   7.034
15175TIP3    H245403   4.208   6.922   7.005
15176TIP3   OH245404   9.044   2.570   3.180
15176TIP3    H145405   9.047   2.611   3.093
15176TIP3    H245406   9.122   2.602   3.225
15177TIP3   OH245407   2.109   5.663   6.023
15177TIP3    H145408   2.138   5.661   6.115
15177TIP3    H245409   2.014   5.671   6.028
15178TIP3   OH245410   6.573   3.109   3.941
15178TIP3    H145411   6.522   3.164   4.000
15178TIP3    H245412   6.529   3.023   3.944
15179TIP3   OH245413   2.186   3.423   1.812
15179TIP3    H145414   2.178   3.518   1.819
15179TIP3    H245415   2.248   3.398   1.880
15180TIP3   OH245416   1.764   3.160   6.190
15180TIP3    H145417   1.759   3.249   6.155
15180TIP3    H245418   1.688   3.153   6.249
15181TIP3   OH245419   1.561   4.933   6.020
15181TIP3    H145420   1.534   5.014   5.977
15181TIP3    H245421   1.653   4.922   5.995
15182TIP3   OH245422   3.559   2.677   1.752
15182TIP3    H145423   3.504   2.703   1.826
15182TIP3    H245424   3.648   2.703   1.778
15183TIP3   OH245425   2.568   0.583   2.752
15183TIP3    H145426   2.623   0.538   2.816
15183TIP3    H245427   2.582   0.676   2.770
15184TIP3   OH245428   5.213   7.268   1.968
15184TIP3    H145429   5.128   7.310   1.981
15184TIP3    H245430   5.219   7.256   1.873
15185TIP3   OH245431   0.455   2.300   5.568
15185TIP3    H145432   0.380   2.240   5.572
15185TIP3    H245433   0.454   2.334   5.479
15186TIP3   OH245434   2.959   2.722   7.670
15186TIP3    H145435   2.986   2.814   7.673
15186TIP3    H245436   3.002   2.688   7.591
15187TIP3   OH245437   2.612   1.981   5.633
15187TIP3    H145438   2.647   2.051   5.688
15187TIP3    H245439   2.687   1.924   5.616
15188TIP3   OH245440   7.162   8.177   7.208
15188TIP3    H145441   7.068   8.176   7.191
15188TIP3    H245442   7.202   8.179   7.121
15189TIP3   OH245443   7.600   1.320   3.858
15189TIP3    H145444   7.625   1.389   3.920
15189TIP3    H245445   7.574   1.367   3.779
15190TIP3   OH245446   4.905   7.600   0.118
15190TIP3    H145447   4.914   7.680   0.066
15190TIP3    H245448   4.854   7.541   0.063
15191TIP3   OH245449   4.166   3.584   4.936
15191TIP3    H145450   4.070   3.588   4.929
15191TIP3    H245451   4.187   3.642   5.009
15192TIP3   OH245452   5.396   4.882   5.331
15192TIP3    H145453   5.437   4.890   5.417
15192TIP3    H245454   5.322   4.823   5.344
15193TIP3   OH245455   5.104   5.146   0.418
15193TIP3    H145456   5.188   5.148   0.464
15193TIP3    H245457   5.039   5.155   0.488
15194TIP3   OH245458   8.261   1.401   0.812
15194TIP3    H145459   8.342   1.416   0.861
15194TIP3    H245460   8.282   1.421   0.721
15195TIP3   OH245461   6.534   0.514   6.022
15195TIP3    H145462   6.464   0.480   6.077
15195TIP3    H245463   6.569   0.588   6.072
15196TIP3   OH245464   4.653   2.589   5.144
15196TIP3    H145465   4.627   2.623   5.059
15196TIP3    H245466   4.748   2.595   5.145
15197TIP3   OH245467   5.931   1.433   2.091
15197TIP3    H145468   5.889   1.410   2.008
15197TIP3    H245469   5.918   1.356   2.146
15198TIP3   OH245470   2.301   4.885   2.858
15198TIP3    H145471   2.315   4.829   2.782
15198TIP3    H245472   2.362   4.852   2.924
15199TIP3   OH245473   8.248   4.866   6.686
15199TIP3    H145474   8.296   4.825   6.614
15199TIP3    H245475   8.238   4.957   6.660
15200TIP3   OH245476   0.172   2.296   5.253
15200TIP3    H145477   0.268   2.295   5.258
15200TIP3    H245478   0.148   2.388   5.263
15201TIP3   OH245479   9.450   4.588   7.097
15201TIP3    H145480   9.439   4.629   7.011
15201TIP3    H245481   9.455   4.495   7.078
15202TIP3   OH245482   7.024   8.888   6.433
15202TIP3    H145483   7.050   8.935   6.513
15202TIP3    H245484   7.102   8.890   6.378
15203TIP3   OH245485   8.230   5.310   6.415
15203TIP3    H145486   8.213   5.388   6.469
15203TIP3    H245487   8.158   5.309   6.352
15204TIP3   OH245488   8.730   7.045   2.307
15204TIP3    H145489   8.659   6.981   2.317
15204TIP3    H245490   8.786   7.031   2.383
15205TIP3   OH245491   0.249   6.881   5.405
15205TIP3    H145492   0.328   6.869   5.353
15205TIP3    H245493   0.239   6.798   5.453
15206TIP3   OH245494   2.553   8.081   4.584
15206TIP3    H145495   2.497   8.015   4.625
15206TIP3    H245496   2.616   8.030   4.532
15207TIP3   OH245497   8.969   7.121   6.829
15207TIP3    H145498   8.974   7.074   6.912
15207TIP3    H245499   9.045   7.091   6.780
15208TIP3   OH245500   3.775   2.735   6.299
15208TIP3    H145501   3.686   2.701   6.294
15208TIP3    H245502   3.827   2.676   6.244
15209TIP3   OH245503   5.797   6.719   2.594
15209TIP3    H145504   5.874   6.670   2.622
15209TIP3    H245505   5.723   6.664   2.620
15210TIP3   OH245506   2.518   0.047   4.368
15210TIP3    H145507   2.549   0.125   4.323
15210TIP3    H245508   2.502   0.076   4.458
15211TIP3   OH245509   6.030   7.055   4.294
15211TIP3    H145510   6.042   7.050   4.199
15211TIP3    H245511   5.959   6.994   4.313
15212TIP3   OH245512   5.632   8.413   4.193
15212TIP3    H145513   5.647   8.438   4.284
15212TIP3    H245514   5.636   8.496   4.144
15213TIP3   OH245515   9.427   2.391   1.384
15213TIP3    H145516   9.371   2.435   1.320
15213TIP3    H245517   9.513   2.387   1.342
15214TIP3   OH245518   5.160   4.731   5.396
15214TIP3    H145519   5.169   4.644   5.436
15214TIP3    H245520   5.135   4.788   5.469
15215TIP3   OH245521   8.259   6.031   1.173
15215TIP3    H145522   8.346   5.996   1.195
15215TIP3    H245523   8.198   5.961   1.196
15216TIP3   OH245524   5.574   5.655   2.786
15216TIP3    H145525   5.601   5.645   2.878
15216TIP3    H245526   5.631   5.724   2.752
15217TIP3   OH245527   1.038   4.364   4.047
15217TIP3    H145528   0.953   4.322   4.036
15217TIP3    H245529   1.024   4.429   4.116
15218TIP3   OH245530   6.533   2.619   5.447
15218TIP3    H145531   6.445   2.648   5.421
15218TIP3    H245532   6.590   2.691   5.422
15219TIP3   OH245533   3.034   7.794   4.962
15219TIP3    H145534   2.982   7.765   4.886
15219TIP3    H245535   3.092   7.862   4.927
15220TIP3   OH245536   3.915   6.811   5.895
15220TIP3    H145537   3.922   6.751   5.969
15220TIP3    H245538   3.825   6.799   5.863
15221TIP3   OH245539   8.378   5.579   7.134
15221TIP3    H145540   8.448   5.640   7.107
15221TIP3    H245541   8.425   5.502   7.166
15222TIP3   OH245542   3.326   3.448   5.290
15222TIP3    H145543   3.321   3.392   5.367
15222TIP3    H245544   3.235   3.457   5.261
15223TIP3   OH245545   4.219   8.032   3.629
15223TIP3    H145546   4.159   8.103   3.655
15223TIP3    H245547   4.161   7.962   3.599
15224TIP3   OH245548   3.225   6.065   5.448
15224TIP3    H145549   3.154   6.051   5.511
15224TIP3    H245550   3.288   6.119   5.495
15225TIP3   OH245551   8.827   2.518   3.487
15225TIP3    H145552   8.733   2.514   3.507
15225TIP3    H245553   8.869   2.473   3.561
15226TIP3   OH245554   8.905   8.626   2.499
15226TIP3    H145555   8.949   8.694   2.549
15226TIP3    H245556   8.968   8.553   2.496
15227TIP3   OH245557   4.886   6.347   4.621
15227TIP3    H145558   4.942   6.398   4.679
15227TIP3    H245559   4.915   6.370   4.533
15228TIP3   OH245560   5.821   7.737   1.295
15228TIP3    H145561   5.880   7.682   1.346
15228TIP3    H245562   5.747   7.679   1.273
15229TIP3   OH245563   2.724   8.159   6.982
15229TIP3    H145564   2.773   8.083   7.011
15229TIP3    H245565   2.757   8.231   7.036
15230TIP3   OH245566   8.861   4.500   6.993
15230TIP3    H145567   8.877   4.417   7.038
15230TIP3    H245568   8.937   4.555   7.015
15231TIP3   OH245569   7.047   7.939   6.449
15231TIP3    H145570   7.089   7.946   6.535
15231TIP3    H245571   7.115   7.966   6.387
15232TIP3   OH245572   7.578   5.488   5.835
15232TIP3    H145573   7.543   5.475   5.746
15232TIP3    H245574   7.622   5.406   5.856
15233TIP3   OH245575   1.971   7.479   2.852
15233TIP3    H145576   1.895   7.436   2.812
15233TIP3    H245577   1.934   7.533   2.921
15234TIP3   OH245578   5.054   7.172   0.225
15234TIP3    H145579   5.100   7.097   0.187
15234TIP3    H245580   5.124   7.235   0.243
15235TIP3   OH245581   5.811   7.686   1.029
15235TIP3    H145582   5.852   7.727   1.105
15235TIP3    H245583   5.865   7.609   1.011
15236TIP3   OH245584   5.815   4.582   7.338
15236TIP3    H145585   5.789   4.672   7.318
15236TIP3    H245586   5.750   4.550   7.400
15237TIP3   OH245587   5.575   6.888   5.980
15237TIP3    H145588   5.568   6.974   6.021
15237TIP3    H245589   5.536   6.900   5.893
15238TIP3   OH245590   2.297   0.540   0.468
15238TIP3    H145591   2.345   0.483   0.409
15238TIP3    H245592   2.346   0.622   0.467
15239TIP3   OH245593   3.064   0.923   2.500
15239TIP3    H145594   3.037   0.948   2.412
15239TIP3    H245595   3.095   1.005   2.540
15240TIP3   OH245596   9.009   5.195   4.953
15240TIP3    H145597   9.089   5.146   4.936
15240TIP3    H245598   9.038   5.282   4.978
15241TIP3   OH245599   3.272   2.081   2.765
15241TIP3    H145600   3.307   2.132   2.838
15241TIP3    H245601   3.178   2.098   2.767
15242TIP3   OH245602   5.177   2.102   2.402
15242TIP3    H145603   5.170   2.103   2.497
15242TIP3    H245604   5.147   2.189   2.376
15243TIP3   OH245605   8.342   7.310   5.565
15243TIP3    H145606   8.326   7.218   5.547
15243TIP3    H245607   8.407   7.336   5.500
15244TIP3   OH245608   5.639   1.424   4.003
15244TIP3    H145609   5.596   1.380   3.930
15244TIP3    H245610   5.578   1.493   4.029
15245TIP3   OH245611   4.631   6.343   0.938
15245TIP3    H145612   4.537   6.350   0.953
15245TIP3    H245613   4.670   6.409   0.996
15246TIP3   OH245614   0.997   4.706   2.549
15246TIP3    H145615   0.993   4.673   2.459
15246TIP3    H245616   0.906   4.723   2.573
15247TIP3   OH245617   4.627   2.524   3.209
15247TIP3    H145618   4.577   2.443   3.212
15247TIP3    H245619   4.659   2.537   3.298
15248TIP3   OH245620   7.916   8.495   0.890
15248TIP3    H145621   7.838   8.522   0.938
15248TIP3    H245622   7.887   8.487   0.799
15249TIP3   OH245623   0.776   4.398   7.725
15249TIP3    H145624   0.855   4.372   7.677
15249TIP3    H245625   0.779   4.494   7.726
15250TIP3   OH245626   3.873   3.494   4.081
15250TIP3    H145627   3.836   3.442   4.153
15250TIP3    H245628   3.864   3.585   4.110
15251TIP3   OH245629   2.740   8.052   1.085
15251TIP3    H145630   2.787   7.979   1.126
15251TIP3    H245631   2.657   8.056   1.133
15252TIP3   OH245632   4.089   2.738   2.443
15252TIP3    H145633   4.039   2.772   2.518
15252TIP3    H245634   4.174   2.781   2.450
15253TIP3   OH245635   7.107   3.206   2.961
15253TIP3    H145636   7.108   3.299   2.943
15253TIP3    H245637   7.059   3.167   2.888
15254TIP3   OH245638   0.901   6.021   2.420
15254TIP3    H145639   0.846   5.980   2.487
15254TIP3    H245640   0.903   5.957   2.349
15255TIP3   OH245641   0.820   0.584   5.236
15255TIP3    H145642   0.819   0.679   5.226
15255TIP3    H245643   0.822   0.570   5.331
15256TIP3   OH245644   6.192   7.830   4.718
15256TIP3    H145645   6.187   7.757   4.779
15256TIP3    H245646   6.204   7.789   4.632
15257TIP3   OH245647   3.906   0.041   3.736
15257TIP3    H145648   3.815   0.027   3.761
15257TIP3    H245649   3.940  -0.047   3.718
15258TIP3   OH245650   3.272   1.645   6.608
15258TIP3    H145651   3.253   1.555   6.582
15258TIP3    H245652   3.211   1.698   6.556
15259TIP3   OH245653   9.197   2.723   5.580
15259TIP3    H145654   9.148   2.802   5.605
15259TIP3    H245655   9.228   2.688   5.663
15260TIP3   OH245656   5.198   4.526   4.100
15260TIP3    H145657   5.107   4.541   4.125
15260TIP3    H245658   5.242   4.610   4.117
15261TIP3   OH245659   1.570   0.700   6.347
15261TIP3    H145660   1.647   0.648   6.324
15261TIP3    H245661   1.602   0.760   6.415
15262TIP3   OH245662   1.767   7.950   4.030
15262TIP3    H145663   1.862   7.960   4.027
15262TIP3    H245664   1.747   7.895   3.954
15263TIP3   OH245665   4.195   2.990   6.940
15263TIP3    H145666   4.202   2.953   7.028
15263TIP3    H245667   4.199   2.915   6.881
15264TIP3   OH245668   3.358   1.172   3.287
15264TIP3    H145669   3.280   1.120   3.302
15264TIP3    H245670   3.373   1.218   3.370
15265TIP3   OH245671   4.637   8.547   4.994
15265TIP3    H145672   4.669   8.548   4.904
15265TIP3    H245673   4.716   8.545   5.048
15266TIP3   OH245674   2.949   0.105   4.234
15266TIP3    H145675   2.940   0.064   4.321
15266TIP3    H245676   2.950   0.032   4.173
15267TIP3   OH245677   4.062   6.649   0.719
15267TIP3    H145678   4.156   6.637   0.705
15267TIP3    H245679   4.035   6.710   0.650
15268TIP3   OH245680   4.158   0.737   4.691
15268TIP3    H145681   4.164   0.651   4.648
15268TIP3    H245682   4.130   0.796   4.621
15269TIP3   OH245683   8.778   4.134   1.970
15269TIP3    H145684   8.713   4.073   2.007
15269TIP3    H245685   8.827   4.166   2.046
15270TIP3   OH245686   5.916   0.305   3.451
15270TIP3    H145687   5.909   0.272   3.361
15270TIP3    H245688   5.832   0.284   3.491
15271TIP3   OH245689   2.859   2.695   6.140
15271TIP3    H145690   2.920   2.625   6.120
15271TIP3    H245691   2.811   2.709   6.059
15272TIP3   OH245692   0.459   2.332   5.288
15272TIP3    H145693   0.460   2.246   5.246
15272TIP3    H245694   0.467   2.395   5.216
15273TIP3   OH245695   1.515   6.946   7.166
15273TIP3    H145696   1.487   6.964   7.256
15273TIP3    H245697   1.434   6.925   7.119
15274TIP3   OH245698   0.506   4.831   1.713
15274TIP3    H145699   0.592   4.808   1.678
15274TIP3    H245700   0.465   4.747   1.733
15275TIP3   OH245701   6.562   0.770   3.725
15275TIP3    H145702   6.557   0.711   3.801
15275TIP3    H245703   6.617   0.724   3.662
15276TIP3   OH245704   4.734   6.304   1.408
15276TIP3    H145705   4.799   6.312   1.338
15276TIP3    H245706   4.750   6.380   1.464
15277TIP3   OH245707   0.847   1.784   0.765
15277TIP3    H145708   0.897   1.771   0.684
15277TIP3    H245709   0.850   1.878   0.781
15278TIP3   OH245710   7.529   3.945   4.616
15278TIP3    H145711   7.476   3.905   4.685
15278TIP3    H245712   7.603   3.983   4.662
15279TIP3   OH245713   8.595   4.619   7.393
15279TIP3    H145714   8.646   4.694   7.363
15279TIP3    H245715   8.505   4.639   7.367
15280TIP3   OH245716   6.485   7.480   3.768
15280TIP3    H145717   6.482   7.384   3.758
15280TIP3    H245718   6.454   7.496   3.856
15281TIP3   OH245719   8.532   0.354   5.632
15281TIP3    H145720   8.579   0.312   5.704
15281TIP3    H245721   8.446   0.376   5.670
15282TIP3   OH245722   1.774   3.461   6.169
15282TIP3    H145723   1.791   3.546   6.126
15282TIP3    H245724   1.720   3.483   6.245
15283TIP3   OH245725   8.349   7.003   2.628
15283TIP3    H145726   8.434   7.044   2.647
15283TIP3    H245727   8.296   7.022   2.705
15284TIP3   OH245728   9.468   0.091   1.455
15284TIP3    H145729   9.385   0.134   1.433
15284TIP3    H245730   9.534   0.137   1.404
15285TIP3   OH245731   4.637   8.312   4.759
15285TIP3    H145732   4.567   8.321   4.823
15285TIP3    H245733   4.677   8.399   4.755
15286TIP3   OH245734   5.664   1.574   6.078
15286TIP3    H145735   5.722   1.535   6.143
15286TIP3    H245736   5.653   1.665   6.105
15287TIP3   OH245737   3.451   6.492   3.338
15287TIP3    H145738   3.496   6.428   3.281
15287TIP3    H245739   3.454   6.573   3.288
15288TIP3   OH245740   5.815   5.818   4.353
15288TIP3    H145741   5.852   5.887   4.298
15288TIP3    H245742   5.841   5.736   4.311
15289TIP3   OH245743   5.471   3.958   1.635
15289TIP3    H145744   5.545   4.003   1.596
15289TIP3    H245745   5.402   3.963   1.569
15290TIP3   OH245746   8.385   3.108   5.718
15290TIP3    H145747   8.447   3.176   5.746
15290TIP3    H245748   8.418   3.079   5.633
15291TIP3   OH245749   6.671   0.945   1.161
15291TIP3    H145750   6.761   0.955   1.131
15291TIP3    H245751   6.667   0.855   1.195
15292TIP3   OH245752   3.137   1.891   3.543
15292TIP3    H145753   3.177   1.957   3.601
15292TIP3    H245754   3.178   1.905   3.458
15293TIP3   OH245755   6.472   4.815   7.799
15293TIP3    H145756   6.446   4.824   7.707
15293TIP3    H245757   6.390   4.800   7.846
15294TIP3   OH245758   4.941   6.452   3.637
15294TIP3    H145759   4.945   6.526   3.576
15294TIP3    H245760   4.884   6.389   3.594
15295TIP3   OH245761   4.476   3.614   4.109
15295TIP3    H145762   4.433   3.699   4.103
15295TIP3    H245763   4.525   3.607   4.027
15296TIP3   OH245764   6.682   6.104   5.696
15296TIP3    H145765   6.651   6.065   5.615
15296TIP3    H245766   6.777   6.093   5.695
15297TIP3   OH245767   3.450   8.232   3.084
15297TIP3    H145768   3.490   8.290   3.018
15297TIP3    H245769   3.402   8.168   3.033
15298TIP3   OH245770   6.253   7.550   3.561
15298TIP3    H145771   6.265   7.474   3.505
15298TIP3    H245772   6.314   7.536   3.633
15299TIP3   OH245773   5.604   0.156   0.641
15299TIP3    H145774   5.528   0.155   0.583
15299TIP3    H245775   5.641   0.244   0.629
15300TIP3   OH245776   6.734   5.692   1.978
15300TIP3    H145777   6.782   5.663   1.901
15300TIP3    H245778   6.799   5.735   2.033
15301TIP3   OH245779   0.060   2.682   6.850
15301TIP3    H145780   0.000   2.614   6.882
15301TIP3    H245781   0.005   2.740   6.797
15302TIP3   OH245782   2.280   2.661   5.432
15302TIP3    H145783   2.325   2.618   5.505
15302TIP3    H245784   2.268   2.591   5.368
15303TIP3   OH245785   5.583   1.246   7.648
15303TIP3    H145786   5.600   1.169   7.593
15303TIP3    H245787   5.631   1.229   7.728
15304TIP3   OH245788   6.647   5.308   5.208
15304TIP3    H145789   6.594   5.388   5.213
15304TIP3    H245790   6.668   5.288   5.299
15305TIP3   OH245791   4.888   1.644   2.137
15305TIP3    H145792   4.957   1.604   2.191
15305TIP3    H245793   4.834   1.692   2.200
15306TIP3   OH245794   4.039   1.009   0.819
15306TIP3    H145795   4.112   0.965   0.862
15306TIP3    H245796   3.967   1.002   0.881
15307TIP3   OH245797   4.214   0.839   4.952
15307TIP3    H145798   4.218   0.853   4.857
15307TIP3    H245799   4.306   0.837   4.980
15308TIP3   OH245800   0.698   5.577   6.046
15308TIP3    H145801   0.783   5.561   6.086
15308TIP3    H245802   0.649   5.496   6.061
15309TIP3   OH245803   3.229   1.434   3.398
15309TIP3    H145804   3.140   1.466   3.411
15309TIP3    H245805   3.247   1.380   3.475
15310TIP3   OH245806   5.757   7.066   6.489
15310TIP3    H145807   5.798   7.018   6.561
15310TIP3    H245808   5.797   7.030   6.410
15311TIP3   OH245809   0.985   1.017   3.593
15311TIP3    H145810   1.075   1.027   3.564
15311TIP3    H245811   0.976   0.924   3.612
15312TIP3   OH245812   7.517   3.773   7.251
15312TIP3    H145813   7.537   3.690   7.208
15312TIP3    H245814   7.536   3.839   7.185
15313TIP3   OH245815   9.114   6.820   3.934
15313TIP3    H145816   9.097   6.760   3.861
15313TIP3    H245817   9.035   6.874   3.939
15314TIP3   OH245818   9.444   4.649   5.648
15314TIP3    H145819   9.473   4.558   5.652
15314TIP3    H245820   9.372   4.654   5.710
15315TIP3   OH245821   0.800   8.553   2.243
15315TIP3    H145822   0.791   8.567   2.149
15315TIP3    H245823   0.886   8.514   2.254
15316TIP3   OH245824   8.795   8.979   7.785
15316TIP3    H145825   8.806   9.073   7.800
15316TIP3    H245826   8.720   8.955   7.840
15317TIP3   OH245827   4.895   5.793   6.945
15317TIP3    H145828   4.931   5.712   6.911
15317TIP3    H245829   4.967   5.856   6.941
15318TIP3   OH245830   5.606   6.500   2.659
15318TIP3    H145831   5.624   6.423   2.605
15318TIP3    H245832   5.576   6.465   2.742
15319TIP3   OH245833   5.397   0.385   7.033
15319TIP3    H145834   5.320   0.415   6.986
15319TIP3    H245835   5.380   0.292   7.049
15320TIP3   OH245836   6.672   4.718   4.334
15320TIP3    H145837   6.725   4.705   4.413
15320TIP3    H245838   6.656   4.812   4.331
15321TIP3   OH245839   4.668   8.845   5.600
15321TIP3    H145840   4.673   8.750   5.595
15321TIP3    H245841   4.749   8.876   5.559
15322TIP3   OH245842   0.096   6.278   3.634
15322TIP3    H145843   0.136   6.271   3.547
15322TIP3    H245844   0.088   6.188   3.664
15323TIP3   OH245845   7.980   7.644   6.311
15323TIP3    H145846   7.976   7.570   6.371
15323TIP3    H245847   8.051   7.623   6.251
15324TIP3   OH245848   5.946   1.305   4.859
15324TIP3    H145849   5.936   1.367   4.931
15324TIP3    H245850   6.041   1.297   4.847
15325TIP3   OH245851   9.238   1.575   2.949
15325TIP3    H145852   9.302   1.639   2.917
15325TIP3    H245853   9.290   1.515   3.002
15326TIP3   OH245854   7.677   8.252   7.429
15326TIP3    H145855   7.601   8.307   7.447
15326TIP3    H245856   7.749   8.295   7.474
15327TIP3   OH245857   4.900   6.505   5.238
15327TIP3    H145858   4.913   6.523   5.144
15327TIP3    H245859   4.975   6.451   5.262
15328TIP3   OH245860   0.936   3.633   6.095
15328TIP3    H145861   0.853   3.628   6.046
15328TIP3    H245862   1.002   3.602   6.034
15329TIP3   OH245863   7.812   1.025   3.598
15329TIP3    H145864   7.776   1.083   3.664
15329TIP3    H245865   7.898   0.999   3.633
15330TIP3   OH245866   4.748   4.116   6.550
15330TIP3    H145867   4.680   4.180   6.567
15330TIP3    H245868   4.818   4.165   6.507
15331TIP3   OH245869   3.062   3.356   4.604
15331TIP3    H145870   2.966   3.360   4.602
15331TIP3    H245871   3.082   3.298   4.677
15332TIP3   OH245872   9.046   2.631   2.259
15332TIP3    H145873   9.058   2.570   2.332
15332TIP3    H245874   9.124   2.686   2.261
15333TIP3   OH245875   7.105   0.777   3.312
15333TIP3    H145876   7.170   0.708   3.321
15333TIP3    H245877   7.157   0.858   3.307
15334TIP3   OH245878   4.186   1.247   7.731
15334TIP3    H145879   4.099   1.211   7.714
15334TIP3    H245880   4.170   1.320   7.790
15335TIP3   OH245881   4.466   5.523   3.922
15335TIP3    H145882   4.382   5.531   3.877
15335TIP3    H245883   4.473   5.603   3.974
15336TIP3   OH245884   2.668   1.312   5.688
15336TIP3    H145885   2.754   1.339   5.657
15336TIP3    H245886   2.667   1.338   5.780
15337TIP3   OH245887   6.568   8.867   2.205
15337TIP3    H145888   6.579   8.873   2.110
15337TIP3    H245889   6.613   8.786   2.229
15338TIP3   OH245890   1.573   3.544   3.857
15338TIP3    H145891   1.604   3.494   3.782
15338TIP3    H245892   1.636   3.524   3.926
15339TIP3   OH245893   5.320   2.706   2.170
15339TIP3    H145894   5.286   2.795   2.175
15339TIP3    H245895   5.415   2.716   2.165
15340TIP3   OH245896   2.147   0.785   3.507
15340TIP3    H145897   2.112   0.752   3.590
15340TIP3    H245898   2.130   0.716   3.444
15341TIP3   OH245899   4.138   8.654   1.768
15341TIP3    H145900   4.091   8.627   1.847
15341TIP3    H245901   4.074   8.645   1.697
15342TIP3   OH245902   7.678   8.499   7.626
15342TIP3    H145903   7.584   8.487   7.610
15342TIP3    H245904   7.682   8.566   7.693
15343TIP3   OH245905   6.100   6.854   1.212
15343TIP3    H145906   6.046   6.798   1.156
15343TIP3    H245907   6.055   6.854   1.296
15344TIP3   OH245908   6.234   8.573   3.785
15344TIP3    H145909   6.164   8.623   3.827
15344TIP3    H245910   6.209   8.481   3.799
15345TIP3   OH245911   8.065   3.910   6.302
15345TIP3    H145912   8.110   3.884   6.222
15345TIP3    H245913   7.976   3.877   6.291
15346TIP3   OH245914   4.038   4.045   5.899
15346TIP3    H145915   4.073   4.001   5.976
15346TIP3    H245916   4.047   3.981   5.829
15347TIP3   OH245917   5.166   2.242   3.040
15347TIP3    H145918   5.136   2.243   3.131
15347TIP3    H245919   5.258   2.219   3.045
15348TIP3   OH245920   8.473   3.067   4.716
15348TIP3    H145921   8.400   3.006   4.714
15348TIP3    H245922   8.462   3.116   4.798
15349TIP3   OH245923   2.210   3.283   7.747
15349TIP3    H145924   2.224   3.257   7.838
15349TIP3    H245925   2.298   3.306   7.716
15350TIP3   OH245926   9.311   3.254   1.936
15350TIP3    H145927   9.273   3.174   1.974
15350TIP3    H245928   9.405   3.240   1.941
15351TIP3   OH245929   5.823   4.035   3.653
15351TIP3    H145930   5.736   4.073   3.646
15351TIP3    H245931   5.873   4.100   3.704
15352TIP3   OH245932   2.627   1.829   6.426
15352TIP3    H145933   2.605   1.854   6.516
15352TIP3    H245934   2.626   1.910   6.377
15353TIP3   OH245935   9.346   4.999   3.399
15353TIP3    H145936   9.414   5.009   3.332
15353TIP3    H245937   9.339   5.086   3.438
15354TIP3   OH245938   7.027   2.718   4.266
15354TIP3    H145939   6.991   2.689   4.182
15354TIP3    H245940   7.019   2.813   4.264
15355TIP3   OH245941   4.981   0.801   7.647
15355TIP3    H145942   4.908   0.818   7.588
15355TIP3    H245943   4.975   0.707   7.665
15356TIP3   OH245944   4.603   4.034   2.319
15356TIP3    H145945   4.642   3.997   2.240
15356TIP3    H245946   4.661   4.006   2.390
15357TIP3   OH245947   1.606   6.975   0.512
15357TIP3    H145948   1.629   6.953   0.602
15357TIP3    H245949   1.518   6.940   0.500
15358TIP3   OH245950   2.163   5.855   5.236
15358TIP3    H145951   2.215   5.777   5.256
15358TIP3    H245952   2.083   5.844   5.288
15359TIP3   OH245953   0.783   7.652   4.798
15359TIP3    H145954   0.696   7.615   4.782
15359TIP3    H245955   0.806   7.620   4.885
15360TIP3   OH245956   0.478   8.578   6.256
15360TIP3    H145957   0.427   8.658   6.267
15360TIP3    H245958   0.545   8.582   6.325
15361TIP3   OH245959   3.000   4.369   7.290
15361TIP3    H145960   2.992   4.441   7.352
15361TIP3    H245961   3.094   4.366   7.269
15362TIP3   OH245962   2.784   7.974   6.712
15362TIP3    H145963   2.805   8.062   6.680
15362TIP3    H245964   2.783   7.983   6.807
15363TIP3   OH245965   2.307   0.948   0.860
15363TIP3    H145966   2.401   0.930   0.863
15363TIP3    H245967   2.272   0.900   0.935
15364TIP3   OH245968   0.846   5.133   1.749
15364TIP3    H145969   0.812   5.208   1.701
15364TIP3    H245970   0.790   5.126   1.826
15365TIP3   OH245971   6.945   3.211   1.242
15365TIP3    H145972   6.893   3.133   1.258
15365TIP3    H245973   6.887   3.269   1.192
15366TIP3   OH245974   9.271   5.527   4.412
15366TIP3    H145975   9.191   5.480   4.386
15366TIP3    H245976   9.337   5.497   4.351
15367TIP3   OH245977   7.253   4.029   4.622
15367TIP3    H145978   7.204   4.108   4.644
15367TIP3    H245979   7.337   4.039   4.668
15368TIP3   OH245980   8.218   1.608   7.302
15368TIP3    H145981   8.184   1.687   7.343
15368TIP3    H245982   8.288   1.639   7.245
15369TIP3   OH245983   4.077   8.253   3.721
15369TIP3    H145984   4.155   8.305   3.741
15369TIP3    H245985   4.016   8.274   3.792
15370TIP3   OH245986   0.098   4.915   0.631
15370TIP3    H145987   0.040   4.868   0.571
15370TIP3    H245988   0.086   4.871   0.715
15371TIP3   OH245989   7.859   7.543   3.366
15371TIP3    H145990   7.810   7.561   3.286
15371TIP3    H245991   7.853   7.624   3.417
15372TIP3   OH245992   6.380   8.843   1.474
15372TIP3    H145993   6.394   8.804   1.388
15372TIP3    H245994   6.341   8.929   1.456
15373TIP3   OH245995   2.933   7.542   1.973
15373TIP3    H145996   2.954   7.599   1.899
15373TIP3    H245997   2.859   7.586   2.016
15374TIP3   OH245998   4.594   4.433   5.609
15374TIP3    H145999   4.646   4.495   5.557
15374TIP3    H246000   4.579   4.478   5.692
15375TIP3   OH246001   0.193   7.049   3.044
15375TIP3    H146002   0.245   6.972   3.020
15375TIP3    H246003   0.228   7.119   2.988
15376TIP3   OH246004   4.398   7.651   0.856
15376TIP3    H146005   4.311   7.616   0.836
15376TIP3    H246006   4.391   7.745   0.841
15377TIP3   OH246007   2.083   0.565   6.669
15377TIP3    H146008   2.101   0.503   6.598
15377TIP3    H246009   1.991   0.549   6.691
15378TIP3   OH246010   5.758   6.277   3.652
15378TIP3    H146011   5.684   6.219   3.667
15378TIP3    H246012   5.721   6.353   3.606
15379TIP3   OH246013   1.012   4.530   3.036
15379TIP3    H146014   1.103   4.551   3.014
15379TIP3    H246015   0.993   4.450   2.988
15380TIP3   OH246016   1.058   8.981   3.878
15380TIP3    H146017   1.123   8.967   3.809
15380TIP3    H246018   0.992   9.038   3.838
15381TIP3   OH246019   9.253   2.921   2.366
15381TIP3    H146020   9.339   2.931   2.407
15381TIP3    H246021   9.271   2.885   2.280
15382TIP3   OH246022   2.291   4.361   2.079
15382TIP3    H146023   2.286   4.409   1.996
15382TIP3    H246024   2.203   4.328   2.094
15383TIP3   OH246025   8.506   7.916   2.268
15383TIP3    H146026   8.552   7.998   2.287
15383TIP3    H246027   8.569   7.863   2.220
15384TIP3   OH246028   5.588   5.717   4.778
15384TIP3    H146029   5.595   5.622   4.769
15384TIP3    H246030   5.675   5.750   4.757
15385TIP3   OH246031   3.214   2.204   2.164
15385TIP3    H146032   3.264   2.285   2.176
15385TIP3    H246033   3.269   2.136   2.201
15386TIP3   OH246034   8.790   0.290   1.911
15386TIP3    H146035   8.732   0.289   1.835
15386TIP3    H246036   8.838   0.373   1.904
15387TIP3   OH246037   8.332   7.141   1.264
15387TIP3    H146038   8.361   7.059   1.223
15387TIP3    H246039   8.296   7.192   1.192
15388TIP3   OH246040   5.123   5.993   7.802
15388TIP3    H146041   5.063   5.976   7.730
15388TIP3    H246042   5.153   6.083   7.787
15389TIP3   OH246043   3.866   2.449   2.851
15389TIP3    H146044   3.815   2.467   2.772
15389TIP3    H246045   3.957   2.459   2.824
15390TIP3   OH246046   1.277   8.425   7.073
15390TIP3    H146047   1.355   8.480   7.067
15390TIP3    H246048   1.308   8.337   7.050
15391TIP3   OH246049   1.206   6.212   0.833
15391TIP3    H146050   1.135   6.211   0.769
15391TIP3    H246051   1.276   6.262   0.790
15392TIP3   OH246052   4.601   6.604   0.313
15392TIP3    H146053   4.636   6.514   0.317
15392TIP3    H246054   4.670   6.657   0.353
15393TIP3   OH246055   8.709   2.254   7.532
15393TIP3    H146056   8.756   2.323   7.578
15393TIP3    H246057   8.731   2.173   7.579
15394TIP3   OH246058   8.916   1.142   1.565
15394TIP3    H146059   9.006   1.111   1.566
15394TIP3    H246060   8.890   1.143   1.658
15395TIP3   OH246061   7.969   2.888   2.808
15395TIP3    H146062   7.911   2.865   2.881
15395TIP3    H246063   8.045   2.928   2.849
15396TIP3   OH246064   1.427   0.629   7.083
15396TIP3    H146065   1.371   0.702   7.055
15396TIP3    H246066   1.367   0.558   7.101
15397TIP3   OH246067   1.309   0.769   6.289
15397TIP3    H146068   1.384   0.718   6.319
15397TIP3    H246069   1.277   0.722   6.211
15398TIP3   OH246070   7.443   7.478   3.122
15398TIP3    H146071   7.489   7.452   3.202
15398TIP3    H246072   7.452   7.404   3.063
15399TIP3   OH246073   8.737   7.282   3.856
15399TIP3    H146074   8.650   7.264   3.822
15399TIP3    H246075   8.724   7.304   3.948
15400TIP3   OH246076   5.073   4.615   1.029
15400TIP3    H146077   5.169   4.624   1.028
15400TIP3    H246078   5.042   4.686   0.973
15401TIP3   OH246079   7.117   2.017   0.099
15401TIP3    H146080   7.165   2.086   0.052
15401TIP3    H246081   7.130   1.939   0.046
15402TIP3   OH246082   2.964   6.757   6.720
15402TIP3    H146083   2.909   6.815   6.667
15402TIP3    H246084   3.010   6.817   6.779
15403TIP3   OH246085   1.722   4.894   1.040
15403TIP3    H146086   1.669   4.888   1.119
15403TIP3    H246087   1.725   4.804   1.006
15404TIP3   OH246088   2.521   8.459   1.775
15404TIP3    H146089   2.534   8.410   1.694
15404TIP3    H246090   2.437   8.504   1.762
15405TIP3   OH246091   3.016   9.008   2.421
15405TIP3    H146092   3.103   8.972   2.435
15405TIP3    H246093   2.961   8.932   2.401
15406TIP3   OH246094   0.282   7.686   7.189
15406TIP3    H146095   0.231   7.629   7.132
15406TIP3    H246096   0.358   7.634   7.215
15407TIP3   OH246097   4.871   1.487   4.542
15407TIP3    H146098   4.839   1.459   4.628
15407TIP3    H246099   4.936   1.554   4.562
15408TIP3   OH246100   5.523   2.510   0.392
15408TIP3    H146101   5.427   2.515   0.398
15408TIP3    H246102   5.549   2.590   0.347
15409TIP3   OH246103   9.389   4.688   6.839
15409TIP3    H146104   9.402   4.721   6.750
15409TIP3    H246105   9.396   4.593   6.830
15410TIP3   OH246106   1.258   5.237   7.498
15410TIP3    H146107   1.236   5.265   7.586
15410TIP3    H246108   1.216   5.152   7.488
15411TIP3   OH246109   6.318   8.296   1.713
15411TIP3    H146110   6.240   8.341   1.746
15411TIP3    H246111   6.291   8.204   1.707
15412TIP3   OH246112   3.905   4.730   1.240
15412TIP3    H146113   3.899   4.635   1.244
15412TIP3    H246114   3.968   4.747   1.170
15413TIP3   OH246115   2.088   5.413   3.878
15413TIP3    H146116   2.017   5.392   3.817
15413TIP3    H246117   2.065   5.499   3.913
15414TIP3   OH246118   4.348   5.324   4.940
15414TIP3    H146119   4.264   5.351   4.978
15414TIP3    H246120   4.410   5.331   5.013
15415TIP3   OH246121   0.806   3.868   1.527
15415TIP3    H146122   0.809   3.881   1.432
15415TIP3    H246123   0.854   3.786   1.541
15416TIP3   OH246124   7.948   7.533   5.118
15416TIP3    H146125   7.961   7.612   5.171
15416TIP3    H246126   8.014   7.471   5.151
15417TIP3   OH246127   6.286   2.452   4.728
15417TIP3    H146128   6.234   2.389   4.778
15417TIP3    H246129   6.249   2.448   4.639
15418TIP3   OH246130   1.543   1.636   6.528
15418TIP3    H146131   1.566   1.578   6.600
15418TIP3    H246132   1.452   1.662   6.547
15419TIP3   OH246133   4.038   6.352   7.687
15419TIP3    H146134   3.945   6.364   7.667
15419TIP3    H246135   4.045   6.262   7.719
15420TIP3   OH246136   3.185   0.169   1.392
15420TIP3    H146137   3.251   0.116   1.346
15420TIP3    H246138   3.139   0.215   1.323
15421TIP3   OH246139   4.882   7.365   5.816
15421TIP3    H146140   4.886   7.459   5.835
15421TIP3    H246141   4.907   7.323   5.899
15422TIP3   OH246142   4.220   7.265   0.364
15422TIP3    H146143   4.284   7.285   0.432
15422TIP3    H246144   4.232   7.333   0.298
15423TIP3   OH246145   2.437   4.076   6.393
15423TIP3    H146146   2.417   3.990   6.355
15423TIP3    H246147   2.438   4.061   6.487
15424TIP3   OH246148   6.921   2.388   1.680
15424TIP3    H146149   6.959   2.304   1.653
15424TIP3    H246150   6.995   2.449   1.680
15425TIP3   OH246151   3.390   2.248   6.047
15425TIP3    H146152   3.336   2.260   6.125
15425TIP3    H246153   3.327   2.241   5.975
15426TIP3   OH246154   2.088   6.223   2.462
15426TIP3    H146155   2.182   6.221   2.480
15426TIP3    H246156   2.048   6.193   2.543
15427TIP3   OH246157   4.558   4.017   7.349
15427TIP3    H146158   4.474   4.059   7.332
15427TIP3    H246159   4.554   3.934   7.303
15428TIP3   OH246160   6.903   7.829   4.117
15428TIP3    H146161   6.859   7.749   4.145
15428TIP3    H246162   6.834   7.894   4.111
15429TIP3   OH246163   3.833   3.165   5.300
15429TIP3    H146164   3.760   3.224   5.317
15429TIP3    H246165   3.866   3.142   5.387
15430TIP3   OH246166   6.795   4.880   1.421
15430TIP3    H146167   6.754   4.868   1.335
15430TIP3    H246168   6.756   4.960   1.456
15431TIP3   OH246169   0.596   1.536   1.894
15431TIP3    H146170   0.648   1.459   1.873
15431TIP3    H246171   0.544   1.552   1.815
15432TIP3   OH246172   1.707   0.122   6.986
15432TIP3    H146173   1.615   0.137   6.964
15432TIP3    H246174   1.712   0.143   7.079
15433TIP3   OH246175   2.060   8.559   4.216
15433TIP3    H146176   2.097   8.623   4.155
15433TIP3    H246177   1.973   8.540   4.181
15434TIP3   OH246178   4.087   3.159   5.123
15434TIP3    H146179   4.083   3.186   5.215
15434TIP3    H246180   4.140   3.079   5.124
15435TIP3   OH246181   9.379   8.714   0.585
15435TIP3    H146182   9.466   8.747   0.562
15435TIP3    H246183   9.366   8.638   0.528
15436TIP3   OH246184   8.590   4.487   0.613
15436TIP3    H146185   8.555   4.497   0.524
15436TIP3    H246186   8.594   4.392   0.626
15437TIP3   OH246187   3.237   4.845   3.171
15437TIP3    H146188   3.216   4.757   3.200
15437TIP3    H246189   3.193   4.902   3.234
15438TIP3   OH246190   9.355   5.050   6.079
15438TIP3    H146191   9.328   5.124   6.133
15438TIP3    H246192   9.412   5.088   6.012
15439TIP3   OH246193   0.545   8.462   0.918
15439TIP3    H146194   0.449   8.469   0.914
15439TIP3    H246195   0.561   8.385   0.971
15440TIP3   OH246196   0.304   4.600   1.071
15440TIP3    H146197   0.362   4.581   0.996
15440TIP3    H246198   0.223   4.553   1.051
15441TIP3   OH246199   3.836   4.479   1.201
15441TIP3    H146200   3.890   4.435   1.267
15441TIP3    H246201   3.876   4.455   1.117
15442TIP3   OH246202   6.643   1.380   2.948
15442TIP3    H146203   6.690   1.394   3.030
15442TIP3    H246204   6.712   1.377   2.881
15443TIP3   OH246205   8.234   4.960   2.738
15443TIP3    H146206   8.286   5.003   2.805
15443TIP3    H246207   8.289   4.889   2.706
15444TIP3   OH246208   8.211   5.613   6.107
15444TIP3    H146209   8.151   5.623   6.182
15444TIP3    H246210   8.195   5.691   6.054
15445TIP3   OH246211   4.710   7.210   7.733
15445TIP3    H146212   4.800   7.197   7.762
15445TIP3    H246213   4.714   7.283   7.671
15446TIP3   OH246214   2.665   3.518   2.934
15446TIP3    H146215   2.677   3.606   2.898
15446TIP3    H246216   2.604   3.476   2.874
15447TIP3   OH246217   3.362   1.377   2.985
15447TIP3    H146218   3.415   1.298   2.995
15447TIP3    H246219   3.417   1.447   3.021
15448TIP3   OH246220   7.256   4.620   1.685
15448TIP3    H146221   7.162   4.631   1.671
15448TIP3    H246222   7.289   4.708   1.701
15449TIP3   OH246223   9.495   1.458   5.154
15449TIP3    H146224   9.504   1.399   5.229
15449TIP3    H246225   9.508   1.545   5.191
15450TIP3   OH246226   7.689   4.764   3.063
15450TIP3    H146227   7.784   4.756   3.071
15450TIP3    H246228   7.660   4.789   3.150
15451TIP3   OH246229   3.259   2.779   4.436
15451TIP3    H146230   3.257   2.793   4.531
15451TIP3    H246231   3.277   2.686   4.425
15452TIP3   OH246232   7.880   3.871   2.175
15452TIP3    H146233   7.813   3.918   2.224
15452TIP3    H246234   7.919   3.811   2.238
15453TIP3   OH246235   1.414   8.963   1.140
15453TIP3    H146236   1.323   8.940   1.158
15453TIP3    H246237   1.411   9.001   1.052
15454TIP3   OH246238   7.717   5.845   4.867
15454TIP3    H146239   7.622   5.840   4.855
15454TIP3    H246240   7.748   5.755   4.855
15455TIP3   OH246241   1.329   6.820   7.764
15455TIP3    H146242   1.411   6.867   7.781
15455TIP3    H246243   1.263   6.888   7.758
15456TIP3   OH246244   9.061   8.125   6.620
15456TIP3    H146245   9.099   8.087   6.541
15456TIP3    H246246   9.137   8.158   6.669
15457TIP3   OH246247   0.326   8.564   0.646
15457TIP3    H146248   0.334   8.546   0.552
15457TIP3    H246249   0.407   8.530   0.684
15458TIP3   OH246250   8.955   0.395   6.439
15458TIP3    H146251   8.915   0.442   6.512
15458TIP3    H246252   8.881   0.367   6.385
15459TIP3   OH246253   1.746   0.672   0.277
15459TIP3    H146254   1.748   0.604   0.210
15459TIP3    H246255   1.800   0.638   0.348
15460TIP3   OH246256   0.088   7.759   3.148
15460TIP3    H146257   0.128   7.747   3.062
15460TIP3    H246258   0.030   7.835   3.138
15461TIP3   OH246259   3.589   7.235   0.629
15461TIP3    H146260   3.596   7.181   0.708
15461TIP3    H246261   3.495   7.253   0.621
15462TIP3   OH246262   8.518   6.930   6.309
15462TIP3    H146263   8.520   6.859   6.245
15462TIP3    H246264   8.502   7.009   6.258
15463TIP3   OH246265   9.468   7.518   6.924
15463TIP3    H146266   9.389   7.568   6.901
15463TIP3    H246267   9.510   7.502   6.840
15464TIP3   OH246268   8.081   3.955   4.727
15464TIP3    H146269   8.033   3.950   4.810
15464TIP3    H246270   8.164   3.911   4.744
15465TIP3   OH246271   5.219   8.145   5.619
15465TIP3    H146272   5.241   8.091   5.695
15465TIP3    H246273   5.296   8.142   5.563
15466TIP3   OH246274   1.371   7.835   7.481
15466TIP3    H146275   1.431   7.762   7.494
15466TIP3    H246276   1.396   7.900   7.547
15467TIP3   OH246277   6.435   0.963   5.671
15467TIP3    H146278   6.412   1.055   5.665
15467TIP3    H246279   6.512   0.953   5.614
15468TIP3   OH246280   0.395   7.273   0.656
15468TIP3    H146281   0.488   7.249   0.649
15468TIP3    H246282   0.354   7.231   0.581
15469TIP3   OH246283   4.971   1.814   1.149
15469TIP3    H146284   4.901   1.790   1.210
15469TIP3    H246285   5.051   1.783   1.190
15470TIP3   OH246286   3.397   6.566   5.562
15470TIP3    H146287   3.412   6.654   5.597
15470TIP3    H246288   3.455   6.509   5.613
15471TIP3   OH246289   3.751   6.226   6.079
15471TIP3    H146290   3.656   6.238   6.078
15471TIP3    H246291   3.774   6.208   5.988
15472TIP3   OH246292   3.535   5.893   2.357
15472TIP3    H146293   3.627   5.867   2.357
15472TIP3    H246294   3.495   5.840   2.427
15473TIP3   OH246295   6.269   6.907   7.726
15473TIP3    H146296   6.306   6.992   7.749
15473TIP3    H246297   6.226   6.922   7.642
15474TIP3   OH246298   0.162   1.429   0.527
15474TIP3    H146299   0.185   1.516   0.495
15474TIP3    H246300   0.170   1.435   0.622
15475TIP3   OH246301   8.851   1.772   0.141
15475TIP3    H146302   8.918   1.837   0.158
15475TIP3    H246303   8.871   1.738   0.054
15476TIP3   OH246304   7.589   1.176   4.135
15476TIP3    H146305   7.650   1.249   4.147
15476TIP3    H246306   7.563   1.182   4.044
15477TIP3   OH246307   0.258   7.996   2.213
15477TIP3    H146308   0.182   7.987   2.270
15477TIP3    H246309   0.249   7.925   2.150
15478TIP3   OH246310   4.293   4.542   4.831
15478TIP3    H146311   4.296   4.638   4.828
15478TIP3    H246312   4.376   4.516   4.870
15479TIP3   OH246313   1.970   0.883   2.214
15479TIP3    H146314   1.895   0.943   2.211
15479TIP3    H246315   2.021   0.905   2.136
15480TIP3   OH246316   7.929   2.655   0.446
15480TIP3    H146317   7.958   2.709   0.372
15480TIP3    H246318   7.898   2.573   0.406
15481TIP3   OH246319   4.912   5.984   7.615
15481TIP3    H146320   4.827   5.948   7.591
15481TIP3    H246321   4.891   6.067   7.658
15482TIP3   OH246322   1.040   0.695   3.408
15482TIP3    H146323   1.045   0.694   3.503
15482TIP3    H246324   0.949   0.670   3.388
15483TIP3   OH246325   3.176   5.148   2.759
15483TIP3    H146326   3.235   5.214   2.794
15483TIP3    H246327   3.233   5.083   2.718
15484TIP3   OH246328   5.797   3.558   2.004
15484TIP3    H146329   5.707   3.588   2.015
15484TIP3    H246330   5.795   3.505   1.924
15485TIP3   OH246331   9.070   5.232   6.239
15485TIP3    H146332   9.018   5.152   6.244
15485TIP3    H246333   9.125   5.230   6.317
15486TIP3   OH246334   6.822   5.903   3.012
15486TIP3    H146335   6.810   5.818   2.970
15486TIP3    H246336   6.811   5.967   2.941
15487TIP3   OH246337   2.052   7.236   6.144
15487TIP3    H146338   2.139   7.197   6.150
15487TIP3    H246339   2.048   7.296   6.219
15488TIP3   OH246340   9.092   2.345   4.462
15488TIP3    H146341   9.099   2.263   4.511
15488TIP3    H246342   9.135   2.410   4.517
15489TIP3   OH246343   8.964   3.567   2.190
15489TIP3    H146344   8.910   3.591   2.115
15489TIP3    H246345   8.973   3.648   2.240
15490TIP3   OH246346   3.008   8.229   7.456
15490TIP3    H146347   2.988   8.199   7.368
15490TIP3    H246348   3.040   8.319   7.445
15491TIP3   OH246349   8.237   1.293   3.043
15491TIP3    H146350   8.237   1.272   2.950
15491TIP3    H246351   8.272   1.381   3.049
15492TIP3   OH246352   4.492   3.167   1.678
15492TIP3    H146353   4.414   3.185   1.624
15492TIP3    H246354   4.465   3.191   1.767
15493TIP3   OH246355   8.319   0.307   2.392
15493TIP3    H146356   8.392   0.249   2.418
15493TIP3    H246357   8.281   0.263   2.316
15494TIP3   OH246358   6.768   6.765   5.888
15494TIP3    H146359   6.816   6.823   5.830
15494TIP3    H246360   6.829   6.693   5.907
15495TIP3   OH246361   0.240   7.097   5.796
15495TIP3    H146362   0.175   7.166   5.808
15495TIP3    H246363   0.275   7.111   5.708
15496TIP3   OH246364   3.856   4.657   0.931
15496TIP3    H146365   3.926   4.707   0.974
15496TIP3    H246366   3.878   4.659   0.838
15497TIP3   OH246367   5.161   7.457   1.096
15497TIP3    H146368   5.095   7.388   1.105
15497TIP3    H246369   5.117   7.528   1.051
15498TIP3   OH246370   5.323   1.095   1.274
15498TIP3    H146371   5.411   1.128   1.259
15498TIP3    H246372   5.278   1.109   1.191
15499TIP3   OH246373   3.555   8.818   7.756
15499TIP3    H146374   3.592   8.868   7.828
15499TIP3    H246375   3.576   8.727   7.776
15500TIP3   OH246376   1.299   8.958   3.238
15500TIP3    H146377   1.235   9.028   3.252
15500TIP3    H246378   1.344   8.983   3.157
15501TIP3   OH246379   6.574   8.947   1.706
15501TIP3    H146380   6.518   9.019   1.676
15501TIP3    H246381   6.660   8.986   1.716
15502TIP3   OH246382   7.599   5.937   4.223
15502TIP3    H146383   7.639   5.963   4.140
15502TIP3    H246384   7.505   5.942   4.208
15503TIP3   OH246385   3.466   8.356   2.304
15503TIP3    H146386   3.456   8.353   2.208
15503TIP3    H246387   3.558   8.335   2.319
15504TIP3   OH246388   7.152   1.153   2.679
15504TIP3    H146389   7.064   1.188   2.665
15504TIP3    H246390   7.138   1.062   2.706
15505TIP3   OH246391   2.869   6.585   3.100
15505TIP3    H146392   2.890   6.672   3.134
15505TIP3    H246393   2.795   6.556   3.154
15506TIP3   OH246394   4.637   1.133   5.348
15506TIP3    H146395   4.621   1.153   5.256
15506TIP3    H246396   4.606   1.043   5.360
15507TIP3   OH246397   1.645   3.165   1.579
15507TIP3    H146398   1.551   3.145   1.583
15507TIP3    H246399   1.654   3.226   1.506
15508TIP3   OH246400   7.333   4.116   0.583
15508TIP3    H146401   7.372   4.031   0.560
15508TIP3    H246402   7.265   4.094   0.647
15509TIP3   OH246403   6.127   1.669   6.650
15509TIP3    H146404   6.187   1.648   6.578
15509TIP3    H246405   6.184   1.705   6.718
15510TIP3   OH246406   7.344   3.272   0.770
15510TIP3    H146407   7.408   3.258   0.839
15510TIP3    H246408   7.262   3.290   0.817
15511TIP3   OH246409   0.102   4.744   2.997
15511TIP3    H146410   0.156   4.819   3.022
15511TIP3    H246411   0.085   4.756   2.904
15512TIP3   OH246412   8.691   5.461   2.870
15512TIP3    H146413   8.620   5.470   2.934
15512TIP3    H246414   8.742   5.541   2.880
15513TIP3   OH246415   2.992   3.460   2.697
15513TIP3    H146416   2.906   3.473   2.657
15513TIP3    H246417   3.017   3.547   2.728
15514TIP3   OH246418   7.333   1.940   1.247
15514TIP3    H146419   7.250   1.969   1.285
15514TIP3    H246420   7.371   1.883   1.315
15515TIP3   OH246421   3.692   8.420   1.476
15515TIP3    H146422   3.759   8.369   1.521
15515TIP3    H246423   3.705   8.400   1.383
15516TIP3   OH246424   2.454   6.601   3.438
15516TIP3    H146425   2.540   6.571   3.467
15516TIP3    H246426   2.473   6.653   3.359
15517TIP3   OH246427   9.271   6.087   1.892
15517TIP3    H146428   9.195   6.106   1.947
15517TIP3    H246429   9.235   6.034   1.821
15518TIP3   OH246430   1.555   0.420   5.656
15518TIP3    H146431   1.562   0.497   5.601
15518TIP3    H246432   1.645   0.390   5.668
15519TIP3   OH246433   6.728   0.953   0.014
15519TIP3    H146434   6.662   0.933  -0.052
15519TIP3    H246435   6.800   0.993  -0.035
15520TIP3   OH246436   8.082   6.200   4.069
15520TIP3    H146437   8.109   6.231   4.155
15520TIP3    H246438   8.114   6.266   4.008
15521TIP3   OH246439   5.568   6.874   4.936
15521TIP3    H146440   5.574   6.900   5.028
15521TIP3    H246441   5.628   6.800   4.927
15522TIP3   OH246442   8.256   0.218   1.041
15522TIP3    H146443   8.266   0.312   1.031
15522TIP3    H246444   8.279   0.202   1.133
15523TIP3   OH246445   5.396   2.572   4.416
15523TIP3    H146446   5.468   2.512   4.437
15523TIP3    H246447   5.433   2.632   4.351
15524TIP3   OH246448   6.462   2.682   7.813
15524TIP3    H146449   6.467   2.633   7.730
15524TIP3    H246450   6.370   2.707   7.821
15525TIP3   OH246451   5.733  -0.003   3.223
15525TIP3    H146452   5.743   0.088   3.196
15525TIP3    H246453   5.691   0.002   3.309
15526TIP3   OH246454   7.864   0.177   6.295
15526TIP3    H146455   7.935   0.156   6.234
15526TIP3    H246456   7.789   0.196   6.239
15527TIP3   OH246457   1.463   5.909   5.023
15527TIP3    H146458   1.372   5.938   5.032
15527TIP3    H246459   1.514   5.987   5.043
15528TIP3   OH246460   7.776   5.678   6.411
15528TIP3    H146461   7.709   5.615   6.385
15528TIP3    H246462   7.768   5.750   6.348
15529TIP3   OH246463   3.846   2.630   2.325
15529TIP3    H146464   3.933   2.644   2.363
15529TIP3    H246465   3.794   2.594   2.397
15530TIP3   OH246466   2.943   0.825   3.305
15530TIP3    H146467   2.857   0.855   3.334
15530TIP3    H246468   2.925   0.777   3.224
15531TIP3   OH246469   4.853   7.367   0.322
15531TIP3    H146470   4.915   7.298   0.297
15531TIP3    H246471   4.834   7.413   0.240
15532TIP3   OH246472   7.411   6.337   7.051
15532TIP3    H146473   7.444   6.283   6.979
15532TIP3    H246474   7.395   6.422   7.011
15533TIP3   OH246475   6.546   8.811   6.856
15533TIP3    H146476   6.460   8.850   6.844
15533TIP3    H246477   6.607   8.883   6.842
15534TIP3   OH246478   0.310   6.441   3.463
15534TIP3    H146479   0.304   6.452   3.368
15534TIP3    H246480   0.262   6.516   3.499
15535TIP3   OH246481   1.710   2.974   0.898
15535TIP3    H146482   1.629   3.012   0.933
15535TIP3    H246483   1.680   2.909   0.834
15536TIP3   OH246484   2.320   0.900   5.101
15536TIP3    H146485   2.377   0.976   5.117
15536TIP3    H246486   2.361   0.829   5.150
15537TIP3   OH246487   4.215   1.018   6.247
15537TIP3    H146488   4.141   0.970   6.285
15537TIP3    H246489   4.200   1.014   6.152
15538TIP3   OH246490   7.977   6.257   2.974
15538TIP3    H146491   8.019   6.210   2.902
15538TIP3    H246492   8.031   6.335   2.987
15539TIP3   OH246493   6.845   4.298   0.055
15539TIP3    H146494   6.865   4.371  -0.004
15539TIP3    H246495   6.886   4.222   0.013
15540TIP3   OH246496   0.996   3.203   0.897
15540TIP3    H146497   1.065   3.248   0.848
15540TIP3    H246498   0.938   3.167   0.829
15541TIP3   OH246499   9.490   1.430   3.317
15541TIP3    H146500   9.524   1.519   3.312
15541TIP3    H246501   9.420   1.434   3.382
15542TIP3   OH246502   0.250   2.576   6.704
15542TIP3    H146503   0.220   2.599   6.616
15542TIP3    H246504   0.186   2.616   6.763
15543TIP3   OH246505   1.152  -0.001   7.585
15543TIP3    H146506   1.225   0.024   7.642
15543TIP3    H246507   1.075   0.038   7.626
15544TIP3   OH246508   2.174   3.300   0.217
15544TIP3    H146509   2.201   3.388   0.241
15544TIP3    H246510   2.194   3.247   0.294
15545TIP3   OH246511   3.671   3.366   4.979
15545TIP3    H146512   3.756   3.380   5.020
15545TIP3    H246513   3.650   3.450   4.938
15546TIP3   OH246514   8.133   8.912   4.563
15546TIP3    H146515   8.101   8.848   4.499
15546TIP3    H246516   8.156   8.861   4.640
15547TIP3   OH246517   2.480   8.882   4.131
15547TIP3    H146518   2.485   8.919   4.219
15547TIP3    H246519   2.388   8.859   4.120
15548TIP3   OH246520   2.795   1.100   3.231
15548TIP3    H146521   2.836   1.098   3.145
15548TIP3    H246522   2.734   1.026   3.231
15549TIP3   OH246523   5.245   3.221   0.954
15549TIP3    H146524   5.275   3.196   0.867
15549TIP3    H246525   5.202   3.143   0.988
15550TIP3   OH246526   8.090   7.425   5.734
15550TIP3    H146527   8.108   7.472   5.815
15550TIP3    H246528   8.167   7.370   5.721
15551TIP3   OH246529   8.500   2.866   2.973
15551TIP3    H146530   8.470   2.951   2.939
15551TIP3    H246531   8.450   2.801   2.925
15552TIP3   OH246532   7.883   5.248   3.157
15552TIP3    H146533   7.797   5.212   3.177
15552TIP3    H246534   7.867   5.315   3.090
15553TIP3   OH246535   7.702   3.163   6.319
15553TIP3    H146536   7.623   3.217   6.325
15553TIP3    H246537   7.724   3.143   6.410
15554TIP3   OH246538   9.144   0.216   7.373
15554TIP3    H146539   9.121   0.275   7.444
15554TIP3    H246540   9.224   0.172   7.402
15555TIP3   OH246541   5.918   7.368   1.197
15555TIP3    H146542   5.829   7.349   1.226
15555TIP3    H246543   5.961   7.282   1.193
15556TIP3   OH246544   2.413   5.692   2.640
15556TIP3    H146545   2.477   5.738   2.694
15556TIP3    H246546   2.387   5.616   2.693
15557TIP3   OH246547   2.416   4.796   2.063
15557TIP3    H146548   2.465   4.714   2.061
15557TIP3    H246549   2.483   4.863   2.047
15558TIP3   OH246550   1.662   7.386   1.373
15558TIP3    H146551   1.753   7.357   1.366
15558TIP3    H246552   1.624   7.328   1.439
15559TIP3   OH246553   2.743   3.337   3.719
15559TIP3    H146554   2.712   3.424   3.697
15559TIP3    H246555   2.831   3.332   3.681
15560TIP3   OH246556   8.286   6.183   4.765
15560TIP3    H146557   8.374   6.196   4.799
15560TIP3    H246558   8.241   6.135   4.835
15561TIP3   OH246559   8.915   5.948   2.811
15561TIP3    H146560   8.900   5.970   2.903
15561TIP3    H246561   8.982   6.010   2.783
15562TIP3   OH246562   5.122   3.412   2.477
15562TIP3    H146563   5.106   3.351   2.549
15562TIP3    H246564   5.070   3.489   2.499
15563TIP3   OH246565   5.652   1.435   1.970
15563TIP3    H146566   5.618   1.442   2.059
15563TIP3    H246567   5.605   1.503   1.921
15564TIP3   OH246568   1.815   7.952   0.974
15564TIP3    H146569   1.909   7.964   0.987
15564TIP3    H246570   1.808   7.897   0.896
15565TIP3   OH246571   4.431   2.803   6.765
15565TIP3    H146572   4.504   2.853   6.729
15565TIP3    H246573   4.389   2.863   6.827
15566TIP3   OH246574   6.461   2.599   1.504
15566TIP3    H146575   6.386   2.623   1.559
15566TIP3    H246576   6.438   2.632   1.417
15567TIP3   OH246577   1.356   6.762   2.536
15567TIP3    H146578   1.364   6.702   2.462
15567TIP3    H246579   1.265   6.753   2.565
15568TIP3   OH246580   4.397   0.064   2.647
15568TIP3    H146581   4.488   0.056   2.621
15568TIP3    H246582   4.401   0.090   2.739
15569TIP3   OH246583   3.018   6.122   1.790
15569TIP3    H146584   3.083   6.055   1.769
15569TIP3    H246585   3.047   6.199   1.741
15570TIP3   OH246586   9.444   2.641   2.890
15570TIP3    H146587   9.530   2.616   2.923
15570TIP3    H246588   9.410   2.702   2.955
15571TIP3   OH246589   7.466   1.402   4.724
15571TIP3    H146590   7.482   1.355   4.806
15571TIP3    H246591   7.553   1.429   4.695
15572TIP3   OH246592   5.094   0.479   3.678
15572TIP3    H146593   5.133   0.566   3.675
15572TIP3    H246594   5.017   0.488   3.734
15573TIP3   OH246595   9.007   1.663   5.226
15573TIP3    H146596   8.967   1.698   5.147
15573TIP3    H246597   9.099   1.688   5.220
15574TIP3   OH246598   0.547   1.741   6.101
15574TIP3    H146599   0.600   1.676   6.055
15574TIP3    H246600   0.534   1.811   6.037
15575TIP3   OH246601   1.258   3.990   6.149
15575TIP3    H146602   1.226   4.049   6.218
15575TIP3    H246603   1.188   3.989   6.084
15576TIP3   OH246604   6.910   2.938   3.144
15576TIP3    H146605   6.833   2.885   3.163
15576TIP3    H246606   6.885   3.026   3.170
15577TIP3   OH246607   5.480   1.196   0.884
15577TIP3    H146608   5.556   1.139   0.894
15577TIP3    H246609   5.462   1.228   0.973
15578TIP3   OH246610   0.426   4.886   7.434
15578TIP3    H146611   0.493   4.818   7.438
15578TIP3    H246612   0.467   4.958   7.386
15579TIP3   OH246613   3.819   8.657   7.506
15579TIP3    H146614   3.822   8.712   7.585
15579TIP3    H246615   3.822   8.719   7.433
15580TIP3   OH246616   6.770   6.230   3.133
15580TIP3    H146617   6.686   6.250   3.174
15580TIP3    H246618   6.746   6.193   3.048
15581TIP3   OH246619   4.834   7.417   2.752
15581TIP3    H146620   4.874   7.385   2.833
15581TIP3    H246621   4.846   7.512   2.756
15582TIP3   OH246622   4.955   1.245   0.837
15582TIP3    H146623   4.916   1.323   0.876
15582TIP3    H246624   4.927   1.174   0.895
15583TIP3   OH246625   4.563   8.235   7.690
15583TIP3    H146626   4.566   8.329   7.672
15583TIP3    H246627   4.610   8.225   7.772
15584TIP3   OH246628   7.710   2.512   1.922
15584TIP3    H146629   7.678   2.602   1.927
15584TIP3    H246630   7.720   2.494   1.829
15585TIP3   OH246631   0.817   2.286   2.380
15585TIP3    H146632   0.810   2.338   2.461
15585TIP3    H246633   0.878   2.216   2.403
15586TIP3   OH246634   6.350   0.365   1.857
15586TIP3    H146635   6.391   0.288   1.818
15586TIP3    H246636   6.259   0.340   1.870
15587TIP3   OH246637   4.144   8.069   6.721
15587TIP3    H146638   4.200   8.015   6.666
15587TIP3    H246639   4.195   8.148   6.737
15588TIP3   OH246640   0.742   1.300   1.776
15588TIP3    H146641   0.753   1.208   1.800
15588TIP3    H246642   0.821   1.321   1.725
15589TIP3   OH246643   8.777   6.687   3.648
15589TIP3    H146644   8.685   6.709   3.665
15589TIP3    H246645   8.776   6.593   3.630
15590TIP3   OH246646   1.116   5.780   1.373
15590TIP3    H146647   1.205   5.812   1.392
15590TIP3    H246648   1.059   5.841   1.420
15591TIP3   OH246649   9.375   4.513   0.304
15591TIP3    H146650   9.420   4.429   0.315
15591TIP3    H246651   9.417   4.553   0.227
15592TIP3   OH246652   5.144   0.431   0.096
15592TIP3    H146653   5.215   0.493   0.080
15592TIP3    H246654   5.178   0.347   0.066
15593TIP3   OH246655   9.351   6.701   3.769
15593TIP3    H146656   9.283   6.660   3.822
15593TIP3    H246657   9.403   6.628   3.736
15594TIP3   OH246658   1.885   2.020   7.167
15594TIP3    H146659   1.813   2.082   7.168
15594TIP3    H246660   1.935   2.040   7.246
15595TIP3   OH246661   3.917   1.820   1.223
15595TIP3    H146662   3.863   1.858   1.292
15595TIP3    H246663   3.887   1.730   1.215
15596TIP3   OH246664   4.076   2.375   5.774
15596TIP3    H146665   4.099   2.282   5.784
15596TIP3    H246666   4.059   2.405   5.863
15597TIP3   OH246667   6.743   5.001   4.845
15597TIP3    H146668   6.695   5.028   4.923
15597TIP3    H246669   6.809   4.940   4.877
15598TIP3   OH246670   0.948   2.062   4.649
15598TIP3    H146671   1.000   1.984   4.629
15598TIP3    H246672   0.945   2.064   4.745
15599TIP3   OH246673   2.654   1.787   3.424
15599TIP3    H146674   2.632   1.879   3.410
15599TIP3    H246675   2.676   1.781   3.517
15600TIP3   OH246676   5.433   4.366   0.417
15600TIP3    H146677   5.444   4.414   0.499
15600TIP3    H246678   5.366   4.300   0.436
15601TIP3   OH246679   6.187   7.000   0.735
15601TIP3    H146680   6.244   7.022   0.661
15601TIP3    H246681   6.208   6.909   0.756
15602TIP3   OH246682   6.782   0.712   1.237
15602TIP3    H146683   6.739   0.652   1.298
15602TIP3    H246684   6.855   0.748   1.287
15603TIP3   OH246685   5.980   6.653   0.625
15603TIP3    H146686   6.005   6.561   0.635
15603TIP3    H246687   6.045   6.701   0.677
15604TIP3   OH246688   0.553   7.115   6.290
15604TIP3    H146689   0.633   7.070   6.264
15604TIP3    H246690   0.520   7.154   6.209
15605TIP3   OH246691   3.550   8.321   0.343
15605TIP3    H146692   3.593   8.301   0.426
15605TIP3    H246693   3.583   8.407   0.318
15606TIP3   OH246694   7.446   8.667   5.196
15606TIP3    H146695   7.452   8.756   5.232
15606TIP3    H246696   7.372   8.628   5.241
15607TIP3   OH246697   0.448   0.035   1.764
15607TIP3    H146698   0.379   0.080   1.814
15607TIP3    H246699   0.522   0.096   1.765
15608TIP3   OH246700   0.745   2.395   1.555
15608TIP3    H146701   0.707   2.465   1.502
15608TIP3    H246702   0.819   2.363   1.503
15609TIP3   OH246703   7.090   0.162   0.885
15609TIP3    H146704   7.074   0.159   0.791
15609TIP3    H246705   7.177   0.123   0.896
15610TIP3   OH246706   0.245   5.676   4.695
15610TIP3    H146707   0.224   5.645   4.782
15610TIP3    H246708   0.225   5.770   4.696
15611TIP3   OH246709   8.640   0.578   5.884
15611TIP3    H146710   8.628   0.537   5.970
15611TIP3    H246711   8.726   0.547   5.854
15612TIP3   OH246712   3.866   5.234   5.523
15612TIP3    H146713   3.812   5.294   5.470
15612TIP3    H246714   3.802   5.175   5.564
15613TIP3   OH246715   5.874   7.348   3.328
15613TIP3    H146716   5.922   7.408   3.385
15613TIP3    H246717   5.811   7.404   3.283
15614TIP3   OH246718   5.093   6.444   6.616
15614TIP3    H146719   5.152   6.491   6.558
15614TIP3    H246720   5.093   6.494   6.698
15615TIP3   OH246721   7.817   1.793   3.114
15615TIP3    H146722   7.780   1.763   3.031
15615TIP3    H246723   7.770   1.874   3.133
15616TIP3   OH246724   1.578   2.845   1.586
15616TIP3    H146725   1.523   2.919   1.562
15616TIP3    H246726   1.663   2.884   1.605
15617TIP3   OH246727   9.383   6.744   1.055
15617TIP3    H146728   9.437   6.776   0.983
15617TIP3    H246729   9.364   6.822   1.108
15618TIP3   OH246730   5.975   8.454   6.917
15618TIP3    H146731   6.032   8.401   6.972
15618TIP3    H246732   5.917   8.389   6.875
15619TIP3   OH246733   7.758   4.379   2.415
15619TIP3    H146734   7.790   4.457   2.459
15619TIP3    H246735   7.665   4.397   2.401
15620TIP3   OH246736   8.980   3.322   6.871
15620TIP3    H146737   9.056   3.304   6.816
15620TIP3    H246738   8.956   3.236   6.907
15621TIP3   OH246739   7.585   8.502   0.139
15621TIP3    H146740   7.617   8.412   0.135
15621TIP3    H246741   7.492   8.495   0.117
15622TIP3   OH246742   1.064   7.132   4.197
15622TIP3    H146743   1.011   7.053   4.208
15622TIP3    H246744   1.058   7.152   4.104
15623TIP3   OH246745   8.078   3.213   2.171
15623TIP3    H146746   8.104   3.129   2.132
15623TIP3    H246747   8.156   3.244   2.216
15624TIP3   OH246748   4.765   2.132   7.336
15624TIP3    H146749   4.737   2.218   7.304
15624TIP3    H246750   4.693   2.103   7.392
15625TIP3   OH246751   4.675   5.512   6.450
15625TIP3    H146752   4.582   5.525   6.429
15625TIP3    H246753   4.676   5.495   6.544
15626TIP3   OH246754   7.918   3.015   5.708
15626TIP3    H146755   7.865   2.945   5.748
15626TIP3    H246756   7.991   2.969   5.666
15627TIP3   OH246757   8.729   2.582   5.935
15627TIP3    H146758   8.643   2.584   5.893
15627TIP3    H246759   8.716   2.529   6.013
15628TIP3   OH246760   3.855   4.742   7.818
15628TIP3    H146761   3.947   4.719   7.830
15628TIP3    H246762   3.825   4.685   7.747
15629TIP3   OH246763   2.178   5.803   0.842
15629TIP3    H146764   2.140   5.889   0.859
15629TIP3    H246765   2.267   5.810   0.875
15630TIP3   OH246766   6.436   3.000   6.897
15630TIP3    H146767   6.450   3.003   6.802
15630TIP3    H246768   6.373   3.070   6.914
15631TIP3   OH246769   1.364   3.650   5.637
15631TIP3    H146770   1.456   3.657   5.611
15631TIP3    H246771   1.316   3.693   5.566
15632TIP3   OH246772   0.002   7.489   0.073
15632TIP3    H146773   0.058   7.435   0.129
15632TIP3    H246774  -0.086   7.456   0.089
15633TIP3   OH246775   1.880   7.597   1.778
15633TIP3    H146776   1.963   7.598   1.826
15633TIP3    H246777   1.891   7.662   1.709
15634TIP3   OH246778   2.001   0.422   0.377
15634TIP3    H146779   2.086   0.451   0.410
15634TIP3    H246780   1.937   0.478   0.422
15635TIP3   OH246781   8.591   6.818   1.716
15635TIP3    H146782   8.582   6.823   1.621
15635TIP3    H246783   8.684   6.801   1.731
15636TIP3   OH246784   8.500   6.005   3.411
15636TIP3    H146785   8.548   6.028   3.331
15636TIP3    H246786   8.443   5.933   3.385
15637TIP3   OH246787   3.730   1.997   4.839
15637TIP3    H146788   3.736   2.008   4.744
15637TIP3    H246789   3.781   1.918   4.858
15638TIP3   OH246790   7.753   7.814   2.443
15638TIP3    H146791   7.669   7.824   2.487
15638TIP3    H246792   7.731   7.805   2.350
15639TIP3   OH246793   6.551   5.337   2.850
15639TIP3    H146794   6.553   5.245   2.826
15639TIP3    H246795   6.588   5.340   2.938
15640TIP3   OH246796   5.255   6.534   0.143
15640TIP3    H146797   5.179   6.592   0.136
15640TIP3    H246798   5.330   6.593   0.138
15641TIP3   OH246799   5.452   6.754   2.552
15641TIP3    H146800   5.494   6.728   2.635
15641TIP3    H246801   5.398   6.679   2.528
15642TIP3   OH246802   3.356   4.055   7.480
15642TIP3    H146803   3.332   4.133   7.530
15642TIP3    H246804   3.452   4.053   7.482
15643TIP3   OH246805   2.515   7.117   1.216
15643TIP3    H146806   2.495   7.026   1.239
15643TIP3    H246807   2.438   7.166   1.244
15644TIP3   OH246808   1.984   3.075   0.852
15644TIP3    H146809   1.889   3.062   0.853
15644TIP3    H246810   2.004   3.111   0.939
15645TIP3   OH246811   8.006   4.728   0.780
15645TIP3    H146812   8.045   4.647   0.814
15645TIP3    H246813   8.064   4.798   0.811
15646TIP3   OH246814   4.480   1.279   5.657
15646TIP3    H146815   4.448   1.340   5.591
15646TIP3    H246816   4.431   1.198   5.641
15647TIP3   OH246817   6.049   4.038   6.062
15647TIP3    H146818   5.989   4.112   6.045
15647TIP3    H246819   6.123   4.078   6.107
15648TIP3   OH246820   3.794   7.897   2.673
15648TIP3    H146821   3.783   7.931   2.762
15648TIP3    H246822   3.836   7.968   2.625
15649TIP3   OH246823   6.345   1.723   0.939
15649TIP3    H146824   6.302   1.717   0.854
15649TIP3    H246825   6.294   1.788   0.987
15650TIP3   OH246826   0.461   8.804   4.458
15650TIP3    H146827   0.536   8.762   4.499
15650TIP3    H246828   0.426   8.737   4.398
15651TIP3   OH246829   9.240   8.977   6.334
15651TIP3    H146830   9.237   9.021   6.419
15651TIP3    H246831   9.176   8.907   6.340
15652TIP3   OH246832   5.306   8.092   1.074
15652TIP3    H146833   5.296   8.034   1.149
15652TIP3    H246834   5.370   8.049   1.018
15653TIP3   OH246835   9.274   6.256   0.140
15653TIP3    H146836   9.351   6.291   0.184
15653TIP3    H246837   9.205   6.320   0.158
15654TIP3   OH246838   5.764   2.560   3.757
15654TIP3    H146839   5.839   2.615   3.733
15654TIP3    H246840   5.755   2.499   3.684
15655TIP3   OH246841   8.583   7.213   5.067
15655TIP3    H146842   8.489   7.192   5.063
15655TIP3    H246843   8.599   7.267   4.990
15656TIP3   OH246844   1.860   2.652   0.329
15656TIP3    H146845   1.843   2.730   0.382
15656TIP3    H246846   1.950   2.628   0.350
15657TIP3   OH246847   3.080   1.824   4.886
15657TIP3    H146848   2.987   1.835   4.907
15657TIP3    H246849   3.099   1.733   4.907
15658TIP3   OH246850   5.524   0.341   3.949
15658TIP3    H146851   5.442   0.322   3.994
15658TIP3    H246852   5.588   0.353   4.019
15659TIP3   OH246853   8.219   3.358   2.801
15659TIP3    H146854   8.223   3.263   2.792
15659TIP3    H246855   8.302   3.382   2.843
15660TIP3   OH246856   3.762   2.024   4.581
15660TIP3    H146857   3.842   1.984   4.547
15660TIP3    H246858   3.719   2.061   4.504
15661TIP3   OH246859   7.110   3.218   0.016
15661TIP3    H146860   7.034   3.181   0.062
15661TIP3    H246861   7.142   3.147  -0.039
15662TIP3   OH246862   8.175   4.915   0.857
15662TIP3    H146863   8.243   4.921   0.789
15662TIP3    H246864   8.151   5.005   0.876
15663TIP3   OH246865   3.101   6.345   3.418
15663TIP3    H146866   3.005   6.348   3.410
15663TIP3    H246867   3.124   6.430   3.456
15664TIP3   OH246868   1.309   4.491   7.487
15664TIP3    H146869   1.252   4.565   7.465
15664TIP3    H246870   1.256   4.414   7.470
15665TIP3   OH246871   6.904   4.500   0.292
15665TIP3    H146872   6.870   4.412   0.279
15665TIP3    H246873   6.999   4.489   0.293
15666TIP3   OH246874   0.025   2.278   7.198
15666TIP3    H146875  -0.030   2.353   7.175
15666TIP3    H246876   0.027   2.279   7.294
15667TIP3   OH246877   0.946   3.854   4.388
15667TIP3    H146878   1.008   3.901   4.445
15667TIP3    H246879   0.893   3.802   4.447
15668TIP3   OH246880   5.098   8.873   6.965
15668TIP3    H146881   5.003   8.881   6.957
15668TIP3    H246882   5.133   8.927   6.894
15669TIP3   OH246883   1.560   0.769   4.426
15669TIP3    H146884   1.562   0.725   4.340
15669TIP3    H246885   1.524   0.703   4.485
15670TIP3   OH246886   8.316   5.790   3.309
15670TIP3    H146887   8.226   5.780   3.339
15670TIP3    H246888   8.308   5.805   3.214
15671TIP3   OH246889   4.705   7.848   7.356
15671TIP3    H146890   4.639   7.879   7.418
15671TIP3    H246891   4.655   7.797   7.292
15672TIP3   OH246892   5.343   7.244   2.725
15672TIP3    H146893   5.353   7.229   2.819
15672TIP3    H246894   5.260   7.290   2.716
15673TIP3   OH246895   2.581   6.513   1.438
15673TIP3    H146896   2.626   6.547   1.361
15673TIP3    H246897   2.624   6.557   1.512
15674TIP3   OH246898   5.336   6.056   0.348
15674TIP3    H146899   5.371   6.143   0.327
15674TIP3    H246900   5.252   6.052   0.302
15675TIP3   OH246901   8.393   3.801   3.768
15675TIP3    H146902   8.308   3.806   3.812
15675TIP3    H246903   8.431   3.719   3.799
15676TIP3   OH246904   1.257   2.620   6.253
15676TIP3    H146905   1.187   2.683   6.236
15676TIP3    H246906   1.286   2.591   6.166
15677TIP3   OH246907   1.520   5.789   6.825
15677TIP3    H146908   1.569   5.813   6.746
15677TIP3    H246909   1.494   5.698   6.810
15678TIP3   OH246910   7.202   8.151   0.122
15678TIP3    H146911   7.136   8.108   0.068
15678TIP3    H246912   7.199   8.243   0.095
15679TIP3   OH246913   3.251   6.730   6.490
15679TIP3    H146914   3.278   6.646   6.528
15679TIP3    H246915   3.277   6.795   6.555
15680TIP3   OH246916   8.691   7.338   4.582
15680TIP3    H146917   8.684   7.399   4.508
15680TIP3    H246918   8.771   7.289   4.564
15681TIP3   OH246919   0.851   8.509   3.857
15681TIP3    H146920   0.944   8.529   3.872
15681TIP3    H246921   0.823   8.462   3.936
15682TIP3   OH246922   3.819   1.339   2.994
15682TIP3    H146923   3.833   1.432   3.011
15682TIP3    H246924   3.889   1.316   2.932
15683TIP3   OH246925   9.553   5.432   3.002
15683TIP3    H146926   9.552   5.466   2.912
15683TIP3    H246927   9.607   5.353   2.997
15684TIP3   OH246928   4.938   4.134   0.622
15684TIP3    H146929   4.909   4.136   0.531
15684TIP3    H246930   4.856   4.133   0.672
15685TIP3   OH246931   6.904   4.621   6.924
15685TIP3    H146932   6.847   4.545   6.913
15685TIP3    H246933   6.969   4.613   6.854
15686TIP3   OH246934   0.856   8.221   0.825
15686TIP3    H146935   0.780   8.163   0.828
15686TIP3    H246936   0.910   8.186   0.754
15687TIP3   OH246937   6.394   0.891   0.157
15687TIP3    H146938   6.382   0.873   0.064
15687TIP3    H246939   6.432   0.811   0.193
15688TIP3   OH246940   5.892   5.184   3.799
15688TIP3    H146941   5.852   5.178   3.886
15688TIP3    H246942   5.929   5.097   3.783
15689TIP3   OH246943   4.965   2.082   7.729
15689TIP3    H146944   4.979   2.175   7.747
15689TIP3    H246945   5.003   2.068   7.642
15690TIP3   OH246946   3.794   1.408   0.081
15690TIP3    H146947   3.724   1.351   0.050
15690TIP3    H246948   3.798   1.478   0.016
15691TIP3   OH246949   7.322   7.966   2.369
15691TIP3    H146950   7.339   7.872   2.375
15691TIP3    H246951   7.267   7.986   2.444
15692TIP3   OH246952   8.587   1.894   1.230
15692TIP3    H146953   8.621   1.909   1.319
15692TIP3    H246954   8.539   1.974   1.209
15693TIP3   OH246955   6.988   4.052   4.795
15693TIP3    H146956   6.931   3.999   4.739
15693TIP3    H246957   6.971   4.020   4.883
15694TIP3   OH246958   3.534   6.484   3.623
15694TIP3    H146959   3.495   6.490   3.535
15694TIP3    H246960   3.570   6.572   3.639
15695TIP3   OH246961   9.449   1.994   2.077
15695TIP3    H146962   9.376   2.056   2.071
15695TIP3    H246963   9.526   2.046   2.054
15696TIP3   OH246964   0.812   5.398   3.838
15696TIP3    H146965   0.790   5.409   3.746
15696TIP3    H246966   0.902   5.427   3.845
15697TIP3   OH246967   0.825   4.377   7.046
15697TIP3    H146968   0.810   4.327   7.127
15697TIP3    H246969   0.911   4.349   7.016
15698TIP3   OH246970   4.943   7.462   6.665
15698TIP3    H146971   4.949   7.502   6.578
15698TIP3    H246972   4.976   7.373   6.652
15699TIP3   OH246973   7.159   8.028   3.556
15699TIP3    H146974   7.196   8.113   3.578
15699TIP3    H246975   7.066   8.046   3.541
15700TIP3   OH246976   5.788   8.294   4.995
15700TIP3    H146977   5.853   8.360   4.971
15700TIP3    H246978   5.724   8.341   5.047
15701TIP3   OH246979   8.223   8.904   6.415
15701TIP3    H146980   8.180   8.979   6.457
15701TIP3    H246981   8.299   8.887   6.471
15702TIP3   OH246982   1.514   7.583   4.836
15702TIP3    H146983   1.601   7.547   4.817
15702TIP3    H246984   1.514   7.670   4.796
15703TIP3   OH246985   6.988   1.148   1.600
15703TIP3    H146986   6.933   1.219   1.634
15703TIP3    H246987   6.925   1.079   1.577
15704TIP3   OH246988   5.126   4.730   3.859
15704TIP3    H146989   5.200   4.759   3.806
15704TIP3    H246990   5.121   4.636   3.845
15705TIP3   OH246991   5.913   6.092   3.500
15705TIP3    H146992   5.915   6.033   3.575
15705TIP3    H246993   5.864   6.169   3.530
15706TIP3   OH246994   9.415   7.912   4.687
15706TIP3    H146995   9.504   7.900   4.654
15706TIP3    H246996   9.374   7.973   4.626
15707TIP3   OH246997   8.045   2.011   1.176
15707TIP3    H146998   8.031   2.036   1.267
15707TIP3    H246999   8.128   2.054   1.153
15708TIP3   OH247000   1.324   7.302   3.941
15708TIP3    H147001   1.414   7.334   3.946
15708TIP3    H247002   1.288   7.317   4.029
15709TIP3   OH247003   2.936   3.981   7.575
15709TIP3    H147004   2.865   4.037   7.544
15709TIP3    H247005   2.937   3.993   7.670
15710TIP3   OH247006   5.433   7.146   1.281
15710TIP3    H147007   5.392   7.087   1.344
15710TIP3    H247008   5.372   7.220   1.274
15711TIP3   OH247009   3.155   4.317   6.702
15711TIP3    H147010   3.131   4.348   6.789
15711TIP3    H247011   3.171   4.223   6.713
15712TIP3   OH247012   3.017   2.300   0.381
15712TIP3    H147013   3.107   2.328   0.396
15712TIP3    H247014   3.008   2.220   0.433
15713TIP3   OH247015   0.403   7.115   5.565
15713TIP3    H147016   0.410   7.024   5.538
15713TIP3    H247017   0.494   7.145   5.571
15714TIP3   OH247018   5.823   7.386   7.198
15714TIP3    H147019   5.737   7.386   7.155
15714TIP3    H247020   5.803   7.395   7.291
15715TIP3   OH247021   1.025   6.110   2.688
15715TIP3    H147022   0.964   6.044   2.654
15715TIP3    H247023   0.972   6.189   2.695
15716TIP3   OH247024   6.475   4.288   2.182
15716TIP3    H147025   6.516   4.202   2.173
15716TIP3    H247026   6.411   4.277   2.253
15717TIP3   OH247027   0.515   2.412   4.488
15717TIP3    H147028   0.436   2.407   4.435
15717TIP3    H247029   0.485   2.448   4.572
15718TIP3   OH247030   8.566   3.673   4.949
15718TIP3    H147031   8.539   3.660   4.858
15718TIP3    H247032   8.529   3.598   4.996
15719TIP3   OH247033   0.039   4.520   0.973
15719TIP3    H147034   0.025   4.428   0.949
15719TIP3    H247035   0.036   4.567   0.891
15720TIP3   OH247036   3.270   5.488   6.217
15720TIP3    H147037   3.356   5.508   6.180
15720TIP3    H247038   3.214   5.560   6.189
15721TIP3   OH247039   9.442   0.627   1.040
15721TIP3    H147040   9.443   0.549   0.985
15721TIP3    H247041   9.352   0.633   1.072
15722TIP3   OH247042   8.070   8.384   6.259
15722TIP3    H147043   8.153   8.427   6.238
15722TIP3    H247044   8.005   8.429   6.205
15723TIP3   OH247045   4.107   4.342   1.749
15723TIP3    H147046   4.063   4.415   1.793
15723TIP3    H247047   4.168   4.384   1.688
15724TIP3   OH247048   9.217   1.374   6.867
15724TIP3    H147049   9.300   1.327   6.861
15724TIP3    H247050   9.222   1.421   6.950
15725TIP3   OH247051   5.162   6.157   6.714
15725TIP3    H147052   5.133   6.233   6.663
15725TIP3    H247053   5.172   6.087   6.649
15726TIP3   OH247054   9.202   5.871   4.625
15726TIP3    H147055   9.218   5.960   4.594
15726TIP3    H247056   9.236   5.870   4.714
15727TIP3   OH247057   4.634   1.481   5.121
15727TIP3    H147058   4.710   1.516   5.074
15727TIP3    H247059   4.559   1.526   5.083
15728TIP3   OH247060   8.030   0.146   3.765
15728TIP3    H147061   8.110   0.185   3.801
15728TIP3    H247062   8.061   0.090   3.694
15729TIP3   OH247063   8.311   2.461   5.039
15729TIP3    H147064   8.373   2.395   5.008
15729TIP3    H247065   8.285   2.431   5.126
15730TIP3   OH247066   4.662   8.750   3.000
15730TIP3    H147067   4.609   8.786   3.072
15730TIP3    H247068   4.688   8.826   2.949
15731TIP3   OH247069   6.394   0.855   4.483
15731TIP3    H147070   6.394   0.776   4.539
15731TIP3    H247071   6.478   0.852   4.438
15732TIP3   OH247072   6.138   4.276   0.113
15732TIP3    H147073   6.165   4.264   0.022
15732TIP3    H247074   6.130   4.371   0.123
15733TIP3   OH247075   6.429   4.991   5.692
15733TIP3    H147076   6.496   4.941   5.645
15733TIP3    H247077   6.476   5.033   5.764
15734TIP3   OH247078   0.534   1.922   2.277
15734TIP3    H147079   0.447   1.963   2.271
15734TIP3    H247080   0.595   1.995   2.273
15735TIP3   OH247081   0.600   0.842   1.545
15735TIP3    H147082   0.687   0.830   1.583
15735TIP3    H247083   0.611   0.819   1.453
15736TIP3   OH247084   6.008   4.888   6.837
15736TIP3    H147085   5.957   4.908   6.916
15736TIP3    H247086   6.020   4.973   6.795
15737TIP3   OH247087   8.799   1.087   0.185
15737TIP3    H147088   8.873   1.113   0.131
15737TIP3    H247089   8.795   1.153   0.254
15738TIP3   OH247090   5.397   4.663   2.768
15738TIP3    H147091   5.443   4.747   2.769
15738TIP3    H247092   5.317   4.680   2.718
15739TIP3   OH247093   2.056   8.040   1.100
15739TIP3    H147094   2.149   8.051   1.120
15739TIP3    H247095   2.040   8.098   1.025
15740TIP3   OH247096   4.793   5.682   6.056
15740TIP3    H147097   4.744   5.700   6.137
15740TIP3    H247098   4.735   5.712   5.986
15741TIP3   OH247099   6.347   7.090   0.526
15741TIP3    H147100   6.306   7.174   0.506
15741TIP3    H247101   6.419   7.113   0.585
15742TIP3   OH247102   1.957   1.929   4.216
15742TIP3    H147103   1.945   2.010   4.266
15742TIP3    H247104   1.971   1.958   4.126
15743TIP3   OH247105   9.345   5.726   3.999
15743TIP3    H147106   9.405   5.800   3.989
15743TIP3    H247107   9.402   5.651   4.015
15744TIP3   OH247108   5.506   1.492   2.539
15744TIP3    H147109   5.422   1.462   2.575
15744TIP3    H247110   5.570   1.428   2.570
15745TIP3   OH247111   0.694   6.828   4.137
15745TIP3    H147112   0.758   6.870   4.079
15745TIP3    H247113   0.680   6.741   4.100
15746TIP3   OH247114   9.212   4.198   7.244
15746TIP3    H147115   9.167   4.282   7.234
15746TIP3    H247116   9.148   4.133   7.214
15747TIP3   OH247117   5.912   0.127   5.430
15747TIP3    H147118   5.925   0.043   5.474
15747TIP3    H247119   5.934   0.109   5.338
15748TIP3   OH247120   0.799   6.025   1.263
15748TIP3    H147121   0.850   5.972   1.202
15748TIP3    H247122   0.833   6.114   1.253
15749TIP3   OH247123   1.813   3.001   4.001
15749TIP3    H147124   1.781   2.974   4.087
15749TIP3    H247125   1.908   3.002   4.010
15750TIP3   OH247126   5.905   0.173   2.360
15750TIP3    H147127   5.920   0.106   2.294
15750TIP3    H247128   5.993   0.202   2.385
15751TIP3   OH247129   1.485   7.405   5.806
15751TIP3    H147130   1.451   7.422   5.718
15751TIP3    H247131   1.482   7.310   5.815
15752TIP3   OH247132   7.940   8.743   1.487
15752TIP3    H147133   7.947   8.648   1.480
15752TIP3    H247134   7.893   8.770   1.408
15753TIP3   OH247135   4.238   3.202   6.775
15753TIP3    H147136   4.232   3.116   6.816
15753TIP3    H247137   4.258   3.185   6.683
15754TIP3   OH247138   7.079   4.308   3.957
15754TIP3    H147139   7.155   4.303   3.899
15754TIP3    H247140   7.091   4.389   4.006
15755TIP3   OH247141   9.110   5.287   1.520
15755TIP3    H147142   9.050   5.214   1.534
15755TIP3    H247143   9.138   5.278   1.429
15756TIP3   OH247144   7.449   7.360   7.570
15756TIP3    H147145   7.525   7.318   7.529
15756TIP3    H247146   7.479   7.448   7.590
15757TIP3   OH247147   0.602   8.026   1.755
15757TIP3    H147148   0.619   8.109   1.800
15757TIP3    H247149   0.544   8.050   1.683
15758TIP3   OH247150   2.882   3.038   2.224
15758TIP3    H147151   2.963   3.085   2.205
15758TIP3    H247152   2.816   3.079   2.168
15759TIP3   OH247153   5.579   3.022   5.569
15759TIP3    H147154   5.673   3.007   5.580
15759TIP3    H247155   5.572   3.072   5.488
15760TIP3   OH247156   3.097   4.096   3.453
15760TIP3    H147157   3.074   4.044   3.530
15760TIP3    H247158   3.016   4.100   3.402
15761TIP3   OH247159   0.190   3.822   5.509
15761TIP3    H147160   0.140   3.743   5.492
15761TIP3    H247161   0.247   3.800   5.583
15762TIP3   OH247162   7.391   2.087   3.386
15762TIP3    H147163   7.461   2.152   3.393
15762TIP3    H247164   7.437   2.004   3.375
15763TIP3   OH247165   2.004   6.563   7.013
15763TIP3    H147166   1.977   6.492   6.954
15763TIP3    H247167   1.921   6.602   7.042
15764TIP3   OH247168   5.187   1.119   0.452
15764TIP3    H147169   5.259   1.058   0.441
15764TIP3    H247170   5.192   1.147   0.543
15765TIP3   OH247171   6.120   0.200   4.869
15765TIP3    H147172   6.099   0.218   4.778
15765TIP3    H247173   6.098   0.281   4.915
15766TIP3   OH247174   1.368   5.864   6.066
15766TIP3    H147175   1.426   5.878   6.141
15766TIP3    H247176   1.427   5.865   5.990
15767TIP3   OH247177   4.140   4.137   3.512
15767TIP3    H147178   4.046   4.140   3.528
15767TIP3    H247179   4.156   4.202   3.444
15768TIP3   OH247180   8.728   2.033   7.689
15768TIP3    H147181   8.744   2.020   7.782
15768TIP3    H247182   8.639   2.000   7.675
15769TIP3   OH247183   7.555   0.703   5.937
15769TIP3    H147184   7.496   0.776   5.952
15769TIP3    H247185   7.610   0.731   5.863
15770TIP3   OH247186   7.525   1.014   1.771
15770TIP3    H147187   7.528   0.966   1.854
15770TIP3    H247188   7.434   1.041   1.762
15771TIP3   OH247189   4.702   3.203   6.232
15771TIP3    H147190   4.615   3.168   6.253
15771TIP3    H247191   4.713   3.277   6.292
15772TIP3   OH247192   9.200   2.092   3.335
15772TIP3    H147193   9.231   2.015   3.382
15772TIP3    H247194   9.222   2.165   3.392
15773TIP3   OH247195   2.031   2.446   0.779
15773TIP3    H147196   2.012   2.401   0.697
15773TIP3    H247197   2.100   2.508   0.757
15774TIP3   OH247198   4.807   1.505   0.922
15774TIP3    H147199   4.782   1.588   0.882
15774TIP3    H247200   4.899   1.516   0.945
15775TIP3   OH247201   0.054   4.687   6.267
15775TIP3    H147202  -0.021   4.643   6.306
15775TIP3    H247203   0.032   4.695   6.175
15776TIP3   OH247204   9.349   5.455   0.797
15776TIP3    H147205   9.316   5.497   0.718
15776TIP3    H247206   9.297   5.493   0.868
15777TIP3   OH247207   4.829   0.318   2.613
15777TIP3    H147208   4.840   0.294   2.705
15777TIP3    H247209   4.764   0.257   2.579
15778TIP3   OH247210   1.837   1.866   1.331
15778TIP3    H147211   1.843   1.778   1.367
15778TIP3    H247212   1.746   1.891   1.344
15779TIP3   OH247213   0.961   1.215   6.263
15779TIP3    H147214   0.943   1.307   6.285
15779TIP3    H247215   1.056   1.209   6.262
15780TIP3   OH247216   5.670   8.274   6.546
15780TIP3    H147217   5.676   8.311   6.634
15780TIP3    H247218   5.750   8.224   6.536
15781TIP3   OH247219   0.946   3.709   4.023
15781TIP3    H147220   1.018   3.698   4.085
15781TIP3    H247221   0.894   3.629   4.033
15782TIP3   OH247222   3.522   7.766   0.632
15782TIP3    H147223   3.448   7.813   0.592
15782TIP3    H247224   3.591   7.832   0.638
15783TIP3   OH247225   2.634   4.665   0.299
15783TIP3    H147226   2.724   4.671   0.332
15783TIP3    H247227   2.615   4.571   0.299
15784TIP3   OH247228   1.353   7.596   4.542
15784TIP3    H147229   1.292   7.667   4.562
15784TIP3    H247230   1.438   7.628   4.573
15785TIP3   OH247231   1.558   5.371   0.324
15785TIP3    H147232   1.503   5.398   0.251
15785TIP3    H247233   1.564   5.276   0.315
15786TIP3   OH247234   6.895   6.771   2.063
15786TIP3    H147235   6.838   6.769   2.140
15786TIP3    H247236   6.900   6.680   2.035
15787TIP3   OH247237   4.051   6.784   6.941
15787TIP3    H147238   4.038   6.759   6.850
15787TIP3    H247239   4.115   6.721   6.975
15788TIP3   OH247240   9.467   3.790   3.330
15788TIP3    H147241   9.458   3.871   3.381
15788TIP3    H247242   9.377   3.758   3.320
15789TIP3   OH247243   6.294   6.740   4.957
15789TIP3    H147244   6.371   6.715   5.008
15789TIP3    H247245   6.321   6.730   4.866
15790TIP3   OH247246   3.998   2.506   7.814
15790TIP3    H147247   3.990   2.515   7.719
15790TIP3    H247248   4.004   2.412   7.829
15791TIP3   OH247249   4.238   3.335   0.549
15791TIP3    H147250   4.170   3.293   0.603
15791TIP3    H247251   4.277   3.400   0.607
15792TIP3   OH247252   1.585   5.651   1.851
15792TIP3    H147253   1.655   5.693   1.800
15792TIP3    H247254   1.523   5.619   1.785
15793TIP3   OH247255   1.734   2.875   3.742
15793TIP3    H147256   1.657   2.932   3.746
15793TIP3    H247257   1.780   2.891   3.825
15794TIP3   OH247258   8.100   6.270   6.285
15794TIP3    H147259   8.098   6.258   6.380
15794TIP3    H247260   8.063   6.357   6.271
15795TIP3   OH247261   6.931   8.644   1.205
15795TIP3    H147262   6.901   8.557   1.229
15795TIP3    H247263   7.024   8.633   1.186
15796TIP3   OH247264   6.549   5.084   6.477
15796TIP3    H147265   6.578   4.992   6.477
15796TIP3    H247266   6.459   5.080   6.443
15797TIP3   OH247267   0.214   4.082   6.011
15797TIP3    H147268   0.190   4.136   5.936
15797TIP3    H247269   0.131   4.065   6.056
15798TIP3   OH247270   6.723   4.762   3.994
15798TIP3    H147271   6.681   4.817   3.928
15798TIP3    H247272   6.810   4.801   4.006
15799TIP3   OH247273   7.156   7.740   5.054
15799TIP3    H147274   7.135   7.792   4.977
15799TIP3    H247275   7.243   7.705   5.037
15800TIP3   OH247276   2.454   3.515   7.719
15800TIP3    H147277   2.534   3.532   7.770
15800TIP3    H247278   2.400   3.592   7.734
15801TIP3   OH247279   1.007   0.102   3.573
15801TIP3    H147280   1.050   0.166   3.517
15801TIP3    H247281   0.918   0.134   3.584
15802TIP3   OH247282   4.090   7.849   5.755
15802TIP3    H147283   4.175   7.808   5.770
15802TIP3    H247284   4.028   7.792   5.801
15803TIP3   OH247285   8.054   7.500   0.293
15803TIP3    H147286   8.024   7.590   0.287
15803TIP3    H247287   7.973   7.448   0.297
15804TIP3   OH247288   2.610   2.936   6.031
15804TIP3    H147289   2.650   2.904   5.950
15804TIP3    H247290   2.532   2.984   6.001
15805TIP3   OH247291   4.248   3.752   3.955
15805TIP3    H147292   4.197   3.760   3.874
15805TIP3    H247293   4.339   3.743   3.926
15806TIP3   OH247294   3.707   7.405   0.396
15806TIP3    H147295   3.622   7.444   0.414
15806TIP3    H247296   3.713   7.404   0.300
15807TIP3   OH247297   7.495   6.489   2.703
15807TIP3    H147298   7.579   6.463   2.741
15807TIP3    H247299   7.518   6.545   2.629
15808TIP3   OH247300   4.762   6.527   4.221
15808TIP3    H147301   4.667   6.522   4.213
15808TIP3    H247302   4.794   6.443   4.190
15809TIP3   OH247303   7.731   3.298   1.162
15809TIP3    H147304   7.811   3.347   1.144
15809TIP3    H247305   7.735   3.279   1.255
15810TIP3   OH247306   5.735   1.674   7.515
15810TIP3    H147307   5.777   1.640   7.593
15810TIP3    H247308   5.716   1.596   7.462
15811TIP3   OH247309   8.144   5.007   1.256
15811TIP3    H147310   8.231   5.001   1.296
15811TIP3    H247311   8.118   4.916   1.241
15812TIP3   OH247312   5.690   1.990   4.737
15812TIP3    H147313   5.703   2.073   4.692
15812TIP3    H247314   5.706   1.923   4.670
15813TIP3   OH247315   7.010   6.917   4.002
15813TIP3    H147316   7.047   6.829   4.000
15813TIP3    H247317   6.926   6.907   4.046
15814TIP3   OH247318   0.473   7.056   1.967
15814TIP3    H147319   0.400   7.092   2.018
15814TIP3    H247320   0.442   7.059   1.876
15815TIP3   OH247321   5.700   8.328   0.461
15815TIP3    H147322   5.607   8.322   0.439
15815TIP3    H247323   5.732   8.238   0.454
15816TIP3   OH247324   5.695   7.870   1.894
15816TIP3    H147325   5.682   7.775   1.898
15816TIP3    H247326   5.735   7.885   1.809
15817TIP3   OH247327   9.279   3.275   1.046
15817TIP3    H147328   9.262   3.283   1.140
15817TIP3    H247329   9.201   3.230   1.011
15818TIP3   OH247330   8.979   2.282   6.820
15818TIP3    H147331   9.057   2.229   6.803
15818TIP3    H247332   8.999   2.367   6.781
15819TIP3   OH247333   6.980   0.334   4.257
15819TIP3    H147334   6.995   0.319   4.163
15819TIP3    H247335   6.886   0.348   4.264
15820TIP3   OH247336   9.019   1.416   1.731
15820TIP3    H147337   9.053   1.455   1.812
15820TIP3    H247338   9.090   1.360   1.700
15821TIP3   OH247339   6.095   0.509   3.368
15821TIP3    H147340   6.076   0.571   3.438
15821TIP3    H247341   6.037   0.435   3.386
15822TIP3   OH247342   1.978   1.197   5.853
15822TIP3    H147343   2.013   1.160   5.772
15822TIP3    H247344   2.041   1.264   5.878
15823TIP3   OH247345   1.980   4.092   0.338
15823TIP3    H147346   1.986   4.142   0.257
15823TIP3    H247347   1.952   4.004   0.311
15824TIP3   OH247348   5.438   4.314   0.136
15824TIP3    H147349   5.487   4.315   0.218
15824TIP3    H247350   5.347   4.304   0.163
15825TIP3   OH247351   0.540   4.560   3.393
15825TIP3    H147352   0.505   4.488   3.340
15825TIP3    H247353   0.634   4.558   3.377
15826TIP3   OH247354   8.511   4.960   0.779
15826TIP3    H147355   8.524   4.896   0.708
15826TIP3    H247356   8.600   4.987   0.802
15827TIP3   OH247357   7.128   3.931   3.862
15827TIP3    H147358   7.150   3.842   3.887
15827TIP3    H247359   7.043   3.947   3.902
15828TIP3   OH247360   2.066   1.308   1.161
15828TIP3    H147361   2.126   1.373   1.124
15828TIP3    H247362   2.033   1.260   1.085
15829TIP3   OH247363   2.417   7.201   1.958
15829TIP3    H147364   2.485   7.230   1.897
15829TIP3    H247365   2.342   7.181   1.902
15830TIP3   OH247366   9.362   7.573   3.442
15830TIP3    H147367   9.344   7.589   3.349
15830TIP3    H247368   9.457   7.576   3.449
15831TIP3   OH247369   8.265   4.456   6.764
15831TIP3    H147370   8.279   4.429   6.673
15831TIP3    H247371   8.326   4.529   6.776
15832TIP3   OH247372   3.928   5.174   4.896
15832TIP3    H147373   3.927   5.150   4.803
15832TIP3    H247374   3.908   5.092   4.942
15833TIP3   OH247375   6.620   5.353   6.514
15833TIP3    H147376   6.709   5.353   6.550
15833TIP3    H247377   6.608   5.265   6.480
15834TIP3   OH247378   6.949   5.535   6.181
15834TIP3    H147379   6.856   5.536   6.203
15834TIP3    H247380   6.974   5.443   6.184
15835TIP3   OH247381   2.107   4.140   5.758
15835TIP3    H147382   2.159   4.199   5.813
15835TIP3    H247383   2.082   4.068   5.816
15836TIP3   OH247384   2.215   5.492   1.565
15836TIP3    H147385   2.192   5.410   1.610
15836TIP3    H247386   2.306   5.480   1.538
15837TIP3   OH247387   3.195   4.549   5.275
15837TIP3    H147388   3.132   4.621   5.272
15837TIP3    H247389   3.145   4.472   5.250
15838TIP3   OH247390   2.529   1.399   6.613
15838TIP3    H147391   2.434   1.403   6.607
15838TIP3    H247392   2.547   1.314   6.652
15839TIP3   OH247393   0.141   4.764   6.809
15839TIP3    H147394   0.182   4.837   6.764
15839TIP3    H247395   0.105   4.802   6.890
15840TIP3   OH247396   9.149   7.536   7.525
15840TIP3    H147397   9.214   7.522   7.593
15840TIP3    H247398   9.199   7.566   7.449
15841TIP3   OH247399   4.582   2.158   6.735
15841TIP3    H147400   4.500   2.120   6.768
15841TIP3    H247401   4.587   2.245   6.775
15842TIP3   OH247402   3.140   5.648   5.861
15842TIP3    H147403   3.184   5.583   5.807
15842TIP3    H247404   3.051   5.613   5.872
15843TIP3   OH247405   5.207   6.989   2.601
15843TIP3    H147406   5.219   7.028   2.688
15843TIP3    H247407   5.120   6.950   2.603
15844TIP3   OH247408   0.288   2.212   1.788
15844TIP3    H147409   0.365   2.163   1.758
15844TIP3    H247410   0.322   2.299   1.811
15845TIP3   OH247411   5.127   2.526   3.467
15845TIP3    H147412   5.116   2.595   3.533
15845TIP3    H247413   5.053   2.539   3.407
15846TIP3   OH247414   6.924   6.480   4.195
15846TIP3    H147415   6.993   6.469   4.260
15846TIP3    H247416   6.967   6.525   4.122
15847TIP3   OH247417   0.493   0.131   5.293
15847TIP3    H147418   0.528   0.183   5.221
15847TIP3    H247419   0.561   0.066   5.311
15848TIP3   OH247420   3.341   7.591   2.916
15848TIP3    H147421   3.247   7.589   2.935
15848TIP3    H247422   3.369   7.501   2.930
15849TIP3   OH247423   2.855   7.535   5.230
15849TIP3    H147424   2.914   7.582   5.288
15849TIP3    H247425   2.816   7.603   5.175
15850TIP3   OH247426   8.475   3.538   6.934
15850TIP3    H147427   8.391   3.496   6.952
15850TIP3    H247428   8.451   3.620   6.890
15851TIP3   OH247429   5.998   3.812   7.665
15851TIP3    H147430   6.091   3.835   7.656
15851TIP3    H247431   5.966   3.869   7.734
15852TIP3   OH247432   2.076   4.078   2.682
15852TIP3    H147433   1.991   4.036   2.696
15852TIP3    H247434   2.127   4.054   2.760
15853TIP3   OH247435   5.426   7.002   3.104
15853TIP3    H147436   5.461   7.085   3.072
15853TIP3    H247437   5.392   7.023   3.191
15854TIP3   OH247438   9.409   2.902   6.499
15854TIP3    H147439   9.498   2.924   6.527
15854TIP3    H247440   9.375   2.847   6.569
15855TIP3   OH247441   8.055   1.493   2.504
15855TIP3    H147442   8.088   1.421   2.449
15855TIP3    H247443   8.120   1.562   2.494
15856TIP3   OH247444   4.083   1.658   2.769
15856TIP3    H147445   4.155   1.610   2.810
15856TIP3    H247446   4.123   1.738   2.737
15857TIP3   OH247447   5.642   6.994   4.231
15857TIP3    H147448   5.722   6.965   4.275
15857TIP3    H247449   5.579   6.924   4.248
15858TIP3   OH247450   7.167   3.326   4.274
15858TIP3    H147451   7.123   3.328   4.189
15858TIP3    H247452   7.103   3.360   4.336
15859TIP3   OH247453   2.703   3.407   4.471
15859TIP3    H147454   2.709   3.333   4.532
15859TIP3    H247455   2.671   3.367   4.389
15860TIP3   OH247456   6.332   6.805   0.510
15860TIP3    H147457   6.412   6.753   0.512
15860TIP3    H247458   6.361   6.896   0.511
15861TIP3   OH247459   3.109   4.718   6.734
15861TIP3    H147460   3.049   4.643   6.737
15861TIP3    H247461   3.196   4.679   6.747
15862TIP3   OH247462   0.156   6.625   6.449
15862TIP3    H147463   0.078   6.646   6.500
15862TIP3    H247464   0.122   6.582   6.371
15863TIP3   OH247465   0.173   0.509   2.582
15863TIP3    H147466   0.175   0.605   2.579
15863TIP3    H247467   0.192   0.482   2.492
15864TIP3   OH247468   0.581   7.935   6.771
15864TIP3    H147469   0.485   7.933   6.776
15864TIP3    H247470   0.608   7.971   6.855
15865TIP3   OH247471   8.909   4.158   4.230
15865TIP3    H147472   8.930   4.064   4.232
15865TIP3    H247473   8.963   4.197   4.298
15866TIP3   OH247474   0.469   8.396   4.964
15866TIP3    H147475   0.494   8.409   5.055
15866TIP3    H247476   0.384   8.353   4.968
15867TIP3   OH247477   0.544   0.385   3.075
15867TIP3    H147478   0.518   0.443   3.003
15867TIP3    H247479   0.523   0.434   3.154
15868TIP3   OH247480   4.968   7.076   6.534
15868TIP3    H147481   5.029   7.070   6.461
15868TIP3    H247482   4.923   6.992   6.536
15869TIP3   OH247483   8.917   5.556   6.424
15869TIP3    H147484   8.939   5.481   6.479
15869TIP3    H247485   8.846   5.525   6.368
15870TIP3   OH247486   1.558   8.268   5.268
15870TIP3    H147487   1.628   8.311   5.317
15870TIP3    H247488   1.479   8.318   5.291
15871TIP3   OH247489   2.594   2.316   6.446
15871TIP3    H147490   2.682   2.341   6.476
15871TIP3    H247491   2.542   2.396   6.458
15872TIP3   OH247492   4.861   0.817   5.020
15872TIP3    H147493   4.948   0.856   5.009
15872TIP3    H247494   4.861   0.741   4.962
15873TIP3   OH247495   2.418   8.108   0.913
15873TIP3    H147496   2.485   8.043   0.932
15873TIP3    H247497   2.400   8.097   0.819
15874TIP3   OH247498   8.249   7.034   7.086
15874TIP3    H147499   8.312   7.081   7.031
15874TIP3    H247500   8.252   6.944   7.054
15875TIP3   OH247501   6.517   2.449   0.824
15875TIP3    H147502   6.499   2.472   0.915
15875TIP3    H247503   6.435   2.465   0.778
15876TIP3   OH247504   2.667   7.289   7.574
15876TIP3    H147505   2.754   7.311   7.542
15876TIP3    H247506   2.680   7.267   7.666
15877TIP3   OH247507   1.350   3.121   4.462
15877TIP3    H147508   1.415   3.070   4.414
15877TIP3    H247509   1.398   3.155   4.538
15878TIP3   OH247510   7.282   6.819   5.949
15878TIP3    H147511   7.239   6.902   5.928
15878TIP3    H247512   7.324   6.833   6.033
15879TIP3   OH247513   4.611   3.737   1.700
15879TIP3    H147514   4.636   3.829   1.708
15879TIP3    H247515   4.666   3.703   1.629
15880TIP3   OH247516   3.600   2.866   5.144
15880TIP3    H147517   3.677   2.909   5.105
15880TIP3    H247518   3.551   2.832   5.069
15881TIP3   OH247519   6.062   4.851   1.546
15881TIP3    H147520   6.153   4.863   1.572
15881TIP3    H247521   6.056   4.758   1.524
15882TIP3   OH247522   5.732   1.808   5.719
15882TIP3    H147523   5.752   1.793   5.812
15882TIP3    H247524   5.638   1.792   5.713
15883TIP3   OH247525   2.438   3.604   3.508
15883TIP3    H147526   2.485   3.524   3.533
15883TIP3    H247527   2.430   3.654   3.589
15884TIP3   OH247528   7.783   8.520   1.635
15884TIP3    H147529   7.728   8.566   1.572
15884TIP3    H247530   7.769   8.567   1.717
15885TIP3   OH247531   3.811   8.602   4.386
15885TIP3    H147532   3.890   8.646   4.417
15885TIP3    H247533   3.781   8.550   4.460
15886TIP3   OH247534   3.132   3.698   0.846
15886TIP3    H147535   3.094   3.786   0.847
15886TIP3    H247536   3.172   3.690   0.760
15887TIP3   OH247537   8.483   0.002   5.002
15887TIP3    H147538   8.466   0.032   5.091
15887TIP3    H247539   8.567  -0.044   5.008
15888TIP3   OH247540   0.408   2.477   7.557
15888TIP3    H147541   0.493   2.511   7.530
15888TIP3    H247542   0.383   2.417   7.486
15889TIP3   OH247543   9.020   8.965   7.214
15889TIP3    H147544   8.949   8.903   7.233
15889TIP3    H247545   9.097   8.927   7.254
15890TIP3   OH247546   5.549   0.600   0.468
15890TIP3    H147547   5.468   0.574   0.424
15890TIP3    H247548   5.618   0.580   0.404
15891TIP3   OH247549   5.932   4.976   4.530
15891TIP3    H147550   5.959   4.896   4.485
15891TIP3    H247551   5.984   4.978   4.610
15892TIP3   OH247552   3.982   2.520   6.530
15892TIP3    H147553   4.028   2.516   6.614
15892TIP3    H247554   3.892   2.541   6.554
15893TIP3   OH247555   5.152   5.409   5.851
15893TIP3    H147556   5.206   5.479   5.889
15893TIP3    H247557   5.088   5.388   5.919
15894TIP3   OH247558   7.711   3.492   5.861
15894TIP3    H147559   7.764   3.413   5.876
15894TIP3    H247560   7.763   3.544   5.800
15895TIP3   OH247561   4.248   6.358   6.256
15895TIP3    H147562   4.309   6.293   6.220
15895TIP3    H247563   4.161   6.323   6.235
15896TIP3   OH247564   5.954   4.517   4.977
15896TIP3    H147565   5.958   4.469   4.894
15896TIP3    H247566   5.926   4.451   5.040
15897TIP3   OH247567   8.696   0.663   1.306
15897TIP3    H147568   8.778   0.691   1.347
15897TIP3    H247569   8.676   0.731   1.242
15898TIP3   OH247570   2.120   5.375   6.718
15898TIP3    H147571   2.150   5.452   6.766
15898TIP3    H247572   2.126   5.303   6.781
15899TIP3   OH247573   5.708   2.912   1.992
15899TIP3    H147574   5.670   2.839   1.943
15899TIP3    H247575   5.632   2.963   2.020
15900TIP3   OH247576   1.725   6.865   0.279
15900TIP3    H147577   1.782   6.794   0.310
15900TIP3    H247578   1.702   6.913   0.358
15901TIP3   OH247579   2.274   5.021   1.566
15901TIP3    H147580   2.301   5.103   1.524
15901TIP3    H247581   2.356   4.975   1.583
15902TIP3   OH247582   6.656   6.384   5.741
15902TIP3    H147583   6.665   6.289   5.737
15902TIP3    H247584   6.747   6.416   5.739
15903TIP3   OH247585   0.284   4.044   6.820
15903TIP3    H147586   0.199   4.012   6.789
15903TIP3    H247587   0.332   3.965   6.845
15904TIP3   OH247588   2.086   4.370   4.092
15904TIP3    H147589   2.115   4.297   4.038
15904TIP3    H247590   2.062   4.438   4.029
15905TIP3   OH247591   3.102   7.074   5.150
15905TIP3    H147592   3.054   7.013   5.095
15905TIP3    H247593   3.193   7.069   5.118
15906TIP3   OH247594   3.307   5.738   7.302
15906TIP3    H147595   3.270   5.788   7.228
15906TIP3    H247596   3.259   5.655   7.300
15907TIP3   OH247597   4.557   3.666   0.909
15907TIP3    H147598   4.524   3.740   0.959
15907TIP3    H247599   4.640   3.697   0.873
15908TIP3   OH247600   7.282   5.394   0.118
15908TIP3    H147601   7.313   5.444   0.194
15908TIP3    H247602   7.191   5.422   0.106
15909TIP3   OH247603   5.976   1.116   5.596
15909TIP3    H147604   6.038   1.060   5.643
15909TIP3    H247605   6.027   1.191   5.568
15910TIP3   OH247606   4.612   1.723   4.222
15910TIP3    H147607   4.668   1.651   4.195
15910TIP3    H247608   4.613   1.784   4.149
15911TIP3   OH247609   9.366   1.122   3.422
15911TIP3    H147610   9.300   1.077   3.476
15911TIP3    H247611   9.319   1.196   3.384
15912TIP3   OH247612   2.670   3.049   7.296
15912TIP3    H147613   2.585   3.055   7.338
15912TIP3    H247614   2.651   3.038   7.203
15913TIP3   OH247615   7.094   6.702   6.629
15913TIP3    H147616   7.161   6.770   6.634
15913TIP3    H247617   7.024   6.742   6.577
15914TIP3   OH247618   8.511   2.579   0.818
15914TIP3    H147619   8.552   2.505   0.863
15914TIP3    H247620   8.484   2.638   0.888
15915TIP3   OH247621   5.669   8.665   5.179
15915TIP3    H147622   5.638   8.663   5.270
15915TIP3    H247623   5.762   8.647   5.185
15916TIP3   OH247624   7.236   4.259   2.979
15916TIP3    H147625   7.321   4.267   3.022
15916TIP3    H247626   7.249   4.298   2.892
15917TIP3   OH247627   0.936   6.643   7.519
15917TIP3    H147628   0.994   6.668   7.591
15917TIP3    H247629   0.914   6.552   7.537
15918TIP3   OH247630   7.786   1.387   0.595
15918TIP3    H147631   7.828   1.372   0.510
15918TIP3    H247632   7.713   1.446   0.575
15919TIP3   OH247633   1.567   8.349   5.632
15919TIP3    H147634   1.593   8.359   5.724
15919TIP3    H247635   1.648   8.361   5.583
15920TIP3   OH247636   8.979   7.040   5.190
15920TIP3    H147637   8.952   6.956   5.226
15920TIP3    H247638   8.921   7.104   5.232
15921TIP3   OH247639   3.298   8.572   6.989
15921TIP3    H147640   3.324   8.547   7.078
15921TIP3    H247641   3.342   8.656   6.975
15922TIP3   OH247642   9.337   8.274   3.997
15922TIP3    H147643   9.317   8.312   4.082
15922TIP3    H247644   9.352   8.350   3.940
15923TIP3   OH247645   3.744   4.356   1.576
15923TIP3    H147646   3.706   4.362   1.489
15923TIP3    H247647   3.765   4.447   1.600
15924TIP3   OH247648   8.089   7.756   7.415
15924TIP3    H147649   8.159   7.709   7.461
15924TIP3    H247650   8.014   7.697   7.419
15925TIP3   OH247651   7.170   8.432   1.255
15925TIP3    H147652   7.165   8.489   1.178
15925TIP3    H247653   7.142   8.347   1.223
15926TIP3   OH247654   8.121   6.315   1.572
15926TIP3    H147655   8.033   6.293   1.602
15926TIP3    H247656   8.176   6.244   1.604
15927TIP3   OH247657   5.443   2.241   0.581
15927TIP3    H147658   5.422   2.208   0.494
15927TIP3    H247659   5.427   2.167   0.639
15928TIP3   OH247660   8.550   5.051   1.198
15928TIP3    H147661   8.618   4.996   1.158
15928TIP3    H247662   8.510   5.097   1.125
15929TIP3   OH247663   8.362   0.060   4.760
15929TIP3    H147664   8.439   0.068   4.702
15929TIP3    H247665   8.391   0.000   4.829
15930TIP3   OH247666   6.515   5.190   0.564
15930TIP3    H147667   6.504   5.225   0.653
15930TIP3    H247668   6.452   5.118   0.558
15931TIP3   OH247669   5.702   4.694   0.569
15931TIP3    H147670   5.770   4.717   0.505
15931TIP3    H247671   5.744   4.627   0.625
15932TIP3   OH247672   0.678   6.370   4.180
15932TIP3    H147673   0.695   6.370   4.274
15932TIP3    H247674   0.609   6.304   4.168
15933TIP3   OH247675   2.561   1.086   6.666
15933TIP3    H147676   2.544   1.004   6.619
15933TIP3    H247677   2.477   1.107   6.708
15934TIP3   OH247678   6.010   5.653   3.502
15934TIP3    H147679   6.091   5.703   3.513
15934TIP3    H247680   6.031   5.565   3.532
15935TIP3   OH247681   2.565   3.019   5.255
15935TIP3    H147682   2.542   3.064   5.336
15935TIP3    H247683   2.487   2.970   5.232
15936TIP3   OH247684   8.129   4.555   0.526
15936TIP3    H147685   8.033   4.560   0.529
15936TIP3    H247686   8.155   4.625   0.466
15937TIP3   OH247687   6.869   1.403   6.801
15937TIP3    H147688   6.852   1.344   6.875
15937TIP3    H247689   6.885   1.488   6.841
15938TIP3   OH247690   2.089   8.528   6.444
15938TIP3    H147691   2.161   8.549   6.504
15938TIP3    H247692   2.037   8.463   6.491
15939TIP3   OH247693   4.336   0.465   2.091
15939TIP3    H147694   4.389   0.399   2.046
15939TIP3    H247695   4.388   0.545   2.084
15940TIP3   OH247696   4.394   8.950   4.188
15940TIP3    H147697   4.308   8.984   4.212
15940TIP3    H247698   4.383   8.919   4.098
15941TIP3   OH247699   0.463   7.091   7.810
15941TIP3    H147700   0.370   7.092   7.832
15941TIP3    H247701   0.475   7.012   7.758
15942TIP3   OH247702   1.654   7.862   1.790
15942TIP3    H147703   1.606   7.943   1.775
15942TIP3    H247704   1.739   7.890   1.822
15943TIP3   OH247705   5.774   8.630   0.073
15943TIP3    H147706   5.695   8.683   0.076
15943TIP3    H247707   5.817   8.645   0.157
15944TIP3   OH247708   2.505   7.698   7.740
15944TIP3    H147709   2.547   7.661   7.818
15944TIP3    H247710   2.413   7.674   7.749
15945TIP3   OH247711   2.933   1.926   7.271
15945TIP3    H147712   3.006   1.875   7.306
15945TIP3    H247713   2.962   2.017   7.277
15946TIP3   OH247714   1.745   5.495   0.880
15946TIP3    H147715   1.790   5.410   0.877
15946TIP3    H247716   1.748   5.521   0.972
15947TIP3   OH247717   2.665   6.827   3.516
15947TIP3    H147718   2.653   6.848   3.424
15947TIP3    H247719   2.728   6.891   3.548
15948TIP3   OH247720   5.887   2.992   0.576
15948TIP3    H147721   5.960   2.946   0.535
15948TIP3    H247722   5.823   2.924   0.595
15949TIP3   OH247723   0.832   5.795   2.267
15949TIP3    H147724   0.780   5.714   2.266
15949TIP3    H247725   0.917   5.769   2.233
15950TIP3   OH247726   0.563   2.552   0.316
15950TIP3    H147727   0.581   2.492   0.244
15950TIP3    H247728   0.505   2.618   0.278
15951TIP3   OH247729   4.195   8.653   0.365
15951TIP3    H147730   4.166   8.695   0.284
15951TIP3    H247731   4.274   8.701   0.390
15952TIP3   OH247732   0.632   2.779   0.889
15952TIP3    H147733   0.673   2.840   0.950
15952TIP3    H247734   0.542   2.771   0.920
15953TIP3   OH247735   3.231   2.896   3.333
15953TIP3    H147736   3.211   2.984   3.301
15953TIP3    H247737   3.278   2.910   3.415
15954TIP3   OH247738   1.613   7.555   6.376
15954TIP3    H147739   1.552   7.482   6.385
15954TIP3    H247740   1.699   7.513   6.368
15955TIP3   OH247741   6.373   2.515   4.018
15955TIP3    H147742   6.401   2.525   4.109
15955TIP3    H247743   6.454   2.513   3.967
15956TIP3   OH247744   9.119   0.132   6.542
15956TIP3    H147745   9.182   0.070   6.505
15956TIP3    H247746   9.120   0.206   6.481
15957TIP3   OH247747   3.876   4.801   5.684
15957TIP3    H147748   3.880   4.767   5.594
15957TIP3    H247749   3.807   4.750   5.726
15958TIP3   OH247750   0.650   3.985   3.952
15958TIP3    H147751   0.607   3.931   4.018
15958TIP3    H247752   0.687   3.923   3.890
15959TIP3   OH247753   7.638   2.837   6.001
15959TIP3    H147754   7.567   2.891   6.037
15959TIP3    H247755   7.665   2.782   6.075
15960TIP3   OH247756   2.093   8.515   7.560
15960TIP3    H147757   2.171   8.470   7.530
15960TIP3    H247758   2.047   8.540   7.480
15961TIP3   OH247759   0.481   5.529   7.571
15961TIP3    H147760   0.426   5.482   7.508
15961TIP3    H247761   0.570   5.522   7.534
15962TIP3   OH247762   8.321   4.432   4.602
15962TIP3    H147763   8.414   4.439   4.578
15962TIP3    H247764   8.312   4.343   4.636
15963TIP3   OH247765   7.458   6.364   1.869
15963TIP3    H147766   7.503   6.290   1.829
15963TIP3    H247767   7.439   6.335   1.958
15964TIP3   OH247768   4.214   8.003   6.141
15964TIP3    H147769   4.222   8.090   6.180
15964TIP3    H247770   4.296   7.991   6.093
15965TIP3   OH247771   8.940   7.124   3.067
15965TIP3    H147772   8.964   7.034   3.088
15965TIP3    H247773   8.934   7.167   3.153
15966TIP3   OH247774   8.889   3.294   7.601
15966TIP3    H147775   8.847   3.245   7.530
15966TIP3    H247776   8.983   3.288   7.581
15967TIP3   OH247777   2.535   7.606   3.983
15967TIP3    H147778   2.623   7.641   3.970
15967TIP3    H247779   2.504   7.649   4.062
15968TIP3   OH247780   3.415   0.405   2.609
15968TIP3    H147781   3.386   0.476   2.552
15968TIP3    H247782   3.462   0.345   2.551
15969TIP3   OH247783   2.964   8.351   5.611
15969TIP3    H147784   3.002   8.270   5.644
15969TIP3    H247785   3.035   8.394   5.563
15970TIP3   OH247786   4.941   0.513   2.147
15970TIP3    H147787   5.016   0.565   2.175
15970TIP3    H247788   4.951   0.430   2.193
15971TIP3   OH247789   4.194   0.667   6.639
15971TIP3    H147790   4.222   0.652   6.730
15971TIP3    H247791   4.201   0.581   6.597
15972TIP3   OH247792   7.214   2.408   1.342
15972TIP3    H147793   7.305   2.378   1.341
15972TIP3    H247794   7.219   2.503   1.333
15973TIP3   OH247795   9.165   0.678   0.928
15973TIP3    H147796   9.184   0.591   0.895
15973TIP3    H247797   9.128   0.664   1.016
15974TIP3   OH247798   6.794   8.360   0.294
15974TIP3    H147799   6.857   8.297   0.329
15974TIP3    H247800   6.770   8.414   0.370
15975TIP3   OH247801   9.215   8.657   3.198
15975TIP3    H147802   9.144   8.716   3.223
15975TIP3    H247803   9.171   8.581   3.161
15976TIP3   OH247804   7.500   0.813   0.261
15976TIP3    H147805   7.475   0.728   0.225
15976TIP3    H247806   7.445   0.876   0.215
15977TIP3   OH247807   4.283   5.840   6.218
15977TIP3    H147808   4.270   5.828   6.124
15977TIP3    H247809   4.195   5.831   6.255
15978TIP3   OH247810   2.705   4.766   6.646
15978TIP3    H147811   2.656   4.756   6.728
15978TIP3    H247812   2.778   4.824   6.668
15979TIP3   OH247813   4.772   5.685   4.655
15979TIP3    H147814   4.732   5.682   4.568
15979TIP3    H247815   4.717   5.627   4.708
15980TIP3   OH247816   0.258   2.479   7.185
15980TIP3    H147817   0.216   2.517   7.263
15980TIP3    H247818   0.198   2.409   7.158
15981TIP3   OH247819   0.915   0.969   5.391
15981TIP3    H147820   0.884   1.041   5.335
15981TIP3    H247821   0.860   0.975   5.469
15982TIP3   OH247822   2.632   0.841   5.669
15982TIP3    H147823   2.641   0.839   5.574
15982TIP3    H247824   2.608   0.931   5.689
15983TIP3   OH247825   2.734   6.347   7.163
15983TIP3    H147826   2.670   6.406   7.202
15983TIP3    H247827   2.697   6.323   7.078
15984TIP3   OH247828   1.759   5.508   2.996
15984TIP3    H147829   1.688   5.444   2.990
15984TIP3    H247830   1.772   5.520   3.090
15985TIP3   OH247831   7.125   1.736   1.528
15985TIP3    H147832   7.142   1.658   1.476
15985TIP3    H247833   7.212   1.766   1.555
15986TIP3   OH247834   9.520   6.401   3.902
15986TIP3    H147835   9.511   6.475   3.963
15986TIP3    H247836   9.551   6.329   3.956
15987TIP3   OH247837   1.069   2.836   0.620
15987TIP3    H147838   0.987   2.864   0.580
15987TIP3    H247839   1.043   2.779   0.692
15988TIP3   OH247840   2.292   6.154   4.365
15988TIP3    H147841   2.257   6.209   4.435
15988TIP3    H247842   2.234   6.168   4.291
15989TIP3   OH247843   9.297   0.368   2.077
15989TIP3    H147844   9.292   0.456   2.040
15989TIP3    H247845   9.313   0.381   2.170
15990TIP3   OH247846   7.987   5.354   5.182
15990TIP3    H147847   8.021   5.327   5.097
15990TIP3    H247848   7.892   5.355   5.172
15991TIP3   OH247849   2.670   8.746   2.121
15991TIP3    H147850   2.610   8.736   2.195
15991TIP3    H247851   2.680   8.658   2.086
15992TIP3   OH247852   7.107   6.232   5.785
15992TIP3    H147853   7.152   6.293   5.727
15992TIP3    H247854   7.090   6.155   5.731
15993TIP3   OH247855   3.082   7.418   3.478
15993TIP3    H147856   3.062   7.454   3.564
15993TIP3    H247857   3.089   7.323   3.492
15994TIP3   OH247858   6.229   7.346   7.004
15994TIP3    H147859   6.212   7.421   6.946
15994TIP3    H247860   6.142   7.310   7.021
15995TIP3   OH247861   5.697   6.494   4.072
15995TIP3    H147862   5.669   6.520   4.160
15995TIP3    H247863   5.750   6.567   4.040
15996TIP3   OH247864   6.832   4.732   0.018
15996TIP3    H147865   6.923   4.702   0.027
15996TIP3    H247866   6.795   4.724   0.106
15997TIP3   OH247867   6.685   1.518   4.083
15997TIP3    H147868   6.750   1.530   4.014
15997TIP3    H247869   6.601   1.535   4.039
15998TIP3   OH247870   7.500   1.904   5.527
15998TIP3    H147871   7.493   1.816   5.491
15998TIP3    H247872   7.466   1.961   5.457
15999TIP3   OH247873   4.826   1.482   1.922
15999TIP3    H147874   4.876   1.401   1.934
15999TIP3    H247875   4.850   1.537   1.996
16000TIP3   OH247876   1.148   2.108   0.083
16000TIP3    H147877   1.222   2.167   0.096
16000TIP3    H247878   1.095   2.117   0.162
16001TIP3   OH247879   6.297   0.816   3.610
16001TIP3    H147880   6.311   0.812   3.515
16001TIP3    H247881   6.385   0.819   3.647
16002TIP3   OH247882   2.001   8.679   0.780
16002TIP3    H147883   1.988   8.759   0.730
16002TIP3    H247884   1.985   8.608   0.718
16003TIP3   OH247885   5.297   8.155   6.256
16003TIP3    H147886   5.308   8.131   6.348
16003TIP3    H247887   5.264   8.245   6.258
16004TIP3   OH247888   0.942   5.221   0.546
16004TIP3    H147889   0.957   5.314   0.562
16004TIP3    H247890   1.026   5.179   0.564
16005TIP3   OH247891   6.947   0.604   5.475
16005TIP3    H147892   6.977   0.581   5.562
16005TIP3    H247893   6.965   0.527   5.421
16006TIP3   OH247894   6.514   4.044   7.495
16006TIP3    H147895   6.586   4.062   7.556
16006TIP3    H247896   6.531   3.955   7.464
16007TIP3   OH247897   4.580   4.102   5.190
16007TIP3    H147898   4.672   4.107   5.164
16007TIP3    H247899   4.557   4.191   5.215
16008TIP3   OH247900   1.557   3.357   4.384
16008TIP3    H147901   1.648   3.326   4.386
16008TIP3    H247902   1.557   3.434   4.440
16009TIP3   OH247903   9.511   1.549   5.541
16009TIP3    H147904   9.561   1.631   5.539
16009TIP3    H247905   9.550   1.495   5.472
16010TIP3   OH247906   5.161   2.346   5.860
16010TIP3    H147907   5.133   2.419   5.806
16010TIP3    H247908   5.158   2.380   5.949
16011TIP3   OH247909   6.932   4.621   4.515
16011TIP3    H147910   6.987   4.697   4.498
16011TIP3    H247911   6.874   4.650   4.586
16012TIP3   OH247912   3.492   2.631   3.546
16012TIP3    H147913   3.571   2.615   3.597
16012TIP3    H247914   3.511   2.594   3.460
16013TIP3   OH247915   7.443   1.870   2.331
16013TIP3    H147916   7.405   1.907   2.411
16013TIP3    H247917   7.514   1.813   2.362
16014TIP3   OH247918   1.041   5.333   2.866
16014TIP3    H147919   1.035   5.428   2.861
16014TIP3    H247920   0.991   5.310   2.945
16015TIP3   OH247921   0.919   7.071   2.417
16015TIP3    H147922   0.870   7.006   2.366
16015TIP3    H247923   0.999   7.084   2.367
16016TIP3   OH247924   1.867   2.405   1.465
16016TIP3    H147925   1.882   2.483   1.519
16016TIP3    H247926   1.773   2.404   1.448
16017TIP3   OH247927   4.672   4.254   2.546
16017TIP3    H147928   4.615   4.290   2.479
16017TIP3    H247929   4.760   4.259   2.508
16018TIP3   OH247930   5.598   4.160   2.144
16018TIP3    H147931   5.673   4.182   2.088
16018TIP3    H247932   5.602   4.223   2.215
16019TIP3   OH247933   4.678   2.878   5.471
16019TIP3    H147934   4.698   2.941   5.540
16019TIP3    H247935   4.612   2.922   5.418
16020TIP3   OH247936   7.707   3.438   1.915
16020TIP3    H147937   7.620   3.474   1.900
16020TIP3    H247938   7.755   3.458   1.834
16021TIP3   OH247939   6.043   7.354   1.983
16021TIP3    H147940   6.071   7.351   2.075
16021TIP3    H247941   6.022   7.263   1.961
16022TIP3   OH247942   5.773   5.446   1.387
16022TIP3    H147943   5.740   5.472   1.473
16022TIP3    H247944   5.862   5.414   1.403
16023TIP3   OH247945   8.698   7.961   2.600
16023TIP3    H147946   8.696   7.911   2.681
16023TIP3    H247947   8.607   7.990   2.588
16024TIP3   OH247948   2.627   6.450   2.611
16024TIP3    H147949   2.634   6.354   2.613
16024TIP3    H247950   2.659   6.475   2.525
16025TIP3   OH247951   6.606   6.887   6.105
16025TIP3    H147952   6.631   6.848   6.021
16025TIP3    H247953   6.514   6.862   6.116
16026TIP3   OH247954   7.903   8.543   1.245
16026TIP3    H147955   7.854   8.625   1.251
16026TIP3    H247956   7.840   8.475   1.270
16027TIP3   OH247957   3.992   7.217   1.428
16027TIP3    H147958   4.008   7.140   1.374
16027TIP3    H247959   3.975   7.182   1.515
16028TIP3   OH247960   5.380   4.288   1.634
16028TIP3    H147961   5.386   4.211   1.692
16028TIP3    H247962   5.298   4.330   1.659
16029TIP3   OH247963   8.322   3.477   1.603
16029TIP3    H147964   8.280   3.408   1.655
16029TIP3    H247965   8.405   3.493   1.647
16030TIP3   OH247966   3.364   7.260   3.563
16030TIP3    H147967   3.375   7.240   3.656
16030TIP3    H247968   3.271   7.250   3.547
16031TIP3   OH247969   7.386   3.515   2.322
16031TIP3    H147970   7.375   3.606   2.352
16031TIP3    H247971   7.349   3.514   2.234
16032TIP3   OH247972   1.662   6.385   0.239
16032TIP3    H147973   1.606   6.315   0.204
16032TIP3    H247974   1.610   6.465   0.229
16033TIP3   OH247975   9.184   5.235   2.528
16033TIP3    H147976   9.255   5.289   2.564
16033TIP3    H247977   9.224   5.188   2.455
16034TIP3   OH247978   8.541   2.589   0.306
16034TIP3    H147979   8.617   2.562   0.358
16034TIP3    H247980   8.533   2.682   0.323
16035TIP3   OH247981   4.956   8.762   3.332
16035TIP3    H147982   4.904   8.842   3.325
16035TIP3    H247983   5.010   8.775   3.409
16036TIP3   OH247984   5.057   5.216   0.849
16036TIP3    H147985   4.986   5.273   0.876
16036TIP3    H247986   5.136   5.268   0.863
16037TIP3   OH247987   5.897   0.081   0.491
16037TIP3    H147988   5.819   0.029   0.509
16037TIP3    H247989   5.970   0.027   0.522
16038TIP3   OH247990   4.260   1.813   0.843
16038TIP3    H147991   4.195   1.804   0.913
16038TIP3    H247992   4.339   1.773   0.879
16039TIP3   OH247993   5.086   2.357   2.336
16039TIP3    H147994   5.073   2.353   2.241
16039TIP3    H247995   5.128   2.441   2.351
16040TIP3   OH247996   5.982   4.396   2.279
16040TIP3    H147997   5.999   4.401   2.373
16040TIP3    H247998   6.004   4.483   2.245
16041TIP3   OH247999   1.354   7.347   4.723
16041TIP3    H148000   1.272   7.374   4.765
16041TIP3    H248001   1.397   7.429   4.699
16042TIP3   OH248002   3.110   7.502   0.917
16042TIP3    H148003   3.174   7.518   0.848
16042TIP3    H248004   3.084   7.411   0.905
16043TIP3   OH248005   8.303   3.922   2.204
16043TIP3    H148006   8.370   3.940   2.138
16043TIP3    H248007   8.229   3.887   2.154
16044TIP3   OH248008   5.188   2.075   2.696
16044TIP3    H148009   5.221   2.137   2.762
16044TIP3    H248010   5.257   2.009   2.689
16045TIP3   OH248011   6.052   7.064   5.577
16045TIP3    H148012   6.066   7.105   5.662
16045TIP3    H248013   5.957   7.046   5.574
16046TIP3   OH248014   7.412   4.822   3.001
16046TIP3    H148015   7.506   4.813   2.987
16046TIP3    H248016   7.404   4.884   3.073
16047TIP3   OH248017   5.544   7.796   4.092
16047TIP3    H148018   5.605   7.845   4.146
16047TIP3    H248019   5.483   7.756   4.154
16048TIP3   OH248020   2.398   0.582   3.611
16048TIP3    H148021   2.395   0.659   3.553
16048TIP3    H248022   2.336   0.521   3.571
16049TIP3   OH248023   3.350   4.566   1.682
16049TIP3    H148024   3.352   4.471   1.691
16049TIP3    H248025   3.332   4.598   1.770
16050TIP3   OH248026   7.691   7.735   2.165
16050TIP3    H148027   7.786   7.741   2.152
16050TIP3    H248028   7.668   7.648   2.132
16051TIP3   OH248029   2.134   3.780   2.545
16051TIP3    H148030   2.069   3.738   2.602
16051TIP3    H248031   2.180   3.842   2.602
16052TIP3   OH248032   0.338   6.526   2.771
16052TIP3    H148033   0.408   6.520   2.836
16052TIP3    H248034   0.290   6.443   2.780
16053TIP3   OH248035   7.407   3.596   3.028
16053TIP3    H148036   7.487   3.623   3.072
16053TIP3    H248037   7.352   3.560   3.097
16054TIP3   OH248038   5.924   8.601   3.471
16054TIP3    H148039   5.833   8.625   3.489
16054TIP3    H248040   5.943   8.529   3.531
16055TIP3   OH248041   0.211   0.233   2.383
16055TIP3    H148042   0.301   0.228   2.417
16055TIP3    H248043   0.157   0.198   2.454
16056TIP3   OH248044   4.014   3.571   1.347
16056TIP3    H148045   3.934   3.518   1.347
16056TIP3    H248046   4.083   3.510   1.323
16057TIP3   OH248047   4.526   4.814   1.593
16057TIP3    H148048   4.440   4.779   1.571
16057TIP3    H248049   4.515   4.852   1.680
16058TIP3   OH248050   3.906   7.308   6.019
16058TIP3    H148051   3.925   7.230   5.967
16058TIP3    H248052   3.935   7.381   5.965
16059TIP3   OH248053   3.556   4.116   0.503
16059TIP3    H148054   3.521   4.059   0.570
16059TIP3    H248055   3.560   4.203   0.545
16060TIP3   OH248056   9.388   0.449   5.063
16060TIP3    H148057   9.353   0.504   4.993
16060TIP3    H248058   9.470   0.491   5.088
16061TIP3   OH248059   8.786   2.530   7.673
16061TIP3    H148060   8.820   2.613   7.639
16061TIP3    H248061   8.829   2.520   7.758
16062TIP3   OH248062   4.279   1.732   4.108
16062TIP3    H148063   4.310   1.800   4.168
16062TIP3    H248064   4.197   1.701   4.146
16063TIP3   OH248065   5.223   3.909   6.855
16063TIP3    H148066   5.176   3.963   6.919
16063TIP3    H248067   5.231   3.964   6.778
16064TIP3   OH248068   3.426   4.897   2.023
16064TIP3    H148069   3.373   4.936   1.953
16064TIP3    H248070   3.393   4.938   2.103
16065TIP3   OH248071   7.346   3.732   2.807
16065TIP3    H148072   7.255   3.741   2.835
16065TIP3    H248073   7.381   3.662   2.862
16066TIP3   OH248074   5.282   0.774   6.674
16066TIP3    H148075   5.228   0.731   6.608
16066TIP3    H248076   5.331   0.702   6.715
16067TIP3   OH248077   9.199   2.604   4.560
16067TIP3    H148078   9.191   2.596   4.655
16067TIP3    H248079   9.110   2.626   4.530
16068TIP3   OH248080   8.612   1.307   4.315
16068TIP3    H148081   8.577   1.393   4.339
16068TIP3    H248082   8.553   1.245   4.359
16069TIP3   OH248083   1.693   3.561   6.781
16069TIP3    H148084   1.701   3.476   6.737
16069TIP3    H248085   1.781   3.599   6.775
16070TIP3   OH248086   8.098   6.453   6.987
16070TIP3    H148087   8.189   6.467   6.961
16070TIP3    H248088   8.075   6.531   7.037
16071TIP3   OH248089   6.935   3.115   5.076
16071TIP3    H148090   7.013   3.067   5.050
16071TIP3    H248091   6.903   3.155   4.995
16072TIP3   OH248092   4.272   4.873   0.276
16072TIP3    H148093   4.278   4.801   0.339
16072TIP3    H248094   4.216   4.938   0.320
16073TIP3   OH248095   5.170   4.267   5.039
16073TIP3    H148096   5.239   4.226   4.987
16073TIP3    H248097   5.216   4.334   5.090
16074TIP3   OH248098   2.666   5.522   2.089
16074TIP3    H148099   2.714   5.480   2.160
16074TIP3    H248100   2.725   5.590   2.056
16075TIP3   OH248101   8.455   0.124   2.104
16075TIP3    H148102   8.365   0.155   2.114
16075TIP3    H248103   8.449   0.051   2.043
16076TIP3   OH248104   6.557   7.686   0.939
16076TIP3    H148105   6.577   7.776   0.914
16076TIP3    H248106   6.620   7.633   0.891
16077TIP3   OH248107   8.858   5.856   4.835
16077TIP3    H148108   8.814   5.893   4.912
16077TIP3    H248109   8.921   5.923   4.809
16078TIP3   OH248110   0.553   7.170   1.410
16078TIP3    H148111   0.487   7.207   1.352
16078TIP3    H248112   0.611   7.243   1.430
16079TIP3   OH248113   4.963   2.201   6.565
16079TIP3    H148114   5.044   2.174   6.523
16079TIP3    H248115   4.921   2.119   6.590
16080TIP3   OH248116   5.401   8.424   2.892
16080TIP3    H148117   5.493   8.432   2.915
16080TIP3    H248118   5.402   8.388   2.803
16081TIP3   OH248119   5.074   2.755   1.895
16081TIP3    H148120   5.118   2.821   1.949
16081TIP3    H248121   5.070   2.795   1.808
16082TIP3   OH248122   8.440   0.106   5.234
16082TIP3    H148123   8.434   0.133   5.325
16082TIP3    H248124   8.442   0.189   5.185
16083TIP3   OH248125   7.951   4.307   3.724
16083TIP3    H148126   7.956   4.391   3.679
16083TIP3    H248127   7.995   4.322   3.808
16084TIP3   OH248128   3.112   4.719   6.327
16084TIP3    H148129   3.135   4.766   6.247
16084TIP3    H248130   3.047   4.774   6.369
16085TIP3   OH248131   8.510   4.168   7.330
16085TIP3    H148132   8.567   4.236   7.367
16085TIP3    H248133   8.450   4.216   7.272
16086TIP3   OH248134   5.514   2.148   5.469
16086TIP3    H148135   5.576   2.194   5.414
16086TIP3    H248136   5.546   2.058   5.471
16087TIP3   OH248137   7.983   3.885   4.984
16087TIP3    H148138   8.052   3.914   5.044
16087TIP3    H248139   7.902   3.891   5.036
16088TIP3   OH248140   1.267   8.374   0.950
16088TIP3    H148141   1.216   8.329   1.018
16088TIP3    H248142   1.335   8.421   0.999
16089TIP3   OH248143   9.333   7.059   1.703
16089TIP3    H148144   9.300   6.972   1.727
16089TIP3    H248145   9.265   7.096   1.646
16090TIP3   OH248146   9.459   5.492   2.444
16090TIP3    H148147   9.387   5.530   2.394
16090TIP3    H248148   9.530   5.556   2.436
16091TIP3   OH248149   0.728   5.574   1.944
16091TIP3    H148150   0.811   5.544   1.907
16091TIP3    H248151   0.663   5.514   1.907
16092TIP3   OH248152   1.588   6.059   6.597
16092TIP3    H148153   1.629   6.051   6.511
16092TIP3    H248154   1.496   6.038   6.583
16093TIP3   OH248155   6.729   8.782   1.090
16093TIP3    H148156   6.753   8.874   1.086
16093TIP3    H248157   6.799   8.740   1.140
16094TIP3   OH248158   5.688   6.713   5.580
16094TIP3    H148159   5.682   6.703   5.485
16094TIP3    H248160   5.735   6.635   5.609
16095TIP3   OH248161   9.573   3.491   4.936
16095TIP3    H148162   9.482   3.507   4.910
16095TIP3    H248163   9.594   3.564   4.995
16096TIP3   OH248164   9.007   8.263   3.555
16096TIP3    H148165   8.942   8.195   3.571
16096TIP3    H248166   9.036   8.290   3.642
16097TIP3   OH248167   5.895   7.669   3.871
16097TIP3    H148168   5.849   7.742   3.830
16097TIP3    H248169   5.855   7.661   3.957
16098TIP3   OH248170   1.486   7.838   4.713
16098TIP3    H148171   1.445   7.864   4.631
16098TIP3    H248172   1.559   7.898   4.724
16099TIP3   OH248173   2.735   2.190   4.732
16099TIP3    H148174   2.646   2.159   4.715
16099TIP3    H248175   2.775   2.196   4.645
16100TIP3   OH248176   4.887   5.175   4.214
16100TIP3    H148177   4.792   5.167   4.212
16100TIP3    H248178   4.904   5.265   4.186
16101TIP3   OH248179   6.077   6.293   6.998
16101TIP3    H148180   6.012   6.249   6.944
16101TIP3    H248181   6.031   6.311   7.081
16102TIP3   OH248182   2.471   8.035   5.048
16102TIP3    H148183   2.376   8.039   5.055
16102TIP3    H248184   2.502   8.016   5.137
16103TIP3   OH248185   0.294   3.812   2.971
16103TIP3    H148186   0.256   3.836   3.056
16103TIP3    H248187   0.245   3.865   2.908
16104TIP3   OH248188   9.059   6.853   2.795
16104TIP3    H148189   9.055   6.774   2.849
16104TIP3    H248190   9.119   6.911   2.842
16105TIP3   OH248191   4.020   0.241   4.986
16105TIP3    H148192   4.065   0.318   5.021
16105TIP3    H248193   4.053   0.168   5.038
16106TIP3   OH248194   5.476   1.150   4.900
16106TIP3    H148195   5.570   1.150   4.920
16106TIP3    H248196   5.440   1.081   4.955
16107TIP3   OH248197   6.345   2.773   6.549
16107TIP3    H148198   6.308   2.747   6.634
16107TIP3    H248199   6.349   2.692   6.498
16108TIP3   OH248200   8.461   7.864   3.424
16108TIP3    H148201   8.477   7.901   3.511
16108TIP3    H248202   8.498   7.775   3.428
16109TIP3   OH248203   4.514   3.188   3.916
16109TIP3    H148204   4.445   3.122   3.911
16109TIP3    H248205   4.577   3.152   3.979
16110TIP3   OH248206   7.044   6.583   7.150
16110TIP3    H148207   7.069   6.671   7.178
16110TIP3    H248208   6.991   6.598   7.071
16111TIP3   OH248209   1.122   2.452   7.635
16111TIP3    H148210   1.135   2.371   7.684
16111TIP3    H248211   1.165   2.520   7.688
16112TIP3   OH248212   1.476   5.660   4.060
16112TIP3    H148213   1.405   5.708   4.016
16112TIP3    H248214   1.431   5.606   4.125
16113TIP3   OH248215   3.793   7.708   7.109
16113TIP3    H148216   3.854   7.650   7.154
16113TIP3    H248217   3.847   7.754   7.044
16114TIP3   OH248218   5.579   2.140   1.129
16114TIP3    H148219   5.484   2.138   1.135
16114TIP3    H248220   5.598   2.184   1.046
16115TIP3   OH248221   9.549   1.551   4.802
16115TIP3    H148222   9.634   1.531   4.763
16115TIP3    H248223   9.486   1.531   4.732
16116TIP3   OH248224   2.670   5.366   0.647
16116TIP3    H148225   2.619   5.423   0.705
16116TIP3    H248226   2.759   5.401   0.651
16117TIP3   OH248227   1.744   8.582   2.743
16117TIP3    H148228   1.777   8.497   2.716
16117TIP3    H248229   1.757   8.639   2.667
16118TIP3   OH248230   8.019   5.782   3.301
16118TIP3    H148231   7.980   5.695   3.305
16118TIP3    H248232   7.968   5.828   3.233
16119TIP3   OH248233   2.274   3.877   0.762
16119TIP3    H148234   2.281   3.965   0.726
16119TIP3    H248235   2.339   3.826   0.714
16120TIP3   OH248236   3.773   5.440   5.217
16120TIP3    H148237   3.774   5.453   5.312
16120TIP3    H248238   3.700   5.493   5.186
16121TIP3   OH248239   8.204   2.451   4.776
16121TIP3    H148240   8.130   2.511   4.780
16121TIP3    H248241   8.265   2.484   4.842
16122TIP3   OH248242   0.991   4.725   5.544
16122TIP3    H148243   1.081   4.718   5.515
16122TIP3    H248244   0.993   4.699   5.636
16123TIP3   OH248245   2.332   4.373   7.143
16123TIP3    H148246   2.301   4.283   7.155
16123TIP3    H248247   2.387   4.389   7.220
16124TIP3   OH248248   0.158   6.052   3.030
16124TIP3    H148249   0.192   6.140   3.045
16124TIP3    H248250   0.230   6.005   2.987
16125TIP3   OH248251   5.517   2.699   6.133
16125TIP3    H148252   5.497   2.683   6.225
16125TIP3    H248253   5.501   2.614   6.090
16126TIP3   OH248254   0.599   1.238   0.878
16126TIP3    H148255   0.646   1.155   0.872
16126TIP3    H248256   0.578   1.261   0.787
16127TIP3   OH248257   8.244   5.500   1.457
16127TIP3    H148258   8.335   5.487   1.482
16127TIP3    H248259   8.209   5.412   1.444
16128TIP3   OH248260   3.065   4.828   2.512
16128TIP3    H148261   3.117   4.755   2.546
16128TIP3    H248262   3.027   4.794   2.431
16129TIP3   OH248263   7.427   5.230   3.003
16129TIP3    H148264   7.418   5.176   2.925
16129TIP3    H248265   7.495   5.294   2.982
16130TIP3   OH248266   3.081   5.538   2.536
16130TIP3    H148267   3.078   5.444   2.551
16130TIP3    H248268   3.172   5.555   2.510
16131TIP3   OH248269   2.378   7.319   7.168
16131TIP3    H148270   2.461   7.285   7.201
16131TIP3    H248271   2.393   7.337   7.076
16132TIP3   OH248272   0.711   6.412   5.755
16132TIP3    H148273   0.628   6.386   5.714
16132TIP3    H248274   0.687   6.486   5.811
16133TIP3   OH248275   6.050   5.043   0.832
16133TIP3    H148276   6.146   5.042   0.823
16133TIP3    H248277   6.033   5.100   0.906
16134TIP3   OH248278   3.711   1.657   0.820
16134TIP3    H148279   3.652   1.582   0.814
16134TIP3    H248280   3.773   1.633   0.890
16135TIP3   OH248281   5.633   5.272   2.879
16135TIP3    H148282   5.696   5.304   2.814
16135TIP3    H248283   5.609   5.350   2.930
16136TIP3   OH248284   0.174   7.626   3.362
16136TIP3    H148285   0.195   7.559   3.297
16136TIP3    H248286   0.155   7.704   3.310
16137TIP3   OH248287   7.675   5.740   0.536
16137TIP3    H148288   7.645   5.830   0.528
16137TIP3    H248289   7.770   5.745   0.536
16138TIP3   OH248290   6.886   3.692   0.531
16138TIP3    H148291   6.897   3.597   0.520
16138TIP3    H248292   6.831   3.700   0.609
16139TIP3   OH248293   4.300   5.266   5.775
16139TIP3    H148294   4.206   5.263   5.793
16139TIP3    H248295   4.339   5.205   5.838
16140TIP3   OH248296   4.875   2.800   4.650
16140TIP3    H148297   4.914   2.713   4.644
16140TIP3    H248298   4.879   2.835   4.561
16141TIP3   OH248299   7.863   6.042   2.380
16141TIP3    H148300   7.791   5.982   2.400
16141TIP3    H248301   7.915   5.996   2.314
16142TIP3   OH248302   6.719   1.540   1.497
16142TIP3    H148303   6.744   1.477   1.564
16142TIP3    H248304   6.632   1.512   1.468
16143TIP3   OH248305   6.192   0.836   2.804
16143TIP3    H148306   6.230   0.852   2.890
16143TIP3    H248307   6.098   0.838   2.818
16144TIP3   OH248308   3.952   2.198   5.002
16144TIP3    H148309   4.010   2.160   4.936
16144TIP3    H248310   3.864   2.186   4.966
16145TIP3   OH248311   6.465   1.832   2.885
16145TIP3    H148312   6.414   1.751   2.889
16145TIP3    H248313   6.402   1.899   2.859
16146TIP3   OH248314   2.325   3.178   1.474
16146TIP3    H148315   2.304   3.266   1.505
16146TIP3    H248316   2.329   3.186   1.379
16147TIP3   OH248317   0.406   4.800   0.654
16147TIP3    H148318   0.433   4.878   0.606
16147TIP3    H248319   0.487   4.750   0.667
16148TIP3   OH248320   9.196   0.568   0.585
16148TIP3    H148321   9.152   0.529   0.661
16148TIP3    H248322   9.279   0.520   0.578
16149TIP3   OH248323   4.343   8.487   4.347
16149TIP3    H148324   4.300   8.534   4.419
16149TIP3    H248325   4.333   8.395   4.369
16150TIP3   OH248326   6.121   7.587   3.228
16150TIP3    H148327   6.165   7.621   3.307
16150TIP3    H248328   6.038   7.634   3.225
16151TIP3   OH248329   0.722   4.786   4.786
16151TIP3    H148330   0.695   4.718   4.849
16151TIP3    H248331   0.746   4.737   4.707
16152TIP3   OH248332   2.901   2.618   1.848
16152TIP3    H148333   2.867   2.690   1.901
16152TIP3    H248334   2.842   2.614   1.772
16153TIP3   OH248335   3.348   7.167   6.574
16153TIP3    H148336   3.313   7.078   6.574
16153TIP3    H248337   3.275   7.221   6.605
16154TIP3   OH248338   1.457   5.568   6.089
16154TIP3    H148339   1.380   5.624   6.100
16154TIP3    H248340   1.432   5.506   6.021
16155TIP3   OH248341   1.155   1.367   5.752
16155TIP3    H148342   1.094   1.325   5.692
16155TIP3    H248343   1.122   1.456   5.762
16156TIP3   OH248344   1.508   4.016   1.055
16156TIP3    H148345   1.599   4.043   1.038
16156TIP3    H248346   1.472   4.087   1.107
16157TIP3   OH248347   9.393   4.088   6.829
16157TIP3    H148348   9.345   4.137   6.762
16157TIP3    H248349   9.326   4.035   6.872
16158TIP3   OH248350   5.509   5.599   4.464
16158TIP3    H148351   5.508   5.549   4.545
16158TIP3    H248352   5.549   5.540   4.400
16159TIP3   OH248353   9.022   0.468   2.212
16159TIP3    H148354   9.067   0.390   2.244
16159TIP3    H248355   9.064   0.488   2.128
16160TIP3   OH248356   3.387   4.611   5.067
16160TIP3    H148357   3.383   4.531   5.016
16160TIP3    H248358   3.327   4.597   5.139
16161TIP3   OH248359   0.046   1.688   0.242
16161TIP3    H148360   0.085   1.770   0.272
16161TIP3    H248361  -0.049   1.700   0.254
16162TIP3   OH248362   5.820   6.641   3.796
16162TIP3    H148363   5.762   6.566   3.786
16162TIP3    H248364   5.762   6.716   3.807
16163TIP3   OH248365   7.513   8.784   6.612
16163TIP3    H148366   7.546   8.844   6.679
16163TIP3    H248367   7.559   8.809   6.532
16164TIP3   OH248368   5.801   4.850   0.055
16164TIP3    H148369   5.868   4.905   0.096
16164TIP3    H248370   5.825   4.848  -0.037
16165TIP3   OH248371   0.463   0.096   7.027
16165TIP3    H148372   0.447   0.134   7.113
16165TIP3    H248373   0.537   0.037   7.041
16166TIP3   OH248374   4.405   7.108   4.158
16166TIP3    H148375   4.369   7.196   4.145
16166TIP3    H248376   4.350   7.069   4.225
16167TIP3   OH248377   5.578   8.262   0.908
16167TIP3    H148378   5.623   8.337   0.870
16167TIP3    H248379   5.636   8.188   0.889
16168TIP3   OH248380   4.758   3.782   1.453
16168TIP3    H148381   4.768   3.701   1.403
16168TIP3    H248382   4.845   3.799   1.490
16169TIP3   OH248383   3.106   2.276   5.514
16169TIP3    H148384   3.063   2.191   5.521
16169TIP3    H248385   3.188   2.266   5.562
16170TIP3   OH248386   5.704   3.809   1.399
16170TIP3    H148387   5.705   3.897   1.436
16170TIP3    H248388   5.750   3.755   1.463
16171TIP3   OH248389   8.614   6.492   6.450
16171TIP3    H148390   8.702   6.517   6.478
16171TIP3    H248391   8.563   6.489   6.530
16172TIP3   OH248392   4.079   8.266   5.628
16172TIP3    H148393   3.986   8.282   5.646
16172TIP3    H248394   4.083   8.174   5.602
16173TIP3   OH248395   4.408   0.755   2.998
16173TIP3    H148396   4.469   0.686   2.970
16173TIP3    H248397   4.416   0.823   2.932
16174TIP3   OH248398   7.653   2.825   1.697
16174TIP3    H148399   7.608   2.819   1.613
16174TIP3    H248400   7.660   2.919   1.714
16175TIP3   OH248401   8.397   2.128   0.986
16175TIP3    H148402   8.483   2.089   0.966
16175TIP3    H248403   8.372   2.174   0.906
16176TIP3   OH248404   2.599   6.219   0.532
16176TIP3    H148405   2.548   6.190   0.607
16176TIP3    H248406   2.679   6.167   0.536
16177TIP3   OH248407   5.251   0.535   7.769
16177TIP3    H148408   5.320   0.591   7.803
16177TIP3    H248409   5.296   0.456   7.738
16178TIP3   OH248410   6.520   0.152   0.468
16178TIP3    H148411   6.436   0.124   0.506
16178TIP3    H248412   6.528   0.101   0.388
16179TIP3   OH248413   6.028   7.927   4.125
16179TIP3    H148414   6.000   7.884   4.044
16179TIP3    H248415   5.967   7.894   4.192
16180TIP3   OH248416   2.914   6.161   2.362
16180TIP3    H148417   2.891   6.204   2.280
16180TIP3    H248418   2.834   6.113   2.387
16181TIP3   OH248419   0.071   4.389   0.138
16181TIP3    H148420   0.038   4.471   0.101
16181TIP3    H248421   0.059   4.325   0.068
16182TIP3   OH248422   3.944   8.132   2.609
16182TIP3    H148423   4.012   8.080   2.565
16182TIP3    H248424   3.986   8.160   2.691
16183TIP3   OH248425   0.541   7.442   2.288
16183TIP3    H148426   0.457   7.425   2.244
16183TIP3    H248427   0.599   7.372   2.258
16184TIP3   OH248428   0.030   6.149   2.404
16184TIP3    H148429  -0.062   6.159   2.379
16184TIP3    H248430   0.078   6.153   2.321
16185TIP3   OH248431   5.513   7.916   1.595
16185TIP3    H148432   5.429   7.892   1.633
16185TIP3    H248433   5.566   7.836   1.603
16186TIP3   OH248434   0.364   5.669   7.034
16186TIP3    H148435   0.298   5.723   7.078
16186TIP3    H248436   0.317   5.625   6.964
16187TIP3   OH248437   9.529   6.909   2.794
16187TIP3    H148438   9.603   6.848   2.793
16187TIP3    H248439   9.475   6.879   2.868
16188TIP3   OH248440   7.537   1.449   5.984
16188TIP3    H148441   7.611   1.505   6.007
16188TIP3    H248442   7.475   1.459   6.056
16189TIP3   OH248443   7.285   0.736   0.009
16189TIP3    H148444   7.262   0.772   0.095
16189TIP3    H248445   7.233   0.786  -0.053
16190TIP3   OH248446   7.306   7.162   7.701
16190TIP3    H148447   7.386   7.210   7.725
16190TIP3    H248448   7.236   7.227   7.710
16191TIP3   OH248449   2.408   3.052   7.416
16191TIP3    H148450   2.421   3.051   7.511
16191TIP3    H248451   2.319   3.086   7.405
16192TIP3   OH248452   7.944   0.485   2.725
16192TIP3    H148453   7.913   0.530   2.804
16192TIP3    H248454   7.864   0.462   2.677
16193TIP3   OH248455   3.577   1.422   6.323
16193TIP3    H148456   3.652   1.458   6.277
16193TIP3    H248457   3.563   1.336   6.283
16194TIP3   OH248458   0.640   7.551   4.105
16194TIP3    H148459   0.630   7.456   4.107
16194TIP3    H248460   0.580   7.580   4.035
16195TIP3   OH248461   3.705   0.849   6.394
16195TIP3    H148462   3.749   0.908   6.455
16195TIP3    H248463   3.621   0.831   6.436
16196TIP3   OH248464   3.203   2.682   0.249
16196TIP3    H148465   3.206   2.610   0.313
16196TIP3    H248466   3.127   2.734   0.274
16197TIP3   OH248467   8.436   7.035   5.457
16197TIP3    H148468   8.495   7.034   5.382
16197TIP3    H248469   8.369   6.969   5.435
16198TIP3   OH248470   8.173   3.061   2.897
16198TIP3    H148471   8.131   3.121   2.959
16198TIP3    H248472   8.264   3.056   2.928
16199TIP3   OH248473   2.216   3.515   7.312
16199TIP3    H148474   2.240   3.481   7.226
16199TIP3    H248475   2.243   3.606   7.310
16200TIP3   OH248476   0.511   1.117   4.594
16200TIP3    H148477   0.595   1.160   4.579
16200TIP3    H248478   0.529   1.054   4.664
16201TIP3   OH248479   3.280   6.341   5.296
16201TIP3    H148480   3.241   6.254   5.308
16201TIP3    H248481   3.326   6.335   5.212
16202TIP3   OH248482   8.219   5.743   1.775
16202TIP3    H148483   8.147   5.805   1.776
16202TIP3    H248484   8.194   5.676   1.839
16203TIP3   OH248485   8.426   5.339   3.181
16203TIP3    H148486   8.337   5.365   3.205
16203TIP3    H248487   8.479   5.418   3.197
16204TIP3   OH248488   5.904   3.713   0.763
16204TIP3    H148489   5.865   3.656   0.829
16204TIP3    H248490   5.940   3.786   0.813
16205TIP3   OH248491   3.560   2.936   4.163
16205TIP3    H148492   3.632   2.973   4.112
16205TIP3    H248493   3.579   2.843   4.168
16206TIP3   OH248494   7.558   2.244   5.451
16206TIP3    H148495   7.588   2.330   5.479
16206TIP3    H248496   7.471   2.235   5.491
16207TIP3   OH248497   6.125   6.106   1.315
16207TIP3    H148498   6.186   6.166   1.272
16207TIP3    H248499   6.179   6.031   1.340
16208TIP3   OH248500   8.380   5.204   5.027
16208TIP3    H148501   8.415   5.293   5.030
16208TIP3    H248502   8.444   5.155   4.975
16209TIP3   OH248503   4.909   6.972   5.805
16209TIP3    H148504   4.830   7.026   5.812
16209TIP3    H248505   4.876   6.883   5.791
16210TIP3   OH248506   1.112   7.890   7.021
16210TIP3    H148507   1.061   7.956   6.975
16210TIP3    H248508   1.047   7.825   7.050
16211TIP3   OH248509   0.331   4.256   5.439
16211TIP3    H148510   0.274   4.329   5.462
16211TIP3    H248511   0.320   4.245   5.345
16212TIP3   OH248512   3.119   7.762   4.218
16212TIP3    H148513   3.143   7.809   4.138
16212TIP3    H248514   3.143   7.821   4.289
16213TIP3   OH248515   4.334   7.766   4.419
16213TIP3    H148516   4.241   7.766   4.397
16213TIP3    H248517   4.370   7.695   4.366
16214TIP3   OH248518   9.312   0.010   3.875
16214TIP3    H148519   9.242   0.014   3.940
16214TIP3    H248520   9.384  -0.034   3.921
16215TIP3   OH248521   8.600   6.896   7.040
16215TIP3    H148522   8.582   6.950   7.117
16215TIP3    H248523   8.584   6.954   6.965
16216TIP3   OH248524   2.960   1.546   5.495
16216TIP3    H148525   2.943   1.588   5.411
16216TIP3    H248526   2.978   1.454   5.474
16217TIP3   OH248527   7.171   2.160   2.082
16217TIP3    H148528   7.082   2.159   2.047
16217TIP3    H248529   7.209   2.241   2.048
16218TIP3   OH248530   0.597   6.394   0.697
16218TIP3    H148531   0.581   6.300   0.690
16218TIP3    H248532   0.606   6.410   0.791
16219TIP3   OH248533   6.192   1.705   0.718
16219TIP3    H148534   6.111   1.737   0.756
16219TIP3    H248535   6.165   1.653   0.642
16220TIP3   OH248536   0.377   4.129   7.132
16220TIP3    H148537   0.434   4.100   7.062
16220TIP3    H248538   0.319   4.194   7.092
16221TIP3   OH248539   6.586   8.752   0.216
16221TIP3    H148540   6.492   8.771   0.206
16221TIP3    H248541   6.592   8.658   0.201
16222TIP3   OH248542   6.253   5.661   6.341
16222TIP3    H148543   6.291   5.588   6.390
16222TIP3    H248544   6.235   5.626   6.254
16223TIP3   OH248545   1.798   0.338   4.669
16223TIP3    H148546   1.879   0.288   4.677
16223TIP3    H248547   1.827   0.429   4.659
16224TIP3   OH248548   4.829   0.042   4.430
16224TIP3    H148549   4.870   0.043   4.343
16224TIP3    H248550   4.901   0.030   4.491
16225TIP3   OH248551   0.442   5.507   1.554
16225TIP3    H148552   0.434   5.568   1.627
16225TIP3    H248553   0.366   5.449   1.561
16226TIP3   OH248554   0.316   0.417   1.657
16226TIP3    H148555   0.259   0.443   1.729
16226TIP3    H248556   0.280   0.460   1.580
16227TIP3   OH248557   3.605   8.259   0.052
16227TIP3    H148558   3.544   8.305   0.109
16227TIP3    H248559   3.683   8.314   0.050
16228TIP3   OH248560   6.647   0.097   6.280
16228TIP3    H148561   6.575   0.090   6.343
16228TIP3    H248562   6.695   0.175   6.307
16229TIP3   OH248563   3.525   2.583   0.624
16229TIP3    H148564   3.489   2.665   0.659
16229TIP3    H248565   3.557   2.536   0.702
16230TIP3   OH248566   0.999   3.799   2.342
16230TIP3    H148567   1.071   3.736   2.342
16230TIP3    H248568   1.003   3.839   2.255
16231TIP3   OH248569   9.425   4.070   7.608
16231TIP3    H148570   9.367   3.994   7.612
16231TIP3    H248571   9.405   4.120   7.687
16232TIP3   OH248572   7.799   5.912   1.587
16232TIP3    H148573   7.776   5.819   1.587
16232TIP3    H248574   7.775   5.942   1.500
16233TIP3   OH248575   4.186   4.216   5.367
16233TIP3    H148576   4.135   4.292   5.339
16233TIP3    H248577   4.266   4.254   5.405
16234TIP3   OH248578   5.512   0.484   5.000
16234TIP3    H148579   5.575   0.433   4.949
16234TIP3    H248580   5.460   0.419   5.047
16235TIP3   OH248581   7.537   8.545   3.308
16235TIP3    H148582   7.581   8.622   3.272
16235TIP3    H248583   7.524   8.487   3.232
16236TIP3   OH248584   2.369   3.818   5.468
16236TIP3    H148585   2.426   3.801   5.544
16236TIP3    H248586   2.430   3.831   5.395
16237TIP3   OH248587   3.213   6.842   1.666
16237TIP3    H148588   3.154   6.916   1.682
16237TIP3    H248589   3.296   6.883   1.642
16238TIP3   OH248590   7.323   3.455   2.057
16238TIP3    H148591   7.346   3.445   1.964
16238TIP3    H248592   7.242   3.405   2.067
16239TIP3   OH248593   7.278   7.015   1.261
16239TIP3    H148594   7.340   7.048   1.197
16239TIP3    H248595   7.233   6.943   1.216
16240TIP3   OH248596   5.547   6.241   0.286
16240TIP3    H148597   5.567   6.148   0.293
16240TIP3    H248598   5.544   6.258   0.191
16241TIP3   OH248599   7.519   8.263   1.610
16241TIP3    H148600   7.436   8.295   1.645
16241TIP3    H248601   7.501   8.249   1.517
16242TIP3   OH248602   8.920   0.675   7.218
16242TIP3    H148603   8.917   0.726   7.137
16242TIP3    H248604   8.920   0.741   7.287
16243TIP3   OH248605   1.901   7.256   1.325
16243TIP3    H148606   1.936   7.171   1.297
16243TIP3    H248607   1.878   7.243   1.417
16244TIP3   OH248608   4.321   7.803   2.321
16244TIP3    H148609   4.337   7.712   2.299
16244TIP3    H248610   4.341   7.810   2.414
16245TIP3   OH248611   7.016   7.274   0.056
16245TIP3    H148612   7.061   7.195   0.025
16245TIP3    H248613   7.020   7.334  -0.019
16246TIP3   OH248614   0.933   8.844   5.054
16246TIP3    H148615   1.007   8.903   5.068
16246TIP3    H248616   0.971   8.768   5.012
16247TIP3   OH248617   9.408   0.900   2.824
16247TIP3    H148618   9.453   0.970   2.777
16247TIP3    H248619   9.440   0.820   2.784
16248TIP3   OH248620   9.317   7.862   5.453
16248TIP3    H148621   9.361   7.927   5.507
16248TIP3    H248622   9.225   7.888   5.453
16249TIP3   OH248623   4.841   3.855   7.410
16249TIP3    H148624   4.870   3.946   7.406
16249TIP3    H248625   4.784   3.844   7.333
16250TIP3   OH248626   7.113   4.660   0.052
16250TIP3    H148627   7.149   4.706   0.127
16250TIP3    H248628   7.119   4.567   0.075
16251TIP3   OH248629   3.770   7.819   7.556
16251TIP3    H148630   3.807   7.869   7.484
16251TIP3    H248631   3.715   7.881   7.603
16252TIP3   OH248632   4.758   2.717   0.935
16252TIP3    H148633   4.810   2.637   0.936
16252TIP3    H248634   4.803   2.774   0.873
16253TIP3   OH248635   6.655   5.308   6.234
16253TIP3    H148636   6.680   5.328   6.144
16253TIP3    H248637   6.637   5.393   6.274
16254TIP3   OH248638   8.909   2.318   3.231
16254TIP3    H148639   8.867   2.276   3.306
16254TIP3    H248640   8.941   2.402   3.265
16255TIP3   OH248641   1.979   5.653   3.959
16255TIP3    H148642   1.942   5.727   3.911
16255TIP3    H248643   1.917   5.638   4.031
16256TIP3   OH248644   8.500   5.799   4.808
16256TIP3    H148645   8.419   5.748   4.803
16256TIP3    H248646   8.570   5.734   4.799
16257TIP3   OH248647   8.348   1.018   5.062
16257TIP3    H148648   8.370   0.992   4.972
16257TIP3    H248649   8.386   1.105   5.072
16258TIP3   OH248650   5.128   3.007   3.503
16258TIP3    H148651   5.182   2.998   3.581
16258TIP3    H248652   5.150   3.094   3.469
16259TIP3   OH248653   8.536   2.020   5.406
16259TIP3    H148654   8.531   1.928   5.383
16259TIP3    H248655   8.607   2.055   5.352
16260TIP3   OH248656   2.318   7.985   3.988
16260TIP3    H148657   2.317   7.905   3.935
16260TIP3    H248658   2.404   7.984   4.031
16261TIP3   OH248659   6.997   2.949   2.335
16261TIP3    H148660   7.038   2.916   2.415
16261TIP3    H248661   7.057   2.923   2.265
16262TIP3   OH248662   7.250   0.518   3.064
16262TIP3    H148663   7.223   0.427   3.051
16262TIP3    H248664   7.268   0.524   3.158
16263TIP3   OH248665   0.651   0.543   5.863
16263TIP3    H148666   0.617   0.486   5.932
16263TIP3    H248667   0.745   0.548   5.880
16264TIP3   OH248668   4.718   7.232   2.592
16264TIP3    H148669   4.748   7.317   2.623
16264TIP3    H248670   4.725   7.237   2.497
16265TIP3   OH248671   6.112   4.050   4.437
16265TIP3    H148672   6.019   4.038   4.418
16265TIP3    H248673   6.122   4.020   4.528
16266TIP3   OH248674   0.557   6.910   4.464
16266TIP3    H148675   0.571   6.818   4.444
16266TIP3    H248676   0.634   6.935   4.515
16267TIP3   OH248677   7.408   3.533   4.631
16267TIP3    H148678   7.361   3.539   4.715
16267TIP3    H248679   7.350   3.484   4.574
16268TIP3   OH248680   8.056   4.899   7.673
16268TIP3    H148681   8.098   4.900   7.759
16268TIP3    H248682   8.127   4.908   7.610
16269TIP3   OH248683   4.607   2.081   0.759
16269TIP3    H148684   4.604   2.143   0.686
16269TIP3    H248685   4.516   2.054   0.772
16270TIP3   OH248686   0.776   7.293   6.409
16270TIP3    H148687   0.827   7.215   6.387
16270TIP3    H248688   0.715   7.263   6.477
16271TIP3   OH248689   5.460   3.682   2.496
16271TIP3    H148690   5.446   3.634   2.577
16271TIP3    H248691   5.552   3.665   2.474
16272TIP3   OH248692   3.061   8.819   3.119
16272TIP3    H148693   3.055   8.897   3.174
16272TIP3    H248694   3.015   8.842   3.039
16273TIP3   OH248695   1.422   2.637   5.581
16273TIP3    H148696   1.351   2.648   5.644
16273TIP3    H248697   1.494   2.690   5.616
16274TIP3   OH248698   6.644   6.306   4.635
16274TIP3    H148699   6.683   6.352   4.561
16274TIP3    H248700   6.639   6.215   4.607
16275TIP3   OH248701   9.179   3.902   3.776
16275TIP3    H148702   9.116   3.941   3.836
16275TIP3    H248703   9.263   3.943   3.799
16276TIP3   OH248704   5.109   2.080   5.883
16276TIP3    H148705   5.176   2.078   5.951
16276TIP3    H248706   5.117   2.167   5.844
16277TIP3   OH248707   2.169   6.513   3.570
16277TIP3    H148708   2.265   6.517   3.571
16277TIP3    H248709   2.145   6.481   3.657
16278TIP3   OH248710   8.540   6.492   5.960
16278TIP3    H148711   8.534   6.531   5.873
16278TIP3    H248712   8.450   6.487   5.991
16279TIP3   OH248713   4.212   5.302   2.222
16279TIP3    H148714   4.126   5.260   2.223
16279TIP3    H248715   4.274   5.231   2.239
16280TIP3   OH248716   7.886   5.404   0.535
16280TIP3    H148717   7.901   5.311   0.522
16280TIP3    H248718   7.796   5.419   0.505
16281TIP3   OH248719   4.008   4.635   0.198
16281TIP3    H148720   3.963   4.712   0.232
16281TIP3    H248721   4.044   4.592   0.275
16282TIP3   OH248722   9.078   0.725   4.496
16282TIP3    H148723   9.109   0.752   4.583
16282TIP3    H248724   9.153   0.739   4.439
16283TIP3   OH248725   2.569   3.723   2.560
16283TIP3    H148726   2.631   3.744   2.491
16283TIP3    H248727   2.491   3.775   2.539
16284TIP3   OH248728   7.502   7.978   6.649
16284TIP3    H148729   7.427   7.929   6.684
16284TIP3    H248730   7.462   8.053   6.604
16285TIP3   OH248731   5.703   8.460   7.721
16285TIP3    H148732   5.659   8.460   7.636
16285TIP3    H248733   5.642   8.416   7.780
16286TIP3   OH248734   7.270   0.375   1.563
16286TIP3    H148735   7.309   0.291   1.584
16286TIP3    H248736   7.297   0.393   1.473
16287TIP3   OH248737   2.145   5.324   0.355
16287TIP3    H148738   2.210   5.255   0.363
16287TIP3    H248739   2.105   5.309   0.269
16288TIP3   OH248740   8.638   6.539   4.788
16288TIP3    H148741   8.694   6.617   4.792
16288TIP3    H248742   8.577   6.550   4.861
16289TIP3   OH248743   3.953   8.898   1.849
16289TIP3    H148744   3.879   8.870   1.796
16289TIP3    H248745   4.017   8.932   1.786
16290TIP3   OH248746   1.199   1.301   3.534
16290TIP3    H148747   1.158   1.373   3.581
16290TIP3    H248748   1.173   1.314   3.443
16291TIP3   OH248749   8.141   3.264   0.027
16291TIP3    H148750   8.123   3.345  -0.021
16291TIP3    H248751   8.088   3.197  -0.017
16292TIP3   OH248752   3.956   0.709   4.916
16292TIP3    H148753   4.052   0.719   4.917
16292TIP3    H248754   3.924   0.791   4.879
16293TIP3   OH248755   8.533   0.288   0.603
16293TIP3    H148756   8.526   0.383   0.608
16293TIP3    H248757   8.461   0.256   0.657
16294TIP3   OH248758   0.148   0.235   7.240
16294TIP3    H148759   0.137   0.286   7.159
16294TIP3    H248760   0.059   0.212   7.266
16295TIP3   OH248761   9.459   8.559   4.444
16295TIP3    H148762   9.435   8.542   4.535
16295TIP3    H248763   9.376   8.574   4.400
16296TIP3   OH248764   3.215   0.672   5.211
16296TIP3    H148765   3.259   0.654   5.294
16296TIP3    H248766   3.285   0.699   5.152
16297TIP3   OH248767   8.963   7.821   6.523
16297TIP3    H148768   8.883   7.823   6.472
16297TIP3    H248769   8.960   7.901   6.576
16298TIP3   OH248770   3.984   6.540   4.301
16298TIP3    H148771   3.899   6.500   4.283
16298TIP3    H248772   4.015   6.571   4.216
16299TIP3   OH248773   2.444   5.988   5.331
16299TIP3    H148774   2.457   5.997   5.425
16299TIP3    H248775   2.529   5.962   5.297
16300TIP3   OH248776   9.137   7.794   4.001
16300TIP3    H148777   9.153   7.756   4.087
16300TIP3    H248778   9.156   7.887   4.012
16301TIP3   OH248779   3.427   3.513   5.736
16301TIP3    H148780   3.374   3.586   5.766
16301TIP3    H248781   3.365   3.441   5.724
16302TIP3   OH248782   1.422   4.911   6.571
16302TIP3    H148783   1.391   4.957   6.649
16302TIP3    H248784   1.429   4.820   6.598
16303TIP3   OH248785   4.389   4.119   6.073
16303TIP3    H148786   4.457   4.184   6.091
16303TIP3    H248787   4.365   4.085   6.159
16304TIP3   OH248788   7.330   1.449   6.798
16304TIP3    H148789   7.319   1.459   6.893
16304TIP3    H248790   7.415   1.406   6.788
16305TIP3   OH248791   1.924   1.592   5.966
16305TIP3    H148792   1.888   1.530   5.903
16305TIP3    H248793   1.847   1.627   6.011
16306TIP3   OH248794   5.964   2.619   7.694
16306TIP3    H148795   5.974   2.566   7.615
16306TIP3    H248796   5.924   2.700   7.663
16307TIP3   OH248797   3.222   8.812   6.017
16307TIP3    H148798   3.307   8.790   6.056
16307TIP3    H248799   3.244   8.860   5.938
16308TIP3   OH248800   4.666   6.033   4.390
16308TIP3    H148801   4.742   6.054   4.445
16308TIP3    H248802   4.619   6.116   4.381
16309TIP3   OH248803   5.544   6.128   4.957
16309TIP3    H148804   5.576   6.218   4.957
16309TIP3    H248805   5.473   6.127   5.022
16310TIP3   OH248806   0.164   4.359   6.234
16310TIP3    H148807   0.214   4.426   6.280
16310TIP3    H248808   0.078   4.398   6.220
16311TIP3   OH248809   9.107   2.874   1.145
16311TIP3    H148810   9.012   2.877   1.158
16311TIP3    H248811   9.138   2.811   1.209
16312TIP3   OH248812   1.951   1.969   0.232
16312TIP3    H148813   1.894   2.004   0.163
16312TIP3    H248814   2.012   2.040   0.251
16313TIP3   OH248815   4.257   0.055   2.020
16313TIP3    H148816   4.310  -0.025   2.013
16313TIP3    H248817   4.229   0.057   2.111
16314TIP3   OH248818   4.079   6.920   0.794
16314TIP3    H148819   4.133   6.945   0.719
16314TIP3    H248820   4.123   6.843   0.831
16315TIP3   OH248821   4.587   6.674   6.423
16315TIP3    H148822   4.511   6.648   6.371
16315TIP3    H248823   4.654   6.698   6.359
16316TIP3   OH248824   7.967   4.268   2.568
16316TIP3    H148825   8.030   4.339   2.576
16316TIP3    H248826   7.901   4.300   2.507
16317TIP3   OH248827   5.720   7.197   4.039
16317TIP3    H148828   5.714   7.158   3.952
16317TIP3    H248829   5.725   7.123   4.099
16318TIP3   OH248830   5.869   3.459   7.327
16318TIP3    H148831   5.872   3.493   7.416
16318TIP3    H248832   5.956   3.422   7.312
16319TIP3   OH248833   7.795   8.429   0.298
16319TIP3    H148834   7.729   8.498   0.290
16319TIP3    H248835   7.870   8.463   0.250
16320TIP3   OH248836   9.502   3.778   2.352
16320TIP3    H148837   9.535   3.806   2.437
16320TIP3    H248838   9.566   3.715   2.320
16321TIP3   OH248839   0.609   2.776   7.664
16321TIP3    H148840   0.583   2.854   7.615
16321TIP3    H248841   0.537   2.761   7.725
16322TIP3   OH248842   2.999   4.876   7.035
16322TIP3    H148843   2.946   4.902   7.110
16322TIP3    H248844   3.073   4.828   7.074
16323TIP3   OH248845   6.576   5.295   4.274
16323TIP3    H148846   6.486   5.327   4.286
16323TIP3    H248847   6.571   5.237   4.198
16324TIP3   OH248848   6.104   5.882   7.671
16324TIP3    H148849   6.095   5.901   7.578
16324TIP3    H248850   6.024   5.835   7.694
16325TIP3   OH248851   2.893   5.428   5.217
16325TIP3    H148852   2.835   5.492   5.257
16325TIP3    H248853   2.905   5.458   5.127
16326TIP3   OH248854   1.086   7.613   6.778
16326TIP3    H148855   1.067   7.531   6.733
16326TIP3    H248856   1.038   7.679   6.728
16327TIP3   OH248857   8.834   4.870   2.726
16327TIP3    H148858   8.794   4.869   2.639
16327TIP3    H248859   8.773   4.919   2.780
16328TIP3   OH248860   3.659   2.277   0.793
16328TIP3    H148861   3.670   2.234   0.708
16328TIP3    H248862   3.668   2.371   0.774
16329TIP3   OH248863   2.411   7.705   1.655
16329TIP3    H148864   2.471   7.662   1.715
16329TIP3    H248865   2.397   7.642   1.585
16330TIP3   OH248866   2.622   8.763   3.291
16330TIP3    H148867   2.607   8.854   3.266
16330TIP3    H248868   2.614   8.714   3.209
16331TIP3   OH248869   9.076   7.174   1.165
16331TIP3    H148870   9.128   7.249   1.194
16331TIP3    H248871   8.995   7.212   1.133
16332TIP3   OH248872   5.330   3.483   6.119
16332TIP3    H148873   5.388   3.539   6.068
16332TIP3    H248874   5.253   3.537   6.135
16333TIP3   OH248875   5.909   2.809   2.522
16333TIP3    H148876   5.914   2.876   2.589
16333TIP3    H248877   5.817   2.805   2.499
16334TIP3   OH248878   4.980   7.643   1.013
16334TIP3    H148879   4.971   7.648   0.918
16334TIP3    H248880   4.890   7.642   1.045
16335TIP3   OH248881   8.823   7.451   2.753
16335TIP3    H148882   8.858   7.518   2.695
16335TIP3    H248883   8.740   7.426   2.713
16336TIP3   OH248884   4.718   6.480   0.663
16336TIP3    H148885   4.776   6.545   0.702
16336TIP3    H248886   4.682   6.431   0.737
16337TIP3   OH248887   5.306   1.988   3.898
16337TIP3    H148888   5.230   1.984   3.956
16337TIP3    H248889   5.382   1.989   3.957
16338TIP3   OH248890   8.684   4.328   3.507
16338TIP3    H148891   8.684   4.251   3.451
16338TIP3    H248892   8.593   4.356   3.510
16339TIP3   OH248893   5.394   6.619   1.309
16339TIP3    H148894   5.327   6.556   1.335
16339TIP3    H248895   5.441   6.639   1.390
16340TIP3   OH248896   7.201   7.455   7.182
16340TIP3    H148897   7.108   7.473   7.168
16340TIP3    H248898   7.211   7.454   7.277
16341TIP3   OH248899   3.806   6.531   5.496
16341TIP3    H148900   3.734   6.488   5.449
16341TIP3    H248901   3.822   6.612   5.447
16342TIP3   OH248902   2.710   5.251   3.286
16342TIP3    H148903   2.785   5.223   3.338
16342TIP3    H248904   2.647   5.282   3.350
16343TIP3   OH248905   7.386   1.240   0.963
16343TIP3    H148906   7.467   1.232   0.913
16343TIP3    H248907   7.411   1.220   1.053
16344TIP3   OH248908   2.963   8.318   5.212
16344TIP3    H148909   2.876   8.293   5.244
16344TIP3    H248910   2.947   8.363   5.130
16345TIP3   OH248911   4.946   3.004   5.844
16345TIP3    H148912   4.949   2.973   5.934
16345TIP3    H248913   4.854   2.996   5.819
16346TIP3   OH248914   6.074   1.042   4.652
16346TIP3    H148915   6.139   1.015   4.717
16346TIP3    H248916   6.015   1.100   4.700
16347TIP3   OH248917   4.869   5.104   5.684
16347TIP3    H148918   4.773   5.096   5.683
16347TIP3    H248919   4.891   5.118   5.776
16348TIP3   OH248920   6.979   1.410   0.482
16348TIP3    H148921   6.919   1.335   0.480
16348TIP3    H248922   7.001   1.421   0.574
16349TIP3   OH248923   5.428   1.230   3.945
16349TIP3    H148924   5.367   1.213   3.874
16349TIP3    H248925   5.496   1.163   3.936
16350TIP3   OH248926   6.478   0.521   1.123
16350TIP3    H148927   6.542   0.477   1.178
16350TIP3    H248928   6.531   0.569   1.059
16351TIP3   OH248929   1.003   0.896   1.885
16351TIP3    H148930   1.012   0.951   1.807
16351TIP3    H248931   1.083   0.843   1.887
16352TIP3   OH248932   6.511   5.274   7.162
16352TIP3    H148933   6.441   5.336   7.181
16352TIP3    H248934   6.535   5.237   7.247
16353TIP3   OH248935   0.036   3.795   4.749
16353TIP3    H148936   0.051   3.740   4.826
16353TIP3    H248937  -0.058   3.814   4.751
16354TIP3   OH248938   4.202   1.649   0.626
16354TIP3    H148939   4.272   1.604   0.578
16354TIP3    H248940   4.249   1.705   0.689
16355TIP3   OH248941   5.023   2.320   4.061
16355TIP3    H148942   4.977   2.241   4.090
16355TIP3    H248943   4.954   2.377   4.027
16356TIP3   OH248944   8.998   6.506   1.475
16356TIP3    H148945   8.976   6.450   1.549
16356TIP3    H248946   9.081   6.547   1.499
16357TIP3   OH248947   8.962   3.818   2.787
16357TIP3    H148948   8.970   3.744   2.727
16357TIP3    H248949   8.989   3.783   2.872
16358TIP3   OH248950   7.715   0.576   7.305
16358TIP3    H148951   7.644   0.587   7.243
16358TIP3    H248952   7.794   0.594   7.254
16359TIP3   OH248953   0.497   3.587   1.466
16359TIP3    H148954   0.404   3.566   1.458
16359TIP3    H248955   0.515   3.646   1.393
16360TIP3   OH248956   3.690   6.917   1.234
16360TIP3    H148957   3.607   6.909   1.187
16360TIP3    H248958   3.666   6.957   1.318
16361TIP3   OH248959   6.174   3.733   5.927
16361TIP3    H148960   6.174   3.826   5.902
16361TIP3    H248961   6.192   3.733   6.021
16362TIP3   OH248962   5.242   5.145   4.812
16362TIP3    H148963   5.200   5.226   4.783
16362TIP3    H248964   5.169   5.087   4.836
16363TIP3   OH248965   2.665   5.957   0.969
16363TIP3    H148966   2.719   6.034   0.984
16363TIP3    H248967   2.612   5.949   1.049
16364TIP3   OH248968   8.101   3.428   4.885
16364TIP3    H148969   8.148   3.448   4.965
16364TIP3    H248970   8.032   3.495   4.880
16365TIP3   OH248971   2.784   2.687   5.864
16365TIP3    H148972   2.819   2.713   5.779
16365TIP3    H248973   2.715   2.623   5.843
16366TIP3   OH248974   7.602   8.573   4.558
16366TIP3    H148975   7.634   8.616   4.479
16366TIP3    H248976   7.511   8.599   4.565
16367TIP3   OH248977   2.756   8.718   2.754
16367TIP3    H148978   2.844   8.726   2.791
16367TIP3    H248979   2.736   8.625   2.759
16368TIP3   OH248980   2.614   5.156   6.201
16368TIP3    H148981   2.617   5.094   6.274
16368TIP3    H248982   2.549   5.120   6.141
16369TIP3   OH248983   6.625   4.185   6.329
16369TIP3    H148984   6.591   4.244   6.395
16369TIP3    H248985   6.594   4.098   6.356
16370TIP3   OH248986   2.014   5.325   0.867
16370TIP3    H148987   2.010   5.297   0.775
16370TIP3    H248988   1.956   5.266   0.913
16371TIP3   OH248989   4.018   6.702   7.457
16371TIP3    H148990   4.070   6.625   7.432
16371TIP3    H248991   4.074   6.747   7.521
16372TIP3   OH248992   7.700   8.618   1.020
16372TIP3    H148993   7.670   8.615   0.929
16372TIP3    H248994   7.627   8.583   1.071
16373TIP3   OH248995   3.453   1.014   5.884
16373TIP3    H148996   3.446   1.100   5.844
16373TIP3    H248997   3.540   0.983   5.860
16374TIP3   OH248998   8.021   4.199   4.606
16374TIP3    H148999   8.053   4.177   4.518
16374TIP3    H249000   8.007   4.114   4.648
16375TIP3   OH249001   5.864   1.047   4.344
16375TIP3    H149002   5.851   1.122   4.286
16375TIP3    H249003   5.856   0.971   4.286
16376TIP3   OH249004   3.020   3.498   3.802
16376TIP3    H149005   3.084   3.558   3.762
16376TIP3    H249006   3.010   3.428   3.737
16377TIP3   OH249007   3.080   5.757   0.887
16377TIP3    H149008   3.170   5.735   0.914
16377TIP3    H249009   3.070   5.715   0.802
16378TIP3   OH249010   6.234   5.664   4.438
16378TIP3    H149011   6.276   5.701   4.516
16378TIP3    H249012   6.173   5.599   4.473
16379TIP3   OH249013   2.658   6.963   6.310
16379TIP3    H149014   2.720   6.941   6.241
16379TIP3    H249015   2.631   7.053   6.291
16380TIP3   OH249016   7.606   1.983   0.881
16380TIP3    H149017   7.682   1.924   0.880
16380TIP3    H249018   7.581   1.989   0.973
16381TIP3   OH249019   6.395   3.144   4.641
16381TIP3    H149020   6.472   3.118   4.692
16381TIP3    H249021   6.430   3.195   4.568
16382TIP3   OH249022   8.187   6.114   5.021
16382TIP3    H149023   8.129   6.167   5.076
16382TIP3    H249024   8.182   6.026   5.059
16383TIP3   OH249025   6.765   7.543   1.551
16383TIP3    H149026   6.759   7.475   1.484
16383TIP3    H249027   6.847   7.590   1.530
16384TIP3   OH249028   3.286   3.353   2.763
16384TIP3    H149029   3.281   3.448   2.755
16384TIP3    H249030   3.372   3.329   2.729
16385TIP3   OH249031   7.908   4.566   7.108
16385TIP3    H149032   7.939   4.586   7.019
16385TIP3    H249033   7.876   4.650   7.141
16386TIP3   OH249034   9.481   1.066   7.596
16386TIP3    H149035   9.487   1.039   7.504
16386TIP3    H249036   9.402   1.120   7.601
16387TIP3   OH249037   7.753   6.230   7.037
16387TIP3    H149038   7.660   6.253   7.029
16387TIP3    H249039   7.752   6.141   7.071
16388TIP3   OH249040   4.589   3.144   6.927
16388TIP3    H149041   4.559   3.198   6.854
16388TIP3    H249042   4.668   3.101   6.894
16389TIP3   OH249043   5.061   8.949   0.775
16389TIP3    H149044   5.108   8.974   0.855
16389TIP3    H249045   5.129   8.940   0.709
16390TIP3   OH249046   3.338   6.783   2.941
16390TIP3    H149047   3.351   6.876   2.955
16390TIP3    H249048   3.304   6.777   2.851
16391TIP3   OH249049   5.026   4.783   3.383
16391TIP3    H149050   5.015   4.825   3.298
16391TIP3    H249051   4.938   4.753   3.407
16392TIP3   OH249052   5.359   3.344   5.283
16392TIP3    H149053   5.311   3.278   5.333
16392TIP3    H249054   5.348   3.425   5.334
16393TIP3   OH249055   4.300   7.699   6.611
16393TIP3    H149056   4.204   7.702   6.616
16393TIP3    H249057   4.329   7.778   6.655
16394TIP3   OH249058   4.036   6.941   0.101
16394TIP3    H149059   4.008   6.912   0.015
16394TIP3    H249060   3.970   7.005   0.128
16395TIP3   OH249061   1.774   3.257   7.156
16395TIP3    H149062   1.849   3.232   7.211
16395TIP3    H249063   1.794   3.347   7.128
16396TIP3   OH249064   4.468   4.009   6.819
16396TIP3    H149065   4.490   4.083   6.762
16396TIP3    H249066   4.440   4.050   6.901
16397TIP3   OH249067   8.933   1.479   7.669
16397TIP3    H149068   8.942   1.525   7.585
16397TIP3    H249069   8.933   1.386   7.645
16398TIP3   OH249070   1.835   6.607   2.871
16398TIP3    H149071   1.900   6.675   2.886
16398TIP3    H249072   1.832   6.559   2.954
16399TIP3   OH249073   3.470   7.254   1.195
16399TIP3    H149074   3.546   7.309   1.175
16399TIP3    H249075   3.480   7.231   1.288
16400TIP3   OH249076   9.400   1.395   7.483
16400TIP3    H149077   9.382   1.434   7.569
16400TIP3    H249078   9.314   1.378   7.446
16401TIP3   OH249079   1.623   4.030   6.669
16401TIP3    H149080   1.604   3.937   6.679
16401TIP3    H249081   1.628   4.043   6.574
16402TIP3   OH249082   1.435   3.975   1.792
16402TIP3    H149083   1.442   3.964   1.697
16402TIP3    H249084   1.429   4.070   1.804
16403TIP3   OH249085   8.846   1.212   6.565
16403TIP3    H149086   8.786   1.266   6.617
16403TIP3    H249087   8.928   1.212   6.614
16404TIP3   OH249088   2.133   6.079   6.151
16404TIP3    H149089   2.086   6.088   6.068
16404TIP3    H249090   2.072   6.113   6.216
16405TIP3   OH249091   7.723   1.883   1.633
16405TIP3    H149092   7.658   1.912   1.698
16405TIP3    H249093   7.765   1.808   1.674
16406TIP3   OH249094   6.067   3.784   2.312
16406TIP3    H149095   6.126   3.711   2.291
16406TIP3    H249096   6.016   3.797   2.232
16407TIP3   OH249097   9.257   2.813   2.124
16407TIP3    H149098   9.351   2.818   2.105
16407TIP3    H249099   9.218   2.880   2.068
16408TIP3   OH249100   7.586   3.532   5.370
16408TIP3    H149101   7.642   3.456   5.388
16408TIP3    H249102   7.498   3.500   5.386
16409TIP3   OH249103   5.702   0.301   6.359
16409TIP3    H149104   5.702   0.299   6.263
16409TIP3    H249105   5.736   0.388   6.380
16410TIP3   OH249106   7.870   0.561   0.371
16410TIP3    H149107   7.857   0.641   0.320
16410TIP3    H249108   7.790   0.552   0.422
16411TIP3   OH249109   7.926   7.658   4.011
16411TIP3    H149110   7.848   7.623   4.054
16411TIP3    H249111   7.980   7.690   4.083
16412TIP3   OH249112   2.748   6.377   3.375
16412TIP3    H149113   2.760   6.423   3.458
16412TIP3    H249114   2.706   6.442   3.318
16413TIP3   OH249115   7.431   7.759   6.415
16413TIP3    H149116   7.518   7.774   6.451
16413TIP3    H249117   7.436   7.792   6.325
16414TIP3   OH249118   0.343   7.642   6.777
16414TIP3    H149119   0.358   7.612   6.687
16414TIP3    H249120   0.390   7.579   6.831
16415TIP3   OH249121   0.809   4.220   4.069
16415TIP3    H149122   0.787   4.127   4.070
16415TIP3    H249123   0.772   4.252   3.987
16416TIP3   OH249124   0.680   3.479   5.671
16416TIP3    H149125   0.596   3.493   5.628
16416TIP3    H249126   0.720   3.406   5.624
16417TIP3   OH249127   1.990   4.363   4.393
16417TIP3    H149128   1.961   4.346   4.303
16417TIP3    H249129   1.918   4.413   4.432
16418TIP3   OH249130   9.340   1.871   6.072
16418TIP3    H149131   9.299   1.793   6.034
16418TIP3    H249132   9.431   1.867   6.044
16419TIP3   OH249133   1.692   7.796   4.341
16419TIP3    H149134   1.671   7.874   4.289
16419TIP3    H249135   1.726   7.830   4.423
16420TIP3   OH249136   3.230   0.148   3.837
16420TIP3    H149137   3.145   0.139   3.879
16420TIP3    H249138   3.247   0.063   3.798
16421TIP3   OH249139   0.465   0.030   1.168
16421TIP3    H149140   0.500   0.039   1.256
16421TIP3    H249141   0.430   0.116   1.146
16422TIP3   OH249142   0.088   2.170   5.006
16422TIP3    H149143  -0.007   2.179   5.005
16422TIP3    H249144   0.116   2.221   5.082
16423TIP3   OH249145   8.716   1.846   4.769
16423TIP3    H149146   8.701   1.812   4.681
16423TIP3    H249147   8.793   1.902   4.761
16424TIP3   OH249148   8.355   5.381   2.863
16424TIP3    H149149   8.353   5.473   2.888
16424TIP3    H249150   8.427   5.375   2.800
16425TIP3   OH249151   1.094   6.149   1.530
16425TIP3    H149152   1.154   6.074   1.528
16425TIP3    H249153   1.118   6.200   1.452
16426TIP3   OH249154   8.081   4.230   0.839
16426TIP3    H149155   8.069   4.247   0.745
16426TIP3    H249156   8.010   4.169   0.861
16427TIP3   OH249157   9.196   0.153   1.943
16427TIP3    H149158   9.232   0.235   1.977
16427TIP3    H249159   9.211   0.157   1.849
16428TIP3   OH249160   2.117   1.087   1.819
16428TIP3    H149161   2.125   1.142   1.897
16428TIP3    H249162   2.120   0.998   1.852
16429TIP3   OH249163   9.252   1.161   0.994
16429TIP3    H149164   9.207   1.155   1.078
16429TIP3    H249165   9.297   1.246   0.996
16430TIP3   OH249166   1.566   4.028   7.620
16430TIP3    H149167   1.515   3.990   7.692
16430TIP3    H249168   1.499   4.055   7.556
16431TIP3   OH249169   5.249   7.212   6.368
16431TIP3    H149170   5.330   7.197   6.417
16431TIP3    H249171   5.276   7.264   6.293
16432TIP3   OH249172   8.629   5.962   0.886
16432TIP3    H149173   8.605   6.055   0.889
16432TIP3    H249174   8.560   5.918   0.934
16433TIP3   OH249175   1.022   5.696   5.943
16433TIP3    H149176   0.931   5.675   5.922
16433TIP3    H249177   1.031   5.675   6.036
16434TIP3   OH249178   2.717   5.105   0.873
16434TIP3    H149179   2.750   5.084   0.786
16434TIP3    H249180   2.790   5.086   0.932
16435TIP3   OH249181   5.151   5.649   4.238
16435TIP3    H149182   5.122   5.715   4.301
16435TIP3    H249183   5.156   5.568   4.288
16436TIP3   OH249184   9.276   3.316   6.752
16436TIP3    H149185   9.357   3.331   6.705
16436TIP3    H249186   9.280   3.224   6.779
16437TIP3   OH249187   3.484   2.781   4.906
16437TIP3    H149188   3.574   2.773   4.877
16437TIP3    H249189   3.447   2.850   4.850
16438TIP3   OH249190   2.893   7.602   6.003
16438TIP3    H149191   2.959   7.610   6.071
16438TIP3    H249192   2.940   7.565   5.928
16439TIP3   OH249193   7.226   5.390   5.077
16439TIP3    H149194   7.267   5.474   5.099
16439TIP3    H249195   7.208   5.350   5.162
16440TIP3   OH249196   5.906   5.373   3.591
16440TIP3    H149197   5.914   5.298   3.650
16440TIP3    H249198   5.921   5.337   3.503
16441TIP3   OH249199   3.373   5.241   0.114
16441TIP3    H149200   3.344   5.244   0.205
16441TIP3    H249201   3.352   5.328   0.079
16442TIP3   OH249202   8.436   7.071   6.521
16442TIP3    H149203   8.461   7.001   6.461
16442TIP3    H249204   8.487   7.147   6.493
16443TIP3   OH249205   3.985   3.743   0.271
16443TIP3    H149206   3.935   3.768   0.193
16443TIP3    H249207   4.016   3.655   0.252
16444TIP3   OH249208   2.264   4.586   6.977
16444TIP3    H149209   2.226   4.511   7.023
16444TIP3    H249210   2.196   4.613   6.915
16445TIP3   OH249211   1.562   5.122   1.492
16445TIP3    H149212   1.584   5.186   1.560
16445TIP3    H249213   1.578   5.168   1.410
16446TIP3   OH249214   5.412   2.609   1.356
16446TIP3    H149215   5.372   2.585   1.273
16446TIP3    H249216   5.341   2.602   1.420
16447TIP3   OH249217   3.555   1.916   0.420
16447TIP3    H149218   3.616   1.852   0.459
16447TIP3    H249219   3.492   1.933   0.490
16448TIP3   OH249220   7.600   2.551   0.575
16448TIP3    H149221   7.525   2.509   0.618
16448TIP3    H249222   7.655   2.581   0.648
16449TIP3   OH249223   5.062   1.108   5.209
16449TIP3    H149224   5.028   1.108   5.299
16449TIP3    H249225   5.061   1.200   5.183
16450TIP3   OH249226   2.146   1.257   3.440
16450TIP3    H149227   2.165   1.163   3.448
16450TIP3    H249228   2.096   1.278   3.519
16451TIP3   OH249229   6.441   7.451   6.397
16451TIP3    H149230   6.433   7.439   6.302
16451TIP3    H249231   6.535   7.465   6.411
16452TIP3   OH249232   5.248   2.933   5.099
16452TIP3    H149233   5.210   3.014   5.064
16452TIP3    H249234   5.309   2.905   5.031
16453TIP3   OH249235   3.986   5.502   1.680
16453TIP3    H149236   4.053   5.495   1.611
16453TIP3    H249237   3.953   5.591   1.672
16454TIP3   OH249238   5.294   7.837   3.945
16454TIP3    H149239   5.377   7.818   3.989
16454TIP3    H249240   5.235   7.768   3.974
16455TIP3   OH249241   0.680   1.387   6.794
16455TIP3    H149242   0.623   1.432   6.856
16455TIP3    H249243   0.769   1.408   6.823
16456TIP3   OH249244   0.952   5.651   6.621
16456TIP3    H149245   0.950   5.559   6.649
16456TIP3    H249246   0.921   5.699   6.698
16457TIP3   OH249247   1.278   1.234   2.418
16457TIP3    H149248   1.244   1.318   2.448
16457TIP3    H249249   1.372   1.238   2.436
16458TIP3   OH249250   4.059   6.942   2.458
16458TIP3    H149251   4.093   7.017   2.408
16458TIP3    H249252   4.071   6.967   2.549
16459TIP3   OH249253   6.311   7.263   6.725
16459TIP3    H149254   6.291   7.329   6.658
16459TIP3    H249255   6.276   7.301   6.806
16460TIP3   OH249256   1.748   6.172   1.919
16460TIP3    H149257   1.745   6.124   2.002
16460TIP3    H249258   1.775   6.260   1.944
16461TIP3   OH249259   7.203   0.978   4.442
16461TIP3    H149260   7.273   0.935   4.492
16461TIP3    H249261   7.250   1.035   4.381
16462TIP3   OH249262   3.978   0.375   2.093
16462TIP3    H149263   4.014   0.383   2.182
16462TIP3    H249264   3.890   0.411   2.100
16463TIP3   OH249265   0.161   1.039   1.206
16463TIP3    H149266   0.070   1.053   1.231
16463TIP3    H249267   0.212   1.078   1.277
16464TIP3   OH249268   8.978   6.107   1.563
16464TIP3    H149269   8.935   6.032   1.603
16464TIP3    H249270   9.071   6.093   1.581
16465TIP3   OH249271   3.366   7.551   4.782
16465TIP3    H149272   3.381   7.473   4.835
16465TIP3    H249273   3.355   7.622   4.845
16466TIP3   OH249274   0.661   8.582   5.562
16466TIP3    H149275   0.669   8.581   5.657
16466TIP3    H249276   0.599   8.511   5.542
16467TIP3   OH249277   3.044   7.929   1.955
16467TIP3    H149278   3.033   7.851   1.900
16467TIP3    H249279   2.961   7.975   1.947
16468TIP3   OH249280   3.252   5.329   3.739
16468TIP3    H149281   3.188   5.272   3.698
16468TIP3    H249282   3.328   5.326   3.680
16469TIP3   OH249283   8.024   8.774   6.817
16469TIP3    H149284   8.033   8.741   6.728
16469TIP3    H249285   7.959   8.844   6.811
16470TIP3   OH249286   5.131   5.092   3.986
16470TIP3    H149287   5.130   5.176   4.031
16470TIP3    H249288   5.223   5.079   3.961
16471TIP3   OH249289   3.311   3.765   6.522
16471TIP3    H149290   3.283   3.686   6.476
16471TIP3    H249291   3.229   3.810   6.543
16472TIP3   OH249292   6.341   7.155   7.797
16472TIP3    H149293   6.296   7.217   7.739
16472TIP3    H249294   6.351   7.202   7.880
16473TIP3   OH249295   6.505   1.598   4.736
16473TIP3    H149296   6.474   1.535   4.671
16473TIP3    H249297   6.544   1.544   4.805
16474TIP3   OH249298   6.633   1.090   0.932
16474TIP3    H149299   6.588   1.046   1.003
16474TIP3    H249300   6.612   1.039   0.854
16475TIP3   OH249301   0.161   6.786   4.216
16475TIP3    H149302   0.097   6.857   4.212
16475TIP3    H249303   0.246   6.830   4.210
16476TIP3   OH249304   0.355   8.426   3.095
16476TIP3    H149305   0.434   8.417   3.042
16476TIP3    H249306   0.306   8.498   3.053
16477TIP3   OH249307   3.328   8.987   1.092
16477TIP3    H149308   3.390   9.058   1.112
16477TIP3    H249309   3.287   9.014   1.010
16478TIP3   OH249310   1.546   6.231   1.709
16478TIP3    H149311   1.465   6.207   1.754
16478TIP3    H249312   1.613   6.229   1.777
16479TIP3   OH249313   0.215   5.247   7.190
16479TIP3    H149314   0.243   5.181   7.126
16479TIP3    H249315   0.279   5.317   7.181
16480TIP3   OH249316   1.011   1.352   2.000
16480TIP3    H149317   1.072   1.300   2.052
16480TIP3    H249318   0.944   1.289   1.973
16481TIP3   OH249319   3.146   3.157   2.251
16481TIP3    H149320   3.226   3.194   2.213
16481TIP3    H249321   3.158   3.167   2.346
16482TIP3   OH249322   5.513   8.425   6.991
16482TIP3    H149323   5.542   8.336   7.011
16482TIP3    H249324   5.566   8.481   7.047
16483TIP3   OH249325   7.101   3.204   1.698
16483TIP3    H149326   7.007   3.218   1.691
16483TIP3    H249327   7.134   3.218   1.609
16484TIP3   OH249328   5.493   6.393   5.553
16484TIP3    H149329   5.460   6.448   5.624
16484TIP3    H249330   5.584   6.376   5.576
16485TIP3   OH249331   8.236   3.380   6.962
16485TIP3    H149332   8.158   3.376   6.907
16485TIP3    H249333   8.287   3.303   6.937
16486TIP3   OH249334   1.357   4.705   7.673
16486TIP3    H149335   1.452   4.703   7.665
16486TIP3    H249336   1.327   4.624   7.631
16487TIP3   OH249337   7.123   3.430   5.125
16487TIP3    H149338   7.081   3.453   5.208
16487TIP3    H249339   7.205   3.387   5.151
16488TIP3   OH249340   7.021   6.745   6.121
16488TIP3    H149341   7.062   6.815   6.071
16488TIP3    H249342   7.021   6.670   6.061
16489TIP3   OH249343   2.622   0.279   7.585
16489TIP3    H149344   2.620   0.287   7.489
16489TIP3    H249345   2.714   0.259   7.605
16490TIP3   OH249346   2.877   2.041   4.925
16490TIP3    H149347   2.847   2.081   5.006
16490TIP3    H249348   2.835   2.093   4.856
16491TIP3   OH249349   1.274   4.713   2.618
16491TIP3    H149350   1.327   4.633   2.613
16491TIP3    H249351   1.184   4.683   2.602
16492TIP3   OH249352   7.766   4.157   5.275
16492TIP3    H149353   7.803   4.228   5.222
16492TIP3    H249354   7.675   4.184   5.290
16493TIP3   OH249355   6.037   5.031   2.826
16493TIP3    H149356   6.056   4.952   2.775
16493TIP3    H249357   6.079   5.102   2.777
16494TIP3   OH249358   8.608   7.076   6.845
16494TIP3    H149359   8.631   7.064   6.752
16494TIP3    H249360   8.524   7.122   6.843
16495TIP3   OH249361   3.731   3.651   1.453
16495TIP3    H149362   3.659   3.638   1.391
16495TIP3    H249363   3.777   3.567   1.454
16496TIP3   OH249364   6.353   6.104   1.913
16496TIP3    H149365   6.304   6.069   1.988
16496TIP3    H249366   6.438   6.061   1.918
16497TIP3   OH249367   6.720   5.647   6.362
16497TIP3    H149368   6.693   5.576   6.419
16497TIP3    H249369   6.724   5.724   6.420
16498TIP3   OH249370   4.650   1.245   0.460
16498TIP3    H149371   4.641   1.329   0.416
16498TIP3    H249372   4.569   1.198   0.441
16499TIP3   OH249373   3.512   4.603   4.479
16499TIP3    H149374   3.536   4.695   4.472
16499TIP3    H249375   3.507   4.587   4.573
16500TIP3   OH249376   2.049   1.055   7.469
16500TIP3    H149377   2.094   1.121   7.416
16500TIP3    H249378   2.041   0.979   7.411
16501TIP3   OH249379   9.210   2.280   2.302
16501TIP3    H149380   9.265   2.203   2.313
16501TIP3    H249381   9.155   2.260   2.227
16502TIP3   OH249382   3.256   4.940   6.567
16502TIP3    H149383   3.187   4.896   6.616
16502TIP3    H249384   3.229   5.032   6.564
16503TIP3   OH249385   5.536   8.177   5.234
16503TIP3    H149386   5.547   8.142   5.146
16503TIP3    H249387   5.442   8.169   5.252
16504TIP3   OH249388   2.503   1.428   6.278
16504TIP3    H149389   2.422   1.389   6.246
16504TIP3    H249390   2.475   1.489   6.347
16505TIP3   OH249391   0.439   2.584   6.994
16505TIP3    H149392   0.383   2.657   6.969
16505TIP3    H249393   0.387   2.534   7.057
16506TIP3   OH249394   7.386   2.348   7.424
16506TIP3    H149395   7.396   2.310   7.511
16506TIP3    H249396   7.300   2.318   7.394
16507TIP3   OH249397   3.197   0.651   4.231
16507TIP3    H149398   3.193   0.573   4.175
16507TIP3    H249399   3.159   0.622   4.314
16508TIP3   OH249400   2.396   8.287   0.559
16508TIP3    H149401   2.474   8.300   0.613
16508TIP3    H249402   2.388   8.369   0.509
16509TIP3   OH249403   0.468   9.003   3.848
16509TIP3    H149404   0.420   8.923   3.867
16509TIP3    H249405   0.513   9.024   3.930
16510TIP3   OH249406   6.864   5.685   4.527
16510TIP3    H149407   6.839   5.633   4.603
16510TIP3    H249408   6.862   5.623   4.454
16511TIP3   OH249409   5.919   3.313   4.565
16511TIP3    H149410   5.882   3.365   4.637
16511TIP3    H249411   5.866   3.338   4.489
16512TIP3   OH249412   1.098   4.645   4.401
16512TIP3    H149413   1.077   4.729   4.441
16512TIP3    H249414   1.025   4.628   4.342
16513TIP3   OH249415   0.622   5.853   0.096
16513TIP3    H149416   0.534   5.881   0.070
16513TIP3    H249417   0.620   5.758   0.088
16514TIP3   OH249418   9.222   6.507   4.368
16514TIP3    H149419   9.169   6.454   4.428
16514TIP3    H249420   9.312   6.484   4.388
16515TIP3   OH249421   7.535   1.515   2.060
16515TIP3    H149422   7.473   1.468   2.116
16515TIP3    H249423   7.484   1.588   2.024
16516TIP3   OH249424   3.739   2.698   4.127
16516TIP3    H149425   3.743   2.602   4.128
16516TIP3    H249426   3.802   2.724   4.060
16517TIP3   OH249427   9.444   7.750   4.000
16517TIP3    H149428   9.409   7.722   4.084
16517TIP3    H249429   9.468   7.842   4.013
16518TIP3   OH249430   8.438   1.610   7.664
16518TIP3    H149431   8.348   1.613   7.633
16518TIP3    H249432   8.433   1.565   7.748
16519TIP3   OH249433   1.991   5.693   4.778
16519TIP3    H149434   2.048   5.700   4.701
16519TIP3    H249435   1.987   5.782   4.813
16520TIP3   OH249436   1.071   1.514   1.231
16520TIP3    H149437   1.024   1.465   1.298
16520TIP3    H249438   1.047   1.471   1.149
16521TIP3   OH249439   2.153   0.822   0.021
16521TIP3    H149440   2.142   0.917   0.020
16521TIP3    H249441   2.116   0.792  -0.062
16522TIP3   OH249442   8.019   2.858   4.971
16522TIP3    H149443   8.034   2.930   4.910
16522TIP3    H249444   7.973   2.899   5.045
16523TIP3   OH249445   5.119   3.142   4.939
16523TIP3    H149446   5.054   3.073   4.950
16523TIP3    H249447   5.112   3.167   4.847
16524TIP3   OH249448   3.106   0.848   0.638
16524TIP3    H149449   3.113   0.936   0.602
16524TIP3    H249450   3.190   0.833   0.681
16525TIP3   OH249451   1.073   2.110   3.922
16525TIP3    H149452   1.055   2.136   3.831
16525TIP3    H249453   1.148   2.165   3.947
16526TIP3   OH249454   5.115   1.355   3.280
16526TIP3    H149455   5.142   1.437   3.237
16526TIP3    H249456   5.197   1.316   3.310
16527TIP3   OH249457   4.525   3.050   0.370
16527TIP3    H149458   4.467   3.022   0.440
16527TIP3    H249459   4.604   2.998   0.381
16528TIP3   OH249460   2.266   7.656   0.988
16528TIP3    H149461   2.314   7.712   1.049
16528TIP3    H249462   2.311   7.572   0.993
16529TIP3   OH249463   7.959   4.122   2.018
16529TIP3    H149464   7.933   4.092   2.105
16529TIP3    H249465   7.878   4.156   1.979
16530TIP3   OH249466   2.902   7.929   6.449
16530TIP3    H149467   2.867   7.993   6.510
16530TIP3    H249468   2.989   7.962   6.427
16531TIP3   OH249469   5.028   1.721   6.715
16531TIP3    H149470   5.054   1.772   6.791
16531TIP3    H249471   5.024   1.631   6.747
16532TIP3   OH249472   0.933   1.381   6.613
16532TIP3    H149473   0.919   1.388   6.707
16532TIP3    H249474   0.941   1.287   6.596
16533TIP3   OH249475   8.103   7.072   7.319
16533TIP3    H149476   8.139   7.082   7.231
16533TIP3    H249477   8.115   6.980   7.340
16534TIP3   OH249478   1.595   7.811   5.636
16534TIP3    H149479   1.574   7.904   5.629
16534TIP3    H249480   1.588   7.779   5.546
16535TIP3   OH249481   3.207   5.125   7.565
16535TIP3    H149482   3.230   5.181   7.491
16535TIP3    H249483   3.112   5.131   7.571
16536TIP3   OH249484   6.205   2.115   7.374
16536TIP3    H149485   6.235   2.025   7.362
16536TIP3    H249486   6.198   2.126   7.469
16537TIP3   OH249487   7.231   6.955   6.631
16537TIP3    H149488   7.273   7.035   6.663
16537TIP3    H249489   7.204   6.976   6.541
16538TIP3   OH249490   5.754   0.151   2.599
16538TIP3    H149491   5.733   0.058   2.605
16538TIP3    H249492   5.803   0.159   2.518
16539TIP3   OH249493   7.558   3.329   1.590
16539TIP3    H149494   7.633   3.387   1.575
16539TIP3    H249495   7.520   3.316   1.503
16540TIP3   OH249496   4.814   0.204   2.870
16540TIP3    H149497   4.724   0.222   2.898
16540TIP3    H249498   4.866   0.211   2.950
16541TIP3   OH249499   2.034   6.994   6.723
16541TIP3    H149500   1.963   6.932   6.709
16541TIP3    H249501   2.014   7.034   6.808
16542TIP3   OH249502   1.179   4.967   1.604
16542TIP3    H149503   1.259   4.915   1.611
16542TIP3    H249504   1.155   4.961   1.512
16543TIP3   OH249505   3.631   7.745   5.012
16543TIP3    H149506   3.691   7.780   5.078
16543TIP3    H249507   3.687   7.704   4.947
16544TIP3   OH249508   5.389   4.676   1.357
16544TIP3    H149509   5.410   4.591   1.318
16544TIP3    H249510   5.474   4.717   1.372
16545TIP3   OH249511   7.064   4.924   4.763
16545TIP3    H149512   7.063   4.971   4.680
16545TIP3    H249513   7.153   4.934   4.796
16546TIP3   OH249514   7.724   1.492   2.665
16546TIP3    H149515   7.634   1.464   2.645
16546TIP3    H249516   7.736   1.572   2.614
16547TIP3   OH249517   7.038   3.329   6.025
16547TIP3    H149518   7.130   3.354   6.016
16547TIP3    H249519   6.995   3.407   6.060
16548TIP3   OH249520   7.332   8.183   3.030
16548TIP3    H149521   7.285   8.267   3.031
16548TIP3    H249522   7.423   8.207   3.017
16549TIP3   OH249523   6.210   7.366   7.675
16549TIP3    H149524   6.298   7.380   7.639
16549TIP3    H249525   6.174   7.454   7.685
16550TIP3   OH249526   7.364   4.347   3.231
16550TIP3    H149527   7.339   4.435   3.202
16550TIP3    H249528   7.378   4.357   3.325
16551TIP3   OH249529   3.950   0.672   7.178
16551TIP3    H149530   3.974   0.580   7.168
16551TIP3    H249531   4.018   0.721   7.132
16552TIP3   OH249532   5.253   1.532   2.082
16552TIP3    H149533   5.314   1.458   2.087
16552TIP3    H249534   5.231   1.539   1.989
16553TIP3   OH249535   0.741   2.243   1.898
16553TIP3    H149536   0.816   2.226   1.840
16553TIP3    H249537   0.771   2.314   1.955
16554TIP3   OH249538   8.992   8.315   4.626
16554TIP3    H149539   8.971   8.230   4.665
16554TIP3    H249540   8.919   8.333   4.567
16555TIP3   OH249541   0.910   8.646   5.448
16555TIP3    H149542   0.838   8.632   5.509
16555TIP3    H249543   0.930   8.739   5.455
16556TIP3   OH249544   5.118   2.625   4.104
16556TIP3    H149545   5.078   2.546   4.143
16556TIP3    H249546   5.145   2.677   4.179
16557TIP3   OH249547   7.299   5.300   6.357
16557TIP3    H149548   7.379   5.342   6.325
16557TIP3    H249549   7.279   5.347   6.438
16558TIP3   OH249550   1.726   2.577   6.527
16558TIP3    H149551   1.757   2.559   6.616
16558TIP3    H249552   1.658   2.644   6.539
16559TIP3   OH249553   7.116   3.451   0.171
16559TIP3    H149554   7.195   3.467   0.222
16559TIP3    H249555   7.135   3.372   0.120
16560TIP3   OH249556   0.977   1.536   4.580
16560TIP3    H149557   0.992   1.493   4.496
16560TIP3    H249558   0.960   1.464   4.641
16561TIP3   OH249559   3.081   0.235   1.120
16561TIP3    H149560   2.997   0.223   1.074
16561TIP3    H249561   3.146   0.243   1.050
16562TIP3   OH249562   0.277   1.989   3.201
16562TIP3    H149563   0.265   1.956   3.112
16562TIP3    H249564   0.325   1.919   3.246
16563TIP3   OH249565   1.325   5.706   5.640
16563TIP3    H149566   1.290   5.792   5.663
16563TIP3    H249567   1.281   5.646   5.701
16564TIP3   OH249568   9.065   7.335   7.240
16564TIP3    H149569   8.997   7.349   7.305
16564TIP3    H249570   9.061   7.241   7.220
16565TIP3   OH249571   1.740   5.508   1.216
16565TIP3    H149572   1.725   5.416   1.193
16565TIP3    H249573   1.653   5.547   1.216
16566TIP3   OH249574   1.422   0.960   7.798
16566TIP3    H149575   1.398   0.907   7.874
16566TIP3    H249576   1.476   0.902   7.744
16567TIP3   OH249577   6.106   0.465   0.121
16567TIP3    H149578   6.160   0.513   0.059
16567TIP3    H249579   6.046   0.530   0.157
16568TIP3   OH249580   1.476   4.640   6.581
16568TIP3    H149581   1.534   4.620   6.508
16568TIP3    H249582   1.388   4.618   6.549
16569TIP3   OH249583   5.373   4.075   2.496
16569TIP3    H149584   5.360   4.150   2.438
16569TIP3    H249585   5.377   3.999   2.438
16570TIP3   OH249586   3.424   6.068   3.540
16570TIP3    H149587   3.371   6.138   3.578
16570TIP3    H249588   3.371   5.989   3.548
16571TIP3   OH249589   6.326   8.927   3.683
16571TIP3    H149590   6.404   8.972   3.716
16571TIP3    H249591   6.255   8.957   3.739
16572TIP3   OH249592   6.195   4.928   6.105
16572TIP3    H149593   6.149   4.997   6.057
16572TIP3    H249594   6.247   4.883   6.038
16573TIP3   OH249595   7.971   6.877   3.340
16573TIP3    H149596   7.978   6.950   3.402
16573TIP3    H249597   7.888   6.836   3.361
16574TIP3   OH249598   6.981   0.906   1.946
16574TIP3    H149599   7.022   0.884   2.030
16574TIP3    H249600   6.982   1.002   1.943
16575TIP3   OH249601   4.527   4.185   5.770
16575TIP3    H149602   4.436   4.193   5.741
16575TIP3    H249603   4.546   4.267   5.814
16576TIP3   OH249604   4.108   7.214   5.572
16576TIP3    H149605   4.031   7.157   5.564
16576TIP3    H249606   4.071   7.302   5.580
16577TIP3   OH249607   0.054   8.636   5.649
16577TIP3    H149608   0.039   8.677   5.735
16577TIP3    H249609  -0.004   8.684   5.590
16578TIP3   OH249610   1.356   7.734   0.446
16578TIP3    H149611   1.374   7.810   0.391
16578TIP3    H249612   1.303   7.676   0.392
16579TIP3   OH249613   4.590   1.445   2.075
16579TIP3    H149614   4.560   1.524   2.032
16579TIP3    H249615   4.671   1.422   2.029
16580TIP3   OH249616   3.875   8.426   7.743
16580TIP3    H149617   3.877   8.510   7.697
16580TIP3    H249618   3.909   8.363   7.679
16581TIP3   OH249619   7.576   5.772   3.586
16581TIP3    H149620   7.573   5.686   3.629
16581TIP3    H249621   7.622   5.755   3.504
16582TIP3   OH249622   5.403   6.619   5.703
16582TIP3    H149623   5.469   6.638   5.770
16582TIP3    H249624   5.321   6.651   5.740
16583TIP3   OH249625   2.052   1.119   0.890
16583TIP3    H149626   2.062   1.043   0.948
16583TIP3    H249627   2.008   1.084   0.813
16584TIP3   OH249628   9.123   7.606   2.591
16584TIP3    H149629   9.036   7.643   2.576
16584TIP3    H249630   9.182   7.681   2.590
16585TIP3   OH249631   4.395   1.777   5.459
16585TIP3    H149632   4.394   1.706   5.524
16585TIP3    H249633   4.473   1.760   5.406
16586TIP3   OH249634   4.763   3.886   6.907
16586TIP3    H149635   4.822   3.879   6.832
16586TIP3    H249636   4.702   3.956   6.882
16587TIP3   OH249637   0.695   1.153   4.829
16587TIP3    H149638   0.651   1.204   4.897
16587TIP3    H249639   0.658   1.065   4.837
16588TIP3   OH249640   0.386   5.145   6.502
16588TIP3    H149641   0.459   5.205   6.519
16588TIP3    H249642   0.334   5.188   6.434
16589TIP3   OH249643   5.038   6.181   5.180
16589TIP3    H149644   5.080   6.098   5.203
16589TIP3    H249645   5.088   6.247   5.227
16590TIP3   OH249646   4.800   6.335   2.730
16590TIP3    H149647   4.737   6.402   2.704
16590TIP3    H249648   4.767   6.301   2.814
16591TIP3   OH249649   9.073   4.968   1.360
16591TIP3    H149650   9.147   4.983   1.419
16591TIP3    H249651   9.004   5.026   1.392
16592TIP3   OH249652   9.147   8.716   5.638
16592TIP3    H149653   9.223   8.659   5.647
16592TIP3    H249654   9.121   8.737   5.728
16593TIP3   OH249655   3.983   1.752   2.349
16593TIP3    H149656   3.971   1.846   2.366
16593TIP3    H249657   3.941   1.738   2.264
16594TIP3   OH249658   0.912   2.560   5.104
16594TIP3    H149659   0.922   2.601   5.019
16594TIP3    H249660   0.879   2.630   5.161
16595TIP3   OH249661   7.991   3.695   4.199
16595TIP3    H149662   8.043   3.615   4.202
16595TIP3    H249663   7.942   3.695   4.281
16596TIP3   OH249664   5.371   0.621   3.280
16596TIP3    H149665   5.378   0.528   3.304
16596TIP3    H249666   5.284   0.628   3.240
16597TIP3   OH249667   0.151   2.854   0.198
16597TIP3    H149668   0.109   2.803   0.267
16597TIP3    H249669   0.172   2.938   0.239
16598TIP3   OH249670   8.901   1.648   1.617
16598TIP3    H149671   8.950   1.573   1.649
16598TIP3    H249672   8.880   1.627   1.526
16599TIP3   OH249673   5.620   1.474   2.278
16599TIP3    H149674   5.579   1.512   2.356
16599TIP3    H249675   5.695   1.426   2.313
16600TIP3   OH249676   4.525   6.371   0.053
16600TIP3    H149677   4.546   6.369  -0.040
16600TIP3    H249678   4.609   6.363   0.097
16601TIP3   OH249679   3.919   5.499   1.155
16601TIP3    H149680   3.836   5.474   1.115
16601TIP3    H249681   3.985   5.445   1.111
16602TIP3   OH249682   2.426   8.414   2.694
16602TIP3    H149683   2.481   8.404   2.617
16602TIP3    H249684   2.373   8.334   2.696
16603TIP3   OH249685   8.526   3.462   2.803
16603TIP3    H149686   8.552   3.405   2.731
16603TIP3    H249687   8.541   3.551   2.770
16604TIP3   OH249688   8.003   3.618   5.735
16604TIP3    H149689   8.021   3.700   5.782
16604TIP3    H249690   8.056   3.553   5.780
16605TIP3   OH249691   6.291   7.192   1.631
16605TIP3    H149692   6.375   7.235   1.617
16605TIP3    H249693   6.304   7.103   1.596
16606TIP3   OH249694   1.441   8.669   4.551
16606TIP3    H149695   1.411   8.756   4.528
16606TIP3    H249696   1.505   8.647   4.483
16607TIP3   OH249697   1.731   0.937   1.034
16607TIP3    H149698   1.811   0.900   0.998
16607TIP3    H249699   1.698   0.869   1.094
16608TIP3   OH249700   1.377   0.872   0.117
16608TIP3    H149701   1.289   0.847   0.148
16608TIP3    H249702   1.434   0.855   0.192
16609TIP3   OH249703   2.840   8.968   2.097
16609TIP3    H149704   2.768   8.906   2.084
16609TIP3    H249705   2.901   8.948   2.026
16610TIP3   OH249706   0.175   8.852   2.131
16610TIP3    H149707   0.243   8.801   2.174
16610TIP3    H249708   0.133   8.900   2.203
16611TIP3   OH249709   3.486   5.226   2.507
16611TIP3    H149710   3.553   5.285   2.541
16611TIP3    H249711   3.532   5.172   2.444
16612TIP3   OH249712   0.449   0.929   7.655
16612TIP3    H149713   0.494   0.885   7.583
16612TIP3    H249714   0.356   0.926   7.631
16613TIP3   OH249715   3.671   5.493   2.391
16613TIP3    H149716   3.742   5.507   2.453
16613TIP3    H249717   3.712   5.443   2.320
16614TIP3   OH249718   3.326   3.486   2.094
16614TIP3    H149719   3.356   3.566   2.138
16614TIP3    H249720   3.347   3.500   2.002
16615TIP3   OH249721   3.481   3.257   0.618
16615TIP3    H149722   3.403   3.294   0.659
16615TIP3    H249723   3.448   3.212   0.540
16616TIP3   OH249724   7.976   2.524   7.284
16616TIP3    H149725   7.942   2.447   7.330
16616TIP3    H249726   7.898   2.575   7.263
16617TIP3   OH249727   4.035   1.493   3.569
16617TIP3    H149728   4.022   1.527   3.480
16617TIP3    H249729   4.052   1.399   3.556
16618TIP3   OH249730   3.745   1.899   3.682
16618TIP3    H149731   3.809   1.827   3.689
16618TIP3    H249732   3.772   1.961   3.749
16619TIP3   OH249733   2.354   7.239   5.989
16619TIP3    H149734   2.331   7.181   6.062
16619TIP3    H249735   2.446   7.220   5.971
16620TIP3   OH249736   9.215   0.917   4.146
16620TIP3    H149737   9.136   0.942   4.194
16620TIP3    H249738   9.190   0.926   4.054
16621TIP3   OH249739   4.090   0.380   1.816
16621TIP3    H149740   4.156   0.310   1.813
16621TIP3    H249741   4.066   0.386   1.909
16622TIP3   OH249742   2.672   1.434   0.672
16622TIP3    H149743   2.631   1.518   0.694
16622TIP3    H249744   2.747   1.427   0.732
16623TIP3   OH249745   3.839   2.988   5.043
16623TIP3    H149746   3.861   3.042   4.968
16623TIP3    H249747   3.829   3.050   5.115
16624TIP3   OH249748   4.853   6.573   5.549
16624TIP3    H149749   4.786   6.514   5.584
16624TIP3    H249750   4.862   6.549   5.457
16625TIP3   OH249751   1.306   4.355   3.261
16625TIP3    H149752   1.358   4.383   3.337
16625TIP3    H249753   1.322   4.423   3.195
16626TIP3   OH249754   4.099   6.356   0.093
16626TIP3    H149755   4.007   6.347   0.071
16626TIP3    H249756   4.145   6.330   0.013
16627TIP3   OH249757   4.487   7.872   6.047
16627TIP3    H149758   4.477   7.833   5.960
16627TIP3    H249759   4.502   7.798   6.105
16628TIP3   OH249760   1.577   4.665   4.569
16628TIP3    H149761   1.664   4.660   4.531
16628TIP3    H249762   1.519   4.681   4.495
16629TIP3   OH249763   2.016   5.580   1.410
16629TIP3    H149764   2.086   5.553   1.469
16629TIP3    H249765   1.962   5.502   1.400
16630TIP3   OH249766   6.999   0.604   4.143
16630TIP3    H149767   6.973   0.690   4.176
16630TIP3    H249768   7.008   0.550   4.221
16631TIP3   OH249769   1.948   5.980   0.413
16631TIP3    H149770   1.950   6.051   0.477
16631TIP3    H249771   2.017   6.003   0.350
16632TIP3   OH249772   6.520   2.951   1.427
16632TIP3    H149773   6.605   2.942   1.384
16632TIP3    H249774   6.542   2.963   1.520
16633TIP3   OH249775   3.685   1.223   1.095
16633TIP3    H149776   3.719   1.233   1.006
16633TIP3    H249777   3.719   1.300   1.142
16634TIP3   OH249778   4.463   4.411   7.185
16634TIP3    H149779   4.376   4.440   7.212
16634TIP3    H249780   4.458   4.406   7.090
16635TIP3   OH249781   0.591   8.876   1.953
16635TIP3    H149782   0.626   8.899   2.039
16635TIP3    H249783   0.497   8.865   1.967
16636TIP3   OH249784   1.195   4.650   6.502
16636TIP3    H149785   1.207   4.736   6.460
16636TIP3    H249786   1.142   4.600   6.440
16637TIP3   OH249787   1.414   4.766   4.369
16637TIP3    H149788   1.393   4.684   4.326
16637TIP3    H249789   1.461   4.817   4.303
16638TIP3   OH249790   4.398   0.202   4.413
16638TIP3    H149791   4.490   0.201   4.388
16638TIP3    H249792   4.358   0.265   4.352
16639TIP3   OH249793   0.279   7.748   5.677
16639TIP3    H149794   0.296   7.772   5.586
16639TIP3    H249795   0.271   7.652   5.676
16640TIP3   OH249796   6.828   4.269   0.691
16640TIP3    H149797   6.895   4.306   0.634
16640TIP3    H249798   6.776   4.344   0.720
16641TIP3   OH249799   7.559   1.054   7.315
16641TIP3    H149800   7.588   1.067   7.225
16641TIP3    H249801   7.490   0.989   7.309
16642TIP3   OH249802   5.993   7.998   7.136
16642TIP3    H149803   6.050   8.007   7.060
16642TIP3    H249804   5.987   7.903   7.151
16643TIP3   OH249805   6.943   7.555   2.987
16643TIP3    H149806   6.953   7.570   3.081
16643TIP3    H249807   7.028   7.576   2.950
16644TIP3   OH249808   8.077   8.373   5.839
16644TIP3    H149809   8.128   8.364   5.919
16644TIP3    H249810   8.038   8.460   5.845
16645TIP3   OH249811   9.382   5.904   0.985
16645TIP3    H149812   9.448   5.846   1.022
16645TIP3    H249813   9.383   5.885   0.891
16646TIP3   OH249814   8.856   7.494   6.388
16646TIP3    H149815   8.788   7.447   6.340
16646TIP3    H249816   8.909   7.537   6.320
16647TIP3   OH249817   2.930   1.259   1.698
16647TIP3    H149818   2.959   1.337   1.744
16647TIP3    H249819   2.961   1.272   1.608
16648TIP3   OH249820   5.480   7.653   2.144
16648TIP3    H149821   5.542   7.686   2.209
16648TIP3    H249822   5.434   7.582   2.188
16649TIP3   OH249823   4.500   3.751   6.875
16649TIP3    H149824   4.488   3.841   6.843
16649TIP3    H249825   4.582   3.722   6.835
16650TIP3   OH249826   2.334   2.069   0.421
16650TIP3    H149827   2.337   1.995   0.360
16650TIP3    H249828   2.425   2.087   0.441
16651TIP3   OH249829   6.816   2.012   3.312
16651TIP3    H149830   6.742   2.054   3.356
16651TIP3    H249831   6.821   1.925   3.351
16652TIP3   OH249832   8.046   7.026   3.837
16652TIP3    H149833   7.970   7.081   3.858
16652TIP3    H249834   8.008   6.945   3.804
16653TIP3   OH249835   8.800   8.491   1.234
16653TIP3    H149836   8.888   8.456   1.252
16653TIP3    H249837   8.761   8.426   1.175
16654TIP3   OH249838   0.171   5.843   2.256
16654TIP3    H149839   0.079   5.820   2.265
16654TIP3    H249840   0.171   5.939   2.248
16655TIP3   OH249841   4.101   8.682   7.713
16655TIP3    H149842   4.021   8.732   7.725
16655TIP3    H249843   4.104   8.622   7.788
16656TIP3   OH249844   4.874   8.992   4.419
16656TIP3    H149845   4.936   8.998   4.346
16656TIP3    H249846   4.809   9.060   4.401
16657TIP3   OH249847   1.507   4.379   4.553
16657TIP3    H149848   1.422   4.395   4.512
16657TIP3    H249849   1.519   4.452   4.613
16658TIP3   OH249850   3.559   7.817   0.239
16658TIP3    H149851   3.569   7.865   0.157
16658TIP3    H249852   3.465   7.805   0.249
16659TIP3   OH249853   8.779   8.484   3.328
16659TIP3    H149854   8.740   8.571   3.319
16659TIP3    H249855   8.838   8.492   3.403
16660TIP3   OH249856   3.405   1.231   2.308
16660TIP3    H149857   3.447   1.303   2.261
16660TIP3    H249858   3.448   1.229   2.393
16661TIP3   OH249859   4.123   1.686   7.784
16661TIP3    H149860   4.137   1.769   7.738
16661TIP3    H249861   4.093   1.626   7.716
16662TIP3   OH249862   3.039   6.481   5.891
16662TIP3    H149863   3.075   6.426   5.822
16662TIP3    H249864   3.053   6.571   5.859
16663TIP3   OH249865   7.393   0.749   4.267
16663TIP3    H149866   7.377   0.664   4.226
16663TIP3    H249867   7.346   0.811   4.211
16664TIP3   OH249868   3.850   2.117   1.233
16664TIP3    H149869   3.758   2.095   1.216
16664TIP3    H249870   3.899   2.064   1.169
16665TIP3   OH249871   5.913   4.711   6.644
16665TIP3    H149872   5.952   4.790   6.682
16665TIP3    H249873   5.942   4.640   6.701
16666TIP3   OH249874   4.259   7.993   6.459
16666TIP3    H149875   4.249   7.947   6.375
16666TIP3    H249876   4.350   7.980   6.483
16667TIP3   OH249877   2.461   2.472   4.032
16667TIP3    H149878   2.464   2.377   4.039
16667TIP3    H249879   2.553   2.499   4.031
16668TIP3   OH249880   8.731   4.325   2.386
16668TIP3    H149881   8.759   4.272   2.461
16668TIP3    H249882   8.688   4.263   2.327
16669TIP3   OH249883   8.172   5.387   3.309
16669TIP3    H149884   8.191   5.419   3.398
16669TIP3    H249885   8.084   5.351   3.316
16670TIP3   OH249886   3.427   5.046   3.136
16670TIP3    H149887   3.412   5.061   3.229
16670TIP3    H249888   3.391   4.959   3.119
16671TIP3   OH249889   0.635   1.483   3.553
16671TIP3    H149890   0.621   1.497   3.646
16671TIP3    H249891   0.691   1.405   3.548
16672TIP3   OH249892   6.881   0.681   5.163
16672TIP3    H149893   6.858   0.647   5.249
16672TIP3    H249894   6.906   0.772   5.179
16673TIP3   OH249895   2.886   0.383   7.597
16673TIP3    H149896   2.946   0.446   7.637
16673TIP3    H249897   2.938   0.342   7.528
16674TIP3   OH249898   1.201   1.932   3.457
16674TIP3    H149899   1.107   1.920   3.471
16674TIP3    H249900   1.217   2.023   3.484
16675TIP3   OH249901   0.825   0.260   1.531
16675TIP3    H149902   0.910   0.272   1.489
16675TIP3    H249903   0.779   0.343   1.515
16676TIP3   OH249904   0.418   8.980   5.391
16676TIP3    H149905   0.446   9.067   5.365
16676TIP3    H249906   0.495   8.942   5.434
16677TIP3   OH249907   6.952   2.643   0.241
16677TIP3    H149908   7.043   2.614   0.237
16677TIP3    H249909   6.913   2.614   0.158
16678TIP3   OH249910   3.519   4.802   4.077
16678TIP3    H149911   3.502   4.710   4.061
16678TIP3    H249912   3.471   4.848   4.009
16679TIP3   OH249913   3.638   7.650   1.667
16679TIP3    H149914   3.633   7.654   1.762
16679TIP3    H249915   3.713   7.705   1.644
16680TIP3   OH249916   9.304   3.225   0.748
16680TIP3    H149917   9.354   3.221   0.829
16680TIP3    H249918   9.369   3.239   0.679
16681TIP3   OH249919   7.351   5.109   2.353
16681TIP3    H149920   7.401   5.032   2.380
16681TIP3    H249921   7.413   5.160   2.300
16682TIP3   OH249922   1.498   3.155   0.142
16682TIP3    H149923   1.502   3.108   0.226
16682TIP3    H249924   1.580   3.131   0.098
16683TIP3   OH249925   0.932   2.624   2.817
16683TIP3    H149926   1.020   2.600   2.847
16683TIP3    H249927   0.886   2.650   2.896
16684TIP3   OH249928   1.057   2.304   2.211
16684TIP3    H149929   1.033   2.331   2.123
16684TIP3    H249930   0.979   2.321   2.264
16685TIP3   OH249931   6.325   4.360   5.094
16685TIP3    H149932   6.253   4.296   5.095
16685TIP3    H249933   6.346   4.370   5.001
16686TIP3   OH249934   8.789   1.916   2.309
16686TIP3    H149935   8.695   1.906   2.327
16686TIP3    H249936   8.794   1.988   2.246
16687TIP3   OH249937   0.911   0.413   4.815
16687TIP3    H149938   0.908   0.500   4.776
16687TIP3    H249939   0.938   0.428   4.906
16688TIP3   OH249940   4.539   7.499   2.810
16688TIP3    H149941   4.625   7.465   2.835
16688TIP3    H249942   4.476   7.445   2.858
16689TIP3   OH249943   6.806   8.326   2.922
16689TIP3    H149944   6.836   8.315   3.012
16689TIP3    H249945   6.880   8.368   2.877
16690TIP3   OH249946   8.304   2.267   4.242
16690TIP3    H149947   8.276   2.177   4.263
16690TIP3    H249948   8.232   2.302   4.190
16691TIP3   OH249949   3.597   6.622   0.223
16691TIP3    H149950   3.597   6.709   0.263
16691TIP3    H249951   3.581   6.563   0.296
16692TIP3   OH249952   1.956   4.126   5.533
16692TIP3    H149953   2.008   4.149   5.611
16692TIP3    H249954   1.916   4.209   5.506
16693TIP3   OH249955   9.358   5.146   1.367
16693TIP3    H149956   9.431   5.138   1.305
16693TIP3    H249957   9.292   5.198   1.321
16694TIP3   OH249958   2.720   0.823   5.045
16694TIP3    H149959   2.656   0.757   5.018
16694TIP3    H249960   2.670   0.883   5.102
16695TIP3   OH249961   0.990   8.196   0.242
16695TIP3    H149962   1.062   8.252   0.271
16695TIP3    H249963   0.980   8.133   0.313
16696TIP3   OH249964   5.100   5.308   1.333
16696TIP3    H149965   5.156   5.373   1.290
16696TIP3    H249966   5.016   5.351   1.343
16697TIP3   OH249967   7.526   6.327   7.308
16697TIP3    H149968   7.489   6.333   7.220
16697TIP3    H249969   7.569   6.241   7.310
16698TIP3   OH249970   6.482   0.325   2.333
16698TIP3    H149971   6.506   0.313   2.241
16698TIP3    H249972   6.513   0.246   2.377
16699TIP3   OH249973   6.300   1.410   3.117
16699TIP3    H149974   6.308   1.505   3.121
16699TIP3    H249975   6.369   1.383   3.056
16700TIP3   OH249976   8.789   8.447   5.576
16700TIP3    H149977   8.854   8.409   5.636
16700TIP3    H249978   8.778   8.381   5.508
16701TIP3   OH249979   5.490   8.212   0.043
16701TIP3    H149980   5.494   8.156   0.121
16701TIP3    H249981   5.484   8.301   0.077
16702TIP3   OH249982   7.155   7.191   3.070
16702TIP3    H149983   7.234   7.140   3.087
16702TIP3    H249984   7.140   7.183   2.976
16703TIP3   OH249985   5.332   1.326   6.319
16703TIP3    H149986   5.388   1.362   6.387
16703TIP3    H249987   5.371   1.357   6.237
16704TIP3   OH249988   3.306   1.673   3.654
16704TIP3    H149989   3.246   1.715   3.592
16704TIP3    H249990   3.339   1.745   3.707
16705TIP3   OH249991   8.961   7.773   2.857
16705TIP3    H149992   8.981   7.801   2.768
16705TIP3    H249993   9.019   7.698   2.872
16706TIP3   OH249994   1.480   7.651   7.226
16706TIP3    H149995   1.559   7.669   7.173
16706TIP3    H249996   1.431   7.733   7.223
16707TIP3   OH249997   5.285   5.777   3.178
16707TIP3    H149998   5.194   5.751   3.166
16707TIP3    H249999   5.315   5.799   3.090
16708TIP3   OH250000   1.737   0.605   5.451
16708TIP3    H150001   1.795   0.654   5.394
16708TIP3    H250002   1.796   0.557   5.510
16709TIP3   OH250003   0.327   7.289   1.242
16709TIP3    H150004   0.249   7.343   1.249
16709TIP3    H250005   0.298   7.202   1.270
16710TIP3   OH250006   0.376   8.159   6.806
16710TIP3    H150007   0.370   8.064   6.815
16710TIP3    H250008   0.295   8.184   6.761
16711TIP3   OH250009   2.162   5.093   1.906
16711TIP3    H150010   2.163   5.040   1.986
16711TIP3    H250011   2.158   5.029   1.835
16712TIP3   OH250012   6.082   6.561   1.021
16712TIP3    H150013   6.074   6.467   1.009
16712TIP3    H250014   5.994   6.595   1.001
16713TIP3   OH250015   5.637   3.390   7.170
16713TIP3    H150016   5.639   3.295   7.178
16713TIP3    H250017   5.725   3.418   7.195
16714TIP3   OH250018   0.014   8.058   3.152
16714TIP3    H150019   0.080   8.110   3.198
16714TIP3    H250020   0.026   8.081   3.060
16715TIP3   OH250021   3.691   8.445   4.172
16715TIP3    H150022   3.723   8.493   4.248
16715TIP3    H250023   3.648   8.368   4.208
16716TIP3   OH250024   0.147   5.943   6.075
16716TIP3    H150025   0.148   5.859   6.028
16716TIP3    H250026   0.164   5.919   6.166
16717TIP3   OH250027   8.494   5.594   3.010
16717TIP3    H150028   8.531   5.678   2.982
16717TIP3    H250029   8.521   5.584   3.101
16718TIP3   OH250030   8.576   5.775   7.230
16718TIP3    H150031   8.591   5.816   7.316
16718TIP3    H250032   8.656   5.794   7.180
16719TIP3   OH250033   8.694   7.246   3.060
16719TIP3    H150034   8.780   7.207   3.048
16719TIP3    H250035   8.700   7.332   3.019
16720TIP3   OH250036   4.885   1.953   6.659
16720TIP3    H150037   4.850   1.958   6.749
16720TIP3    H250038   4.925   1.867   6.654
16721TIP3   OH250039   7.713   0.894   3.389
16721TIP3    H150040   7.748   0.937   3.467
16721TIP3    H250041   7.637   0.947   3.365
16722TIP3   OH250042   3.473   4.172   5.767
16722TIP3    H150043   3.565   4.162   5.739
16722TIP3    H250044   3.427   4.195   5.687
16723TIP3   OH250045   0.163   3.678   1.633
16723TIP3    H150046   0.215   3.703   1.710
16723TIP3    H250047   0.190   3.588   1.614
16724TIP3   OH250048   1.578   1.986   6.729
16724TIP3    H150049   1.604   1.901   6.764
16724TIP3    H250050   1.625   1.994   6.646
16725TIP3   OH250051   8.737   7.720   3.248
16725TIP3    H150052   8.825   7.726   3.211
16725TIP3    H250053   8.750   7.690   3.338
16726TIP3   OH250054   6.877   7.996   1.010
16726TIP3    H150055   6.856   8.017   1.101
16726TIP3    H250056   6.882   7.901   1.008
16727TIP3   OH250057   6.383   2.371   1.879
16727TIP3    H150058   6.339   2.438   1.932
16727TIP3    H250059   6.396   2.412   1.794
16728TIP3   OH250060   0.860   0.331   6.658
16728TIP3    H150061   0.854   0.397   6.727
16728TIP3    H250062   0.947   0.345   6.619
16729TIP3   OH250063   0.870   6.908   0.351
16729TIP3    H150064   0.933   6.851   0.395
16729TIP3    H250065   0.857   6.981   0.412
16730TIP3   OH250066   6.211   6.169   6.707
16730TIP3    H150067   6.284   6.193   6.650
16730TIP3    H250068   6.245   6.098   6.761
16731TIP3   OH250069   9.434   2.436   6.821
16731TIP3    H150070   9.371   2.506   6.802
16731TIP3    H250071   9.394   2.388   6.894
16732TIP3   OH250072   3.029   0.458   3.871
16732TIP3    H150073   3.042   0.407   3.791
16732TIP3    H250074   3.101   0.433   3.928
16733TIP3   OH250075   1.977   4.389   1.122
16733TIP3    H150076   2.054   4.400   1.178
16733TIP3    H250077   2.012   4.355   1.040
16734TIP3   OH250078   2.015   2.074   1.287
16734TIP3    H150079   1.946   2.009   1.296
16734TIP3    H250080   2.093   2.024   1.263
16735TIP3   OH250081   7.808   2.667   2.222
16735TIP3    H150082   7.721   2.699   2.244
16735TIP3    H250083   7.846   2.641   2.306
16736TIP3   OH250084   7.031   5.322   5.586
16736TIP3    H150085   6.998   5.411   5.600
16736TIP3    H250086   7.119   5.323   5.624
16737TIP3   OH250087   8.050   3.119   6.167
16737TIP3    H150088   8.000   3.058   6.112
16737TIP3    H250089   8.001   3.201   6.163
16738TIP3   OH250090   8.075   1.712   2.999
16738TIP3    H150091   8.035   1.655   2.933
16738TIP3    H250092   8.002   1.755   3.042
16739TIP3   OH250093   6.200   7.830   6.157
16739TIP3    H150094   6.276   7.798   6.205
16739TIP3    H250095   6.234   7.858   6.073
16740TIP3   OH250096   2.874   8.797   2.324
16740TIP3    H150097   2.846   8.706   2.316
16740TIP3    H250098   2.858   8.835   2.238
16741TIP3   OH250099   1.101   2.419   1.561
16741TIP3    H150100   1.083   2.401   1.469
16741TIP3    H250101   1.052   2.498   1.580
16742TIP3   OH250102   3.216   1.849   0.095
16742TIP3    H150103   3.171   1.900   0.162
16742TIP3    H250104   3.308   1.853   0.121
16743TIP3   OH250105   2.592   4.426   3.562
16743TIP3    H150106   2.630   4.456   3.480
16743TIP3    H250107   2.658   4.446   3.628
16744TIP3   OH250108   3.974   1.323   5.194
16744TIP3    H150109   4.041   1.285   5.251
16744TIP3    H250110   4.016   1.330   5.108
16745TIP3   OH250111   3.360   7.041   3.041
16745TIP3    H150112   3.284   7.043   3.099
16745TIP3    H250113   3.363   7.129   3.004
16746TIP3   OH250114   1.392   3.367   2.917
16746TIP3    H150115   1.330   3.341   2.986
16746TIP3    H250116   1.346   3.435   2.868
16747TIP3   OH250117   8.140   0.441   1.300
16747TIP3    H150118   8.085   0.478   1.369
16747TIP3    H250119   8.175   0.361   1.337
16748TIP3   OH250120   8.052   6.730   6.047
16748TIP3    H150121   8.085   6.666   5.983
16748TIP3    H250122   7.957   6.730   6.035
16749TIP3   OH250123   7.446   5.162   1.143
16749TIP3    H150124   7.434   5.077   1.101
16749TIP3    H250125   7.438   5.225   1.072
16750TIP3   OH250126   8.349   7.199   4.910
16750TIP3    H150127   8.339   7.284   4.952
16750TIP3    H250128   8.379   7.219   4.821
16751TIP3   OH250129   0.298   8.856   6.758
16751TIP3    H150130   0.226   8.811   6.802
16751TIP3    H250131   0.299   8.944   6.796
16752TIP3   OH250132   7.710   8.738   3.585
16752TIP3    H150133   7.676   8.650   3.570
16752TIP3    H250134   7.634   8.795   3.579
16753TIP3   OH250135   7.877   7.274   3.087
16753TIP3    H150136   7.856   7.265   2.994
16753TIP3    H250137   7.936   7.350   3.090
16754TIP3   OH250138   7.381   6.728   7.402
16754TIP3    H150139   7.456   6.693   7.353
16754TIP3    H250140   7.345   6.796   7.345
16755TIP3   OH250141   7.892   1.928   4.581
16755TIP3    H150142   7.832   1.931   4.655
16755TIP3    H250143   7.956   1.861   4.603
16756TIP3   OH250144   9.084   2.614   3.550
16756TIP3    H150145   9.049   2.622   3.639
16756TIP3    H250146   9.016   2.651   3.494
16757TIP3   OH250147   8.896   8.829   5.043
16757TIP3    H150148   8.830   8.767   5.012
16757TIP3    H250149   8.897   8.898   4.976
16758TIP3   OH250150   3.267   1.153   0.082
16758TIP3    H150151   3.269   1.137   0.176
16758TIP3    H250152   3.237   1.070   0.044
16759TIP3   OH250153   9.138   4.592   4.144
16759TIP3    H150154   9.227   4.623   4.159
16759TIP3    H250155   9.145   4.536   4.067
16760TIP3   OH250156   8.551   8.986   5.756
16760TIP3    H150157   8.585   8.996   5.667
16760TIP3    H250158   8.628   8.996   5.812
16761TIP3   OH250159   6.839   5.112   6.401
16761TIP3    H150160   6.835   5.196   6.355
16761TIP3    H250161   6.755   5.105   6.446
16762TIP3   OH250162   2.590   7.533   4.419
16762TIP3    H150163   2.597   7.497   4.508
16762TIP3    H250164   2.681   7.538   4.389
16763TIP3   OH250165   6.772   7.230   0.159
16763TIP3    H150166   6.746   7.179   0.082
16763TIP3    H250167   6.860   7.261   0.137
16764TIP3   OH250168   5.093   4.908   5.597
16764TIP3    H150169   5.020   4.953   5.640
16764TIP3    H250170   5.158   4.897   5.665
16765TIP3   OH250171   7.902   6.935   7.713
16765TIP3    H150172   7.824   6.944   7.659
16765TIP3    H250173   7.871   6.951   7.802
16766TIP3   OH250174   4.274   4.179   4.341
16766TIP3    H150175   4.272   4.084   4.353
16766TIP3    H250176   4.184   4.203   4.322
16767TIP3   OH250177   5.433   2.626   7.454
16767TIP3    H150178   5.457   2.553   7.511
16767TIP3    H250179   5.496   2.695   7.477
16768TIP3   OH250180   1.361   8.243   7.746
16768TIP3    H150181   1.383   8.151   7.731
16768TIP3    H250182   1.325   8.246   7.834
16769TIP3   OH250183   8.745   4.552   4.334
16769TIP3    H150184   8.747   4.553   4.239
16769TIP3    H250185   8.832   4.521   4.360
16770TIP3   OH250186   0.686   5.011   1.350
16770TIP3    H150187   0.773   5.049   1.360
16770TIP3    H250188   0.664   5.023   1.258
16771TIP3   OH250189   6.760   1.499   4.891
16771TIP3    H150190   6.817   1.423   4.898
16771TIP3    H250191   6.758   1.520   4.798
16772TIP3   OH250192   0.975   3.328   0.460
16772TIP3    H150193   1.028   3.386   0.404
16772TIP3    H250194   0.902   3.302   0.404
16773TIP3   OH250195   9.468   6.506   1.455
16773TIP3    H150196   9.374   6.511   1.473
16773TIP3    H250197   9.496   6.597   1.444
16774TIP3   OH250198   4.329   1.492   3.661
16774TIP3    H150199   4.248   1.443   3.677
16774TIP3    H250200   4.325   1.566   3.720
16775TIP3   OH250201   1.659   6.917   1.292
16775TIP3    H150202   1.732   6.977   1.305
16775TIP3    H250203   1.683   6.838   1.339
16776TIP3   OH250204   4.656   2.250   0.537
16776TIP3    H150205   4.703   2.332   0.553
16776TIP3    H250206   4.568   2.277   0.512
16777TIP3   OH250207   6.194   4.263   4.218
16777TIP3    H150208   6.122   4.300   4.270
16777TIP3    H250209   6.203   4.173   4.249
16778TIP3   OH250210   7.236   2.338   1.746
16778TIP3    H150211   7.222   2.340   1.841
16778TIP3    H250212   7.296   2.409   1.728
16779TIP3   OH250213   9.389   7.422   2.089
16779TIP3    H150214   9.462   7.483   2.088
16779TIP3    H250215   9.406   7.362   2.016
16780TIP3   OH250216   5.782   6.736   6.063
16780TIP3    H150217   5.788   6.656   6.011
16780TIP3    H250218   5.713   6.786   6.020
16781TIP3   OH250219   3.929   0.445   3.901
16781TIP3    H150220   3.990   0.499   3.953
16781TIP3    H250221   3.980   0.418   3.825
16782TIP3   OH250222   0.101   8.252   6.044
16782TIP3    H150223   0.141   8.318   5.987
16782TIP3    H250224   0.133   8.273   6.132
16783TIP3   OH250225   4.262   7.243   3.218
16783TIP3    H150226   4.351   7.271   3.238
16783TIP3    H250227   4.261   7.150   3.239
16784TIP3   OH250228   4.636   0.128   6.687
16784TIP3    H150229   4.712   0.132   6.629
16784TIP3    H250230   4.564   0.100   6.631
16785TIP3   OH250231   1.509   5.596   7.428
16785TIP3    H150232   1.591   5.625   7.387
16785TIP3    H250233   1.530   5.511   7.465
16786TIP3   OH250234   5.575   3.234   3.785
16786TIP3    H150235   5.500   3.283   3.820
16786TIP3    H250236   5.548   3.208   3.697
16787TIP3   OH250237   7.887   7.566   7.472
16787TIP3    H150238   7.824   7.562   7.544
16787TIP3    H250239   7.909   7.474   7.455
16788TIP3   OH250240   1.147   5.240   3.720
16788TIP3    H150241   1.084   5.170   3.705
16788TIP3    H250242   1.137   5.298   3.644
16789TIP3   OH250243   0.140   5.353   7.675
16789TIP3    H150244   0.047   5.340   7.658
16789TIP3    H250245   0.184   5.303   7.606
16790TIP3   OH250246   5.197   7.183   2.255
16790TIP3    H150247   5.240   7.180   2.170
16790TIP3    H250248   5.229   7.105   2.301
16791TIP3   OH250249   1.721   4.867   4.032
16791TIP3    H150250   1.801   4.883   4.082
16791TIP3    H250251   1.734   4.916   3.951
16792TIP3   OH250252   8.841   0.811   0.839
16792TIP3    H150253   8.866   0.719   0.842
16792TIP3    H250254   8.922   0.859   0.859
16793TIP3   OH250255   1.779   8.685   2.423
16793TIP3    H150256   1.796   8.726   2.338
16793TIP3    H250257   1.708   8.624   2.406
16794TIP3   OH250258   2.706   8.259   5.102
16794TIP3    H150259   2.764   8.186   5.081
16794TIP3    H250260   2.655   8.273   5.022
16795TIP3   OH250261   8.221   1.940   3.720
16795TIP3    H150262   8.140   1.945   3.669
16795TIP3    H250263   8.221   1.851   3.756
16796TIP3   OH250264   3.825   7.985   4.030
16796TIP3    H150265   3.919   7.994   4.017
16796TIP3    H250266   3.786   8.009   3.946
16797TIP3   OH250267   0.673   8.536   6.535
16797TIP3    H150268   0.602   8.540   6.599
16797TIP3    H250269   0.715   8.451   6.551
16798TIP3   OH250270   7.322   0.059   2.807
16798TIP3    H150271   7.396   0.001   2.824
16798TIP3    H250272   7.246   0.000   2.805
16799TIP3   OH250273   0.529   2.755   6.680
16799TIP3    H150274   0.444   2.780   6.646
16799TIP3    H250275   0.525   2.660   6.689
16800TIP3   OH250276   5.977   2.885   4.441
16800TIP3    H150277   5.945   2.839   4.518
16800TIP3    H250278   5.898   2.913   4.395
16801TIP3   OH250279   6.478   6.760   5.875
16801TIP3    H150280   6.572   6.743   5.863
16801TIP3    H250281   6.441   6.755   5.787
16802TIP3   OH250282   5.533   1.658   2.755
16802TIP3    H150283   5.559   1.603   2.681
16802TIP3    H250284   5.461   1.611   2.796
16803TIP3   OH250285   3.059   2.818   2.097
16803TIP3    H150286   2.964   2.803   2.097
16803TIP3    H250287   3.096   2.733   2.121
16804TIP3   OH250288   4.399   8.573   5.792
16804TIP3    H150289   4.346   8.493   5.789
16804TIP3    H250290   4.373   8.615   5.874
16805TIP3   OH250291   2.982   4.635   2.243
16805TIP3    H150292   2.989   4.565   2.179
16805TIP3    H250293   3.035   4.707   2.207
16806TIP3   OH250294   6.603   6.933   5.202
16806TIP3    H150295   6.619   7.002   5.138
16806TIP3    H250296   6.597   6.979   5.285
16807TIP3   OH250297   6.924   7.616   3.292
16807TIP3    H150298   6.985   7.676   3.334
16807TIP3    H250299   6.962   7.529   3.307
16808TIP3   OH250300   9.456   7.177   2.953
16808TIP3    H150301   9.527   7.138   2.903
16808TIP3    H250302   9.480   7.161   3.045
16809TIP3   OH250303   3.600   6.731   6.099
16809TIP3    H150304   3.520   6.759   6.143
16809TIP3    H250305   3.632   6.658   6.151
16810TIP3   OH250306   0.287   2.866   3.261
16810TIP3    H150307   0.228   2.834   3.330
16810TIP3    H250308   0.229   2.883   3.187
16811TIP3   OH250309   9.453   3.587   6.798
16811TIP3    H150310   9.544   3.612   6.782
16811TIP3    H250311   9.414   3.582   6.711
16812TIP3   OH250312   3.134   7.636   2.386
16812TIP3    H150313   3.052   7.668   2.424
16812TIP3    H250314   3.108   7.562   2.331
16813TIP3   OH250315   2.061   1.249   2.386
16813TIP3    H150316   2.127   1.306   2.425
16813TIP3    H250317   2.099   1.161   2.393
16814TIP3   OH250318   0.518   0.743   5.110
16814TIP3    H150319   0.436   0.751   5.061
16814TIP3    H250320   0.496   0.768   5.199
16815TIP3   OH250321   6.995   4.752   7.764
16815TIP3    H150322   7.027   4.665   7.790
16815TIP3    H250323   6.908   4.757   7.803
16816TIP3   OH250324   6.049   7.129   1.205
16816TIP3    H150325   6.043   7.133   1.300
16816TIP3    H250326   6.072   7.038   1.186
16817TIP3   OH250327   5.425   0.733   4.873
16817TIP3    H150328   5.502   0.750   4.818
16817TIP3    H250329   5.455   0.667   4.936
16818TIP3   OH250330   2.065   6.828   5.500
16818TIP3    H150331   2.073   6.828   5.405
16818TIP3    H250332   2.110   6.748   5.528
16819TIP3   OH250333   2.187   1.781   7.588
16819TIP3    H150334   2.105   1.756   7.631
16819TIP3    H250335   2.210   1.864   7.628
16820TIP3   OH250336   4.589   6.747   0.049
16820TIP3    H150337   4.619   6.686   0.117
16820TIP3    H250338   4.495   6.731   0.042
16821TIP3   OH250339   5.637   1.588   5.028
16821TIP3    H150340   5.568   1.598   5.093
16821TIP3    H250341   5.620   1.503   4.987
16822TIP3   OH250342   3.350   0.609   2.398
16822TIP3    H150343   3.320   0.596   2.308
16822TIP3    H250344   3.273   0.644   2.443
16823TIP3   OH250345   0.204   0.753   1.504
16823TIP3    H150346   0.120   0.784   1.471
16823TIP3    H250347   0.255   0.733   1.425
16824TIP3   OH250348   2.001   7.784   0.178
16824TIP3    H150349   2.026   7.780   0.270
16824TIP3    H250350   2.048   7.711   0.137
16825TIP3   OH250351   1.978   7.395   5.597
16825TIP3    H150352   2.040   7.368   5.665
16825TIP3    H250353   1.960   7.314   5.549
16826TIP3   OH250354   0.720   5.331   4.611
16826TIP3    H150355   0.645   5.389   4.619
16826TIP3    H250356   0.684   5.243   4.619
16827TIP3   OH250357   8.510   8.422   7.653
16827TIP3    H150358   8.476   8.401   7.740
16827TIP3    H250359   8.513   8.518   7.651
16828TIP3   OH250360   6.477   5.393   1.670
16828TIP3    H150361   6.566   5.375   1.639
16828TIP3    H250362   6.436   5.307   1.676
16829TIP3   OH250363   2.695   4.838   7.134
16829TIP3    H150364   2.601   4.846   7.124
16829TIP3    H250365   2.731   4.920   7.100
16830TIP3   OH250366   4.270   5.006   6.911
16830TIP3    H150367   4.264   5.038   6.821
16830TIP3    H250368   4.348   5.049   6.946
16831TIP3   OH250369   5.579   4.282   4.044
16831TIP3    H150370   5.660   4.332   4.051
16831TIP3    H250371   5.533   4.299   4.126
16832TIP3   OH250372   0.197   0.371   7.502
16832TIP3    H150373   0.108   0.350   7.531
16832TIP3    H250374   0.201   0.339   7.412
16833TIP3   OH250375   5.155   8.564   7.771
16833TIP3    H150376   5.188   8.477   7.795
16833TIP3    H250377   5.121   8.554   7.682
16834TIP3   OH250378   8.332   4.698   6.397
16834TIP3    H150379   8.372   4.770   6.349
16834TIP3    H250380   8.238   4.707   6.380
16835TIP3   OH250381   4.268   6.362   0.794
16835TIP3    H150382   4.318   6.431   0.750
16835TIP3    H250383   4.197   6.408   0.838
16836TIP3   OH250384   1.643   0.998   6.193
16836TIP3    H150385   1.567   1.024   6.247
16836TIP3    H250386   1.708   1.066   6.209
16837TIP3   OH250387   8.128   4.811   0.131
16837TIP3    H150388   8.095   4.769   0.052
16837TIP3    H250389   8.162   4.739   0.184
16838TIP3   OH250390   5.227   6.392   1.324
16838TIP3    H150391   5.141   6.361   1.295
16838TIP3    H250392   5.239   6.352   1.411
16839TIP3   OH250393   4.732   4.625   0.987
16839TIP3    H150394   4.775   4.584   0.912
16839TIP3    H250395   4.802   4.633   1.053
16840TIP3   OH250396   2.465   2.217   1.920
16840TIP3    H150397   2.511   2.215   2.005
16840TIP3    H250398   2.492   2.300   1.880
16841TIP3   OH250399   8.053   4.176   6.219
16841TIP3    H150400   8.060   4.088   6.256
16841TIP3    H250401   7.976   4.171   6.161
16842TIP3   OH250402   2.317   8.482   5.176
16842TIP3    H150403   2.330   8.499   5.270
16842TIP3    H250404   2.309   8.568   5.137
16843TIP3   OH250405   7.555   4.127   7.577
16843TIP3    H150406   7.590   4.038   7.571
16843TIP3    H250407   7.621   4.181   7.532
16844TIP3   OH250408   2.819   3.810   3.040
16844TIP3    H150409   2.742   3.790   2.987
16844TIP3    H250410   2.856   3.888   2.998
16845TIP3   OH250411   4.548   0.435   1.015
16845TIP3    H150412   4.589   0.478   0.940
16845TIP3    H250413   4.621   0.397   1.063
16846TIP3   OH250414   2.652   3.494   1.352
16846TIP3    H150415   2.718   3.478   1.285
16846TIP3    H250416   2.580   3.436   1.330
16847TIP3   OH250417   0.547   3.059   5.614
16847TIP3    H150418   0.574   3.096   5.530
16847TIP3    H250419   0.622   3.072   5.671
16848TIP3   OH250420   7.175   2.502   6.315
16848TIP3    H150421   7.219   2.470   6.236
16848TIP3    H250422   7.082   2.498   6.294
16849TIP3   OH250423   0.397   1.740   2.053
16849TIP3    H150424   0.489   1.736   2.076
16849TIP3    H250425   0.375   1.833   2.058
16850TIP3   OH250426   7.960   2.837   6.834
16850TIP3    H150427   7.874   2.864   6.800
16850TIP3    H250428   7.994   2.915   6.878
16851TIP3   OH250429   6.489   8.521   7.173
16851TIP3    H150430   6.487   8.492   7.264
16851TIP3    H250431   6.527   8.448   7.125
16852TIP3   OH250432   7.772   4.355   3.436
16852TIP3    H150433   7.755   4.275   3.486
16852TIP3    H250434   7.745   4.334   3.347
16853TIP3   OH250435   6.195   4.280   5.941
16853TIP3    H150436   6.158   4.363   5.972
16853TIP3    H250437   6.287   4.282   5.969
16854TIP3   OH250438   7.964   5.748   0.502
16854TIP3    H150439   8.006   5.702   0.575
16854TIP3    H250440   8.020   5.824   0.486
16855TIP3   OH250441   9.294   1.011   5.071
16855TIP3    H150442   9.245   1.031   5.151
16855TIP3    H250443   9.264   1.076   5.007
16856TIP3   OH250444   1.407   8.805   0.810
16856TIP3    H150445   1.358   8.887   0.805
16856TIP3    H250446   1.381   8.757   0.731
16857TIP3   OH250447   5.780   6.216   7.576
16857TIP3    H150448   5.823   6.269   7.510
16857TIP3    H250449   5.712   6.168   7.529
16858TIP3   OH250450   7.330   7.206   0.826
16858TIP3    H150451   7.371   7.292   0.815
16858TIP3    H250452   7.286   7.189   0.742
16859TIP3   OH250453   6.489   5.835   0.344
16859TIP3    H150454   6.426   5.824   0.273
16859TIP3    H250455   6.449   5.901   0.401
16860TIP3   OH250456   7.858   0.446   5.551
16860TIP3    H150457   7.913   0.370   5.570
16860TIP3    H250458   7.769   0.415   5.562
16861TIP3   OH250459   3.519   8.770   4.687
16861TIP3    H150460   3.526   8.684   4.647
16861TIP3    H250461   3.609   8.803   4.690
16862TIP3   OH250462   6.649   7.339   1.790
16862TIP3    H150463   6.640   7.274   1.720
16862TIP3    H250464   6.651   7.423   1.745
16863TIP3   OH250465   6.120   6.018   2.964
16863TIP3    H150466   6.096   5.995   2.874
16863TIP3    H250467   6.040   6.002   3.015
16864TIP3   OH250468   6.746   7.363   1.339
16864TIP3    H150469   6.817   7.324   1.288
16864TIP3    H250470   6.714   7.436   1.285
16865TIP3   OH250471   6.483   5.573   0.469
16865TIP3    H150472   6.518   5.533   0.389
16865TIP3    H250473   6.493   5.667   0.455
16866TIP3   OH250474   1.971   2.743   2.055
16866TIP3    H150475   1.951   2.688   1.979
16866TIP3    H250476   1.981   2.681   2.127
16867TIP3   OH250477   0.888   2.047   0.876
16867TIP3    H150478   0.890   2.141   0.856
16867TIP3    H250479   0.979   2.018   0.866
16868TIP3   OH250480   5.786   5.992   4.938
16868TIP3    H150481   5.809   5.988   4.845
16868TIP3    H250482   5.706   6.043   4.941
16869TIP3   OH250483   7.498   6.181   6.846
16869TIP3    H150484   7.542   6.100   6.821
16869TIP3    H250485   7.489   6.230   6.765
16870TIP3   OH250486   0.728   1.559   1.520
16870TIP3    H150487   0.668   1.511   1.577
16870TIP3    H250488   0.736   1.504   1.442
16871TIP3   OH250489   5.799   1.503   7.076
16871TIP3    H150490   5.752   1.488   6.995
16871TIP3    H250491   5.814   1.416   7.112
16872TIP3   OH250492   7.255   3.586   4.867
16872TIP3    H150493   7.302   3.517   4.914
16872TIP3    H250494   7.163   3.570   4.889
16873TIP3   OH250495   9.190   4.967   7.605
16873TIP3    H150496   9.160   4.911   7.676
16873TIP3    H250497   9.230   5.042   7.649
16874TIP3   OH250498   7.390   0.430   0.367
16874TIP3    H150499   7.351   0.514   0.344
16874TIP3    H250500   7.381   0.377   0.288
16875TIP3   OH250501   4.131   5.603   7.133
16875TIP3    H150502   4.125   5.554   7.215
16875TIP3    H250503   4.222   5.633   7.130
16876TIP3   OH250504   7.187   5.777   7.625
16876TIP3    H150505   7.150   5.864   7.621
16876TIP3    H250506   7.121   5.720   7.587
16877TIP3   OH250507   5.166   2.098   3.700
16877TIP3    H150508   5.216   2.056   3.770
16877TIP3    H250509   5.186   2.191   3.709
16878TIP3   OH250510   5.555   2.917   0.820
16878TIP3    H150511   5.533   2.989   0.761
16878TIP3    H250512   5.519   2.943   0.905
16879TIP3   OH250513   8.475   0.909   4.160
16879TIP3    H150514   8.464   0.896   4.254
16879TIP3    H250515   8.461   0.823   4.122
16880TIP3   OH250516   4.971   7.306   0.804
16880TIP3    H150517   5.049   7.356   0.780
16880TIP3    H250518   4.989   7.217   0.773
16881TIP3   OH250519   0.077   4.277   1.203
16881TIP3    H150520   0.118   4.218   1.266
16881TIP3    H250521   0.075   4.226   1.121
16882TIP3   OH250522   7.244   4.498   1.360
16882TIP3    H150523   7.298   4.517   1.283
16882TIP3    H250524   7.154   4.508   1.329
16883TIP3   OH250525   0.331   7.859   0.347
16883TIP3    H150526   0.359   7.900   0.429
16883TIP3    H250527   0.265   7.918   0.313
16884TIP3   OH250528   5.185   1.348   7.499
16884TIP3    H150529   5.112   1.399   7.534
16884TIP3    H250530   5.260   1.407   7.504
16885TIP3   OH250531   1.404   6.415   6.861
16885TIP3    H150532   1.422   6.491   6.916
16885TIP3    H250533   1.394   6.450   6.773
16886TIP3   OH250534   9.568   1.907   0.899
16886TIP3    H150535   9.530   1.825   0.866
16886TIP3    H250536   9.592   1.956   0.821
16887TIP3   OH250537   0.824   5.670   7.695
16887TIP3    H150538   0.762   5.601   7.668
16887TIP3    H250539   0.768   5.739   7.731
16888TIP3   OH250540   8.067   6.790   6.428
16888TIP3    H150541   8.112   6.716   6.388
16888TIP3    H250542   8.124   6.865   6.409
16889TIP3   OH250543   4.905   1.063   4.688
16889TIP3    H150544   4.815   1.040   4.666
16889TIP3    H250545   4.913   1.043   4.781
16890TIP3   OH250546   6.212   3.022   5.376
16890TIP3    H150547   6.225   3.046   5.284
16890TIP3    H250548   6.169   2.936   5.373
16891TIP3   OH250549   0.298   7.256   5.148
16891TIP3    H150550   0.263   7.289   5.065
16891TIP3    H250551   0.302   7.333   5.204
16892TIP3   OH250552   7.653   8.863   6.400
16892TIP3    H150553   7.619   8.945   6.364
16892TIP3    H250554   7.742   8.883   6.427
16893TIP3   OH250555   0.265   3.513   2.923
16893TIP3    H150556   0.291   3.591   2.972
16893TIP3    H250557   0.264   3.443   2.989
16894TIP3   OH250558   5.535   0.953   3.836
16894TIP3    H150559   5.460   0.895   3.826
16894TIP3    H250560   5.607   0.896   3.861
16895TIP3   OH250561   4.793   6.828   1.511
16895TIP3    H150562   4.705   6.794   1.528
16895TIP3    H250563   4.839   6.756   1.469
16896TIP3   OH250564   0.491   5.759   6.064
16896TIP3    H150565   0.569   5.704   6.070
16896TIP3    H250566   0.428   5.717   6.123
16897TIP3   OH250567   3.797   8.831   7.272
16897TIP3    H150568   3.796   8.905   7.210
16897TIP3    H250569   3.888   8.800   7.270
16898TIP3   OH250570   6.869   8.381   6.163
16898TIP3    H150571   6.869   8.358   6.256
16898TIP3    H250572   6.909   8.468   6.160
16899TIP3   OH250573   7.031   4.997   6.229
16899TIP3    H150574   6.978   5.030   6.301
16899TIP3    H250575   7.121   5.001   6.262
16900TIP3   OH250576   0.889   3.085   4.174
16900TIP3    H150577   0.959   3.131   4.127
16900TIP3    H250578   0.862   3.015   4.115
16901TIP3   OH250579   6.344   0.909   2.123
16901TIP3    H150580   6.271   0.955   2.081
16901TIP3    H250581   6.364   0.836   2.065
16902TIP3   OH250582   4.535   3.433   4.283
16902TIP3    H150583   4.531   3.368   4.213
16902TIP3    H250584   4.528   3.517   4.237
16903TIP3   OH250585   4.540   6.193   7.481
16903TIP3    H150586   4.554   6.285   7.504
16903TIP3    H250587   4.606   6.146   7.531
16904TIP3   OH250588   4.244   2.930   5.094
16904TIP3    H150589   4.295   2.852   5.076
16904TIP3    H250590   4.187   2.906   5.168
16905TIP3   OH250591   1.318   3.342   5.418
16905TIP3    H150592   1.385   3.409   5.433
16905TIP3    H250593   1.308   3.339   5.322
16906TIP3   OH250594   8.141   8.109   6.605
16906TIP3    H150595   8.089   8.147   6.534
16906TIP3    H250596   8.188   8.036   6.565
16907TIP3   OH250597   0.895   7.162   7.009
16907TIP3    H150598   0.990   7.156   7.009
16907TIP3    H250599   0.876   7.256   7.001
16908TIP3   OH250600   7.737   0.319   0.938
16908TIP3    H150601   7.725   0.314   0.844
16908TIP3    H250602   7.739   0.413   0.957
16909TIP3   OH250603   0.870   4.844   4.417
16909TIP3    H150604   0.840   4.765   4.460
16909TIP3    H250605   0.865   4.912   4.484
16910TIP3   OH250606   6.416   1.249   1.994
16910TIP3    H150607   6.483   1.188   2.024
16910TIP3    H250608   6.415   1.240   1.899
16911TIP3   OH250609   6.028   8.730   1.388
16911TIP3    H150610   6.043   8.685   1.471
16911TIP3    H250611   6.102   8.705   1.333
16912TIP3   OH250612   5.113   6.919   7.302
16912TIP3    H150613   5.196   6.873   7.292
16912TIP3    H250614   5.120   6.994   7.244
16913TIP3   OH250615   8.450   0.676   1.840
16913TIP3    H150616   8.456   0.651   1.747
16913TIP3    H250617   8.511   0.618   1.885
16914TIP3   OH250618   8.261   2.700   3.072
16914TIP3    H150619   8.354   2.716   3.090
16914TIP3    H250620   8.262   2.626   3.012
16915TIP3   OH250621   7.129   2.775   2.529
16915TIP3    H150622   7.184   2.771   2.607
16915TIP3    H250623   7.079   2.693   2.531
16916TIP3   OH250624   9.204   2.911   7.176
16916TIP3    H150625   9.250   2.876   7.252
16916TIP3    H250626   9.267   2.904   7.104
16917TIP3   OH250627   8.026   0.102   0.659
16917TIP3    H150628   8.095   0.036   0.654
16917TIP3    H250629   8.069   0.183   0.632
16918TIP3   OH250630   7.872   2.347   6.057
16918TIP3    H150631   7.794   2.343   6.111
16918TIP3    H250632   7.944   2.328   6.118
16919TIP3   OH250633   7.317   6.304   3.847
16919TIP3    H150634   7.329   6.291   3.753
16919TIP3    H250635   7.250   6.241   3.872
16920TIP3   OH250636   8.006   4.355   6.502
16920TIP3    H150637   8.052   4.372   6.419
16920TIP3    H250638   7.917   4.333   6.475
16921TIP3   OH250639   1.370   2.071   3.919
16921TIP3    H150640   1.344   2.108   4.004
16921TIP3    H250641   1.426   2.138   3.881
16922TIP3   OH250642   3.215   6.417   6.249
16922TIP3    H150643   3.131   6.449   6.282
16922TIP3    H250644   3.192   6.369   6.169
16923TIP3   OH250645   4.841   3.553   6.961
16923TIP3    H150646   4.926   3.596   6.952
16923TIP3    H250647   4.780   3.611   6.917
16924TIP3   OH250648   0.021   6.567   3.708
16924TIP3    H150649   0.023   6.487   3.760
16924TIP3    H250650   0.108   6.606   3.721
16925TIP3   OH250651   8.952   6.854   3.135
16925TIP3    H150652   8.888   6.797   3.178
16925TIP3    H250653   9.037   6.816   3.158
16926TIP3   OH250654   8.418   8.296   7.370
16926TIP3    H150655   8.479   8.349   7.422
16926TIP3    H250656   8.474   8.230   7.329
16927TIP3   OH250657   2.302   7.709   0.070
16927TIP3    H150658   2.372   7.774   0.074
16927TIP3    H250659   2.255   7.730  -0.010
16928TIP3   OH250660   5.168   6.151   6.084
16928TIP3    H150661   5.145   6.226   6.139
16928TIP3    H250662   5.088   6.098   6.079
16929TIP3   OH250663   8.636   7.367   5.954
16929TIP3    H150664   8.548   7.361   5.916
16929TIP3    H250665   8.691   7.320   5.892
16930TIP3   OH250666   8.003   1.506   1.608
16930TIP3    H150667   8.076   1.567   1.621
16930TIP3    H250668   8.041   1.420   1.621
16931TIP3   OH250669   7.403   6.234   0.272
16931TIP3    H150670   7.456   6.191   0.205
16931TIP3    H250671   7.321   6.184   0.273
16932TIP3   OH250672   8.728   1.320   6.120
16932TIP3    H150673   8.789   1.270   6.174
16932TIP3    H250674   8.746   1.412   6.141
16933TIP3   OH250675   0.472   1.992   1.135
16933TIP3    H150676   0.480   1.978   1.229
16933TIP3    H250677   0.553   1.957   1.098
16934TIP3   OH250678   0.392   6.083   0.192
16934TIP3    H150679   0.334   6.006   0.192
16934TIP3    H250680   0.425   6.088   0.102
16935TIP3   OH250681   8.171   6.270   7.400
16935TIP3    H150682   8.141   6.267   7.490
16935TIP3    H250683   8.091   6.254   7.348
16936TIP3   OH250684   4.643   8.438   2.238
16936TIP3    H150685   4.693   8.479   2.309
16936TIP3    H250686   4.681   8.350   2.230
16937TIP3   OH250687   1.930   8.537   5.087
16937TIP3    H150688   1.988   8.607   5.058
16937TIP3    H250689   1.876   8.517   5.011
16938TIP3   OH250690   5.273   8.648   2.748
16938TIP3    H150691   5.210   8.712   2.780
16938TIP3    H250692   5.285   8.587   2.821
16939TIP3   OH250693   6.603   7.707   5.534
16939TIP3    H150694   6.561   7.771   5.477
16939TIP3    H250695   6.639   7.641   5.475
16940TIP3   OH250696   4.294   3.477   5.231
16940TIP3    H150697   4.359   3.543   5.256
16940TIP3    H250698   4.210   3.522   5.238
16941TIP3   OH250699   7.572   4.899   4.884
16941TIP3    H150700   7.494   4.850   4.908
16941TIP3    H250701   7.567   4.908   4.789
16942TIP3   OH250702   0.780   7.428   7.236
16942TIP3    H150703   0.751   7.476   7.314
16942TIP3    H250704   0.839   7.361   7.271
16943TIP3   OH250705   3.298   2.439   7.513
16943TIP3    H150706   3.221   2.495   7.525
16943TIP3    H250707   3.294   2.377   7.586
16944TIP3   OH250708   4.310   4.496   5.680
16944TIP3    H150709   4.248   4.423   5.675
16944TIP3    H250710   4.376   4.468   5.743
16945TIP3   OH250711   8.564   2.421   1.695
16945TIP3    H150712   8.468   2.417   1.700
16945TIP3    H250713   8.582   2.478   1.620
16946TIP3   OH250714   3.136   6.560   7.705
16946TIP3    H150715   3.213   6.615   7.716
16946TIP3    H250716   3.067   6.608   7.751
16947TIP3   OH250717   8.875   5.314   6.539
16947TIP3    H150718   8.861   5.328   6.632
16947TIP3    H250719   8.805   5.254   6.513
16948TIP3   OH250720   8.867   8.389   5.128
16948TIP3    H150721   8.845   8.337   5.050
16948TIP3    H250722   8.901   8.472   5.092
16949TIP3   OH250723   5.405   3.761   1.345
16949TIP3    H150724   5.397   3.675   1.385
16949TIP3    H250725   5.497   3.786   1.361
16950TIP3   OH250726   5.282   3.592   4.636
16950TIP3    H150727   5.218   3.565   4.702
16950TIP3    H250728   5.243   3.567   4.553
16951TIP3   OH250729   8.404   6.518   2.064
16951TIP3    H150730   8.345   6.564   2.123
16951TIP3    H250731   8.462   6.586   2.030
16952TIP3   OH250732   7.664   0.696   1.917
16952TIP3    H150733   7.700   0.677   2.003
16952TIP3    H250734   7.739   0.725   1.865
16953TIP3   OH250735   7.363   9.014   1.352
16953TIP3    H150736   7.424   9.085   1.371
16953TIP3    H250737   7.301   9.015   1.425
16954TIP3   OH250738   2.846   6.875   0.877
16954TIP3    H150739   2.754   6.851   0.875
16954TIP3    H250740   2.885   6.813   0.939
16955TIP3   OH250741   8.373   6.237   3.981
16955TIP3    H150742   8.326   6.320   3.970
16955TIP3    H250743   8.333   6.178   3.918
16956TIP3   OH250744   4.333   6.672   4.482
16956TIP3    H150745   4.308   6.581   4.496
16956TIP3    H250746   4.319   6.714   4.567
16957TIP3   OH250747   8.795   3.120   7.395
16957TIP3    H150748   8.714   3.154   7.356
16957TIP3    H250749   8.839   3.074   7.324
16958TIP3   OH250750   1.914   8.591   3.245
16958TIP3    H150751   1.819   8.593   3.257
16958TIP3    H250752   1.927   8.612   3.153
16959TIP3   OH250753   2.245   0.083   5.492
16959TIP3    H150754   2.311   0.062   5.426
16959TIP3    H250755   2.201   0.161   5.458
16960TIP3   OH250756   1.891   0.080   1.928
16960TIP3    H150757   1.828   0.011   1.908
16960TIP3    H250758   1.941   0.092   1.847
16961TIP3   OH250759   9.392   3.315   2.786
16961TIP3    H150760   9.322   3.343   2.727
16961TIP3    H250761   9.471   3.315   2.731
16962TIP3   OH250762   4.527   1.080   4.833
16962TIP3    H150763   4.444   1.095   4.788
16962TIP3    H250764   4.585   1.044   4.766
16963TIP3   OH250765   4.721   4.251   4.032
16963TIP3    H150766   4.663   4.240   4.108
16963TIP3    H250767   4.662   4.253   3.957
16964TIP3   OH250768   1.396   4.868   3.791
16964TIP3    H150769   1.485   4.833   3.784
16964TIP3    H250770   1.342   4.792   3.813
16965TIP3   OH250771   6.698   2.005   0.153
16965TIP3    H150772   6.627   2.063   0.180
16965TIP3    H250773   6.774   2.037   0.200
16966TIP3   OH250774   4.555   8.786   7.253
16966TIP3    H150775   4.513   8.850   7.310
16966TIP3    H250776   4.504   8.789   7.172
16967TIP3   OH250777   6.124   8.776   3.442
16967TIP3    H150778   6.079   8.861   3.442
16967TIP3    H250779   6.054   8.712   3.435
16968TIP3   OH250780   5.133   6.851   0.654
16968TIP3    H150781   5.163   6.811   0.572
16968TIP3    H250782   5.212   6.856   0.708
16969TIP3   OH250783   3.299   0.644   4.714
16969TIP3    H150784   3.207   0.632   4.734
16969TIP3    H250785   3.312   0.739   4.716
16970TIP3   OH250786   0.078   0.483   5.464
16970TIP3    H150787  -0.010   0.452   5.441
16970TIP3    H250788   0.093   0.449   5.553
16971TIP3   OH250789   7.295   7.293   1.397
16971TIP3    H150790   7.292   7.227   1.466
16971TIP3    H250791   7.252   7.252   1.322
16972TIP3   OH250792   0.783   1.166   3.522
16972TIP3    H150793   0.774   1.190   3.430
16972TIP3    H250794   0.858   1.106   3.524
16973TIP3   OH250795   5.118   1.731   2.853
16973TIP3    H150796   5.109   1.746   2.759
16973TIP3    H250797   5.047   1.671   2.875
16974TIP3   OH250798   0.067   4.463   7.506
16974TIP3    H150799   0.149   4.417   7.526
16974TIP3    H250800   0.025   4.409   7.439
16975TIP3   OH250801   3.120   8.518   2.143
16975TIP3    H150802   3.055   8.524   2.212
16975TIP3    H250803   3.094   8.442   2.091
16976TIP3   OH250804   7.957   2.640   3.038
16976TIP3    H150805   8.043   2.600   3.044
16976TIP3    H250806   7.919   2.604   2.958
16977TIP3   OH250807   8.553   6.980   3.000
16977TIP3    H150808   8.579   7.056   3.051
16977TIP3    H250809   8.579   7.001   2.910
16978TIP3   OH250810   5.723   0.630   6.717
16978TIP3    H150811   5.779   0.662   6.787
16978TIP3    H250812   5.635   0.627   6.756
16979TIP3   OH250813   5.012   0.748   6.951
16979TIP3    H150814   5.068   0.798   7.010
16979TIP3    H250815   4.999   0.806   6.876
16980TIP3   OH250816   6.451   3.773   0.823
16980TIP3    H150817   6.528   3.816   0.858
16980TIP3    H250818   6.396   3.844   0.790
16981TIP3   OH250819   9.093   8.191   2.857
16981TIP3    H150820   9.008   8.197   2.900
16981TIP3    H250821   9.118   8.281   2.839
16982TIP3   OH250822   4.374   1.497   4.184
16982TIP3    H150823   4.375   1.591   4.164
16982TIP3    H250824   4.378   1.454   4.099
16983TIP3   OH250825   7.202   3.715   5.310
16983TIP3    H150826   7.194   3.774   5.385
16983TIP3    H250827   7.281   3.746   5.264
16984TIP3   OH250828   3.168   0.638   3.339
16984TIP3    H150829   3.242   0.669   3.288
16984TIP3    H250830   3.097   0.628   3.275
16985TIP3   OH250831   0.992   3.260   1.625
16985TIP3    H150832   0.897   3.252   1.631
16985TIP3    H250833   1.018   3.191   1.563
16986TIP3   OH250834   1.893   3.077   2.595
16986TIP3    H150835   1.858   3.164   2.612
16986TIP3    H250836   1.819   3.018   2.609
16987TIP3   OH250837   5.737   6.426   2.009
16987TIP3    H150838   5.724   6.518   1.985
16987TIP3    H250839   5.749   6.427   2.104
16988TIP3   OH250840   7.716   0.351   0.670
16988TIP3    H150841   7.686   0.412   0.602
16988TIP3    H250842   7.701   0.265   0.632
16989TIP3   OH250843   0.605   7.775   3.218
16989TIP3    H150844   0.613   7.817   3.304
16989TIP3    H250845   0.529   7.818   3.179
16990TIP3   OH250846   5.355   2.969   3.657
16990TIP3    H150847   5.450   2.982   3.650
16990TIP3    H250848   5.339   2.959   3.751
16991TIP3   OH250849   8.353   8.228   6.847
16991TIP3    H150850   8.317   8.314   6.828
16991TIP3    H250851   8.289   8.167   6.812
16992TIP3   OH250852   0.358   7.450   2.805
16992TIP3    H150853   0.323   7.536   2.784
16992TIP3    H250854   0.423   7.433   2.736
16993TIP3   OH250855   3.300   6.151   2.770
16993TIP3    H150856   3.239   6.167   2.699
16993TIP3    H250857   3.326   6.238   2.799
16994TIP3   OH250858   9.313   8.729   1.140
16994TIP3    H150859   9.363   8.810   1.145
16994TIP3    H250860   9.301   8.712   1.047
16995TIP3   OH250861   6.002   2.824   5.328
16995TIP3    H150862   6.017   2.768   5.251
16995TIP3    H250863   5.907   2.839   5.329
16996TIP3   OH250864   3.881   8.508   5.980
16996TIP3    H150865   3.857   8.490   5.889
16996TIP3    H250866   3.921   8.426   6.010
16997TIP3   OH250867   5.573   7.231   0.432
16997TIP3    H150868   5.668   7.227   0.441
16997TIP3    H250869   5.549   7.319   0.463
16998TIP3   OH250870   2.539   4.992   3.360
16998TIP3    H150871   2.533   5.071   3.414
16998TIP3    H250872   2.495   5.015   3.278
16999TIP3   OH250873   2.539   1.923   1.598
16999TIP3    H150874   2.609   1.955   1.540
16999TIP3    H250875   2.472   1.890   1.539
17000TIP3   OH250876   9.116   7.169   1.574
17000TIP3    H150877   9.042   7.131   1.621
17000TIP3    H250878   9.079   7.242   1.524
17001TIP3   OH250879   8.941   3.555   1.733
17001TIP3    H150880   8.900   3.608   1.801
17001TIP3    H250881   9.021   3.521   1.774
17002TIP3   OH250882   7.876   1.488   3.273
17002TIP3    H150883   7.899   1.422   3.208
17002TIP3    H250884   7.865   1.569   3.223
17003TIP3   OH250885   7.779   2.324   7.414
17003TIP3    H150886   7.736   2.286   7.338
17003TIP3    H250887   7.827   2.251   7.454
17004TIP3   OH250888   1.388   4.512   4.229
17004TIP3    H150889   1.393   4.417   4.220
17004TIP3    H250890   1.429   4.546   4.149
17005TIP3   OH250891   6.820   1.825   6.228
17005TIP3    H150892   6.895   1.768   6.242
17005TIP3    H250893   6.770   1.782   6.158
17006TIP3   OH250894   0.632   3.257   7.728
17006TIP3    H150895   0.543   3.224   7.720
17006TIP3    H250896   0.670   3.244   7.641
17007TIP3   OH250897   1.210   3.099   3.604
17007TIP3    H150898   1.294   3.122   3.644
17007TIP3    H250899   1.162   3.054   3.673
17008TIP3   OH250900   6.066   0.754   2.061
17008TIP3    H150901   6.137   0.697   2.030
17008TIP3    H250902   5.994   0.694   2.080
17009TIP3   OH250903   7.951   6.503   1.244
17009TIP3    H150904   7.938   6.531   1.153
17009TIP3    H250905   8.024   6.441   1.239
17010TIP3   OH250906   0.372   7.561   5.921
17010TIP3    H150907   0.431   7.635   5.937
17010TIP3    H250908   0.289   7.588   5.960
17011TIP3   OH250909   8.913   8.196   1.448
17011TIP3    H150910   9.003   8.195   1.481
17011TIP3    H250911   8.873   8.118   1.486
17012TIP3   OH250912   2.938   8.232   1.074
17012TIP3    H150913   2.865   8.172   1.060
17012TIP3    H250914   3.007   8.179   1.113
17013TIP3   OH250915   7.209   7.833   3.173
17013TIP3    H150916   7.170   7.879   3.247
17013TIP3    H250917   7.295   7.806   3.203
17014TIP3   OH250918   7.152   5.315   2.480
17014TIP3    H150919   7.211   5.267   2.423
17014TIP3    H250920   7.173   5.283   2.568
17015TIP3   OH250921   8.879   8.041   4.269
17015TIP3    H150922   8.914   8.031   4.180
17015TIP3    H250923   8.785   8.052   4.257
17016TIP3   OH250924   4.007   3.710   6.972
17016TIP3    H150925   4.020   3.615   6.974
17016TIP3    H250926   4.060   3.743   7.045
17017TIP3   OH250927   0.419   3.971   1.784
17017TIP3    H150928   0.416   3.998   1.692
17017TIP3    H250929   0.451   4.048   1.830
17018TIP3   OH250930   3.028   3.538   0.111
17018TIP3    H150931   3.081   3.616   0.128
17018TIP3    H250932   2.974   3.529   0.190
17019TIP3   OH250933   8.672   7.644   6.049
17019TIP3    H150934   8.751   7.684   6.012
17019TIP3    H250935   8.662   7.562   6.000
17020TIP3   OH250936   6.571   4.052   3.427
17020TIP3    H150937   6.597   4.010   3.345
17020TIP3    H250938   6.481   4.023   3.441
17021TIP3   OH250939   1.673   8.398   4.524
17021TIP3    H150940   1.655   8.470   4.463
17021TIP3    H250941   1.650   8.319   4.474
17022TIP3   OH250942   9.017   6.318   0.787
17022TIP3    H150943   9.078   6.374   0.835
17022TIP3    H250944   8.952   6.291   0.853
17023TIP3   OH250945   4.983   4.022   2.540
17023TIP3    H150946   4.967   4.110   2.505
17023TIP3    H250947   5.068   4.029   2.584
17024TIP3   OH250948   4.983   8.080   6.736
17024TIP3    H150949   4.951   7.992   6.756
17024TIP3    H250950   5.079   8.071   6.736
17025TIP3   OH250951   2.957   7.689   3.346
17025TIP3    H150952   2.891   7.663   3.283
17025TIP3    H250953   2.993   7.607   3.379
17026TIP3   OH250954   7.712   1.581   2.939
17026TIP3    H150955   7.717   1.542   2.851
17026TIP3    H250956   7.644   1.531   2.983
17027TIP3   OH250957   8.122   3.022   3.722
17027TIP3    H150958   8.178   3.046   3.648
17027TIP3    H250959   8.142   3.085   3.790
17028TIP3   OH250960   1.859   1.236   2.836
17028TIP3    H150961   1.790   1.181   2.873
17028TIP3    H250962   1.935   1.221   2.892
17029TIP3   OH250963   0.321   6.002   2.604
17029TIP3    H150964   0.379   6.077   2.612
17029TIP3    H250965   0.331   5.972   2.513
17030TIP3   OH250966   9.350   1.098   7.121
17030TIP3    H150967   9.308   1.183   7.133
17030TIP3    H250968   9.315   1.066   7.038
17031TIP3   OH250969   2.315   4.403   3.925
17031TIP3    H150970   2.342   4.424   3.836
17031TIP3    H250971   2.252   4.331   3.915
17032TIP3   OH250972   7.219   6.484   3.281
17032TIP3    H150973   7.140   6.457   3.235
17032TIP3    H250974   7.289   6.431   3.242
17033TIP3   OH250975   1.000   9.003   0.175
17033TIP3    H150976   0.993   9.078   0.233
17033TIP3    H250977   1.031   9.039   0.092
17034TIP3   OH250978   0.583   5.845   6.911
17034TIP3    H150979   0.523   5.801   6.851
17034TIP3    H250980   0.529   5.868   6.986
17035TIP3   OH250981   4.451   7.696   1.245
17035TIP3    H150982   4.421   7.785   1.222
17035TIP3    H250983   4.374   7.641   1.231
17036TIP3   OH250984   0.566   4.464   4.467
17036TIP3    H150985   0.592   4.413   4.391
17036TIP3    H250986   0.519   4.403   4.523
17037TIP3   OH250987   0.955   8.120   7.796
17037TIP3    H150988   0.957   8.057   7.868
17037TIP3    H250989   0.968   8.068   7.717
17038TIP3   OH250990   6.793   0.255   6.963
17038TIP3    H150991   6.758   0.236   7.050
17038TIP3    H250992   6.734   0.321   6.927
17039TIP3   OH250993   6.550   0.549   4.336
17039TIP3    H150994   6.570   0.643   4.331
17039TIP3    H250995   6.467   0.545   4.385
17040TIP3   OH250996   8.775   1.506   0.531
17040TIP3    H150997   8.854   1.559   0.527
17040TIP3    H250998   8.753   1.490   0.439
17041TIP3   OH250999   7.171   8.390   6.775
17041TIP3    H151000   7.169   8.390   6.680
17041TIP3    H251001   7.203   8.478   6.798
17042TIP3   OH251002   5.586   7.554   1.909
17042TIP3    H151003   5.624   7.468   1.928
17042TIP3    H251004   5.531   7.573   1.984
17043TIP3   OH251005   5.417   2.098   7.582
17043TIP3    H151006   5.479   2.141   7.641
17043TIP3    H251007   5.334   2.103   7.629
17044TIP3   OH251008   1.560   2.881   0.306
17044TIP3    H151009   1.527   2.792   0.289
17044TIP3    H251010   1.537   2.898   0.398
17045TIP3   OH251011   8.913   2.131   2.647
17045TIP3    H151012   8.866   2.076   2.584
17045TIP3    H251013   8.903   2.086   2.731
17046TIP3   OH251014   7.534   4.926   2.543
17046TIP3    H151015   7.491   4.877   2.614
17046TIP3    H251016   7.566   4.858   2.484
17047TIP3   OH251017   3.630   4.370   5.981
17047TIP3    H151018   3.654   4.278   5.972
17047TIP3    H251019   3.685   4.403   6.052
17048TIP3   OH251020   1.352   6.104   2.110
17048TIP3    H151021   1.384   6.013   2.112
17048TIP3    H251022   1.257   6.095   2.101
17049TIP3   OH251023   8.147   3.652   4.566
17049TIP3    H151024   8.142   3.558   4.584
17049TIP3    H251025   8.240   3.673   4.577
17050TIP3   OH251026   1.339   7.279   7.389
17050TIP3    H151027   1.369   7.188   7.390
17050TIP3    H251028   1.395   7.322   7.325
17051TIP3   OH251029   8.337   3.483   1.985
17051TIP3    H151030   8.359   3.513   2.073
17051TIP3    H251031   8.336   3.562   1.932
17052TIP3   OH251032   6.817   2.564   6.510
17052TIP3    H151033   6.875   2.546   6.436
17052TIP3    H251034   6.828   2.489   6.568
17053TIP3   OH251035   9.070   8.863   2.560
17053TIP3    H151036   9.124   8.941   2.574
17053TIP3    H251037   9.087   8.838   2.469
17054TIP3   OH251038   3.662   4.032   3.720
17054TIP3    H151039   3.624   4.076   3.644
17054TIP3    H251040   3.731   3.976   3.684
17055TIP3   OH251041   5.788   6.762   0.036
17055TIP3    H151042   5.813   6.850   0.009
17055TIP3    H251043   5.802   6.707  -0.041
17056TIP3   OH251044   2.098   8.798   1.534
17056TIP3    H151045   2.129   8.784   1.445
17056TIP3    H251046   2.048   8.719   1.555
17057TIP3   OH251047   8.768   4.293   5.905
17057TIP3    H151048   8.703   4.283   5.974
17057TIP3    H251049   8.809   4.378   5.923
17058TIP3   OH251050   5.490   0.606   6.901
17058TIP3    H151051   5.458   0.519   6.925
17058TIP3    H251052   5.532   0.639   6.980
17059TIP3   OH251053   4.949   8.783   1.122
17059TIP3    H151054   4.944   8.873   1.089
17059TIP3    H251055   4.999   8.735   1.056
17060TIP3   OH251056   6.888   8.394   1.947
17060TIP3    H151057   6.927   8.431   2.026
17060TIP3    H251058   6.959   8.343   1.907
17061TIP3   OH251059   2.214   1.645   5.993
17061TIP3    H151060   2.247   1.641   6.083
17061TIP3    H251061   2.120   1.660   6.003
17062TIP3   OH251062   0.009   3.663   3.682
17062TIP3    H151063   0.092   3.686   3.722
17062TIP3    H251064   0.018   3.690   3.591
17063TIP3   OH251065   5.199   3.889   5.049
17063TIP3    H151066   5.212   3.931   5.134
17063TIP3    H251067   5.228   3.799   5.062
17064TIP3   OH251068   0.954   8.065   6.867
17064TIP3    H151069   0.873   8.113   6.883
17064TIP3    H251070   1.014   8.131   6.833
17065TIP3   OH251071   7.130   1.132   3.051
17065TIP3    H151072   7.110   1.226   3.058
17065TIP3    H251073   7.061   1.097   2.994
17066TIP3   OH251074   8.133   2.748   2.629
17066TIP3    H151075   8.196   2.820   2.632
17066TIP3    H251076   8.068   2.770   2.695
17067TIP3   OH251077   5.636   1.375   3.273
17067TIP3    H151078   5.721   1.393   3.234
17067TIP3    H251079   5.581   1.348   3.199
17068TIP3   OH251080   2.151   2.297   4.642
17068TIP3    H151081   2.167   2.240   4.567
17068TIP3    H251082   2.104   2.242   4.705
17069TIP3   OH251083   7.072   0.528   2.466
17069TIP3    H151084   7.029   0.614   2.471
17069TIP3    H251085   7.107   0.513   2.554
17070TIP3   OH251086   7.831   4.695   1.923
17070TIP3    H151087   7.829   4.601   1.902
17070TIP3    H251088   7.880   4.734   1.851
17071TIP3   OH251089   7.682   6.062   3.965
17071TIP3    H151090   7.635   6.029   3.888
17071TIP3    H251091   7.722   6.143   3.935
17072TIP3   OH251092   6.957   2.008   4.479
17072TIP3    H151093   6.992   2.077   4.422
17072TIP3    H251094   6.966   1.928   4.428
17073TIP3   OH251095   7.741   6.831   5.832
17073TIP3    H151096   7.769   6.779   5.907
17073TIP3    H251097   7.645   6.826   5.834
17074TIP3   OH251098   8.803   6.966   4.756
17074TIP3    H151099   8.718   6.978   4.715
17074TIP3    H251100   8.791   6.891   4.814
17075TIP3   OH251101   0.915   6.926   3.995
17075TIP3    H151102   0.969   6.878   3.933
17075TIP3    H251103   0.937   7.018   3.981
17076TIP3   OH251104   8.477   2.506   3.334
17076TIP3    H151105   8.511   2.530   3.247
17076TIP3    H251106   8.430   2.424   3.320
17077TIP3   OH251107   9.008   4.680   5.415
17077TIP3    H151108   9.099   4.704   5.433
17077TIP3    H251109   8.999   4.591   5.447
17078TIP3   OH251110   0.770   3.681   1.986
17078TIP3    H151111   0.728   3.724   1.911
17078TIP3    H251112   0.708   3.613   2.013
17079TIP3   OH251113   4.430   1.979   7.773
17079TIP3    H151114   4.515   1.967   7.732
17079TIP3    H251115   4.368   1.937   7.712
17080TIP3   OH251116   9.225   5.039   5.497
17080TIP3    H151117   9.267   5.075   5.576
17080TIP3    H251118   9.260   5.091   5.425
17081TIP3   OH251119   3.163   0.744   0.919
17081TIP3    H151120   3.146   0.678   0.987
17081TIP3    H251121   3.085   0.798   0.918
17082TIP3   OH251122   7.058   3.148   7.250
17082TIP3    H151123   7.050   3.228   7.303
17082TIP3    H251124   6.981   3.096   7.274
17083TIP3   OH251125   0.148   5.517   2.288
17083TIP3    H151126   0.176   5.536   2.377
17083TIP3    H251127   0.199   5.576   2.233
17084TIP3   OH251128   5.011   8.349   3.813
17084TIP3    H151129   5.099   8.310   3.812
17084TIP3    H251130   5.023   8.434   3.854
17085TIP3   OH251131   3.436   1.278   2.662
17085TIP3    H151132   3.361   1.247   2.714
17085TIP3    H251133   3.504   1.294   2.727
17086TIP3   OH251134   2.722   8.780   0.429
17086TIP3    H151135   2.669   8.701   0.418
17086TIP3    H251136   2.663   8.852   0.410
17087TIP3   OH251137   4.652   6.717   6.973
17087TIP3    H151138   4.644   6.621   6.975
17087TIP3    H251139   4.744   6.732   6.954
17088TIP3   OH251140   1.550   8.484   1.287
17088TIP3    H151141   1.481   8.546   1.266
17088TIP3    H251142   1.529   8.406   1.236
17089TIP3   OH251143   2.342   3.919   2.668
17089TIP3    H151144   2.312   3.968   2.744
17089TIP3    H251145   2.339   3.827   2.696
17090TIP3   OH251146   6.327   8.210   6.192
17090TIP3    H151147   6.354   8.133   6.141
17090TIP3    H251148   6.355   8.285   6.139
17091TIP3   OH251149   8.860   6.197   3.237
17091TIP3    H151150   8.954   6.179   3.242
17091TIP3    H251151   8.829   6.188   3.327
17092TIP3   OH251152   8.001   7.860   7.109
17092TIP3    H151153   7.929   7.822   7.058
17092TIP3    H251154   8.079   7.814   7.078
17093TIP3   OH251155   3.957   0.401   7.091
17093TIP3    H151156   3.875   0.423   7.049
17093TIP3    H251157   3.995   0.333   7.036
17094TIP3   OH251158   9.208   2.380   3.401
17094TIP3    H151159   9.303   2.387   3.414
17094TIP3    H251160   9.171   2.439   3.467
17095TIP3   OH251161   1.324   4.761   1.361
17095TIP3    H151162   1.389   4.800   1.303
17095TIP3    H251163   1.301   4.678   1.319
17096TIP3   OH251164   8.153   3.890   3.897
17096TIP3    H151165   8.063   3.868   3.921
17096TIP3    H251166   8.204   3.878   3.978
17097TIP3   OH251167   3.856   8.408   0.153
17097TIP3    H151168   3.868   8.313   0.150
17097TIP3    H251169   3.881   8.433   0.242
17098TIP3   OH251170   0.717   3.525   4.811
17098TIP3    H151171   0.647   3.460   4.806
17098TIP3    H251172   0.797   3.476   4.789
17099TIP3   OH251173   3.222   6.746   5.875
17099TIP3    H151174   3.132   6.766   5.846
17099TIP3    H251175   3.276   6.763   5.798
17100TIP3   OH251176   9.536   2.299   0.154
17100TIP3    H151177   9.586   2.226   0.190
17100TIP3    H251178   9.447   2.265   0.146
17101TIP3   OH251179   7.269   5.449   5.672
17101TIP3    H151180   7.268   5.532   5.719
17101TIP3    H251181   7.313   5.469   5.589
17102TIP3   OH251182   8.032   2.390   0.941
17102TIP3    H151183   8.092   2.459   0.912
17102TIP3    H251184   8.089   2.316   0.963
17103TIP3   OH251185   0.657   2.121   7.742
17103TIP3    H151186   0.693   2.092   7.825
17103TIP3    H251187   0.565   2.093   7.744
17104TIP3   OH251188   1.960   6.306   4.377
17104TIP3    H151189   1.915   6.390   4.373
17104TIP3    H251190   1.973   6.291   4.471
17105TIP3   OH251191   3.261   0.492   3.062
17105TIP3    H151192   3.289   0.577   3.096
17105TIP3    H251193   3.167   0.489   3.079
17106TIP3   OH251194   0.199   0.038   3.692
17106TIP3    H151195   0.247   0.105   3.643
17106TIP3    H251196   0.197  -0.038   3.633
17107TIP3   OH251197   3.106   6.878   7.608
17107TIP3    H151198   3.189   6.840   7.636
17107TIP3    H251199   3.040   6.828   7.657
17108TIP3   OH251200   7.284   6.327   1.188
17108TIP3    H151201   7.249   6.391   1.251
17108TIP3    H251202   7.363   6.369   1.153
17109TIP3   OH251203   6.774   3.928   4.683
17109TIP3    H151204   6.730   4.011   4.698
17109TIP3    H251205   6.704   3.869   4.655
17110TIP3   OH251206   1.819   0.150   5.020
17110TIP3    H151207   1.793   0.242   5.032
17110TIP3    H251208   1.738   0.101   5.034
17111TIP3   OH251209   3.478   6.927   0.420
17111TIP3    H151210   3.546   6.910   0.486
17111TIP3    H251211   3.471   7.022   0.418
17112TIP3   OH251212   9.263   5.749   3.733
17112TIP3    H151213   9.233   5.838   3.753
17112TIP3    H251214   9.276   5.708   3.818
17113TIP3   OH251215   6.270   3.882   5.256
17113TIP3    H151216   6.283   3.957   5.314
17113TIP3    H251217   6.348   3.828   5.269
17114TIP3   OH251218   1.466   0.680   5.820
17114TIP3    H151219   1.431   0.737   5.889
17114TIP3    H251220   1.407   0.695   5.745
17115TIP3   OH251221   8.344   7.681   0.819
17115TIP3    H151222   8.339   7.727   0.735
17115TIP3    H251223   8.294   7.737   0.880
17116TIP3   OH251224   5.203   1.140   1.041
17116TIP3    H151225   5.215   1.061   0.989
17116TIP3    H251226   5.108   1.150   1.048
17117TIP3   OH251227   6.518   0.890   6.898
17117TIP3    H151228   6.468   0.823   6.944
17117TIP3    H251229   6.578   0.841   6.842
17118TIP3   OH251230   1.838   5.545   6.967
17118TIP3    H151231   1.872   5.587   6.888
17118TIP3    H251232   1.796   5.465   6.936
17119TIP3   OH251233   6.297   3.947   4.249
17119TIP3    H151234   6.224   3.952   4.311
17119TIP3    H251235   6.373   3.924   4.302
17120TIP3   OH251236   7.264   3.850   7.256
17120TIP3    H151237   7.230   3.850   7.346
17120TIP3    H251238   7.352   3.813   7.265
17121TIP3   OH251239   2.509   4.006   1.832
17121TIP3    H151240   2.501   3.915   1.860
17121TIP3    H251241   2.598   4.012   1.796
17122TIP3   OH251242   6.478   2.022   1.183
17122TIP3    H151243   6.384   2.034   1.174
17122TIP3    H251244   6.508   2.000   1.094
17123TIP3   OH251245   7.106   5.105   3.028
17123TIP3    H151246   7.136   5.124   2.940
17123TIP3    H251247   7.105   5.009   3.033
17124TIP3   OH251248   1.637   2.605   1.464
17124TIP3    H151249   1.631   2.688   1.416
17124TIP3    H251250   1.726   2.604   1.500
17125TIP3   OH251251   1.585   4.804   3.045
17125TIP3    H151252   1.499   4.813   3.087
17125TIP3    H251253   1.565   4.797   2.952
17126TIP3   OH251254   2.601   6.441   6.215
17126TIP3    H151255   2.694   6.422   6.206
17126TIP3    H251256   2.597   6.508   6.284
17127TIP3   OH251257   1.601   8.202   4.340
17127TIP3    H151258   1.557   8.120   4.319
17127TIP3    H251259   1.694   8.181   4.340
17128TIP3   OH251260   4.964   6.266   3.332
17128TIP3    H151261   4.969   6.250   3.426
17128TIP3    H251262   4.878   6.232   3.307
17129TIP3   OH251263   2.321   2.998   0.991
17129TIP3    H151264   2.387   2.973   0.926
17129TIP3    H251265   2.283   2.915   1.020
17130TIP3   OH251266   0.631   5.822   1.883
17130TIP3    H151267   0.671   5.736   1.893
17130TIP3    H251268   0.626   5.835   1.788
17131TIP3   OH251269   1.265   6.524   7.437
17131TIP3    H151270   1.197   6.552   7.376
17131TIP3    H251271   1.346   6.528   7.386
17132TIP3   OH251272   4.237   4.882   1.719
17132TIP3    H151273   4.271   4.958   1.672
17132TIP3    H251274   4.236   4.910   1.811
17133TIP3   OH251275   2.054   4.504   4.869
17133TIP3    H151276   2.066   4.526   4.777
17133TIP3    H251277   1.959   4.496   4.879
17134TIP3   OH251278   3.751   5.694   4.294
17134TIP3    H151279   3.776   5.612   4.250
17134TIP3    H251280   3.656   5.695   4.290
17135TIP3   OH251281   2.009   1.673   4.052
17135TIP3    H151282   1.944   1.631   3.996
17135TIP3    H251283   1.964   1.687   4.135
17136TIP3   OH251284   9.303   2.298   0.352
17136TIP3    H151285   9.275   2.356   0.423
17136TIP3    H251286   9.242   2.224   0.356
17137TIP3   OH251287   1.042   3.773   7.357
17137TIP3    H151288   1.107   3.704   7.342
17137TIP3    H251289   1.039   3.782   7.452
17138TIP3   OH251290   3.731   6.098   6.714
17138TIP3    H151291   3.816   6.055   6.700
17138TIP3    H251292   3.751   6.172   6.771
17139TIP3   OH251293   5.910   2.351   5.732
17139TIP3    H151294   5.833   2.346   5.675
17139TIP3    H251295   5.929   2.260   5.756
17140TIP3   OH251296   7.331   0.004   4.257
17140TIP3    H151297   7.338   0.013   4.352
17140TIP3    H251298   7.240  -0.019   4.241
17141TIP3   OH251299   5.271   3.251   3.416
17141TIP3    H151300   5.339   3.312   3.443
17141TIP3    H251301   5.194   3.306   3.401
17142TIP3   OH251302   3.225   8.259   0.842
17142TIP3    H151303   3.173   8.335   0.870
17142TIP3    H251304   3.297   8.297   0.791
17143TIP3   OH251305   7.059   5.724   1.697
17143TIP3    H151306   7.037   5.678   1.615
17143TIP3    H251307   7.089   5.810   1.668
17144TIP3   OH251308   9.441   3.053   2.906
17144TIP3    H151309   9.372   3.113   2.881
17144TIP3    H251310   9.520   3.108   2.913
17145TIP3   OH251311   4.461   3.859   2.509
17145TIP3    H151312   4.547   3.868   2.467
17145TIP3    H251313   4.480   3.818   2.594
17146TIP3   OH251314   0.633   2.003   4.091
17146TIP3    H151315   0.636   2.034   4.182
17146TIP3    H251316   0.546   2.030   4.060
17147TIP3   OH251317   2.488   3.684   1.494
17147TIP3    H151318   2.493   3.636   1.576
17147TIP3    H251319   2.522   3.624   1.428
17148TIP3   OH251320   3.609   4.672   2.955
17148TIP3    H151321   3.567   4.657   3.040
17148TIP3    H251322   3.632   4.765   2.956
17149TIP3   OH251323   6.561   2.963   1.690
17149TIP3    H151324   6.646   2.925   1.668
17149TIP3    H251325   6.530   2.913   1.765
17150TIP3   OH251326   9.557   0.384   4.026
17150TIP3    H151327   9.599   0.470   4.035
17150TIP3    H251328   9.604   0.342   3.954
17151TIP3   OH251329   2.331   6.542   0.893
17151TIP3    H151330   2.315   6.476   0.825
17151TIP3    H251331   2.258   6.532   0.954
17152TIP3   OH251332   3.897   1.723   7.522
17152TIP3    H151333   3.882   1.729   7.428
17152TIP3    H251334   3.927   1.810   7.548
17153TIP3   OH251335   6.387   3.863   0.420
17153TIP3    H151336   6.314   3.804   0.439
17153TIP3    H251337   6.349   3.932   0.365
17154TIP3   OH251338   3.875   4.212   3.540
17154TIP3    H151339   3.793   4.206   3.492
17154TIP3    H251340   3.853   4.257   3.621
17155TIP3   OH251341   2.803   4.251   6.655
17155TIP3    H151342   2.832   4.276   6.567
17155TIP3    H251343   2.837   4.319   6.712
17156TIP3   OH251344   4.411   2.625   5.535
17156TIP3    H151345   4.420   2.646   5.442
17156TIP3    H251346   4.442   2.703   5.581
17157TIP3   OH251347   3.296   7.709   6.395
17157TIP3    H151348   3.354   7.736   6.325
17157TIP3    H251349   3.324   7.620   6.417
17158TIP3   OH251350   9.088   3.369   5.147
17158TIP3    H151351   9.174   3.384   5.187
17158TIP3    H251352   9.107   3.346   5.056
17159TIP3   OH251353   5.332   3.735   6.447
17159TIP3    H151354   5.352   3.765   6.536
17159TIP3    H251355   5.270   3.800   6.413
17160TIP3   OH251356   1.086   1.584   5.493
17160TIP3    H151357   1.115   1.504   5.449
17160TIP3    H251358   1.119   1.655   5.438
17161TIP3   OH251359   6.761   5.173   2.109
17161TIP3    H151360   6.800   5.099   2.155
17161TIP3    H251361   6.688   5.201   2.165
17162TIP3   OH251362   5.402   4.316   0.751
17162TIP3    H151363   5.495   4.338   0.756
17162TIP3    H251364   5.357   4.392   0.789
17163TIP3   OH251365   9.444   0.251   7.224
17163TIP3    H151366   9.348   0.251   7.222
17163TIP3    H251367   9.471   0.284   7.139
17164TIP3   OH251368   0.416   0.375   6.790
17164TIP3    H151369   0.337   0.414   6.827
17164TIP3    H251370   0.460   0.447   6.744
17165TIP3   OH251371   8.747   3.162   1.706
17165TIP3    H151372   8.686   3.194   1.774
17165TIP3    H251373   8.692   3.110   1.647
17166TIP3   OH251374   0.980   2.224   5.560
17166TIP3    H151375   1.063   2.265   5.534
17166TIP3    H251376   0.937   2.289   5.616
17167TIP3   OH251377   0.466   5.355   3.858
17167TIP3    H151378   0.384   5.396   3.831
17167TIP3    H251379   0.506   5.326   3.776
17168TIP3   OH251380   7.882   5.488   2.996
17168TIP3    H151381   7.977   5.481   3.003
17168TIP3    H251382   7.868   5.553   2.927
17169TIP3   OH251383   5.396   3.348   3.940
17169TIP3    H151384   5.432   3.332   4.027
17169TIP3    H251385   5.332   3.418   3.953
17170TIP3   OH251386   4.262   3.388   6.965
17170TIP3    H151387   4.258   3.312   6.907
17170TIP3    H251388   4.179   3.386   7.013
17171TIP3   OH251389   7.249   7.382   3.883
17171TIP3    H151390   7.169   7.338   3.911
17171TIP3    H251391   7.295   7.402   3.965
17172TIP3   OH251392   2.367   0.732   1.115
17172TIP3    H151393   2.381   0.694   1.028
17172TIP3    H251394   2.338   0.659   1.169
17173TIP3   OH251395   7.334   7.526   0.185
17173TIP3    H151396   7.299   7.437   0.176
17173TIP3    H251397   7.264   7.582   0.152
17174TIP3   OH251398   5.097   6.972   1.068
17174TIP3    H151399   5.127   6.945   1.155
17174TIP3    H251400   5.152   6.922   1.008
17175TIP3   OH251401   1.944   5.380   2.177
17175TIP3    H151402   2.033   5.387   2.142
17175TIP3    H251403   1.924   5.468   2.209
17176TIP3   OH251404   6.488   7.112   2.812
17176TIP3    H151405   6.461   7.153   2.894
17176TIP3    H251406   6.409   7.071   2.779
17177TIP3   OH251407   4.206   8.189   5.293
17177TIP3    H151408   4.274   8.225   5.236
17177TIP3    H251409   4.221   8.231   5.378
17178TIP3   OH251410   0.181   5.933   4.727
17178TIP3    H151411   0.179   5.964   4.818
17178TIP3    H251412   0.127   5.995   4.679
17179TIP3   OH251413   4.854   6.295   5.644
17179TIP3    H151414   4.947   6.277   5.630
17179TIP3    H251415   4.811   6.262   5.565
17180TIP3   OH251416   6.954   1.302   5.654
17180TIP3    H151417   6.957   1.365   5.582
17180TIP3    H251418   6.928   1.220   5.613
17181TIP3   OH251419   2.900   8.267   6.347
17181TIP3    H151420   2.863   8.353   6.329
17181TIP3    H251421   2.927   8.234   6.262
17182TIP3   OH251422   0.026   7.559   4.527
17182TIP3    H151423   0.055   7.603   4.447
17182TIP3    H251424   0.056   7.616   4.598
17183TIP3   OH251425   1.537   7.155   2.878
17183TIP3    H151426   1.443   7.142   2.891
17183TIP3    H251427   1.577   7.076   2.914
17184TIP3   OH251428   4.340   0.008   4.954
17184TIP3    H151429   4.417   0.057   4.927
17184TIP3    H251430   4.300   0.061   5.023
17185TIP3   OH251431   1.568   2.385   6.079
17185TIP3    H151432   1.624   2.461   6.090
17185TIP3    H251433   1.541   2.361   6.167
17186TIP3   OH251434   2.417   4.200   2.475
17186TIP3    H151435   2.498   4.206   2.425
17186TIP3    H251436   2.400   4.106   2.482
17187TIP3   OH251437   6.716   8.020   2.511
17187TIP3    H151438   6.795   7.970   2.532
17187TIP3    H251439   6.738   8.067   2.431
17188TIP3   OH251440   9.500   5.626   4.783
17188TIP3    H151441   9.559   5.641   4.857
17188TIP3    H251442   9.426   5.685   4.799
17189TIP3   OH251443   2.215   2.438   5.299
17189TIP3    H151444   2.295   2.386   5.308
17189TIP3    H251445   2.153   2.379   5.257
17190TIP3   OH251446   7.480   1.900   5.814
17190TIP3    H151447   7.491   1.888   5.719
17190TIP3    H251448   7.570   1.899   5.849
17191TIP3   OH251449   6.545   8.584   3.632
17191TIP3    H151450   6.640   8.593   3.628
17191TIP3    H251451   6.529   8.490   3.616
17192TIP3   OH251452   0.938   5.597   6.193
17192TIP3    H151453   0.959   5.505   6.204
17192TIP3    H251454   0.983   5.641   6.265
17193TIP3   OH251455   0.530   0.528   2.840
17193TIP3    H151456   0.612   0.478   2.834
17193TIP3    H251457   0.554   0.617   2.815
17194TIP3   OH251458   3.728   1.928   5.590
17194TIP3    H151459   3.665   1.859   5.567
17194TIP3    H251460   3.788   1.932   5.516
17195TIP3   OH251461   5.676   8.618   4.004
17195TIP3    H151462   5.622   8.697   4.000
17195TIP3    H251463   5.710   8.607   3.915
17196TIP3   OH251464   3.160   1.127   4.016
17196TIP3    H151465   3.167   1.122   4.111
17196TIP3    H251466   3.076   1.087   3.996
17197TIP3   OH251467   3.344   3.677   6.883
17197TIP3    H151468   3.416   3.649   6.826
17197TIP3    H251469   3.272   3.698   6.823
17198TIP3   OH251470   0.554   6.962   0.723
17198TIP3    H151471   0.583   7.032   0.665
17198TIP3    H251472   0.573   6.882   0.674
17199TIP3   OH251473   6.018   0.511   6.670
17199TIP3    H151474   6.013   0.426   6.714
17199TIP3    H251475   6.073   0.495   6.593
17200TIP3   OH251476   2.460   7.230   2.842
17200TIP3    H151477   2.377   7.266   2.872
17200TIP3    H251478   2.523   7.256   2.910
17201TIP3   OH251479   9.234   2.478   0.583
17201TIP3    H151480   9.148   2.519   0.596
17201TIP3    H251481   9.291   2.520   0.647
17202TIP3   OH251482   5.965   8.500   5.378
17202TIP3    H151483   6.000   8.564   5.316
17202TIP3    H251484   5.940   8.552   5.455
17203TIP3   OH251485   7.015   6.081   6.736
17203TIP3    H151486   6.920   6.076   6.738
17203TIP3    H251487   7.041   6.081   6.828
17204TIP3   OH251488   4.383   0.090   2.922
17204TIP3    H151489   4.301   0.041   2.922
17204TIP3    H251490   4.451   0.024   2.925
17205TIP3   OH251491   7.076   6.812   1.405
17205TIP3    H151492   7.019   6.778   1.336
17205TIP3    H251493   7.155   6.757   1.400
17206TIP3   OH251494   8.246   5.383   3.575
17206TIP3    H151495   8.242   5.466   3.622
17206TIP3    H251496   8.323   5.338   3.611
17207TIP3   OH251497   6.943   0.551   1.058
17207TIP3    H151498   6.892   0.564   1.139
17207TIP3    H251499   6.920   0.626   1.003
17208TIP3   OH251500   7.583   4.826   3.318
17208TIP3    H151501   7.498   4.868   3.332
17208TIP3    H251502   7.632   4.844   3.398
17209TIP3   OH251503   1.416   2.491   2.025
17209TIP3    H151504   1.460   2.574   2.008
17209TIP3    H251505   1.417   2.445   1.942
17210TIP3   OH251506   1.956   2.434   4.536
17210TIP3    H151507   1.927   2.471   4.620
17210TIP3    H251508   2.040   2.393   4.555
17211TIP3   OH251509   2.203   3.364   4.762
17211TIP3    H151510   2.297   3.371   4.746
17211TIP3    H251511   2.183   3.271   4.745
17212TIP3   OH251512   9.289   4.252   3.932
17212TIP3    H151513   9.208   4.260   3.882
17212TIP3    H251514   9.293   4.332   3.985
17213TIP3   OH251515   1.240   0.568   7.338
17213TIP3    H151516   1.282   0.594   7.420
17213TIP3    H251517   1.294   0.495   7.306
17214TIP3   OH251518   7.806   7.350   2.133
17214TIP3    H151519   7.896   7.372   2.157
17214TIP3    H251520   7.800   7.255   2.149
17215TIP3   OH251521   0.108   5.179   4.252
17215TIP3    H151522   0.105   5.105   4.191
17215TIP3    H251523   0.022   5.179   4.294
17216TIP3   OH251524   5.630   1.718   4.623
17216TIP3    H151525   5.545   1.729   4.581
17216TIP3    H251526   5.615   1.654   4.693
17217TIP3   OH251527   2.741   7.204   5.626
17217TIP3    H151528   2.697   7.289   5.620
17217TIP3    H251529   2.696   7.159   5.697
17218TIP3   OH251530   5.340   0.813   2.740
17218TIP3    H151531   5.328   0.721   2.718
17218TIP3    H251532   5.397   0.812   2.817
17219TIP3   OH251533   7.796   2.858   1.923
17219TIP3    H151534   7.737   2.895   1.989
17219TIP3    H251535   7.738   2.828   1.854
17220TIP3   OH251536   2.311   6.331   5.680
17220TIP3    H151537   2.386   6.341   5.739
17220TIP3    H251538   2.256   6.265   5.723
17221TIP3   OH251539   1.760   0.288   1.724
17221TIP3    H151540   1.777   0.280   1.818
17221TIP3    H251541   1.785   0.379   1.703
17222TIP3   OH251542   6.580   5.601   6.137
17222TIP3    H151543   6.641   5.617   6.209
17222TIP3    H251544   6.578   5.684   6.089
17223TIP3   OH251545   3.972   3.049   3.843
17223TIP3    H151546   4.029   3.074   3.916
17223TIP3    H251547   3.959   3.130   3.793
17224TIP3   OH251548   4.693   2.393   7.263
17224TIP3    H151549   4.621   2.454   7.280
17224TIP3    H251550   4.752   2.405   7.338
17225TIP3   OH251551   7.765   3.977   7.354
17225TIP3    H151552   7.700   3.910   7.375
17225TIP3    H251553   7.714   4.055   7.334
17226TIP3   OH251554   0.031   8.866   3.394
17226TIP3    H151555   0.088   8.800   3.355
17226TIP3    H251556   0.061   8.873   3.485
17227TIP3   OH251557   2.491   6.096   5.961
17227TIP3    H151558   2.526   6.180   5.931
17227TIP3    H251559   2.414   6.119   6.014
17228TIP3   OH251560   1.365   4.865   1.042
17228TIP3    H151561   1.295   4.832   0.986
17228TIP3    H251562   1.396   4.789   1.090
17229TIP3   OH251563   9.216   5.187   4.681
17229TIP3    H151564   9.276   5.113   4.685
17229TIP3    H251565   9.159   5.168   4.606
17230TIP3   OH251566   9.279   2.018   2.333
17230TIP3    H151567   9.197   1.979   2.301
17230TIP3    H251568   9.346   1.956   2.305
17231TIP3   OH251569   7.183   5.475   7.098
17231TIP3    H151570   7.179   5.558   7.144
17231TIP3    H251571   7.168   5.498   7.006
17232TIP3   OH251572   4.561   4.839   4.324
17232TIP3    H151573   4.477   4.857   4.367
17232TIP3    H251574   4.551   4.749   4.292
17233TIP3   OH251575   4.272   5.749   4.730
17233TIP3    H151576   4.342   5.727   4.669
17233TIP3    H251577   4.219   5.669   4.736
17234TIP3   OH251578   3.626   1.406   0.687
17234TIP3    H151579   3.530   1.409   0.681
17234TIP3    H251580   3.656   1.400   0.597
17235TIP3   OH251581   2.889   0.403   0.226
17235TIP3    H151582   2.808   0.353   0.222
17235TIP3    H251583   2.956   0.339   0.252
17236TIP3   OH251584   6.047   3.377   1.190
17236TIP3    H151585   6.074   3.409   1.276
17236TIP3    H251586   6.044   3.282   1.200
17237TIP3   OH251587   0.713   6.660   5.119
17237TIP3    H151588   0.781   6.632   5.180
17237TIP3    H251589   0.713   6.592   5.051
17238TIP3   OH251590   3.905   4.702   6.067
17238TIP3    H151591   3.963   4.743   6.132
17238TIP3    H251592   3.931   4.741   5.984
17239TIP3   OH251593   7.982   2.369   5.493
17239TIP3    H151594   7.947   2.295   5.445
17239TIP3    H251595   7.913   2.436   5.489
17240TIP3   OH251596   9.045   1.639   2.735
17240TIP3    H151597   9.115   1.626   2.671
17240TIP3    H251598   9.079   1.600   2.816
17241TIP3   OH251599   9.497   4.993   1.654
17241TIP3    H151600   9.456   5.047   1.587
17241TIP3    H251601   9.590   4.991   1.630
17242TIP3   OH251602   7.497   5.645   4.369
17242TIP3    H151603   7.458   5.680   4.289
17242TIP3    H251604   7.549   5.717   4.404
17243TIP3   OH251605   1.745   7.299   5.213
17243TIP3    H151606   1.697   7.289   5.131
17243TIP3    H251607   1.789   7.215   5.225
17244TIP3   OH251608   2.655   7.972   2.232
17244TIP3    H151609   2.560   7.983   2.219
17244TIP3    H251610   2.661   7.918   2.311
17245TIP3   OH251611   7.767   3.614   5.593
17245TIP3    H151612   7.750   3.535   5.542
17245TIP3    H251613   7.848   3.594   5.641
17246TIP3   OH251614   6.826   5.734   7.758
17246TIP3    H151615   6.778   5.652   7.767
17246TIP3    H251616   6.779   5.782   7.690
17247TIP3   OH251617   5.137   0.045   2.520
17247TIP3    H151618   5.175   0.074   2.602
17247TIP3    H251619   5.211   0.035   2.461
17248TIP3   OH251620   5.576   3.632   6.038
17248TIP3    H151621   5.664   3.597   6.051
17248TIP3    H251622   5.556   3.679   6.119
17249TIP3   OH251623   2.324   7.427   5.424
17249TIP3    H151624   2.370   7.509   5.443
17249TIP3    H251625   2.231   7.449   5.432
17250TIP3   OH251626   5.391   2.950   6.090
17250TIP3    H151627   5.367   2.945   5.998
17250TIP3    H251628   5.407   2.860   6.117
17251TIP3   OH251629   8.160   3.173   3.950
17251TIP3    H151630   8.120   3.260   3.950
17251TIP3    H251631   8.149   3.142   4.040
17252TIP3   OH251632   6.936   2.297   0.917
17252TIP3    H151633   6.944   2.243   0.996
17252TIP3    H251634   6.852   2.272   0.879
17253TIP3   OH251635   1.766   6.785   6.285
17253TIP3    H151636   1.843   6.838   6.307
17253TIP3    H251637   1.755   6.797   6.191
17254TIP3   OH251638   3.179   8.380   3.118
17254TIP3    H151639   3.102   8.436   3.107
17254TIP3    H251640   3.145   8.291   3.108
17255TIP3   OH251641   5.915   2.721   2.081
17255TIP3    H151642   5.998   2.752   2.116
17255TIP3    H251643   5.870   2.800   2.051
17256TIP3   OH251644   2.758   3.984   6.635
17256TIP3    H151645   2.784   3.924   6.566
17256TIP3    H251646   2.810   4.063   6.619
17257TIP3   OH251647   0.780   1.512   5.279
17257TIP3    H151648   0.781   1.519   5.183
17257TIP3    H251649   0.752   1.599   5.308
17258TIP3   OH251650   5.276   2.129   5.606
17258TIP3    H151651   5.355   2.144   5.554
17258TIP3    H251652   5.276   2.198   5.672
17259TIP3   OH251653   7.190   4.112   5.070
17259TIP3    H151654   7.202   4.148   4.983
17259TIP3    H251655   7.122   4.045   5.060
17260TIP3   OH251656   7.942   7.042   0.879
17260TIP3    H151657   7.907   7.115   0.828
17260TIP3    H251658   7.982   6.985   0.814
17261TIP3   OH251659   0.398   0.309   1.975
17261TIP3    H151660   0.452   0.318   1.896
17261TIP3    H251661   0.318   0.358   1.954
17262TIP3   OH251662   1.003   0.949   3.285
17262TIP3    H151663   1.029   0.868   3.329
17262TIP3    H251664   1.064   1.015   3.320
17263TIP3   OH251665   8.429   0.481   4.775
17263TIP3    H151666   8.397   0.568   4.751
17263TIP3    H251667   8.504   0.498   4.832
17264TIP3   OH251668   4.566   7.132   6.176
17264TIP3    H151669   4.645   7.143   6.230
17264TIP3    H251670   4.502   7.092   6.236
17265TIP3   OH251671   7.070   1.003   3.598
17265TIP3    H151672   7.118   1.068   3.547
17265TIP3    H251673   7.080   0.921   3.548
17266TIP3   OH251674   7.091   1.969   0.836
17266TIP3    H151675   7.061   2.011   0.917
17266TIP3    H251676   7.134   1.889   0.865
17267TIP3   OH251677   8.015   1.332   0.000
17267TIP3    H151678   8.024   1.304   0.091
17267TIP3    H251679   7.945   1.278  -0.035
17268TIP3   OH251680   2.237   4.586   4.314
17268TIP3    H151681   2.186   4.505   4.319
17268TIP3    H251682   2.327   4.557   4.301
17269TIP3   OH251683   4.218   0.545   3.426
17269TIP3    H151684   4.300   0.508   3.460
17269TIP3    H251685   4.173   0.579   3.503
17270TIP3   OH251686   9.255   1.063   0.652
17270TIP3    H151687   9.191   1.014   0.703
17270TIP3    H251688   9.202   1.113   0.589
17271TIP3   OH251689   5.375   3.725   1.782
17271TIP3    H151690   5.448   3.706   1.840
17271TIP3    H251691   5.398   3.808   1.741
17272TIP3   OH251692   4.698   6.972   6.764
17272TIP3    H151693   4.768   7.021   6.808
17272TIP3    H251694   4.745   6.906   6.712
17273TIP3   OH251695   6.377   6.410   4.620
17273TIP3    H151696   6.327   6.347   4.568
17273TIP3    H251697   6.459   6.365   4.639
17274TIP3   OH251698   8.844   2.554   1.352
17274TIP3    H151699   8.798   2.638   1.354
17274TIP3    H251700   8.907   2.560   1.425
17275TIP3   OH251701   3.017   0.370   4.255
17275TIP3    H151702   2.994   0.279   4.235
17275TIP3    H251703   2.965   0.422   4.194
17276TIP3   OH251704   9.356   3.656   6.506
17276TIP3    H151705   9.408   3.588   6.462
17276TIP3    H251706   9.355   3.729   6.445
17277TIP3   OH251707   0.508   8.423   2.058
17277TIP3    H151708   0.520   8.372   1.978
17277TIP3    H251709   0.485   8.359   2.124
17278TIP3   OH251710   6.285   6.398   3.364
17278TIP3    H151711   6.302   6.476   3.417
17278TIP3    H251712   6.189   6.397   3.354
17279TIP3   OH251713   0.351   3.344   0.550
17279TIP3    H151714   0.424   3.405   0.553
17279TIP3    H251715   0.356   3.295   0.632
17280TIP3   OH251716   7.927   2.072   0.583
17280TIP3    H151717   7.927   2.165   0.605
17280TIP3    H251718   7.877   2.066   0.501
17281TIP3   OH251719   3.103   7.534   1.438
17281TIP3    H151720   3.149   7.594   1.379
17281TIP3    H251721   3.027   7.505   1.387
17282TIP3   OH251722   6.623   2.577   1.864
17282TIP3    H151723   6.710   2.598   1.896
17282TIP3    H251724   6.637   2.506   1.802
17283TIP3   OH251725   0.219   1.909   6.952
17283TIP3    H151726   0.151   1.903   7.018
17283TIP3    H251727   0.176   1.882   6.871
17284TIP3   OH251728   6.985   8.625   5.063
17284TIP3    H151729   7.062   8.633   5.120
17284TIP3    H251730   6.941   8.710   5.071
17285TIP3   OH251731   1.921   8.420   5.822
17285TIP3    H151732   1.834   8.379   5.816
17285TIP3    H251733   1.903   8.511   5.846
17286TIP3   OH251734   2.247   0.509   7.448
17286TIP3    H151735   2.291   0.583   7.490
17286TIP3    H251736   2.255   0.526   7.354
17287TIP3   OH251737   9.525   8.407   2.866
17287TIP3    H151738   9.557   8.478   2.921
17287TIP3    H251739   9.498   8.339   2.928
17288TIP3   OH251740   8.731   8.327   1.002
17288TIP3    H151741   8.662   8.267   0.973
17288TIP3    H251742   8.795   8.326   0.930
17289TIP3   OH251743   3.112   2.541   6.380
17289TIP3    H151744   3.163   2.613   6.417
17289TIP3    H251745   3.096   2.567   6.290
17290TIP3   OH251746   9.334   3.839   4.607
17290TIP3    H151747   9.367   3.790   4.532
17290TIP3    H251748   9.348   3.931   4.583
17291TIP3   OH251749   6.961   2.019   5.789
17291TIP3    H151750   6.909   2.050   5.863
17291TIP3    H251751   7.024   2.090   5.773
17292TIP3   OH251752   8.994   4.341   2.899
17292TIP3    H151753   8.947   4.420   2.871
17292TIP3    H251754   9.074   4.373   2.939
17293TIP3   OH251755   5.374   6.926   3.891
17293TIP3    H151756   5.353   6.977   3.969
17293TIP3    H251757   5.290   6.915   3.846
17294TIP3   OH251758   5.957   2.791   1.582
17294TIP3    H151759   5.976   2.876   1.621
17294TIP3    H251760   5.863   2.794   1.564
17295TIP3   OH251761   9.398   3.312   3.080
17295TIP3    H151762   9.458   3.294   3.008
17295TIP3    H251763   9.380   3.406   3.074
17296TIP3   OH251764   7.025   8.234   4.140
17296TIP3    H151765   7.057   8.164   4.197
17296TIP3    H251766   6.945   8.265   4.182
17297TIP3   OH251767   0.912   7.746   7.147
17297TIP3    H151768   0.968   7.669   7.157
17297TIP3    H251769   0.874   7.760   7.233
17298TIP3   OH251770   0.121   1.249   2.346
17298TIP3    H151771   0.162   1.335   2.356
17298TIP3    H251772   0.052   1.262   2.281
17299TIP3   OH251773   8.312   2.310   0.794
17299TIP3    H151774   8.305   2.373   0.722
17299TIP3    H251775   8.302   2.364   0.873
17300TIP3   OH251776   7.242   5.311   1.469
17300TIP3    H151777   7.304   5.245   1.500
17300TIP3    H251778   7.298   5.378   1.430
17301TIP3   OH251779   4.639   4.576   7.574
17301TIP3    H151780   4.705   4.592   7.507
17301TIP3    H251781   4.672   4.500   7.623
17302TIP3   OH251782   5.705   6.690   0.591
17302TIP3    H151783   5.801   6.694   0.596
17302TIP3    H251784   5.678   6.656   0.677
17303TIP3   OH251785   3.178   2.589   2.186
17303TIP3    H151786   3.145   2.517   2.240
17303TIP3    H251787   3.258   2.555   2.147
17304TIP3   OH251788   1.132   5.791   0.147
17304TIP3    H151789   1.044   5.762   0.123
17304TIP3    H251790   1.187   5.714   0.134
17305TIP3   OH251791   8.294   8.409   3.768
17305TIP3    H151792   8.331   8.489   3.731
17305TIP3    H251793   8.202   8.410   3.739
17306TIP3   OH251794   8.196   7.631   3.155
17306TIP3    H151795   8.290   7.647   3.144
17306TIP3    H251796   8.187   7.608   3.247
17307TIP3   OH251797   7.862   8.494   5.546
17307TIP3    H151798   7.870   8.578   5.501
17307TIP3    H251799   7.952   8.460   5.551
17308TIP3   OH251800   4.864   0.375   5.531
17308TIP3    H151801   4.952   0.409   5.549
17308TIP3    H251802   4.878   0.288   5.496
17309TIP3   OH251803   2.965   5.896   4.243
17309TIP3    H151804   3.046   5.846   4.231
17309TIP3    H251805   2.909   5.837   4.294
17310TIP3   OH251806   6.283   5.311   5.395
17310TIP3    H151807   6.349   5.353   5.451
17310TIP3    H251808   6.218   5.380   5.381
17311TIP3   OH251809   0.052   5.968   2.645
17311TIP3    H151810   0.142   5.998   2.633
17311TIP3    H251811   0.006   5.995   2.566
17312TIP3   OH251812   6.378   8.358   5.764
17312TIP3    H151813   6.308   8.375   5.701
17312TIP3    H251814   6.452   8.410   5.733
17313TIP3   OH251815   1.675   1.920   5.006
17313TIP3    H151816   1.585   1.949   5.021
17313TIP3    H251817   1.667   1.850   4.942
17314TIP3   OH251818   6.790   3.758   6.758
17314TIP3    H151819   6.841   3.704   6.698
17314TIP3    H251820   6.715   3.704   6.782
17315TIP3   OH251821   8.151   8.305   7.469
17315TIP3    H151822   8.244   8.323   7.453
17315TIP3    H251823   8.106   8.342   7.393
17316TIP3   OH251824   4.357   3.017   2.017
17316TIP3    H151825   4.441   3.023   2.063
17316TIP3    H251826   4.293   2.998   2.086
17317TIP3   OH251827   0.036   2.391   7.549
17317TIP3    H151828  -0.048   2.353   7.575
17317TIP3    H251829   0.098   2.319   7.556
17318TIP3   OH251830   7.508   0.054   7.102
17318TIP3    H151831   7.600   0.057   7.127
17318TIP3    H251832   7.461   0.083   7.180
17319TIP3   OH251833   2.824   2.940   5.192
17319TIP3    H151834   2.777   2.858   5.177
17319TIP3    H251835   2.754   3.004   5.208
17320TIP3   OH251836   6.187   4.548   2.752
17320TIP3    H151837   6.157   4.497   2.677
17320TIP3    H251838   6.113   4.548   2.813
17321TIP3   OH251839   3.553   7.556   7.000
17321TIP3    H151840   3.505   7.527   7.078
17321TIP3    H251841   3.620   7.615   7.033
17322TIP3   OH251842   5.414   7.680   5.492
17322TIP3    H151843   5.438   7.593   5.460
17322TIP3    H251844   5.360   7.662   5.570
17323TIP3   OH251845   1.442   2.163   4.772
17323TIP3    H151846   1.446   2.081   4.722
17323TIP3    H251847   1.512   2.217   4.735
17324TIP3   OH251848   6.062   0.829   3.412
17324TIP3    H151849   6.146   0.867   3.388
17324TIP3    H251850   6.029   0.886   3.482
17325TIP3   OH251851   2.789   7.190   0.854
17325TIP3    H151852   2.788   7.214   0.947
17325TIP3    H251853   2.788   7.095   0.853
17326TIP3   OH251854   9.003   1.245   6.776
17326TIP3    H151855   8.928   1.274   6.830
17326TIP3    H251856   9.078   1.292   6.813
17327TIP3   OH251857   2.683   7.017   3.328
17327TIP3    H151858   2.628   7.032   3.405
17327TIP3    H251859   2.683   7.101   3.282
17328TIP3   OH251860   4.276   1.327   1.515
17328TIP3    H151861   4.295   1.236   1.539
17328TIP3    H251862   4.245   1.321   1.425
17329TIP3   OH251863   6.810   8.596   3.649
17329TIP3    H151864   6.883   8.657   3.657
17329TIP3    H251865   6.826   8.531   3.717
17330TIP3   OH251866   6.644   0.934   6.610
17330TIP3    H151867   6.710   0.968   6.671
17330TIP3    H251868   6.568   0.991   6.622
17331TIP3   OH251869   0.198   5.921   5.337
17331TIP3    H151870   0.279   5.886   5.301
17331TIP3    H251871   0.215   5.929   5.431
17332TIP3   OH251872   2.907   1.010   0.057
17332TIP3    H151873   2.904   1.036   0.150
17332TIP3    H251874   2.866   0.924   0.056
17333TIP3   OH251875   7.250   4.324   2.252
17333TIP3    H151876   7.236   4.237   2.216
17333TIP3    H251877   7.201   4.324   2.335
17334TIP3   OH251878   3.977   1.232   6.397
17334TIP3    H151879   3.929   1.163   6.350
17334TIP3    H251880   4.021   1.282   6.328
17335TIP3   OH251881   7.780   7.115   1.085
17335TIP3    H151882   7.730   7.187   1.045
17335TIP3    H251883   7.853   7.101   1.025
17336TIP3   OH251884   2.141   7.494   2.502
17336TIP3    H151885   2.057   7.453   2.524
17336TIP3    H251886   2.156   7.556   2.573
17337TIP3   OH251887   1.791   4.484   4.557
17337TIP3    H151888   1.709   4.436   4.545
17337TIP3    H251889   1.803   4.487   4.652
17338TIP3   OH251890   0.287   0.632   0.345
17338TIP3    H151891   0.294   0.722   0.376
17338TIP3    H251892   0.206   0.599   0.384
17339TIP3   OH251893   8.795   2.177   2.205
17339TIP3    H151894   8.796   2.257   2.257
17339TIP3    H251895   8.782   2.208   2.115
17340TIP3   OH251896   6.017   5.630   0.341
17340TIP3    H151897   6.071   5.698   0.380
17340TIP3    H251898   6.007   5.565   0.410
17341TIP3   OH251899   0.043   0.134   5.348
17341TIP3    H151900   0.029   0.123   5.254
17341TIP3    H251901  -0.043   0.116   5.386
17342TIP3   OH251902   8.125   7.669   2.687
17342TIP3    H151903   8.043   7.667   2.638
17342TIP3    H251904   8.098   7.661   2.779
17343TIP3   OH251905   5.152   0.684   0.860
17343TIP3    H151906   5.093   0.639   0.921
17343TIP3    H251907   5.200   0.746   0.914
17344TIP3   OH251908   7.008   1.652   5.030
17344TIP3    H151909   6.978   1.743   5.028
17344TIP3    H251910   7.065   1.647   5.106
17345TIP3   OH251911   8.773   3.873   0.363
17345TIP3    H151912   8.856   3.909   0.330
17345TIP3    H251913   8.795   3.784   0.391
17346TIP3   OH251914   1.433   2.256   5.665
17346TIP3    H151915   1.425   2.199   5.741
17346TIP3    H251916   1.344   2.289   5.650
17347TIP3   OH251917   5.428   1.672   6.763
17347TIP3    H151918   5.390   1.602   6.710
17347TIP3    H251919   5.489   1.628   6.821
17348TIP3   OH251920   2.885   7.229   3.846
17348TIP3    H151921   2.828   7.197   3.915
17348TIP3    H251922   2.881   7.162   3.778
17349TIP3   OH251923   1.609   2.092   0.872
17349TIP3    H151924   1.693   2.132   0.895
17349TIP3    H251925   1.623   1.998   0.886
17350TIP3   OH251926   0.228   5.031   6.713
17350TIP3    H151927   0.142   5.028   6.672
17350TIP3    H251928   0.286   5.063   6.644
17351TIP3   OH251929   4.960   4.319   0.259
17351TIP3    H151930   4.878   4.345   0.216
17351TIP3    H251931   4.942   4.232   0.294
17352TIP3   OH251932   4.096   1.000   3.384
17352TIP3    H151933   4.078   0.941   3.458
17352TIP3    H251934   4.184   0.975   3.355
17353TIP3   OH251935   0.270   1.303   1.644
17353TIP3    H151936   0.275   1.310   1.549
17353TIP3    H251937   0.253   1.210   1.661
17354TIP3   OH251938   1.996   0.990   0.641
17354TIP3    H151939   1.972   1.034   0.559
17354TIP3    H251940   2.023   0.902   0.614
17355TIP3   OH251941   1.309   8.600   0.642
17355TIP3    H151942   1.322   8.535   0.574
17355TIP3    H251943   1.215   8.620   0.639
17356TIP3   OH251944   7.531   5.283   0.710
17356TIP3    H151945   7.543   5.365   0.662
17356TIP3    H251946   7.602   5.227   0.679
17357TIP3   OH251947   8.743   2.672   6.742
17357TIP3    H151948   8.821   2.728   6.740
17357TIP3    H251949   8.686   2.713   6.807
17358TIP3   OH251950   4.635   5.063   0.846
17358TIP3    H151951   4.696   5.138   0.850
17358TIP3    H251952   4.600   5.057   0.935
17359TIP3   OH251953   6.233   8.468   0.433
17359TIP3    H151954   6.239   8.460   0.529
17359TIP3    H251955   6.282   8.392   0.400
17360TIP3   OH251956   2.995   8.890   0.877
17360TIP3    H151957   2.926   8.954   0.860
17360TIP3    H251958   3.076   8.940   0.873
17361TIP3   OH251959   7.522   6.822   1.651
17361TIP3    H151960   7.520   6.733   1.685
17361TIP3    H251961   7.613   6.849   1.660
17362TIP3   OH251962   1.564   1.325   1.634
17362TIP3    H151963   1.639   1.301   1.580
17362TIP3    H251964   1.507   1.375   1.575
17363TIP3   OH251965   1.731   0.577   2.377
17363TIP3    H151966   1.818   0.585   2.418
17363TIP3    H251967   1.693   0.664   2.387
17364TIP3   OH251968   3.155   8.222   1.512
17364TIP3    H151969   3.216   8.288   1.479
17364TIP3    H251970   3.114   8.186   1.433
17365TIP3   OH251971   2.159   0.752   7.777
17365TIP3    H151972   2.245   0.785   7.751
17365TIP3    H251973   2.098   0.822   7.754
17366TIP3   OH251974   1.969   8.522   0.516
17366TIP3    H151975   2.036   8.587   0.492
17366TIP3    H251976   1.960   8.467   0.438
17367TIP3   OH251977   1.955   7.860   3.237
17367TIP3    H151978   1.964   7.897   3.149
17367TIP3    H251979   2.033   7.889   3.284
17368TIP3   OH251980   5.366   7.646   4.977
17368TIP3    H151981   5.294   7.604   4.930
17368TIP3    H251982   5.336   7.649   5.068
17369TIP3   OH251983   9.083   4.796   1.639
17369TIP3    H151984   9.080   4.708   1.677
17369TIP3    H251985   9.176   4.813   1.626
17370TIP3   OH251986   0.507   1.072   2.851
17370TIP3    H151987   0.594   1.111   2.850
17370TIP3    H251988   0.450   1.140   2.814
17371TIP3   OH251989   8.630   8.489   4.738
17371TIP3    H151990   8.619   8.447   4.824
17371TIP3    H251991   8.720   8.470   4.714
17372TIP3   OH251992   3.626   6.061   0.395
17372TIP3    H151993   3.709   6.102   0.418
17372TIP3    H251994   3.609   5.999   0.466
17373TIP3   OH251995   1.034   5.016   6.749
17373TIP3    H151996   0.969   4.951   6.722
17373TIP3    H251997   0.982   5.088   6.787
17374TIP3   OH251998   4.245   2.438   1.218
17374TIP3    H151999   4.249   2.343   1.228
17374TIP3    H252000   4.326   2.460   1.172
17375TIP3   OH252001   8.620   8.099   4.184
17375TIP3    H152002   8.634   8.154   4.106
17375TIP3    H252003   8.529   8.115   4.209
17376TIP3   OH252004   9.130   4.440   2.601
17376TIP3    H152005   9.108   4.347   2.606
17376TIP3    H252006   9.059   4.478   2.550
17377TIP3   OH252007   0.351   7.216   0.038
17377TIP3    H152008   0.366   7.121   0.032
17377TIP3    H252009   0.256   7.225   0.048
17378TIP3   OH252010   7.874   8.725   5.399
17378TIP3    H152011   7.842   8.718   5.309
17378TIP3    H252012   7.928   8.804   5.400
17379TIP3   OH252013   5.923   6.377   4.221
17379TIP3    H152014   5.868   6.375   4.142
17379TIP3    H252015   6.007   6.343   4.192
17380TIP3   OH252016   0.521   8.962   0.624
17380TIP3    H152017   0.535   9.038   0.681
17380TIP3    H252018   0.553   8.990   0.538
17381TIP3   OH252019   8.474   8.698   7.738
17381TIP3    H152020   8.436   8.716   7.824
17381TIP3    H252021   8.544   8.763   7.728
17382TIP3   OH252022   5.004   0.361   2.406
17382TIP3    H152023   4.946   0.332   2.476
17382TIP3    H252024   5.086   0.383   2.450
17383TIP3   OH252025   7.684   6.835   7.524
17383TIP3    H152026   7.692   6.743   7.546
17383TIP3    H252027   7.590   6.854   7.532
17384TIP3   OH252028   2.775   7.292   5.329
17384TIP3    H152029   2.728   7.275   5.247
17384TIP3    H252030   2.806   7.382   5.321
17385TIP3   OH252031   5.670   8.611   6.446
17385TIP3    H152032   5.626   8.675   6.391
17385TIP3    H252033   5.615   8.532   6.440
17386TIP3   OH252034   4.899   1.077   4.954
17386TIP3    H152035   4.924   1.123   5.035
17386TIP3    H252036   4.844   1.005   4.984
17387TIP3   OH252037   0.361   4.005   2.351
17387TIP3    H152038   0.380   3.930   2.407
17387TIP3    H252039   0.277   4.039   2.384
17388TIP3   OH252040   7.792   3.246   7.511
17388TIP3    H152041   7.762   3.157   7.530
17388TIP3    H252042   7.867   3.234   7.453
17389TIP3   OH252043   9.352   1.890   6.856
17389TIP3    H152044   9.404   1.844   6.922
17389TIP3    H252045   9.292   1.824   6.822
17390TIP3   OH252046   7.487   8.385   0.458
17390TIP3    H152047   7.517   8.337   0.535
17390TIP3    H252048   7.538   8.348   0.386
17391TIP3   OH252049   4.661   1.549   6.882
17391TIP3    H152050   4.630   1.523   6.968
17391TIP3    H252051   4.652   1.645   6.882
17392TIP3   OH252052   9.490   8.180   2.188
17392TIP3    H152053   9.423   8.230   2.236
17392TIP3    H252054   9.492   8.221   2.101
17393TIP3   OH252055   6.403   7.742   6.312
17393TIP3    H152056   6.474   7.776   6.365
17393TIP3    H252057   6.414   7.647   6.315
17394TIP3   OH252058   2.798   6.843   4.306
17394TIP3    H152059   2.828   6.758   4.273
17394TIP3    H252060   2.718   6.860   4.256
17395TIP3   OH252061   1.106   5.872   5.752
17395TIP3    H152062   1.131   5.956   5.790
17395TIP3    H252063   1.074   5.821   5.827
17396TIP3   OH252064   1.651   1.687   1.652
17396TIP3    H152065   1.618   1.646   1.732
17396TIP3    H252066   1.580   1.745   1.624
17397TIP3   OH252067   7.754   8.863   3.336
17397TIP3    H152068   7.778   8.805   3.408
17397TIP3    H252069   7.808   8.832   3.262
17398TIP3   OH252070   9.507   6.138   0.356
17398TIP3    H152071   9.447   6.207   0.384
17398TIP3    H252072   9.518   6.084   0.435
17399TIP3   OH252073   0.828   3.842   3.249
17399TIP3    H152074   0.901   3.803   3.201
17399TIP3    H252075   0.866   3.871   3.332
17400TIP3   OH252076   7.429   3.332   7.665
17400TIP3    H152077   7.402   3.410   7.715
17400TIP3    H252078   7.519   3.316   7.692
17401TIP3   OH252079   7.083   4.100   0.323
17401TIP3    H152080   7.173   4.117   0.294
17401TIP3    H252081   7.092   4.031   0.389
17402TIP3   OH252082   1.015   6.217   1.253
17402TIP3    H152083   1.081   6.238   1.187
17402TIP3    H252084   1.023   6.287   1.318
17403TIP3   OH252085   8.571   1.998   3.063
17403TIP3    H152086   8.652   1.952   3.043
17403TIP3    H252087   8.591   2.050   3.140
17404TIP3   OH252088   7.479   7.743   5.563
17404TIP3    H152089   7.406   7.694   5.525
17404TIP3    H252090   7.494   7.816   5.503
17405TIP3   OH252091   7.227   4.459   5.912
17405TIP3    H152092   7.210   4.435   5.821
17405TIP3    H252093   7.140   4.472   5.950
17406TIP3   OH252094   8.092   8.886   5.102
17406TIP3    H152095   8.042   8.962   5.132
17406TIP3    H252096   8.170   8.885   5.157
17407TIP3   OH252097   6.004   0.771   0.537
17407TIP3    H152098   6.074   0.713   0.567
17407TIP3    H252099   6.024   0.856   0.577
17408TIP3   OH252100   8.501   3.428   0.667
17408TIP3    H152101   8.418   3.387   0.642
17408TIP3    H252102   8.479   3.521   0.679
17409TIP3   OH252103   8.163   2.797   6.622
17409TIP3    H152104   8.101   2.801   6.549
17409TIP3    H252105   8.108   2.796   6.700
17410TIP3   OH252106   7.559   3.281   3.819
17410TIP3    H152107   7.512   3.218   3.764
17410TIP3    H252108   7.571   3.357   3.763
17411TIP3   OH252109   9.555   6.859   7.109
17411TIP3    H152110   9.554   6.779   7.057
17411TIP3    H252111   9.551   6.930   7.045
17412TIP3   OH252112   1.508   4.579   6.311
17412TIP3    H152113   1.599   4.610   6.318
17412TIP3    H252114   1.486   4.594   6.219
17413TIP3   OH252115   8.677   0.325   3.496
17413TIP3    H152116   8.639   0.244   3.463
17413TIP3    H252117   8.771   0.309   3.497
17414TIP3   OH252118   6.705   4.503   2.845
17414TIP3    H152119   6.617   4.524   2.813
17414TIP3    H252120   6.762   4.514   2.768
17415TIP3   OH252121   4.779   7.550   3.091
17415TIP3    H152122   4.756   7.609   3.163
17415TIP3    H252123   4.705   7.489   3.086
17416TIP3   OH252124   4.761   2.124   1.004
17416TIP3    H152125   4.753   2.095   0.913
17416TIP3    H252126   4.684   2.088   1.048
17417TIP3   OH252127   4.279   4.866   7.628
17417TIP3    H152128   4.225   4.917   7.689
17417TIP3    H252129   4.216   4.819   7.574
17418TIP3   OH252130   0.743   6.547   4.566
17418TIP3    H152131   0.791   6.470   4.535
17418TIP3    H252132   0.690   6.574   4.491
17419TIP3   OH252133   5.107   1.836   4.478
17419TIP3    H152134   5.126   1.929   4.464
17419TIP3    H252135   5.021   1.822   4.438
17420TIP3   OH252136   5.833   1.203   6.833
17420TIP3    H152137   5.750   1.244   6.856
17420TIP3    H252138   5.877   1.269   6.778
17421TIP3   OH252139   7.633   6.524   5.474
17421TIP3    H152140   7.672   6.610   5.485
17421TIP3    H252141   7.539   6.540   5.470
17422TIP3   OH252142   6.155   8.003   3.680
17422TIP3    H152143   6.170   8.092   3.712
17422TIP3    H252144   6.060   7.996   3.672
17423TIP3   OH252145   7.831   6.711   2.577
17423TIP3    H152146   7.757   6.751   2.623
17423TIP3    H252147   7.827   6.619   2.602
17424TIP3   OH252148   4.497   5.026   2.475
17424TIP3    H152149   4.510   5.114   2.512
17424TIP3    H252150   4.485   4.970   2.551
17425TIP3   OH252151   1.272   3.433   2.216
17425TIP3    H152152   1.301   3.342   2.222
17425TIP3    H252153   1.350   3.484   2.232
17426TIP3   OH252154   7.316   8.053   6.916
17426TIP3    H152155   7.270   8.005   6.848
17426TIP3    H252156   7.375   7.988   6.956
17427TIP3   OH252157   8.510   8.479   3.040
17427TIP3    H152158   8.434   8.528   3.072
17427TIP3    H252159   8.506   8.395   3.088
17428TIP3   OH252160   1.891   0.723   1.560
17428TIP3    H152161   1.947   0.799   1.571
17428TIP3    H252162   1.940   0.665   1.501
17429TIP3   OH252163   3.334   2.348   1.763
17429TIP3    H152164   3.280   2.368   1.686
17429TIP3    H252165   3.423   2.366   1.734
17430TIP3   OH252166   0.477   1.942   3.507
17430TIP3    H152167   0.485   2.011   3.442
17430TIP3    H252168   0.460   1.863   3.457
17431TIP3   OH252169   5.954   8.557   4.941
17431TIP3    H152170   5.996   8.571   4.857
17431TIP3    H252171   5.942   8.644   4.977
17432TIP3   OH252172   3.419   8.422   4.793
17432TIP3    H152173   3.411   8.457   4.704
17432TIP3    H252174   3.403   8.328   4.784
17433TIP3   OH252175   6.105   5.819   4.824
17433TIP3    H152176   6.101   5.872   4.903
17433TIP3    H252177   6.015   5.813   4.794
17434TIP3   OH252178   9.318   2.760   0.435
17434TIP3    H152179   9.365   2.683   0.403
17434TIP3    H252180   9.352   2.774   0.523
17435TIP3   OH252181   7.077   0.562   5.714
17435TIP3    H152182   7.164   0.544   5.679
17435TIP3    H252183   7.092   0.593   5.803
17436TIP3   OH252184   7.960   2.976   5.243
17436TIP3    H152185   8.010   2.954   5.321
17436TIP3    H252186   7.972   3.071   5.233
17437TIP3   OH252187   3.559   7.029   4.190
17437TIP3    H152188   3.638   7.080   4.206
17437TIP3    H252189   3.546   6.979   4.270
17438TIP3   OH252190   5.484   3.977   3.637
17438TIP3    H152191   5.475   4.054   3.693
17438TIP3    H252192   5.448   4.003   3.552
17439TIP3   OH252193   9.290   5.550   7.555
17439TIP3    H152194   9.226   5.518   7.491
17439TIP3    H252195   9.240   5.609   7.612
17440TIP3   OH252196   4.326   5.065   2.284
17440TIP3    H152197   4.285   4.983   2.257
17440TIP3    H252198   4.388   5.040   2.353
17441TIP3   OH252199   8.999   3.389   3.669
17441TIP3    H152200   9.039   3.403   3.583
17441TIP3    H252201   9.010   3.473   3.714
17442TIP3   OH252202   1.797   7.324   1.785
17442TIP3    H152203   1.824   7.415   1.769
17442TIP3    H252204   1.856   7.294   1.854
17443TIP3   OH252205   2.562   7.798   5.254
17443TIP3    H152206   2.543   7.877   5.303
17443TIP3    H252207   2.646   7.815   5.212
17444TIP3   OH252208   6.038   4.188   6.909
17444TIP3    H152209   5.946   4.202   6.886
17444TIP3    H252210   6.085   4.257   6.863
17445TIP3   OH252211   1.557   2.585   0.897
17445TIP3    H152212   1.647   2.608   0.873
17445TIP3    H252213   1.504   2.614   0.823
17446TIP3   OH252214   7.858   3.968   1.005
17446TIP3    H152215   7.814   4.053   0.995
17446TIP3    H252216   7.788   3.907   1.027
17447TIP3   OH252217   7.044   4.990   1.499
17447TIP3    H152218   7.053   4.895   1.488
17447TIP3    H252219   7.079   5.027   1.418
17448TIP3   OH252220   7.219   4.667   6.290
17448TIP3    H152221   7.226   4.677   6.385
17448TIP3    H252222   7.279   4.596   6.269
17449TIP3   OH252223   3.906   7.727   3.036
17449TIP3    H152224   3.951   7.807   3.062
17449TIP3    H252225   3.874   7.689   3.118
17450TIP3   OH252226   1.459   6.910   3.794
17450TIP3    H152227   1.411   6.979   3.747
17450TIP3    H252228   1.465   6.942   3.884
17451TIP3   OH252229   7.098   4.165   1.252
17451TIP3    H152230   7.112   4.245   1.302
17451TIP3    H252231   7.120   4.094   1.313
17452TIP3   OH252232   2.601   8.523   0.365
17452TIP3    H152233   2.516   8.488   0.392
17452TIP3    H252234   2.665   8.458   0.396
17453TIP3   OH252235   1.379   7.345   6.357
17453TIP3    H152236   1.288   7.369   6.342
17453TIP3    H252237   1.411   7.313   6.273
17454TIP3   OH252238   4.366   3.742   7.541
17454TIP3    H152239   4.315   3.671   7.501
17454TIP3    H252240   4.455   3.708   7.545
17455TIP3   OH252241   4.512   7.895   7.536
17455TIP3    H152242   4.538   7.917   7.625
17455TIP3    H252243   4.443   7.958   7.514
17456TIP3   OH252244   0.399   7.917   3.882
17456TIP3    H152245   0.412   7.974   3.806
17456TIP3    H252246   0.305   7.897   3.881
17457TIP3   OH252247   6.696   7.287   7.005
17457TIP3    H152248   6.718   7.278   7.097
17457TIP3    H252249   6.617   7.342   7.004
17458TIP3   OH252250   3.737   5.687   3.611
17458TIP3    H152251   3.790   5.735   3.548
17458TIP3    H252252   3.696   5.617   3.560
17459TIP3   OH252253   1.092   3.515   0.280
17459TIP3    H152254   1.107   3.464   0.200
17459TIP3    H252255   1.174   3.563   0.293
17460TIP3   OH252256   6.116   6.937   3.215
17460TIP3    H152257   6.044   6.999   3.206
17460TIP3    H252258   6.121   6.893   3.131
17461TIP3   OH252259   6.433   5.721   1.213
17461TIP3    H152260   6.430   5.715   1.117
17461TIP3    H252261   6.515   5.766   1.231
17462TIP3   OH252262   8.151   1.866   5.506
17462TIP3    H152263   8.177   1.936   5.565
17462TIP3    H252264   8.056   1.861   5.514
17463TIP3   OH252265   6.035   7.602   0.741
17463TIP3    H152266   6.106   7.658   0.773
17463TIP3    H252267   5.995   7.565   0.819
17464TIP3   OH252268   2.317   4.130   0.550
17464TIP3    H152269   2.333   4.051   0.498
17464TIP3    H252270   2.373   4.196   0.511
17465TIP3   OH252271   5.686   2.368   0.177
17465TIP3    H152272   5.634   2.376   0.258
17465TIP3    H252273   5.709   2.458   0.155
17466TIP3   OH252274   4.066   4.115   7.324
17466TIP3    H152275   4.063   4.032   7.372
17466TIP3    H252276   3.999   4.106   7.256
17467TIP3   OH252277   5.896   7.419   0.942
17467TIP3    H152278   5.899   7.335   0.895
17467TIP3    H252279   5.930   7.399   1.029
17468TIP3   OH252280   8.278   0.703   4.737
17468TIP3    H152281   8.204   0.732   4.683
17468TIP3    H252282   8.336   0.779   4.742
17469TIP3   OH252283   1.289   2.798   5.135
17469TIP3    H152284   1.240   2.757   5.206
17469TIP3    H252285   1.358   2.735   5.114
17470TIP3   OH252286   4.597   8.558   7.683
17470TIP3    H152287   4.677   8.528   7.726
17470TIP3    H252288   4.561   8.622   7.744
17471TIP3   OH252289   3.114   5.649   4.552
17471TIP3    H152290   3.199   5.643   4.509
17471TIP3    H252291   3.073   5.563   4.537
17472TIP3   OH252292   9.537   4.685   5.969
17472TIP3    H152293   9.578   4.754   5.917
17472TIP3    H252294   9.559   4.604   5.922
17473TIP3   OH252295   8.566   7.968   5.194
17473TIP3    H152296   8.518   8.039   5.151
17473TIP3    H252297   8.649   7.962   5.146
17474TIP3   OH252298   8.785   3.409   4.305
17474TIP3    H152299   8.802   3.502   4.290
17474TIP3    H252300   8.839   3.387   4.380
17475TIP3   OH252301   4.252   5.040   6.613
17475TIP3    H152302   4.184   5.070   6.553
17475TIP3    H252303   4.329   5.092   6.589
17476TIP3   OH252304   7.004   6.040   4.945
17476TIP3    H152305   6.960   6.111   4.897
17476TIP3    H252306   7.017   6.075   5.033
17477TIP3   OH252307   3.351   8.285   4.059
17477TIP3    H152308   3.282   8.221   4.043
17477TIP3    H252309   3.362   8.331   3.976
17478TIP3   OH252310   5.202   8.431   6.330
17478TIP3    H152311   5.235   8.519   6.309
17478TIP3    H252312   5.255   8.403   6.404
17479TIP3   OH252313   0.770   6.123   6.144
17479TIP3    H152314   0.842   6.078   6.189
17479TIP3    H252315   0.811   6.161   6.066
17480TIP3   OH252316   1.002   0.947   4.853
17480TIP3    H152317   0.927   1.005   4.871
17480TIP3    H252318   1.041   0.931   4.938
17481TIP3   OH252319   2.275   8.831   6.230
17481TIP3    H152320   2.227   8.885   6.166
17481TIP3    H252321   2.304   8.894   6.297
17482TIP3   OH252322   2.233   1.750   1.580
17482TIP3    H152323   2.215   1.843   1.567
17482TIP3    H252324   2.165   1.720   1.640
17483TIP3   OH252325   6.828   3.428   2.879
17483TIP3    H152326   6.742   3.466   2.864
17483TIP3    H252327   6.810   3.339   2.910
17484TIP3   OH252328   6.418   6.224   3.536
17484TIP3    H152329   6.380   6.279   3.468
17484TIP3    H252330   6.478   6.165   3.489
17485TIP3   OH252331   1.816   8.062   2.780
17485TIP3    H152332   1.902   8.063   2.738
17485TIP3    H252333   1.763   8.005   2.725
17486TIP3   OH252334   3.737   5.019   7.247
17486TIP3    H152335   3.799   4.995   7.316
17486TIP3    H252336   3.692   4.937   7.225
17487TIP3   OH252337   4.874   8.245   7.350
17487TIP3    H152338   4.954   8.217   7.394
17487TIP3    H252339   4.901   8.319   7.296
17488TIP3   OH252340   1.359   4.160   4.992
17488TIP3    H152341   1.264   4.145   4.989
17488TIP3    H252342   1.368   4.255   5.004
17489TIP3   OH252343   6.539   4.910   2.130
17489TIP3    H152344   6.630   4.888   2.151
17489TIP3    H252345   6.489   4.876   2.204
17490TIP3   OH252346   2.671   5.073   6.967
17490TIP3    H152347   2.659   5.163   6.998
17490TIP3    H252348   2.599   5.059   6.905
17491TIP3   OH252349   6.032   5.620   7.012
17491TIP3    H152350   6.036   5.611   6.916
17491TIP3    H252351   6.061   5.710   7.028
17492TIP3   OH252352   0.443   5.943   4.569
17492TIP3    H152353   0.428   6.037   4.556
17492TIP3    H252354   0.383   5.919   4.639
17493TIP3   OH252355   5.372   0.897   4.569
17493TIP3    H152356   5.329   0.889   4.654
17493TIP3    H252357   5.466   0.895   4.589
17494TIP3   OH252358   7.349   1.167   4.291
17494TIP3    H152359   7.437   1.177   4.256
17494TIP3    H252360   7.339   1.240   4.352
17495TIP3   OH252361   9.174   6.543   7.615
17495TIP3    H152362   9.193   6.451   7.597
17495TIP3    H252363   9.112   6.541   7.688
17496TIP3   OH252364   2.844   2.478   1.521
17496TIP3    H152365   2.911   2.543   1.500
17496TIP3    H252366   2.889   2.413   1.575
17497TIP3   OH252367   9.443   1.054   3.099
17497TIP3    H152368   9.419   1.024   3.011
17497TIP3    H252369   9.523   1.005   3.120
17498TIP3   OH252370   6.347   3.532   4.928
17498TIP3    H152371   6.415   3.557   4.866
17498TIP3    H252372   6.265   3.537   4.879
17499TIP3   OH252373   2.578   2.810   1.096
17499TIP3    H152374   2.626   2.842   1.019
17499TIP3    H252375   2.600   2.873   1.165
17500TIP3   OH252376   4.570   6.401   3.962
17500TIP3    H152377   4.644   6.366   4.011
17500TIP3    H252378   4.544   6.329   3.903
17501TIP3   OH252379   3.423   0.882   7.127
17501TIP3    H152380   3.414   0.926   7.211
17501TIP3    H252381   3.507   0.913   7.093
17502TIP3   OH252382   3.892   7.723   5.923
17502TIP3    H152383   3.948   7.749   5.996
17502TIP3    H252384   3.830   7.661   5.961
17503TIP3   OH252385   4.088   1.088   1.358
17503TIP3    H152386   4.108   1.070   1.450
17503TIP3    H252387   3.994   1.105   1.357
17504TIP3   OH252388   4.413   2.397   0.451
17504TIP3    H152389   4.341   2.334   0.442
17504TIP3    H252390   4.369   2.482   0.450
17505TIP3   OH252391   0.096   7.485   1.032
17505TIP3    H152392   0.119   7.439   0.951
17505TIP3    H252393   0.011   7.449   1.057
17506TIP3   OH252394   3.541   3.904   6.991
17506TIP3    H152395   3.477   3.915   6.921
17506TIP3    H252396   3.501   3.944   7.068
17507TIP3   OH252397   4.119   1.793   3.098
17507TIP3    H152398   4.093   1.755   3.182
17507TIP3    H252399   4.164   1.723   3.052
17508TIP3   OH252400   2.163   3.662   3.243
17508TIP3    H152401   2.132   3.726   3.306
17508TIP3    H252402   2.252   3.690   3.222
17509TIP3   OH252403   5.660   6.046   6.103
17509TIP3    H152404   5.640   5.974   6.163
17509TIP3    H252405   5.742   6.082   6.135
17510TIP3   OH252406   2.029   2.878   6.439
17510TIP3    H152407   1.978   2.843   6.512
17510TIP3    H252408   1.983   2.957   6.412
17511TIP3   OH252409   5.827   5.867   7.498
17511TIP3    H152410   5.863   5.788   7.537
17511TIP3    H252411   5.785   5.914   7.570
17512TIP3   OH252412   4.806   0.177   2.113
17512TIP3    H152413   4.829   0.148   2.201
17512TIP3    H252414   4.882   0.227   2.083
17513TIP3   OH252415   2.782   3.251   0.693
17513TIP3    H152416   2.770   3.228   0.601
17513TIP3    H252417   2.770   3.346   0.696
17514TIP3   OH252418   1.058   6.276   0.627
17514TIP3    H152419   0.977   6.324   0.608
17514TIP3    H252420   1.050   6.195   0.578
17515TIP3   OH252421   3.589   5.888   3.724
17515TIP3    H152422   3.625   5.803   3.698
17515TIP3    H252423   3.502   5.891   3.683
17516TIP3   OH252424   7.089   6.492   6.468
17516TIP3    H152425   6.994   6.503   6.470
17516TIP3    H252426   7.122   6.562   6.524
17517TIP3   OH252427   3.117   8.199   0.335
17517TIP3    H152428   3.139   8.285   0.298
17517TIP3    H252429   3.195   8.146   0.322
17518TIP3   OH252430   0.261   3.029   1.480
17518TIP3    H152431   0.250   3.080   1.560
17518TIP3    H252432   0.356   3.025   1.467
17519TIP3   OH252433   7.679   0.885   5.149
17519TIP3    H152434   7.611   0.820   5.160
17519TIP3    H252435   7.758   0.834   5.131
17520TIP3   OH252436   8.562   1.358   1.920
17520TIP3    H152437   8.598   1.420   1.984
17520TIP3    H252438   8.507   1.299   1.972
17521TIP3   OH252439   3.038   5.869   3.710
17521TIP3    H152440   3.083   5.920   3.643
17521TIP3    H252441   3.081   5.783   3.707
17522TIP3   OH252442   6.129   1.345   1.615
17522TIP3    H152443   6.176   1.262   1.629
17522TIP3    H252444   6.082   1.361   1.697
17523TIP3   OH252445   3.242   3.738   0.595
17523TIP3    H152446   3.285   3.823   0.608
17523TIP3    H252447   3.211   3.741   0.504
17524TIP3   OH252448   6.142   8.845   1.961
17524TIP3    H152449   6.158   8.929   2.005
17524TIP3    H252450   6.054   8.854   1.924
17525TIP3   OH252451   9.184   7.936   2.150
17525TIP3    H152452   9.165   8.030   2.153
17525TIP3    H252453   9.144   7.906   2.068
17526TIP3   OH252454   3.525   8.540   5.999
17526TIP3    H152455   3.475   8.592   6.062
17526TIP3    H252456   3.588   8.602   5.962
17527TIP3   OH252457   0.240   1.715   7.213
17527TIP3    H152458   0.166   1.672   7.169
17527TIP3    H252459   0.310   1.715   7.148
17528TIP3   OH252460   2.956   3.906   4.375
17528TIP3    H152461   2.885   3.956   4.336
17528TIP3    H252462   2.943   3.913   4.469
17529TIP3   OH252463   2.970   0.619   0.555
17529TIP3    H152464   2.901   0.661   0.504
17529TIP3    H252465   3.010   0.690   0.605
17530TIP3   OH252466   1.780   8.870   5.466
17530TIP3    H152467   1.755   8.801   5.404
17530TIP3    H252468   1.868   8.845   5.495
17531TIP3   OH252469   7.591   7.341   3.312
17531TIP3    H152470   7.570   7.249   3.330
17531TIP3    H252471   7.683   7.350   3.336
17532TIP3   OH252472   5.101   4.832   2.214
17532TIP3    H152473   5.146   4.906   2.255
17532TIP3    H252474   5.009   4.858   2.213
17533TIP3   OH252475   1.132   7.000   1.341
17533TIP3    H152476   1.101   7.090   1.341
17533TIP3    H252477   1.056   6.948   1.368
17534TIP3   OH252478   3.018   3.141   0.804
17534TIP3    H152479   3.047   3.173   0.718
17534TIP3    H252480   2.928   3.171   0.812
17535TIP3   OH252481   9.097   6.902   1.213
17535TIP3    H152482   9.015   6.855   1.203
17535TIP3    H252483   9.075   6.993   1.193
17536TIP3   OH252484   7.848   2.340   1.330
17536TIP3    H152485   7.909   2.266   1.338
17536TIP3    H252486   7.833   2.348   1.236
17537TIP3   OH252487   5.918   6.196   5.531
17537TIP3    H152488   5.843   6.137   5.537
17537TIP3    H252489   5.991   6.147   5.568
17538TIP3   OH252490   1.427   2.726   2.319
17538TIP3    H152491   1.353   2.668   2.336
17538TIP3    H252492   1.483   2.677   2.258
17539TIP3   OH252493   4.273   6.238   5.860
17539TIP3    H152494   4.341   6.172   5.845
17539TIP3    H252495   4.192   6.197   5.830
17540TIP3   OH252496   4.178   9.016   5.954
17540TIP3    H152497   4.238   9.015   6.030
17540TIP3    H252498   4.091   9.009   5.993
17541TIP3   OH252499   8.286   8.129   3.568
17541TIP3    H152500   8.207   8.075   3.573
17541TIP3    H252501   8.327   8.120   3.653
17542TIP3   OH252502   6.227   1.832   6.851
17542TIP3    H152503   6.315   1.841   6.887
17542TIP3    H252504   6.182   1.772   6.912
17543TIP3   OH252505   2.093   4.363   6.216
17543TIP3    H152506   2.024   4.345   6.280
17543TIP3    H252507   2.139   4.279   6.206
17544TIP3   OH252508   5.305   1.868   1.457
17544TIP3    H152509   5.259   1.830   1.532
17544TIP3    H252510   5.358   1.796   1.423
17545TIP3   OH252511   3.377   4.890   2.617
17545TIP3    H152512   3.470   4.873   2.598
17545TIP3    H252513   3.359   4.837   2.695
17546TIP3   OH252514   7.220   1.327   0.776
17546TIP3    H152515   7.266   1.282   0.846
17546TIP3    H252516   7.150   1.376   0.821
17547TIP3   OH252517   6.417   5.315   5.853
17547TIP3    H152518   6.426   5.308   5.757
17547TIP3    H252519   6.507   5.321   5.884
17548TIP3   OH252520   2.367   5.286   1.946
17548TIP3    H152521   2.327   5.368   1.915
17548TIP3    H252522   2.294   5.234   1.977
17549TIP3   OH252523   5.451   2.411   2.873
17549TIP3    H152524   5.431   2.479   2.937
17549TIP3    H252525   5.438   2.329   2.920
17550TIP3   OH252526   7.159   5.779   1.024
17550TIP3    H152527   7.242   5.784   1.071
17550TIP3    H252528   7.094   5.757   1.091
17551TIP3   OH252529   1.979   4.073   3.196
17551TIP3    H152530   1.940   3.987   3.206
17551TIP3    H252531   2.044   4.079   3.267
17552TIP3   OH252532   0.972   0.269   4.578
17552TIP3    H152533   0.957   0.294   4.669
17552TIP3    H252534   0.982   0.352   4.532
17553TIP3   OH252535   1.292   6.425   6.207
17553TIP3    H152536   1.323   6.358   6.146
17553TIP3    H252537   1.328   6.400   6.292
17554TIP3   OH252538   9.141   6.430   6.379
17554TIP3    H152539   9.068   6.431   6.318
17554TIP3    H252540   9.212   6.386   6.332
17555TIP3   OH252541   0.257   0.881   0.498
17555TIP3    H152542   0.193   0.928   0.444
17555TIP3    H252543   0.221   0.884   0.587
17556TIP3   OH252544   6.992   1.580   2.872
17556TIP3    H152545   7.080   1.617   2.867
17556TIP3    H252546   6.954   1.619   2.951
17557TIP3   OH252547   8.655   7.551   5.691
17557TIP3    H152548   8.593   7.617   5.659
17557TIP3    H252549   8.636   7.473   5.640
17558TIP3   OH252550   9.019   8.729   5.402
17558TIP3    H152551   9.073   8.728   5.482
17558TIP3    H252552   8.931   8.709   5.433
17559TIP3   OH252553   6.301   3.317   7.431
17559TIP3    H152554   6.354   3.394   7.413
17559TIP3    H252555   6.230   3.322   7.366
17560TIP3   OH252556   2.702   4.253   5.701
17560TIP3    H152557   2.688   4.306   5.623
17560TIP3    H252558   2.771   4.297   5.749
17561TIP3   OH252559   4.403   5.066   3.260
17561TIP3    H152560   4.444   5.148   3.232
17561TIP3    H252561   4.310   5.079   3.243
17562TIP3   OH252562   4.929   2.563   6.382
17562TIP3    H152563   4.879   2.488   6.415
17562TIP3    H252564   4.897   2.574   6.292
17563TIP3   OH252565   9.249   5.578   1.860
17563TIP3    H152566   9.343   5.595   1.859
17563TIP3    H252567   9.229   5.561   1.952
17564TIP3   OH252568   1.156   3.322   0.676
17564TIP3    H152569   1.084   3.364   0.630
17564TIP3    H252570   1.222   3.391   0.686
17565TIP3   OH252571   2.746   1.798   7.755
17565TIP3    H152572   2.675   1.844   7.710
17565TIP3    H252573   2.815   1.863   7.766
17566TIP3   OH252574   9.523   2.139   5.967
17566TIP3    H152575   9.579   2.064   5.987
17566TIP3    H252576   9.479   2.158   6.050
17567TIP3   OH252577   1.046   6.848   3.401
17567TIP3    H152578   1.052   6.765   3.353
17567TIP3    H252579   1.100   6.909   3.351
17568TIP3   OH252580   6.890   5.014   7.222
17568TIP3    H152581   6.924   5.093   7.178
17568TIP3    H252582   6.866   4.956   7.151
17569TIP3   OH252583   9.242   3.224   6.453
17569TIP3    H152584   9.174   3.234   6.520
17569TIP3    H252585   9.223   3.140   6.411
17570TIP3   OH252586   4.506   0.653   6.318
17570TIP3    H152587   4.424   0.607   6.304
17570TIP3    H252588   4.566   0.587   6.354
17571TIP3   OH252589   2.175   7.001   1.072
17571TIP3    H152590   2.222   7.082   1.090
17571TIP3    H252591   2.242   6.933   1.075
17572TIP3   OH252592   6.860   8.221   6.385
17572TIP3    H152593   6.843   8.263   6.470
17572TIP3    H252594   6.828   8.132   6.396
17573TIP3   OH252595   1.881   7.653   6.484
17573TIP3    H152596   1.826   7.602   6.543
17573TIP3    H252597   1.963   7.666   6.532
17574TIP3   OH252598   6.656   2.147   2.738
17574TIP3    H152599   6.668   2.183   2.826
17574TIP3    H252600   6.609   2.215   2.691
17575TIP3   OH252601   7.553   8.656   5.560
17575TIP3    H152602   7.536   8.693   5.473
17575TIP3    H252603   7.638   8.692   5.586
17576TIP3   OH252604   2.731   8.211   3.202
17576TIP3    H152605   2.677   8.222   3.124
17576TIP3    H252606   2.756   8.301   3.226
17577TIP3   OH252607   3.712   0.838   2.583
17577TIP3    H152608   3.676   0.834   2.671
17577TIP3    H252609   3.693   0.927   2.553
17578TIP3   OH252610   3.211   7.422   4.192
17578TIP3    H152611   3.177   7.412   4.281
17578TIP3    H252612   3.302   7.450   4.204
17579TIP3   OH252613   8.794   5.318   4.470
17579TIP3    H152614   8.769   5.240   4.419
17579TIP3    H252615   8.713   5.345   4.513
17580TIP3   OH252616   7.646   8.060   2.220
17580TIP3    H152617   7.618   8.059   2.312
17580TIP3    H252618   7.728   8.109   2.221
17581TIP3   OH252619   1.130   1.871   5.385
17581TIP3    H152620   1.206   1.929   5.393
17581TIP3    H252621   1.161   1.798   5.331
17582TIP3   OH252622   9.259   2.503   2.477
17582TIP3    H152623   9.335   2.463   2.519
17582TIP3    H252624   9.238   2.444   2.404
17583TIP3   OH252625   0.446   7.667   2.113
17583TIP3    H152626   0.514   7.723   2.151
17583TIP3    H252627   0.482   7.641   2.028
17584TIP3   OH252628   5.469   2.517   1.684
17584TIP3    H152629   5.542   2.480   1.634
17584TIP3    H252630   5.509   2.587   1.736
17585TIP3   OH252631   2.268   7.783   5.821
17585TIP3    H152632   2.255   7.724   5.747
17585TIP3    H252633   2.204   7.852   5.809
17586TIP3   OH252634   8.550   5.535   7.774
17586TIP3    H152635   8.508   5.492   7.849
17586TIP3    H252636   8.566   5.464   7.713
17587TIP3   OH252637   1.528   1.477   0.360
17587TIP3    H152638   1.580   1.417   0.414
17587TIP3    H252639   1.553   1.564   0.390
17588TIP3   OH252640   6.828   7.970   5.652
17588TIP3    H152641   6.743   7.972   5.609
17588TIP3    H252642   6.880   7.909   5.598
17589TIP3   OH252643   6.611   6.348   6.833
17589TIP3    H152644   6.676   6.370   6.899
17589TIP3    H252645   6.528   6.380   6.869
17590TIP3   OH252646   0.711   3.570   3.236
17590TIP3    H152647   0.735   3.661   3.253
17590TIP3    H252648   0.783   3.537   3.182
17591TIP3   OH252649  -0.005   5.482   5.925
17591TIP3    H152650   0.055   5.409   5.938
17591TIP3    H252651   0.045   5.559   5.953
17592TIP3   OH252652   2.801   0.245   2.632
17592TIP3    H152653   2.728   0.236   2.693
17592TIP3    H252654   2.857   0.312   2.671
17593TIP3   OH252655   2.483   1.039   1.947
17593TIP3    H152656   2.490   1.123   1.903
17593TIP3    H252657   2.573   1.016   1.970
17594TIP3   OH252658   3.663   0.703   7.211
17594TIP3    H152659   3.655   0.608   7.216
17594TIP3    H252660   3.753   0.717   7.183
17595TIP3   OH252661   0.625   8.751   2.334
17595TIP3    H152662   0.684   8.681   2.304
17595TIP3    H252663   0.636   8.752   2.429
17596TIP3   OH252664   8.143   2.748   4.243
17596TIP3    H152665   8.151   2.687   4.315
17596TIP3    H252666   8.054   2.735   4.210
17597TIP3   OH252667   1.388   6.428   2.910
17597TIP3    H152668   1.379   6.359   2.976
17597TIP3    H252669   1.347   6.391   2.831
17598TIP3   OH252670   0.905   3.142   4.465
17598TIP3    H152671   0.882   3.112   4.377
17598TIP3    H252672   0.822   3.142   4.513
17599TIP3   OH252673   0.588   2.429   1.144
17599TIP3    H152674   0.573   2.516   1.182
17599TIP3    H252675   0.501   2.392   1.132
17600TIP3   OH252676   5.719   4.107   0.632
17600TIP3    H152677   5.712   4.173   0.702
17600TIP3    H252678   5.795   4.055   0.656
17601TIP3   OH252679   8.886   5.132   1.440
17601TIP3    H152680   8.799   5.135   1.479
17601TIP3    H252681   8.877   5.178   1.357
17602TIP3   OH252682   8.800   0.521   0.922
17602TIP3    H152683   8.705   0.528   0.917
17602TIP3    H252684   8.817   0.428   0.939
17603TIP3   OH252685   1.657   6.876   5.214
17603TIP3    H152686   1.577   6.921   5.241
17603TIP3    H252687   1.642   6.852   5.123
17604TIP3   OH252688   2.958   2.239   4.384
17604TIP3    H152689   2.883   2.179   4.376
17604TIP3    H252690   3.027   2.186   4.423
17605TIP3   OH252691   1.811   3.413   3.218
17605TIP3    H152692   1.728   3.373   3.193
17605TIP3    H252693   1.802   3.506   3.194
17606TIP3   OH252694   1.083   7.354   6.318
17606TIP3    H152695   1.018   7.419   6.290
17606TIP3    H252696   1.041   7.310   6.392
17607TIP3   OH252697   5.719   2.357   1.841
17607TIP3    H152698   5.707   2.311   1.758
17607TIP3    H252699   5.774   2.432   1.819
17608TIP3   OH252700   0.711   8.145   4.529
17608TIP3    H152701   0.723   8.126   4.622
17608TIP3    H252702   0.788   8.107   4.486
17609TIP3   OH252703   1.429   4.617   6.054
17609TIP3    H152704   1.364   4.651   5.992
17609TIP3    H252705   1.510   4.663   6.030
17610TIP3   OH252706   0.732   5.029   2.657
17610TIP3    H152707   0.729   4.935   2.638
17610TIP3    H252708   0.775   5.067   2.580
17611TIP3   OH252709   3.111   4.202   5.623
17611TIP3    H152710   3.048   4.194   5.551
17611TIP3    H252711   3.197   4.197   5.581
17612TIP3   OH252712   0.252   7.352   1.896
17612TIP3    H152713   0.343   7.371   1.874
17612TIP3    H252714   0.201   7.409   1.839
17613TIP3   OH252715   2.317   1.158   1.497
17613TIP3    H152716   2.345   1.136   1.408
17613TIP3    H252717   2.359   1.093   1.553
17614TIP3   OH252718   0.132   4.947   4.454
17614TIP3    H152719   0.140   5.030   4.407
17614TIP3    H252720   0.152   4.969   4.545
17615TIP3   OH252721   8.761   6.719   0.448
17615TIP3    H152722   8.802   6.781   0.509
17615TIP3    H252723   8.669   6.715   0.476
17616TIP3   OH252724   3.870   8.992   4.147
17616TIP3    H152725   3.905   9.049   4.079
17616TIP3    H252726   3.778   8.980   4.124
17617TIP3   OH252727   5.312   6.737   4.642
17617TIP3    H152728   5.255   6.761   4.569
17617TIP3    H252729   5.254   6.731   4.718
17618TIP3   OH252730   6.125   5.474   3.131
17618TIP3    H152731   6.088   5.562   3.135
17618TIP3    H252732   6.207   5.480   3.181
17619TIP3   OH252733   8.384   6.628   2.583
17619TIP3    H152734   8.292   6.652   2.572
17619TIP3    H252735   8.399   6.633   2.678
17620TIP3   OH252736   6.797   8.682   6.862
17620TIP3    H152737   6.842   8.705   6.781
17620TIP3    H252738   6.711   8.722   6.854
17621TIP3   OH252739   4.993   0.181   3.082
17621TIP3    H152740   5.027   0.270   3.082
17621TIP3    H252741   5.071   0.126   3.075
17622TIP3   OH252742   3.901   7.195   0.177
17622TIP3    H152743   3.913   7.232   0.264
17622TIP3    H252744   3.807   7.182   0.169
17623TIP3   OH252745   2.696   5.512   5.946
17623TIP3    H152746   2.785   5.485   5.969
17623TIP3    H252747   2.664   5.557   6.024
17624TIP3   OH252748   0.185   2.624   6.192
17624TIP3    H152749   0.196   2.597   6.283
17624TIP3    H252750   0.195   2.542   6.142
17625TIP3   OH252751   3.533   8.115   2.632
17625TIP3    H152752   3.447   8.075   2.620
17625TIP3    H252753   3.516   8.209   2.627
17626TIP3   OH252754   8.337   6.150   2.907
17626TIP3    H152755   8.315   6.239   2.936
17626TIP3    H252756   8.432   6.152   2.894
17627TIP3   OH252757   1.339   7.553   0.229
17627TIP3    H152758   1.390   7.477   0.201
17627TIP3    H252759   1.256   7.516   0.260
17628TIP3   OH252760   6.480   2.846   7.411
17628TIP3    H152761   6.495   2.880   7.499
17628TIP3    H252762   6.534   2.768   7.406
17629TIP3   OH252763   7.261   5.502   1.208
17629TIP3    H152764   7.261   5.541   1.121
17629TIP3    H252765   7.225   5.415   1.195
17630TIP3   OH252766   8.907   4.548   2.486
17630TIP3    H152767   8.891   4.477   2.424
17630TIP3    H252768   8.828   4.602   2.484
17631TIP3   OH252769   0.275   8.636   1.403
17631TIP3    H152770   0.331   8.709   1.376
17631TIP3    H252771   0.241   8.601   1.321
17632TIP3   OH252772   2.062   0.247   4.670
17632TIP3    H152773   2.122   0.315   4.700
17632TIP3    H252774   2.080   0.172   4.728
17633TIP3   OH252775   2.763   8.425   2.726
17633TIP3    H152776   2.684   8.411   2.675
17633TIP3    H252777   2.779   8.341   2.769
17634TIP3   OH252778   4.059   3.557   1.919
17634TIP3    H152779   4.144   3.521   1.942
17634TIP3    H252780   4.071   3.652   1.920
17635TIP3   OH252781   1.036   2.819   6.491
17635TIP3    H152782   1.056   2.825   6.585
17635TIP3    H252783   0.942   2.800   6.489
17636TIP3   OH252784   5.703   6.150   7.226
17636TIP3    H152785   5.650   6.194   7.160
17636TIP3    H252786   5.658   6.068   7.242
17637TIP3   OH252787   6.954   1.430   1.387
17637TIP3    H152788   6.894   1.489   1.434
17637TIP3    H252789   7.008   1.489   1.334
17638TIP3   OH252790   5.549   0.933   6.739
17638TIP3    H152791   5.490   0.885   6.680
17638TIP3    H252792   5.499   1.010   6.765
17639TIP3   OH252793   7.115   8.631   2.211
17639TIP3    H152794   7.156   8.680   2.139
17639TIP3    H252795   7.139   8.679   2.290
17640TIP3   OH252796   4.703   5.622   5.655
17640TIP3    H152797   4.781   5.567   5.656
17640TIP3    H252798   4.630   5.561   5.642
17641TIP3   OH252799   4.715   4.672   3.319
17641TIP3    H152800   4.638   4.728   3.323
17641TIP3    H252801   4.705   4.612   3.393
17642TIP3   OH252802   5.352   1.982   7.314
17642TIP3    H152803   5.390   1.991   7.402
17642TIP3    H252804   5.287   2.052   7.309
17643TIP3   OH252805   1.901   7.373   7.089
17643TIP3    H152806   1.829   7.331   7.136
17643TIP3    H252807   1.978   7.359   7.145
17644TIP3   OH252808   2.597   0.740   6.682
17644TIP3    H152809   2.666   0.726   6.748
17644TIP3    H252810   2.519   0.700   6.720
17645TIP3   OH252811   6.209   2.192   7.633
17645TIP3    H152812   6.203   2.280   7.671
17645TIP3    H252813   6.289   2.155   7.669
17646TIP3   OH252814   8.802   4.609   3.540
17646TIP3    H152815   8.785   4.515   3.538
17646TIP3    H252816   8.731   4.647   3.488
17647TIP3   OH252817   6.162   8.873   7.599
17647TIP3    H152818   6.175   8.840   7.510
17647TIP3    H252819   6.088   8.821   7.633
17648TIP3   OH252820   6.597   8.864   4.172
17648TIP3    H152821   6.629   8.880   4.261
17648TIP3    H252822   6.555   8.778   4.177
17649TIP3   OH252823   0.363   7.111   6.947
17649TIP3    H152824   0.369   7.025   6.988
17649TIP3    H252825   0.287   7.105   6.889
17650TIP3   OH252826   8.530   7.494   7.280
17650TIP3    H152827   8.574   7.506   7.365
17650TIP3    H252828   8.481   7.412   7.290
17651TIP3   OH252829   2.513   6.202   0.787
17651TIP3    H152830   2.445   6.174   0.849
17651TIP3    H252831   2.594   6.201   0.838
17652TIP3   OH252832   6.949   5.024   1.741
17652TIP3    H152833   6.893   5.101   1.746
17652TIP3    H252834   6.974   5.019   1.649
17653TIP3   OH252835   2.206   5.780   5.633
17653TIP3    H152836   2.125   5.825   5.610
17653TIP3    H252837   2.262   5.849   5.668
17654TIP3   OH252838   6.091   3.039   7.773
17654TIP3    H152839   6.145   3.004   7.702
17654TIP3    H252840   6.142   3.112   7.808
17655TIP3   OH252841   9.022   5.418   1.786
17655TIP3    H152842   9.069   5.336   1.801
17655TIP3    H252843   9.090   5.485   1.792
17656TIP3   OH252844   1.770   1.273   1.462
17656TIP3    H152845   1.853   1.244   1.500
17656TIP3    H252846   1.774   1.245   1.371
17657TIP3   OH252847   1.625   5.224   3.946
17657TIP3    H152848   1.624   5.294   3.881
17657TIP3    H252849   1.533   5.213   3.971
17658TIP3   OH252850   4.640   3.178   5.290
17658TIP3    H152851   4.690   3.125   5.351
17658TIP3    H252852   4.682   3.264   5.293
17659TIP3   OH252853   0.654   7.690   0.704
17659TIP3    H152854   0.624   7.632   0.774
17659TIP3    H252855   0.591   7.678   0.634
17660TIP3   OH252856   5.101   4.274   0.790
17660TIP3    H152857   5.192   4.287   0.763
17660TIP3    H252858   5.064   4.217   0.722
17661TIP3   OH252859   5.313   3.650   5.075
17661TIP3    H152860   5.396   3.626   5.033
17661TIP3    H252861   5.249   3.591   5.037
17662TIP3   OH252862   3.840   7.104   2.010
17662TIP3    H152863   3.896   7.178   2.029
17662TIP3    H252864   3.893   7.047   1.955
17663TIP3   OH252865   2.668   3.772   2.817
17663TIP3    H152866   2.574   3.766   2.799
17663TIP3    H252867   2.709   3.771   2.730
17664TIP3   OH252868   7.566   0.249   1.704
17664TIP3    H152869   7.511   0.212   1.773
17664TIP3    H252870   7.572   0.342   1.725
17665TIP3   OH252871   6.465   8.130   3.251
17665TIP3    H152872   6.451   8.072   3.176
17665TIP3    H252873   6.396   8.105   3.313
17666TIP3   OH252874   5.311   3.876   5.573
17666TIP3    H152875   5.363   3.899   5.651
17666TIP3    H252876   5.352   3.796   5.540
17667TIP3   OH252877   4.895   2.499   6.032
17667TIP3    H152878   4.945   2.456   6.101
17667TIP3    H252879   4.951   2.492   5.955
17668TIP3   OH252880   1.463   5.094   0.236
17668TIP3    H152881   1.395   5.047   0.187
17668TIP3    H252882   1.473   5.046   0.317
17669TIP3   OH252883   4.856   2.367   1.637
17669TIP3    H152884   4.926   2.309   1.666
17669TIP3    H252885   4.846   2.430   1.709
17670TIP3   OH252886   4.772   0.927   5.534
17670TIP3    H152887   4.768   0.888   5.447
17670TIP3    H252888   4.720   1.008   5.526
17671TIP3   OH252889   2.881   1.050   3.884
17671TIP3    H152890   2.919   1.083   3.803
17671TIP3    H252891   2.902   0.957   3.884
17672TIP3   OH252892   5.761   5.104   1.584
17672TIP3    H152893   5.808   5.110   1.501
17672TIP3    H252894   5.804   5.168   1.641
17673TIP3   OH252895   0.417   8.378   7.057
17673TIP3    H152896   0.408   8.286   7.082
17673TIP3    H252897   0.496   8.407   7.103
17674TIP3   OH252898   6.135   1.422   4.486
17674TIP3    H152899   6.114   1.487   4.419
17674TIP3    H252900   6.157   1.343   4.436
17675TIP3   OH252901   5.153   2.531   1.451
17675TIP3    H152902   5.133   2.444   1.417
17675TIP3    H252903   5.133   2.527   1.544
17676TIP3   OH252904   7.793   5.171   2.003
17676TIP3    H152905   7.727   5.234   2.031
17676TIP3    H252906   7.747   5.112   1.943
17677TIP3   OH252907   7.325   5.764   6.843
17677TIP3    H152908   7.244   5.721   6.869
17677TIP3    H252909   7.301   5.816   6.766
17678TIP3   OH252910   4.580   4.036   4.464
17678TIP3    H152911   4.572   4.076   4.550
17678TIP3    H252912   4.532   3.953   4.472
17679TIP3   OH252913   3.425   8.821   1.607
17679TIP3    H152914   3.362   8.757   1.573
17679TIP3    H252915   3.505   8.804   1.557
17680TIP3   OH252916   8.749   7.569   5.065
17680TIP3    H152917   8.752   7.495   5.004
17680TIP3    H252918   8.664   7.610   5.049
17681TIP3   OH252919   1.442   8.935   1.419
17681TIP3    H152920   1.458   8.960   1.328
17681TIP3    H252921   1.519   8.965   1.467
17682TIP3   OH252922   5.935   3.140   5.399
17682TIP3    H152923   6.026   3.117   5.383
17682TIP3    H252924   5.909   3.083   5.472
17683TIP3   OH252925   2.413   1.961   1.843
17683TIP3    H152926   2.436   2.054   1.834
17683TIP3    H252927   2.449   1.920   1.765
17684TIP3   OH252928   2.892   2.796   2.376
17684TIP3    H152929   2.887   2.873   2.320
17684TIP3    H252930   2.825   2.736   2.341
17685TIP3   OH252931   2.353   8.684   1.839
17685TIP3    H152932   2.358   8.713   1.748
17685TIP3    H252933   2.415   8.740   1.885
17686TIP3   OH252934   3.244   4.292   2.501
17686TIP3    H152935   3.186   4.337   2.562
17686TIP3    H252936   3.188   4.227   2.458
17687TIP3   OH252937   0.430   3.478   4.510
17687TIP3    H152938   0.404   3.389   4.484
17687TIP3    H252939   0.376   3.497   4.586
17688TIP3   OH252940   3.316   6.597   0.085
17688TIP3    H152941   3.295   6.559   0.000
17688TIP3    H252942   3.361   6.527   0.132
17689TIP3   OH252943   5.798   3.897   5.265
17689TIP3    H152944   5.801   3.991   5.283
17689TIP3    H252945   5.836   3.856   5.343
17690TIP3   OH252946   3.928   8.824   5.376
17690TIP3    H152947   3.952   8.916   5.363
17690TIP3    H252948   3.879   8.801   5.297
17691TIP3   OH252949   2.100   3.522   6.358
17691TIP3    H152950   2.034   3.592   6.363
17691TIP3    H252951   2.127   3.509   6.449
17692TIP3   OH252952   5.159   1.523   0.409
17692TIP3    H152953   5.070   1.493   0.392
17692TIP3    H252954   5.163   1.535   0.504
17693TIP3   OH252955   2.323   8.274   7.013
17693TIP3    H152956   2.295   8.324   7.090
17693TIP3    H252957   2.296   8.184   7.031
17694TIP3   OH252958   4.263   5.475   6.796
17694TIP3    H152959   4.336   5.472   6.858
17694TIP3    H252960   4.189   5.439   6.846
17695TIP3   OH252961   0.785   4.465   0.833
17695TIP3    H152962   0.865   4.474   0.781
17695TIP3    H252963   0.759   4.374   0.819
17696TIP3   OH252964   5.435   8.822   2.552
17696TIP3    H152965   5.388   8.836   2.470
17696TIP3    H252966   5.383   8.756   2.599
17697TIP3   OH252967   5.830   2.298   6.711
17697TIP3    H152968   5.844   2.204   6.711
17697TIP3    H252969   5.746   2.310   6.666
17698TIP3   OH252970   3.530   6.545   7.260
17698TIP3    H152971   3.540   6.453   7.286
17698TIP3    H252972   3.454   6.545   7.202
17699TIP3   OH252973   1.895   4.559   7.553
17699TIP3    H152974   1.962   4.623   7.578
17699TIP3    H252975   1.942   4.477   7.543
17700TIP3   OH252976   1.035   3.984   0.716
17700TIP3    H152977   1.099   3.931   0.669
17700TIP3    H252978   0.969   4.005   0.651
17701TIP3   OH252979   4.158   6.974   3.256
17701TIP3    H152980   4.125   6.995   3.344
17701TIP3    H252981   4.097   7.017   3.197
17702TIP3   OH252982   6.949   4.032   2.558
17702TIP3    H152983   6.952   3.955   2.615
17702TIP3    H252984   6.991   4.004   2.477
17703TIP3   OH252985   7.408   2.516   1.098
17703TIP3    H152986   7.443   2.428   1.112
17703TIP3    H252987   7.320   2.501   1.064
17704TIP3   OH252988   4.246   0.105   5.172
17704TIP3    H152989   4.322   0.128   5.225
17704TIP3    H252990   4.173   0.150   5.214
17705TIP3   OH252991   2.814   7.174   2.015
17705TIP3    H152992   2.891   7.224   1.986
17705TIP3    H252993   2.743   7.205   1.958
17706TIP3   OH252994   8.518   4.861   0.521
17706TIP3    H152995   8.436   4.912   0.523
17706TIP3    H252996   8.582   4.921   0.484
17707TIP3   OH252997   2.607   1.102   1.529
17707TIP3    H152998   2.703   1.101   1.529
17707TIP3    H252999   2.584   1.115   1.437
17708TIP3   OH253000   7.721   7.046   3.758
17708TIP3    H153001   7.634   7.036   3.796
17708TIP3    H253002   7.760   7.119   3.807
17709TIP3   OH253003   6.610   2.303   2.156
17709TIP3    H153004   6.654   2.305   2.072
17709TIP3    H253005   6.531   2.251   2.140
17710TIP3   OH253006   4.791   2.638   1.512
17710TIP3    H153007   4.756   2.649   1.424
17710TIP3    H253008   4.812   2.545   1.519
17711TIP3   OH253009   3.975   0.536   4.317
17711TIP3    H153010   4.018   0.515   4.400
17711TIP3    H253011   3.924   0.615   4.336
17712TIP3   OH253012   6.652   5.268   4.570
17712TIP3    H153013   6.715   5.235   4.507
17712TIP3    H253014   6.585   5.311   4.517
17713TIP3   OH253015   7.431   4.615   0.418
17713TIP3    H153016   7.377   4.594   0.494
17713TIP3    H253017   7.441   4.533   0.371
17714TIP3   OH253018   7.649   1.333   1.634
17714TIP3    H153019   7.686   1.247   1.655
17714TIP3    H253020   7.668   1.387   1.711
17715TIP3   OH253021   5.370   0.325   7.625
17715TIP3    H153022   5.450   0.296   7.582
17715TIP3    H253023   5.332   0.246   7.663
17716TIP3   OH253024   7.660   2.525   4.406
17716TIP3    H153025   7.623   2.445   4.369
17716TIP3    H253026   7.703   2.496   4.486
17717TIP3   OH253027   7.271   4.409   5.619
17717TIP3    H153028   7.291   4.489   5.571
17717TIP3    H253029   7.329   4.343   5.580
17718TIP3   OH253030   0.939   4.940   0.195
17718TIP3    H153031   0.872   5.009   0.200
17718TIP3    H253032   1.016   4.979   0.238
17719TIP3   OH253033   2.748   3.323   7.643
17719TIP3    H153034   2.802   3.345   7.567
17719TIP3    H253035   2.749   3.401   7.697
17720TIP3   OH253036   0.450   4.035   1.515
17720TIP3    H153037   0.480   3.961   1.462
17720TIP3    H253038   0.373   4.069   1.469
17721TIP3   OH253039   8.232   2.131   1.580
17721TIP3    H153040   8.294   2.191   1.539
17721TIP3    H253041   8.209   2.173   1.663
17722TIP3   OH253042   7.553   0.766   3.739
17722TIP3    H153043   7.638   0.806   3.722
17722TIP3    H253044   7.574   0.684   3.784
17723TIP3   OH253045   8.090   3.568   0.629
17723TIP3    H153046   8.075   3.519   0.709
17723TIP3    H253047   8.003   3.579   0.590
17724TIP3   OH253048   7.851   5.286   4.317
17724TIP3    H153049   7.819   5.234   4.390
17724TIP3    H253050   7.778   5.343   4.294
17725TIP3   OH253051   2.273   6.765   1.477
17725TIP3    H153052   2.332   6.780   1.551
17725TIP3    H253053   2.284   6.673   1.456
17726TIP3   OH253054   8.416   7.855   0.621
17726TIP3    H153055   8.508   7.827   0.616
17726TIP3    H253056   8.419   7.949   0.606
17727TIP3   OH253057   1.017   6.108   7.625
17727TIP3    H153058   1.031   6.053   7.548
17727TIP3    H253059   1.037   6.051   7.699
17728TIP3   OH253060   0.341   5.588   1.855
17728TIP3    H153061   0.354   5.602   1.949
17728TIP3    H253062   0.320   5.674   1.821
17729TIP3   OH253063   1.619   1.436   6.072
17729TIP3    H153064   1.648   1.504   6.012
17729TIP3    H253065   1.547   1.476   6.121
17730TIP3   OH253066   1.307   5.412   7.253
17730TIP3    H153067   1.254   5.374   7.323
17730TIP3    H253068   1.396   5.414   7.289
17731TIP3   OH253069   6.786   7.285   2.204
17731TIP3    H153070   6.818   7.226   2.136
17731TIP3    H253071   6.788   7.372   2.164
17732TIP3   OH253072   6.533   3.883   1.598
17732TIP3    H153073   6.609   3.932   1.631
17732TIP3    H253074   6.466   3.896   1.664
17733TIP3   OH253075   8.765   5.741   2.626
17733TIP3    H153076   8.796   5.827   2.656
17733TIP3    H253077   8.753   5.691   2.707
17734TIP3   OH253078   1.424   0.362   7.287
17734TIP3    H153079   1.432   0.267   7.280
17734TIP3    H253080   1.514   0.394   7.288
17735TIP3   OH253081   0.616   7.272   6.641
17735TIP3    H153082   0.589   7.296   6.729
17735TIP3    H253083   0.544   7.219   6.607
17736TIP3   OH253084   2.111   7.648   5.632
17736TIP3    H153085   2.116   7.710   5.559
17736TIP3    H253086   2.061   7.574   5.597
17737TIP3   OH253087   8.688   0.553   0.177
17737TIP3    H153088   8.695   0.647   0.159
17737TIP3    H253089   8.594   0.537   0.186
17738TIP3   OH253090   8.107   5.685   2.873
17738TIP3    H153091   8.121   5.607   2.927
17738TIP3    H253092   8.183   5.687   2.815
17739TIP3   OH253093   1.265   6.421   5.469
17739TIP3    H153094   1.339   6.444   5.526
17739TIP3    H253095   1.264   6.490   5.403
17740TIP3   OH253096   3.981   8.685   0.543
17740TIP3    H153097   4.045   8.659   0.476
17740TIP3    H253098   3.909   8.724   0.493
17741TIP3   OH253099   0.160   0.712   0.733
17741TIP3    H153100   0.104   0.728   0.808
17741TIP3    H253101   0.217   0.639   0.761
17742TIP3   OH253102   3.532   2.755   1.201
17742TIP3    H153103   3.448   2.753   1.157
17742TIP3    H253104   3.521   2.698   1.277
17743TIP3   OH253105   3.288   0.142   5.946
17743TIP3    H153106   3.331   0.080   5.888
17743TIP3    H253107   3.194   0.124   5.934
17744TIP3   OH253108   6.210   7.052   3.597
17744TIP3    H153109   6.193   6.977   3.540
17744TIP3    H253110   6.304   7.067   3.589
17745TIP3   OH253111   1.622   8.788   5.984
17745TIP3    H153112   1.620   8.781   6.079
17745TIP3    H253113   1.619   8.882   5.966
17746TIP3   OH253114   3.761   8.530   5.722
17746TIP3    H153115   3.703   8.476   5.669
17746TIP3    H253116   3.825   8.564   5.661
17747TIP3   OH253117   8.437   6.424   1.188
17747TIP3    H153118   8.365   6.481   1.160
17747TIP3    H253119   8.490   6.479   1.246
17748TIP3   OH253120   9.341   7.466   3.041
17748TIP3    H153121   9.368   7.377   3.018
17748TIP3    H253122   9.284   7.493   2.969
17749TIP3   OH253123   0.665   7.634   4.364
17749TIP3    H153124   0.622   7.595   4.440
17749TIP3    H253125   0.620   7.596   4.289
17750TIP3   OH253126   4.925   8.611   0.551
17750TIP3    H153127   4.967   8.609   0.637
17750TIP3    H253128   4.833   8.593   0.569
17751TIP3   OH253129   8.473   2.128   5.945
17751TIP3    H153130   8.492   2.215   5.910
17751TIP3    H253131   8.540   2.072   5.907
17752TIP3   OH253132   9.040   4.506   4.377
17752TIP3    H153133   9.082   4.545   4.301
17752TIP3    H253134   9.102   4.440   4.408
17753TIP3   OH253135   8.607   5.046   2.761
17753TIP3    H153136   8.524   5.021   2.722
17753TIP3    H253137   8.584   5.074   2.850
17754TIP3   OH253138   5.505   7.137   5.529
17754TIP3    H153139   5.468   7.049   5.534
17754TIP3    H253140   5.547   7.141   5.443
17755TIP3   OH253141   8.002   6.162   3.686
17755TIP3    H153142   7.953   6.101   3.631
17755TIP3    H253143   8.084   6.177   3.638
17756TIP3   OH253144   7.482   0.062   0.346
17756TIP3    H153145   7.518   0.072   0.258
17756TIP3    H253146   7.387   0.067   0.333
17757TIP3   OH253147   0.052   8.657   2.873
17757TIP3    H153148   0.081   8.734   2.825
17757TIP3    H253149  -0.044   8.661   2.869
17758TIP3   OH253150   0.694   0.163   2.946
17758TIP3    H153151   0.653   0.250   2.953
17758TIP3    H253152   0.621   0.102   2.957
17759TIP3   OH253153   3.232   7.021   4.543
17759TIP3    H153154   3.175   7.018   4.466
17759TIP3    H253155   3.216   6.938   4.588
17760TIP3   OH253156   1.638   1.062   2.924
17760TIP3    H153157   1.555   1.046   2.881
17760TIP3    H253158   1.654   0.983   2.976
17761TIP3   OH253159   7.188   6.183   6.087
17761TIP3    H153160   7.212   6.131   6.011
17761TIP3    H253161   7.230   6.138   6.161
17762TIP3   OH253162   7.981   6.309   4.737
17762TIP3    H153163   8.048   6.376   4.747
17762TIP3    H253164   7.959   6.311   4.643
17763TIP3   OH253165   6.168   6.702   7.223
17763TIP3    H153166   6.129   6.629   7.272
17763TIP3    H253167   6.257   6.673   7.204
17764TIP3   OH253168   4.570   2.488   4.301
17764TIP3    H153169   4.561   2.562   4.361
17764TIP3    H253170   4.540   2.521   4.217
17765TIP3   OH253171   9.219   4.778   7.232
17765TIP3    H153172   9.177   4.740   7.155
17765TIP3    H253173   9.257   4.704   7.278
17766TIP3   OH253174   5.550   7.828   7.514
17766TIP3    H153175   5.458   7.810   7.497
17766TIP3    H253176   5.570   7.904   7.459
17767TIP3   OH253177   2.620   8.630   1.057
17767TIP3    H153178   2.587   8.540   1.050
17767TIP3    H253179   2.584   8.675   0.980
17768TIP3   OH253180   2.038   7.847   7.385
17768TIP3    H153181   2.064   7.933   7.418
17768TIP3    H253182   1.952   7.831   7.423
17769TIP3   OH253183   6.521   5.224   2.206
17769TIP3    H153184   6.488   5.157   2.146
17769TIP3    H253185   6.449   5.288   2.212
17770TIP3   OH253186   2.464   4.780   0.463
17770TIP3    H153187   2.515   4.861   0.457
17770TIP3    H253188   2.491   4.729   0.386
17771TIP3   OH253189   7.735   4.510   3.025
17771TIP3    H153190   7.814   4.529   2.973
17771TIP3    H253191   7.694   4.595   3.038
17772TIP3   OH253192   6.217   6.834   2.966
17772TIP3    H153193   6.214   6.885   2.885
17772TIP3    H253194   6.201   6.744   2.939
17773TIP3   OH253195   0.773   6.922   5.370
17773TIP3    H153196   0.806   6.876   5.448
17773TIP3    H253197   0.815   6.877   5.297
17774TIP3   OH253198   0.450   6.240   2.015
17774TIP3    H153199   0.533   6.272   2.050
17774TIP3    H253200   0.383   6.292   2.060
17775TIP3   OH253201   1.420   7.763   6.438
17775TIP3    H153202   1.386   7.759   6.527
17775TIP3    H253203   1.461   7.678   6.423
17776TIP3   OH253204   1.927   8.539   1.021
17776TIP3    H153205   1.840   8.504   1.001
17776TIP3    H253206   1.949   8.593   0.946
17777TIP3   OH253207   4.759   2.559   6.981
17777TIP3    H153208   4.832   2.596   6.932
17777TIP3    H253209   4.800   2.500   7.045
17778TIP3   OH253210   0.741   1.171   4.263
17778TIP3    H153211   0.727   1.192   4.355
17778TIP3    H253212   0.674   1.222   4.216
17779TIP3   OH253213   6.690   8.669   1.807
17779TIP3    H153214   6.722   8.649   1.895
17779TIP3    H253215   6.769   8.683   1.755
17780TIP3   OH253216   9.559   7.746   5.730
17780TIP3    H153217   9.650   7.772   5.715
17780TIP3    H253218   9.521   7.740   5.642
17781TIP3   OH253219   3.897   0.433   2.707
17781TIP3    H153220   3.833   0.422   2.778
17781TIP3    H253221   3.981   0.440   2.752
17782TIP3   OH253222   0.567   6.855   6.061
17782TIP3    H153223   0.631   6.906   6.112
17782TIP3    H253224   0.487   6.907   6.064
17783TIP3   OH253225   8.650   8.176   6.786
17783TIP3    H153226   8.567   8.218   6.763
17783TIP3    H253227   8.674   8.127   6.707
17784TIP3   OH253228   5.203   1.136   2.456
17784TIP3    H153229   5.268   1.166   2.392
17784TIP3    H253230   5.135   1.095   2.403
17785TIP3   OH253231   4.474   8.192   0.817
17785TIP3    H153232   4.501   8.209   0.727
17785TIP3    H253233   4.455   8.279   0.854
17786TIP3   OH253234   5.927   2.164   2.853
17786TIP3    H153235   5.916   2.246   2.901
17786TIP3    H253236   6.012   2.173   2.810
17787TIP3   OH253237   3.404   8.439   5.517
17787TIP3    H153238   3.309   8.444   5.507
17787TIP3    H253239   3.437   8.510   5.462
17788TIP3   OH253240   8.078   0.227   6.069
17788TIP3    H153241   7.990   0.224   6.033
17788TIP3    H253242   8.110   0.314   6.048
17789TIP3   OH253243   6.974   6.291   2.760
17789TIP3    H153244   7.017   6.284   2.845
17789TIP3    H253245   6.965   6.385   2.745
17790TIP3   OH253246   2.798   3.226   2.736
17790TIP3    H153247   2.772   3.317   2.722
17790TIP3    H253248   2.881   3.231   2.783
17791TIP3   OH253249   6.472   3.219   2.672
17791TIP3    H153250   6.453   3.308   2.701
17791TIP3    H253251   6.543   3.228   2.609
17792TIP3   OH253252   9.435   1.151   6.070
17792TIP3    H153253   9.408   1.082   6.010
17792TIP3    H253254   9.506   1.196   6.025
17793TIP3   OH253255   1.397   5.429   5.859
17793TIP3    H153256   1.446   5.424   5.777
17793TIP3    H253257   1.306   5.445   5.831
17794TIP3   OH253258   5.232   7.389   0.597
17794TIP3    H153259   5.240   7.294   0.595
17794TIP3    H253260   5.274   7.415   0.679
17795TIP3   OH253261   6.316   5.948   3.326
17795TIP3    H153262   6.325   5.998   3.245
17795TIP3    H253263   6.407   5.928   3.351
17796TIP3   OH253264   7.151   5.667   2.135
17796TIP3    H153265   7.223   5.685   2.075
17796TIP3    H253266   7.193   5.662   2.221
17797TIP3   OH253267   6.986   6.345   3.445
17797TIP3    H153268   6.964   6.351   3.352
17797TIP3    H253269   7.080   6.362   3.448
17798TIP3   OH253270   5.592   1.021   0.361
17798TIP3    H153271   5.631   1.076   0.429
17798TIP3    H253272   5.592   1.076   0.283
17799TIP3   OH253273   4.980   6.808   4.555
17799TIP3    H153274   4.946   6.722   4.577
17799TIP3    H253275   4.941   6.828   4.469
17800TIP3   OH253276   7.530   3.124   0.254
17800TIP3    H153277   7.444   3.139   0.294
17800TIP3    H253278   7.533   3.187   0.181
17801TIP3   OH253279   3.914   0.583   7.432
17801TIP3    H153280   3.987   0.521   7.435
17801TIP3    H253281   3.930   0.635   7.353
17802TIP3   OH253282   1.193   7.045   7.712
17802TIP3    H153283   1.117   7.091   7.679
17802TIP3    H253284   1.193   7.063   7.806
17803TIP3   OH253285   3.394   8.654   2.620
17803TIP3    H153286   3.302   8.659   2.594
17803TIP3    H253287   3.418   8.562   2.607
17804TIP3   OH253288   2.268   3.026   0.097
17804TIP3    H153289   2.258   3.119   0.117
17804TIP3    H253290   2.179   2.995   0.077
17805TIP3   OH253291   5.511   6.537   4.597
17805TIP3    H153292   5.445   6.606   4.599
17805TIP3    H253293   5.478   6.471   4.658
17806TIP3   OH253294   7.096   1.418   7.544
17806TIP3    H153295   7.052   1.333   7.549
17806TIP3    H253296   7.036   1.479   7.586
17807TIP3   OH253297   7.939   3.120   3.135
17807TIP3    H153298   7.911   3.029   3.136
17807TIP3    H253299   7.900   3.156   3.055
17808TIP3   OH253300   1.590   3.848   5.852
17808TIP3    H153301   1.592   3.753   5.866
17808TIP3    H253302   1.579   3.859   5.758
17809TIP3   OH253303   3.703   5.031   1.175
17809TIP3    H153304   3.709   5.110   1.120
17809TIP3    H253305   3.718   4.959   1.114
17810TIP3   OH253306   8.281   6.424   6.058
17810TIP3    H153307   8.337   6.348   6.076
17810TIP3    H253308   8.194   6.397   6.088
17811TIP3   OH253309   8.832   6.852   5.349
17811TIP3    H153310   8.827   6.887   5.438
17811TIP3    H253311   8.877   6.768   5.358
17812TIP3   OH253312   0.758   5.130   4.309
17812TIP3    H153313   0.827   5.166   4.366
17812TIP3    H253314   0.774   5.171   4.224
17813TIP3   OH253315   8.029   7.431   5.450
17813TIP3    H153316   8.063   7.445   5.538
17813TIP3    H253317   7.946   7.385   5.464
17814TIP3   OH253318   1.136   4.152   3.758
17814TIP3    H153319   1.054   4.119   3.721
17814TIP3    H253320   1.168   4.080   3.813
17815TIP3   OH253321   5.813   2.092   1.347
17815TIP3    H153322   5.819   1.998   1.363
17815TIP3    H253323   5.724   2.105   1.315
17816TIP3   OH253324   5.390   1.943   3.278
17816TIP3    H153325   5.339   1.919   3.200
17816TIP3    H253326   5.326   1.945   3.349
17817TIP3   OH253327   5.341   5.060   1.971
17817TIP3    H153328   5.329   5.020   1.885
17817TIP3    H253329   5.329   4.988   2.033
17818TIP3   OH253330   8.049   4.531   4.675
17818TIP3    H153331   8.004   4.451   4.702
17818TIP3    H253332   8.130   4.500   4.635
17819TIP3   OH253333   9.439   1.217   1.378
17819TIP3    H153334   9.396   1.131   1.379
17819TIP3    H253335   9.436   1.246   1.469
17820TIP3   OH253336   7.316   2.434   6.044
17820TIP3    H153337   7.312   2.358   5.986
17820TIP3    H253338   7.378   2.409   6.112
17821TIP3   OH253339   1.947   4.892   0.888
17821TIP3    H153340   1.866   4.905   0.937
17821TIP3    H253341   2.003   4.842   0.946
17822TIP3   OH253342   0.118   5.679   0.878
17822TIP3    H153343   0.204   5.702   0.916
17822TIP3    H253344   0.057   5.685   0.952
17823TIP3   OH253345   0.722   7.397   6.152
17823TIP3    H153346   0.636   7.357   6.139
17823TIP3    H253347   0.759   7.349   6.227
17824TIP3   OH253348   4.994   0.124   0.558
17824TIP3    H153349   4.935   0.057   0.523
17824TIP3    H253350   5.021   0.174   0.481
17825TIP3   OH253351   2.112   5.327   2.939
17825TIP3    H153352   2.075   5.363   3.019
17825TIP3    H253353   2.166   5.254   2.968
17826TIP3   OH253354   3.279   4.508   3.717
17826TIP3    H153355   3.373   4.508   3.735
17826TIP3    H253356   3.272   4.513   3.622
17827TIP3   OH253357   8.668   5.380   6.022
17827TIP3    H153358   8.685   5.417   6.109
17827TIP3    H253359   8.741   5.319   6.007
17828TIP3   OH253360   6.823   2.662   3.476
17828TIP3    H153361   6.888   2.732   3.485
17828TIP3    H253362   6.749   2.704   3.432
17829TIP3   OH253363   3.692   2.341   0.074
17829TIP3    H153364   3.604   2.378   0.072
17829TIP3    H253365   3.729   2.362  -0.012
17830TIP3   OH253366   4.017   3.844   3.240
17830TIP3    H153367   4.049   3.905   3.174
17830TIP3    H253368   4.094   3.792   3.264
17831TIP3   OH253369   2.819   0.541   7.166
17831TIP3    H153370   2.848   0.607   7.104
17831TIP3    H253371   2.739   0.504   7.127
17832TIP3   OH253372   7.090   0.911   2.810
17832TIP3    H153373   7.182   0.927   2.831
17832TIP3    H253374   7.048   0.896   2.894
17833TIP3   OH253375   2.606   3.258   0.070
17833TIP3    H153376   2.701   3.248   0.078
17833TIP3    H253377   2.574   3.169   0.058
17834TIP3   OH253378   2.135   7.583   3.211
17834TIP3    H153379   2.119   7.501   3.259
17834TIP3    H253380   2.055   7.597   3.162
17835TIP3   OH253381   5.040   4.329   7.079
17835TIP3    H153382   5.023   4.366   7.166
17835TIP3    H253383   4.967   4.360   7.025
17836TIP3   OH253384   4.921   5.849   0.264
17836TIP3    H153385   4.835   5.846   0.221
17836TIP3    H253386   4.982   5.818   0.197
17837TIP3   OH253387   4.080   5.933   1.093
17837TIP3    H153388   4.143   6.001   1.118
17837TIP3    H253389   4.126   5.881   1.027
17838TIP3   OH253390   7.993   3.505   1.270
17838TIP3    H153391   7.932   3.576   1.252
17838TIP3    H253392   8.054   3.541   1.334
17839TIP3   OH253393   8.987   6.200   7.753
17839TIP3    H153394   8.911   6.207   7.812
17839TIP3    H253395   8.950   6.168   7.671
17840TIP3   OH253396   6.380   4.312   2.987
17840TIP3    H153397   6.393   4.258   2.909
17840TIP3    H253398   6.435   4.270   3.054
17841TIP3   OH253399   1.237   1.531   0.677
17841TIP3    H153400   1.296   1.462   0.707
17841TIP3    H253401   1.231   1.518   0.583
17842TIP3   OH253402   6.724   2.364   5.764
17842TIP3    H153403   6.713   2.356   5.669
17842TIP3    H253404   6.655   2.309   5.801
17843TIP3   OH253405   6.631   1.093   0.223
17843TIP3    H153406   6.542   1.063   0.240
17843TIP3    H253407   6.659   1.042   0.148
17844TIP3   OH253408   7.621   2.966   2.115
17844TIP3    H153409   7.658   2.987   2.201
17844TIP3    H253410   7.540   3.018   2.111
17845TIP3   OH253411   2.471   3.198   3.995
17845TIP3    H153412   2.524   3.214   4.073
17845TIP3    H253413   2.530   3.152   3.935
17846TIP3   OH253414   8.766   8.721   5.533
17846TIP3    H153415   8.772   8.627   5.547
17846TIP3    H253416   8.697   8.750   5.593
17847TIP3   OH253417   7.180   6.431   5.371
17847TIP3    H153418   7.102   6.478   5.401
17847TIP3    H253419   7.247   6.450   5.437
17848TIP3   OH253420   8.665   3.481   6.090
17848TIP3    H153421   8.668   3.510   6.181
17848TIP3    H253422   8.683   3.387   6.094
17849TIP3   OH253423   4.852   2.311   0.310
17849TIP3    H153424   4.911   2.276   0.244
17849TIP3    H253425   4.764   2.283   0.282
17850TIP3   OH253426   2.877   4.731   7.307
17850TIP3    H153427   2.799   4.774   7.271
17850TIP3    H253428   2.907   4.673   7.237
17851TIP3   OH253429   8.542   1.515   6.321
17851TIP3    H153430   8.450   1.499   6.296
17851TIP3    H253431   8.548   1.483   6.411
17852TIP3   OH253432   1.647   0.070   3.443
17852TIP3    H153433   1.612   0.062   3.531
17852TIP3    H253434   1.604   0.000   3.394
17853TIP3   OH253435   9.060   8.565   3.748
17853TIP3    H153436   8.987   8.580   3.688
17853TIP3    H253437   9.125   8.520   3.694
17854TIP3   OH253438   4.668   3.944   1.141
17854TIP3    H153439   4.572   3.941   1.140
17854TIP3    H253440   4.688   4.038   1.139
17855TIP3   OH253441   6.328   0.163   5.227
17855TIP3    H153442   6.264   0.232   5.209
17855TIP3    H253443   6.349   0.174   5.320
17856TIP3   OH253444   3.102   1.747   6.423
17856TIP3    H153445   3.049   1.672   6.398
17856TIP3    H253446   3.043   1.822   6.418
17857TIP3   OH253447   2.863   3.655   4.524
17857TIP3    H153448   2.820   3.573   4.498
17857TIP3    H253449   2.905   3.686   4.444
17858TIP3   OH253450   5.327   7.567   3.324
17858TIP3    H153451   5.294   7.614   3.247
17858TIP3    H253452   5.308   7.625   3.398
17859TIP3   OH253453   0.608   6.652   7.630
17859TIP3    H153454   0.515   6.664   7.649
17859TIP3    H253455   0.624   6.559   7.642
17860TIP3   OH253456   8.459   8.337   2.754
17860TIP3    H153457   8.492   8.280   2.684
17860TIP3    H253458   8.516   8.319   2.829
17861TIP3   OH253459   6.412   7.366   0.010
17861TIP3    H153460   6.390   7.291   0.065
17861TIP3    H253461   6.433   7.327  -0.075
17862TIP3   OH253462   8.770   5.595   2.203
17862TIP3    H153463   8.781   5.569   2.295
17862TIP3    H253464   8.727   5.680   2.208
17863TIP3   OH253465   6.909   5.041   5.675
17863TIP3    H153466   6.942   5.124   5.640
17863TIP3    H253467   6.876   5.063   5.762
17864TIP3   OH253468   2.147   5.716   3.335
17864TIP3    H153469   2.134   5.746   3.245
17864TIP3    H253470   2.210   5.644   3.328
17865TIP3   OH253471   6.814   7.610   4.775
17865TIP3    H153472   6.809   7.525   4.733
17865TIP3    H253473   6.886   7.655   4.730
17866TIP3   OH253474   2.129   4.850   0.179
17866TIP3    H153475   2.099   4.892   0.260
17866TIP3    H253476   2.194   4.786   0.208
17867TIP3   OH253477   7.567   3.523   6.106
17867TIP3    H153478   7.534   3.612   6.101
17867TIP3    H253479   7.614   3.509   6.024
17868TIP3   OH253480   9.243   4.799   1.975
17868TIP3    H153481   9.323   4.851   1.963
17868TIP3    H253482   9.176   4.863   1.998
17869TIP3   OH253483   4.065   5.341   5.955
17869TIP3    H153484   4.069   5.433   5.981
17869TIP3    H253485   3.980   5.333   5.911
17870TIP3   OH253486   3.281   4.063   2.187
17870TIP3    H153487   3.229   4.034   2.262
17870TIP3    H253488   3.247   4.150   2.167
17871TIP3   OH253489   5.475   0.288   1.025
17871TIP3    H153490   5.439   0.295   1.114
17871TIP3    H253491   5.404   0.248   0.975
17872TIP3   OH253492   3.361   1.865   4.970
17872TIP3    H153493   3.270   1.860   4.941
17872TIP3    H253494   3.388   1.955   4.951
17873TIP3   OH253495   7.088   0.935   6.536
17873TIP3    H153496   7.071   0.995   6.609
17873TIP3    H253497   7.178   0.905   6.549
17874TIP3   OH253498   5.500   3.735   5.800
17874TIP3    H153499   5.542   3.677   5.863
17874TIP3    H253500   5.508   3.690   5.716
17875TIP3   OH253501   5.208   6.072   5.557
17875TIP3    H153502   5.135   6.011   5.541
17875TIP3    H253503   5.203   6.090   5.651
17876TIP3   OH253504   4.894   8.786   4.925
17876TIP3    H153505   4.808   8.811   4.892
17876TIP3    H253506   4.942   8.758   4.847
17877TIP3   OH253507   6.145   1.682   4.928
17877TIP3    H153508   6.144   1.645   4.840
17877TIP3    H253509   6.060   1.724   4.937
17878TIP3   OH253510   6.715   0.910   0.405
17878TIP3    H153511   6.802   0.872   0.420
17878TIP3    H253512   6.728   0.974   0.336
17879TIP3   OH253513   2.447   2.278   4.402
17879TIP3    H153514   2.417   2.274   4.311
17879TIP3    H253515   2.424   2.193   4.439
17880TIP3   OH253516   9.177   0.873   2.437
17880TIP3    H153517   9.259   0.827   2.418
17880TIP3    H253518   9.121   0.854   2.362
17881TIP3   OH253519   4.235   0.527   1.482
17881TIP3    H153520   4.265   0.437   1.470
17881TIP3    H253521   4.315   0.578   1.490
17882TIP3   OH253522   0.427   8.288   3.419
17882TIP3    H153523   0.445   8.382   3.429
17882TIP3    H253524   0.486   8.260   3.349
17883TIP3   OH253525   6.130   6.058   5.643
17883TIP3    H153526   6.181   6.108   5.707
17883TIP3    H253527   6.129   5.969   5.678
17884TIP3   OH253528   1.844   1.876   3.410
17884TIP3    H153529   1.888   1.956   3.384
17884TIP3    H253530   1.909   1.807   3.396
17885TIP3   OH253531   0.601   7.420   2.629
17885TIP3    H153532   0.683   7.445   2.671
17885TIP3    H253533   0.598   7.472   2.549
17886TIP3   OH253534   2.755   7.931   5.528
17886TIP3    H153535   2.759   7.863   5.595
17886TIP3    H253536   2.684   7.988   5.556
17887TIP3   OH253537   8.488   8.530   1.664
17887TIP3    H153538   8.502   8.504   1.573
17887TIP3    H253539   8.569   8.574   1.689
17888TIP3   OH253540   8.221   4.723   1.097
17888TIP3    H153541   8.241   4.651   1.037
17888TIP3    H253542   8.210   4.799   1.040
17889TIP3   OH253543   4.106   1.224   1.792
17889TIP3    H153544   4.131   1.153   1.733
17889TIP3    H253545   4.102   1.183   1.879
17890TIP3   OH253546   6.458   8.283   0.878
17890TIP3    H153547   6.487   8.239   0.957
17890TIP3    H253548   6.523   8.261   0.812
17891TIP3   OH253549   5.115   0.429   5.273
17891TIP3    H153550   5.164   0.390   5.200
17891TIP3    H253551   5.128   0.368   5.346
17892TIP3   OH253552   2.128   8.887   0.226
17892TIP3    H153553   2.146   8.829   0.151
17892TIP3    H253554   2.047   8.853   0.263
17893TIP3   OH253555   2.926   7.763   2.546
17893TIP3    H153556   2.943   7.850   2.511
17893TIP3    H253557   2.832   7.760   2.559
17894TIP3   OH253558   3.648   1.358   6.605
17894TIP3    H153559   3.718   1.400   6.655
17894TIP3    H253560   3.650   1.403   6.520
17895TIP3   OH253561   1.871   1.333   3.680
17895TIP3    H153562   1.934   1.274   3.722
17895TIP3    H253563   1.865   1.407   3.741
17896TIP3   OH253564   8.953   0.229   0.094
17896TIP3    H153565   8.905   0.266   0.168
17896TIP3    H253566   8.897   0.160   0.060
17897TIP3   OH253567   2.362   6.442   2.948
17897TIP3    H153568   2.449   6.423   2.913
17897TIP3    H253569   2.320   6.495   2.881
17898TIP3   OH253570   8.142   0.979   1.470
17898TIP3    H153571   8.118   1.047   1.532
17898TIP3    H253572   8.109   1.011   1.386
17899TIP3   OH253573   1.301   3.446   4.457
17899TIP3    H153574   1.375   3.502   4.435
17899TIP3    H253575   1.332   3.357   4.439
17900TIP3   OH253576   6.562   8.405   7.491
17900TIP3    H153577   6.628   8.379   7.555
17900TIP3    H253578   6.507   8.327   7.481
17901TIP3   OH253579   3.434   0.921   6.154
17901TIP3    H153580   3.382   0.947   6.078
17901TIP3    H253581   3.512   0.879   6.117
17902TIP3   OH253582   4.705   7.932   5.153
17902TIP3    H153583   4.723   7.857   5.096
17902TIP3    H253584   4.649   7.989   5.100
17903TIP3   OH253585   0.760   2.091   7.107
17903TIP3    H153586   0.697   2.019   7.094
17903TIP3    H253587   0.829   2.075   7.042
17904TIP3   OH253588   1.327   6.274   4.606
17904TIP3    H153589   1.282   6.359   4.597
17904TIP3    H253590   1.287   6.219   4.538
17905TIP3   OH253591   4.124   1.897   5.063
17905TIP3    H153592   4.115   1.978   5.013
17905TIP3    H253593   4.176   1.922   5.140
17906TIP3   OH253594   0.590   1.543   7.677
17906TIP3    H153595   0.531   1.586   7.738
17906TIP3    H253596   0.654   1.498   7.732
17907TIP3   OH253597   2.552   6.135   4.820
17907TIP3    H153598   2.609   6.118   4.895
17907TIP3    H253599   2.553   6.053   4.770
17908TIP3   OH253600   8.437   6.099   0.667
17908TIP3    H153601   8.438   6.120   0.573
17908TIP3    H253602   8.444   6.004   0.670
17909TIP3   OH253603   2.199   3.003   0.647
17909TIP3    H153604   2.289   3.011   0.679
17909TIP3    H253605   2.145   3.031   0.721
17910TIP3   OH253606   0.852   1.421   3.281
17910TIP3    H153607   0.792   1.353   3.250
17910TIP3    H253608   0.810   1.503   3.256
17911TIP3   OH253609   8.314   4.502   3.379
17911TIP3    H153610   8.400   4.538   3.358
17911TIP3    H253611   8.265   4.576   3.415
17912TIP3   OH253612   0.794   5.116   2.926
17912TIP3    H153613   0.820   5.025   2.936
17912TIP3    H253614   0.821   5.139   2.837
17913TIP3   OH253615   0.062   8.356   3.926
17913TIP3    H153616  -0.013   8.296   3.926
17913TIP3    H253617   0.106   8.338   3.843
17914TIP3   OH253618   7.594   1.303   6.891
17914TIP3    H153619   7.595   1.212   6.921
17914TIP3    H253620   7.677   1.315   6.846
17915TIP3   OH253621   3.833   4.024   2.179
17915TIP3    H153622   3.922   3.997   2.158
17915TIP3    H253623   3.841   4.116   2.204
17916TIP3   OH253624   6.842   1.003   7.378
17916TIP3    H153625   6.751   1.017   7.351
17916TIP3    H253626   6.842   0.919   7.423
17917TIP3   OH253627   5.595   1.574   5.442
17917TIP3    H153628   5.614   1.484   5.468
17917TIP3    H253629   5.604   1.625   5.522
17918TIP3   OH253630   2.247   4.601   2.248
17918TIP3    H153631   2.160   4.561   2.250
17918TIP3    H253632   2.275   4.594   2.157
17919TIP3   OH253633   4.972   5.217   4.470
17919TIP3    H153634   4.976   5.122   4.471
17919TIP3    H253635   4.907   5.238   4.403
17920TIP3   OH253636   5.142   3.192   1.519
17920TIP3    H153637   5.086   3.116   1.500
17920TIP3    H253638   5.221   3.177   1.468
17921TIP3   OH253639   4.747   2.693   3.380
17921TIP3    H153640   4.696   2.773   3.366
17921TIP3    H253641   4.760   2.691   3.475
17922TIP3   OH253642   7.176   1.265   1.430
17922TIP3    H153643   7.120   1.200   1.472
17922TIP3    H253644   7.117   1.338   1.409
17923TIP3   OH253645   2.779   6.057   1.666
17923TIP3    H153646   2.857   6.078   1.718
17923TIP3    H253647   2.706   6.090   1.717
17924TIP3   OH253648   0.407   3.780   6.894
17924TIP3    H153649   0.499   3.764   6.871
17924TIP3    H253650   0.389   3.719   6.965
17925TIP3   OH253651   0.726   6.116   7.279
17925TIP3    H153652   0.768   6.040   7.319
17925TIP3    H253653   0.787   6.188   7.295
17926TIP3   OH253654   2.249   4.978   5.666
17926TIP3    H153655   2.208   4.896   5.639
17926TIP3    H253656   2.254   5.030   5.585
17927TIP3   OH253657   9.065   5.964   5.892
17927TIP3    H153658   8.974   5.994   5.896
17927TIP3    H253659   9.113   6.023   5.950
17928TIP3   OH253660   8.146   3.538   0.972
17928TIP3    H153661   8.072   3.480   0.953
17928TIP3    H253662   8.107   3.622   0.992
17929TIP3   OH253663   2.163   4.370   2.704
17929TIP3    H153664   2.123   4.297   2.656
17929TIP3    H253665   2.093   4.401   2.762
17930TIP3   OH253666   4.715   3.713   5.376
17930TIP3    H153667   4.809   3.698   5.370
17930TIP3    H253668   4.707   3.801   5.414
17931TIP3   OH253669   0.442   2.084   3.866
17931TIP3    H153670   0.448   2.000   3.822
17931TIP3    H253671   0.517   2.134   3.833
17932TIP3   OH253672   9.404   1.340   5.767
17932TIP3    H153673   9.462   1.267   5.745
17932TIP3    H253674   9.392   1.387   5.684
17933TIP3   OH253675   0.786   2.365   7.668
17933TIP3    H153676   0.724   2.294   7.656
17933TIP3    H253677   0.737   2.445   7.646
17934TIP3   OH253678   0.080   4.579   1.244
17934TIP3    H153679   0.056   4.574   1.152
17934TIP3    H253680   0.064   4.491   1.278
17935TIP3   OH253681   4.115   4.981   5.481
17935TIP3    H153682   4.134   4.897   5.523
17935TIP3    H253683   4.040   4.964   5.425
17936TIP3   OH253684   7.787   0.149   2.368
17936TIP3    H153685   7.844   0.140   2.292
17936TIP3    H253686   7.712   0.091   2.350
17937TIP3   OH253687   1.834   5.034   3.642
17937TIP3    H153688   1.757   5.087   3.620
17937TIP3    H253689   1.902   5.064   3.582
17938TIP3   OH253690   4.955   5.813   1.599
17938TIP3    H153691   4.964   5.723   1.566
17938TIP3    H253692   4.955   5.867   1.520
17939TIP3   OH253693   3.021   5.675   7.553
17939TIP3    H153694   3.051   5.766   7.560
17939TIP3    H253695   2.949   5.679   7.490
17940TIP3   OH253696   0.233   7.055   2.531
17940TIP3    H153697   0.293   7.126   2.509
17940TIP3    H253698   0.147   7.096   2.535
17941TIP3   OH253699   8.302   7.124   0.371
17941TIP3    H153700   8.397   7.135   0.366
17941TIP3    H253701   8.267   7.196   0.318
17942TIP3   OH253702   4.662   8.164   4.157
17942TIP3    H153703   4.617   8.095   4.205
17942TIP3    H253704   4.616   8.170   4.074
17943TIP3   OH253705   9.025   8.891   4.062
17943TIP3    H153706   8.995   8.860   4.148
17943TIP3    H253707   9.093   8.828   4.037
17944TIP3   OH253708   2.032   2.462   4.876
17944TIP3    H153709   2.013   2.373   4.904
17944TIP3    H253710   2.107   2.489   4.929
17945TIP3   OH253711   4.080   0.638   6.237
17945TIP3    H153712   4.071   0.730   6.264
17945TIP3    H253713   4.008   0.593   6.282
17946TIP3   OH253714   8.817   3.888   3.410
17946TIP3    H153715   8.909   3.866   3.430
17946TIP3    H253716   8.768   3.853   3.484
17947TIP3   OH253717   8.942   8.012   6.121
17947TIP3    H153718   8.999   7.935   6.114
17947TIP3    H253719   9.002   8.087   6.118
17948TIP3   OH253720   4.108   0.331   5.615
17948TIP3    H153721   4.046   0.405   5.616
17948TIP3    H253722   4.180   0.361   5.560
17949TIP3   OH253723   8.977   3.881   5.281
17949TIP3    H153724   8.926   3.849   5.206
17949TIP3    H253725   8.990   3.804   5.336
17950TIP3   OH253726   8.210   2.247   1.237
17950TIP3    H153727   8.122   2.283   1.233
17950TIP3    H253728   8.268   2.323   1.226
17951TIP3   OH253729   8.502   0.827   6.681
17951TIP3    H153730   8.420   0.867   6.654
17951TIP3    H253731   8.539   0.789   6.601
17952TIP3   OH253732   0.380   2.287   7.348
17952TIP3    H153733   0.362   2.349   7.277
17952TIP3    H253734   0.476   2.285   7.354
17953TIP3   OH253735   1.890   8.369   2.898
17953TIP3    H153736   1.883   8.284   2.853
17953TIP3    H253737   1.844   8.430   2.841
17954TIP3   OH253738   3.405   2.159   7.672
17954TIP3    H153739   3.342   2.124   7.609
17954TIP3    H253740   3.355   2.220   7.726
17955TIP3   OH253741   1.199   2.610   5.759
17955TIP3    H153742   1.183   2.584   5.850
17955TIP3    H253743   1.147   2.690   5.748
17956TIP3   OH253744   8.277   1.413   3.918
17956TIP3    H153745   8.262   1.407   4.012
17956TIP3    H253746   8.293   1.323   3.890
17957TIP3   OH253747   0.335   3.550   5.314
17957TIP3    H153748   0.388   3.628   5.331
17957TIP3    H253749   0.246   3.577   5.333
17958TIP3   OH253750   1.647   5.044   4.980
17958TIP3    H153751   1.650   4.961   4.933
17958TIP3    H253752   1.553   5.062   4.991
17959TIP3   OH253753   0.126   3.961   4.097
17959TIP3    H153754   0.038   3.994   4.080
17959TIP3    H253755   0.117   3.908   4.176
17960TIP3   OH253756   9.375   7.548   1.469
17960TIP3    H153757   9.455   7.600   1.473
17960TIP3    H253758   9.405   7.458   1.482
17961TIP3   OH253759   8.347   3.883   4.825
17961TIP3    H153760   8.368   3.957   4.769
17961TIP3    H253761   8.393   3.809   4.785
17962TIP3   OH253762   9.190   4.051   1.703
17962TIP3    H153763   9.124   4.063   1.771
17962TIP3    H253764   9.206   3.956   1.701
17963TIP3   OH253765   5.382   1.288   2.291
17963TIP3    H153766   5.455   1.348   2.278
17963TIP3    H253767   5.420   1.214   2.339
17964TIP3   OH253768   1.949   6.785   7.725
17964TIP3    H153769   1.900   6.730   7.663
17964TIP3    H253770   2.035   6.744   7.731
17965TIP3   OH253771   7.656   0.150   7.619
17965TIP3    H153772   7.723   0.196   7.567
17965TIP3    H253773   7.694   0.145   7.707
17966TIP3   OH253774   5.814   1.092   7.551
17966TIP3    H153775   5.858   1.177   7.545
17966TIP3    H253776   5.886   1.029   7.556
17967TIP3   OH253777   4.980   1.458   7.227
17967TIP3    H153778   5.069   1.440   7.200
17967TIP3    H253779   4.968   1.552   7.214
17968TIP3   OH253780   2.903   5.863   2.214
17968TIP3    H153781   2.820   5.905   2.193
17968TIP3    H253782   2.956   5.933   2.253
17969TIP3   OH253783   2.197   7.035   5.654
17969TIP3    H153784   2.190   6.957   5.599
17969TIP3    H253785   2.273   7.083   5.619
17970TIP3   OH253786   7.438   4.622   6.588
17970TIP3    H153787   7.527   4.655   6.580
17970TIP3    H253788   7.382   4.699   6.575
17971TIP3   OH253789   2.692   0.596   6.209
17971TIP3    H153790   2.702   0.658   6.281
17971TIP3    H253791   2.609   0.619   6.169
17972TIP3   OH253792   0.375   7.855   6.178
17972TIP3    H153793   0.428   7.861   6.099
17972TIP3    H253794   0.295   7.902   6.157
17973TIP3   OH253795   1.094   7.953   2.550
17973TIP3    H153796   1.014   7.924   2.594
17973TIP3    H253797   1.068   7.964   2.458
17974TIP3   OH253798   0.402   4.579   6.943
17974TIP3    H153799   0.494   4.590   6.967
17974TIP3    H253800   0.354   4.623   7.013
17975TIP3   OH253801   3.902   7.127   6.760
17975TIP3    H153802   3.991   7.158   6.775
17975TIP3    H253803   3.846   7.199   6.790
17976TIP3   OH253804   7.573   2.203   2.944
17976TIP3    H153805   7.502   2.238   2.999
17976TIP3    H253806   7.536   2.123   2.906
17977TIP3   OH253807   7.362   4.748   0.919
17977TIP3    H153808   7.312   4.803   0.978
17977TIP3    H253809   7.447   4.737   0.962
17978TIP3   OH253810   5.454   0.819   3.067
17978TIP3    H153811   5.454   0.778   3.153
17978TIP3    H253812   5.513   0.766   3.014
17979TIP3   OH253813   8.838   6.945   0.879
17979TIP3    H153814   8.802   6.995   0.952
17979TIP3    H253815   8.792   6.861   0.882
17980TIP3   OH253816   0.249   2.057   6.604
17980TIP3    H153817   0.251   2.111   6.683
17980TIP3    H253818   0.177   2.093   6.552
17981TIP3   OH253819   7.365   0.594   2.684
17981TIP3    H153820   7.443   0.576   2.631
17981TIP3    H253821   7.399   0.613   2.771
17982TIP3   OH253822   4.712   3.547   0.135
17982TIP3    H153823   4.777   3.615   0.152
17982TIP3    H253824   4.682   3.564   0.046
17983TIP3   OH253825   1.392   7.774   1.726
17983TIP3    H153826   1.484   7.748   1.729
17983TIP3    H253827   1.395   7.869   1.712
17984TIP3   OH253828   4.437   4.539   3.239
17984TIP3    H153829   4.450   4.633   3.229
17984TIP3    H253830   4.521   4.500   3.213
17985TIP3   OH253831   3.637   5.217   1.522
17985TIP3    H153832   3.616   5.310   1.517
17985TIP3    H253833   3.726   5.214   1.557
17986TIP3   OH253834   1.587   1.632   1.920
17986TIP3    H153835   1.670   1.675   1.941
17986TIP3    H253836   1.527   1.661   1.989
17987TIP3   OH253837   7.434   6.607   1.188
17987TIP3    H153838   7.465   6.691   1.154
17987TIP3    H253839   7.501   6.544   1.161
17988TIP3   OH253840   1.164   1.860   2.662
17988TIP3    H153841   1.203   1.913   2.593
17988TIP3    H253842   1.072   1.886   2.664
17989TIP3   OH253843   4.893   1.888   5.529
17989TIP3    H153844   4.950   1.951   5.485
17989TIP3    H253845   4.926   1.883   5.619
17990TIP3   OH253846   9.368   7.913   7.059
17990TIP3    H153847   9.385   7.839   7.117
17990TIP3    H253848   9.427   7.901   6.985
17991TIP3   OH253849   4.949   3.859   2.038
17991TIP3    H153850   4.970   3.770   2.012
17991TIP3    H253851   4.978   3.864   2.129
17992TIP3   OH253852   3.101   1.029   1.440
17992TIP3    H153853   3.193   1.013   1.419
17992TIP3    H253854   3.057   0.947   1.419
17993TIP3   OH253855   3.760   5.543   7.279
17993TIP3    H153856   3.755   5.514   7.188
17993TIP3    H253857   3.854   5.542   7.299
17994TIP3   OH253858   7.443   8.241   6.511
17994TIP3    H153859   7.415   8.331   6.529
17994TIP3    H253860   7.456   8.238   6.416
17995TIP3   OH253861   5.010   3.523   6.392
17995TIP3    H153862   5.099   3.518   6.427
17995TIP3    H253863   4.994   3.435   6.357
17996TIP3   OH253864   6.524   8.922   4.983
17996TIP3    H153865   6.437   8.882   4.988
17996TIP3    H253866   6.512   9.010   5.018
17997TIP3   OH253867   8.246   8.048   6.022
17997TIP3    H153868   8.270   8.076   5.934
17997TIP3    H253869   8.328   8.050   6.072
17998TIP3   OH253870   1.831   4.346   3.279
17998TIP3    H153871   1.784   4.427   3.300
17998TIP3    H253872   1.923   4.366   3.298
17999TIP3   OH253873   8.852   0.301   3.097
17999TIP3    H153874   8.784   0.365   3.120
17999TIP3    H253875   8.928   0.328   3.148
18000TIP3   OH253876   5.861   1.439   5.328
18000TIP3    H153877   5.791   1.385   5.291
18000TIP3    H253878   5.826   1.528   5.328
18001TIP3   OH253879   3.454   3.024   5.849
18001TIP3    H153880   3.396   2.958   5.885
18001TIP3    H253881   3.416   3.107   5.876
18002TIP3   OH253882   7.907   4.318   4.287
18002TIP3    H153883   7.876   4.259   4.218
18002TIP3    H253884   7.929   4.399   4.242
18003TIP3   OH253885   5.963   1.013   3.903
18003TIP3    H153886   6.001   1.009   3.991
18003TIP3    H253887   5.871   1.036   3.917
18004TIP3   OH253888   5.091   2.340   1.037
18004TIP3    H153889   5.079   2.341   0.942
18004TIP3    H253890   5.058   2.254   1.064
18005TIP3   OH253891   6.466   2.072   5.143
18005TIP3    H153892   6.423   1.988   5.130
18005TIP3    H253893   6.539   2.072   5.081
18006TIP3   OH253894   0.840   4.432   6.059
18006TIP3    H153895   0.870   4.378   5.986
18006TIP3    H253896   0.746   4.418   6.063
18007TIP3   OH253897   2.095   4.443   0.209
18007TIP3    H153898   2.168   4.398   0.251
18007TIP3    H253899   2.064   4.505   0.274
18008TIP3   OH253900   8.255   2.522   1.235
18008TIP3    H153901   8.319   2.514   1.306
18008TIP3    H253902   8.305   2.503   1.155
18009TIP3   OH253903   6.699   2.255   0.777
18009TIP3    H153904   6.644   2.333   0.785
18009TIP3    H253905   6.719   2.250   0.684
18010TIP3   OH253906   1.153   0.170   0.095
18010TIP3    H153907   1.205   0.224   0.036
18010TIP3    H253908   1.209   0.096   0.117
18011TIP3   OH253909   3.941   7.944   0.087
18011TIP3    H153910   3.898   8.011   0.141
18011TIP3    H253911   3.871   7.909   0.032
18012TIP3   OH253912   7.700   1.765   0.583
18012TIP3    H153913   7.612   1.793   0.607
18012TIP3    H253914   7.744   1.751   0.667
18013TIP3   OH253915   3.525   8.206   5.249
18013TIP3    H153916   3.431   8.224   5.242
18013TIP3    H253917   3.532   8.148   5.325
18014TIP3   OH253918   6.542   6.582   6.255
18014TIP3    H153919   6.519   6.514   6.192
18014TIP3    H253920   6.489   6.657   6.230
18015TIP3   OH253921   2.335   7.881   5.569
18015TIP3    H153922   2.295   7.925   5.493
18015TIP3    H253923   2.384   7.950   5.614
18016TIP3   OH253924   6.981   6.775   4.813
18016TIP3    H153925   6.900   6.824   4.803
18016TIP3    H253926   6.974   6.703   4.751
18017TIP3   OH253927   9.125   7.940   3.482
18017TIP3    H153928   9.185   7.868   3.464
18017TIP3    H253929   9.067   7.942   3.406
18018TIP3   OH253930   3.317   5.653   7.603
18018TIP3    H153931   3.266   5.686   7.529
18018TIP3    H253932   3.406   5.684   7.586
18019TIP3   OH253933   5.496   0.045   3.409
18019TIP3    H153934   5.517  -0.048   3.411
18019TIP3    H253935   5.400   0.049   3.405
18020TIP3   OH253936   0.695   7.854   5.420
18020TIP3    H153937   0.754   7.815   5.355
18020TIP3    H253938   0.731   7.941   5.437
18021TIP3   OH253939   8.550   8.843   1.520
18021TIP3    H153940   8.546   8.794   1.438
18021TIP3    H253941   8.620   8.801   1.569
18022TIP3   OH253942   8.968   4.381   4.806
18022TIP3    H153943   8.947   4.332   4.886
18022TIP3    H253944   9.043   4.435   4.829
18023TIP3   OH253945   5.865   5.006   2.205
18023TIP3    H153946   5.950   5.012   2.160
18023TIP3    H253947   5.820   5.086   2.180
18024TIP3   OH253948   6.780   3.646   1.712
18024TIP3    H153949   6.800   3.714   1.648
18024TIP3    H253950   6.709   3.683   1.764
18025TIP3   OH253951   3.420   0.812   6.401
18025TIP3    H153952   3.400   0.842   6.312
18025TIP3    H253953   3.343   0.761   6.427
18026TIP3   OH253954   4.376   3.835   1.593
18026TIP3    H153955   4.377   3.930   1.582
18026TIP3    H253956   4.462   3.813   1.628
18027TIP3   OH253957   7.722   1.165   2.656
18027TIP3    H153958   7.706   1.223   2.582
18027TIP3    H253959   7.792   1.208   2.706
18028TIP3   OH253960   3.560   2.462   3.311
18028TIP3    H153961   3.571   2.369   3.330
18028TIP3    H253962   3.559   2.466   3.215
18029TIP3   OH253963   7.196   4.441   0.319
18029TIP3    H153964   7.285   4.405   0.326
18029TIP3    H253965   7.166   4.414   0.233
18030TIP3   OH253966   0.424   0.712   4.676
18030TIP3    H153967   0.376   0.755   4.605
18030TIP3    H253968   0.395   0.756   4.755
18031TIP3   OH253969   4.343   5.321   1.688
18031TIP3    H153970   4.336   5.397   1.631
18031TIP3    H253971   4.303   5.349   1.771
18032TIP3   OH253972   3.974   3.376   2.436
18032TIP3    H153973   3.930   3.407   2.356
18032TIP3    H253974   3.925   3.298   2.461
18033TIP3   OH253975   7.649   3.361   3.522
18033TIP3    H153976   7.692   3.446   3.535
18033TIP3    H253977   7.721   3.301   3.504
18034TIP3   OH253978   6.494   0.207   6.627
18034TIP3    H153979   6.426   0.199   6.559
18034TIP3    H253980   6.516   0.117   6.649
18035TIP3   OH253981   1.542   0.101   1.813
18035TIP3    H153982   1.614   0.048   1.780
18035TIP3    H253983   1.575   0.191   1.812
18036TIP3   OH253984   5.943   5.037   1.401
18036TIP3    H153985   5.994   4.980   1.459
18036TIP3    H253986   5.893   4.976   1.347
18037TIP3   OH253987   5.875   4.116   0.081
18037TIP3    H153988   5.865   4.088   0.172
18037TIP3    H253989   5.938   4.188   0.085
18038TIP3   OH253990   5.551   8.783   0.156
18038TIP3    H153991   5.581   8.845   0.222
18038TIP3    H253992   5.463   8.813   0.133
18039TIP3   OH253993   5.799   4.055   4.019
18039TIP3    H153994   5.807   4.132   3.962
18039TIP3    H253995   5.815   4.089   4.107
18040TIP3   OH253996   1.925   1.511   1.024
18040TIP3    H153997   1.993   1.521   1.091
18040TIP3    H253998   1.929   1.592   0.974
18041TIP3   OH253999   0.734   4.142   5.007
18041TIP3    H154000   0.643   4.114   4.996
18041TIP3    H254001   0.771   4.079   5.069
18042TIP3   OH254002   1.134   7.122   4.858
18042TIP3    H154003   1.191   7.120   4.936
18042TIP3    H254004   1.123   7.215   4.840
18043TIP3   OH254005   1.615   8.158   0.267
18043TIP3    H154006   1.583   8.193   0.183
18043TIP3    H254007   1.710   8.155   0.257
18044TIP3   OH254008   1.102   7.390   0.317
18044TIP3    H154009   1.051   7.363   0.393
18044TIP3    H254010   1.116   7.309   0.268
18045TIP3   OH254011   6.061   4.393   6.677
18045TIP3    H154012   6.075   4.463   6.613
18045TIP3    H254013   6.089   4.313   6.633
18046TIP3   OH254014   6.487   8.156   2.611
18046TIP3    H154015   6.509   8.193   2.697
18046TIP3    H254016   6.569   8.118   2.581
18047TIP3   OH254017   5.545   6.554   3.663
18047TIP3    H154018   5.524   6.579   3.753
18047TIP3    H254019   5.481   6.487   3.640
18048TIP3   OH254020   2.452   4.024   7.548
18048TIP3    H154021   2.498   4.002   7.629
18048TIP3    H254022   2.521   4.031   7.483
18049TIP3   OH254023   7.494   6.891   6.870
18049TIP3    H154024   7.518   6.961   6.809
18049TIP3    H254025   7.570   6.833   6.870
18050TIP3   OH254026   3.586   5.840   4.008
18050TIP3    H154027   3.613   5.896   3.935
18050TIP3    H254028   3.662   5.837   4.065
18051TIP3   OH254029   0.916   0.815   6.092
18051TIP3    H154030   0.916   0.819   6.187
18051TIP3    H254031   0.973   0.888   6.065
18052TIP3   OH254032   4.021   8.083   2.006
18052TIP3    H154033   4.009   8.177   1.988
18052TIP3    H254034   4.020   8.042   1.920
18053TIP3   OH254035   1.629   7.273   4.678
18053TIP3    H154036   1.677   7.204   4.633
18053TIP3    H254037   1.537   7.253   4.660
18054TIP3   OH254038   0.303   7.912   0.622
18054TIP3    H154039   0.291   7.994   0.671
18054TIP3    H254040   0.324   7.848   0.690
18055TIP3   OH254041   1.932   2.180   3.919
18055TIP3    H154042   1.907   2.089   3.909
18055TIP3    H254043   1.889   2.225   3.846
18056TIP3   OH254044   4.799   8.162   2.981
18056TIP3    H154045   4.851   8.214   3.042
18056TIP3    H254046   4.711   8.164   3.016
18057TIP3   OH254047   2.180   1.542   4.802
18057TIP3    H154048   2.155   1.588   4.722
18057TIP3    H254049   2.271   1.514   4.786
18058TIP3   OH254050   4.166   8.025   2.496
18058TIP3    H154051   4.246   7.972   2.499
18058TIP3    H254052   4.196   8.114   2.476
18059TIP3   OH254053   1.790   7.050   4.584
18059TIP3    H154054   1.846   7.068   4.508
18059TIP3    H254055   1.781   6.955   4.586
18060TIP3   OH254056   5.217   1.270   4.296
18060TIP3    H154057   5.141   1.327   4.281
18060TIP3    H254058   5.182   1.195   4.344
18061TIP3   OH254059   4.710   5.100   7.450
18061TIP3    H154060   4.794   5.082   7.491
18061TIP3    H254061   4.723   5.077   7.358
18062TIP3   OH254062   3.485   5.093   1.822
18062TIP3    H154063   3.517   5.133   1.742
18062TIP3    H254064   3.441   5.013   1.792
18063TIP3   OH254065   7.384   1.298   7.260
18063TIP3    H154066   7.365   1.296   7.354
18063TIP3    H254067   7.467   1.345   7.253
18064TIP3   OH254068   6.714   7.018   0.344
18064TIP3    H154069   6.754   7.086   0.289
18064TIP3    H254070   6.782   6.996   0.408
18065TIP3   OH254071   3.275   4.772   0.312
18065TIP3    H154072   3.293   4.785   0.218
18065TIP3    H254073   3.201   4.711   0.314
18066TIP3   OH254074   1.789   4.412   4.886
18066TIP3    H154075   1.748   4.455   4.962
18066TIP3    H254076   1.732   4.337   4.868
18067TIP3   OH254077   3.642   0.374   6.242
18067TIP3    H154078   3.550   0.372   6.217
18067TIP3    H254079   3.676   0.288   6.216
18068TIP3   OH254080   2.556   8.505   7.326
18068TIP3    H154081   2.577   8.551   7.408
18068TIP3    H254082   2.595   8.418   7.338
18069TIP3   OH254083   2.995   4.405   6.460
18069TIP3    H154084   3.018   4.439   6.546
18069TIP3    H254085   2.997   4.481   6.402
18070TIP3   OH254086   7.967   8.089   3.948
18070TIP3    H154087   7.917   8.149   4.003
18070TIP3    H254088   7.901   8.043   3.897
18071TIP3   OH254089   5.323   2.387   6.980
18071TIP3    H154090   5.362   2.474   6.972
18071TIP3    H254091   5.275   2.375   6.899
18072TIP3   OH254092   1.983   1.944   4.985
18072TIP3    H154093   2.014   1.964   5.074
18072TIP3    H254094   1.908   1.886   4.998
18073TIP3   OH254095   7.580   7.122   6.397
18073TIP3    H154096   7.581   7.178   6.474
18073TIP3    H254097   7.601   7.035   6.431
18074TIP3   OH254098   0.769   0.902   2.174
18074TIP3    H154099   0.727   0.844   2.111
18074TIP3    H254100   0.758   0.990   2.138
18075TIP3   OH254101   9.123   1.683   7.759
18075TIP3    H154102   9.063   1.645   7.695
18075TIP3    H254103   9.069   1.746   7.808
18076TIP3   OH254104   4.077   2.275   4.621
18076TIP3    H154105   4.057   2.210   4.689
18076TIP3    H254106   4.039   2.356   4.653
18077TIP3   OH254107   2.272   0.889   5.437
18077TIP3    H154108   2.292   0.796   5.443
18077TIP3    H254109   2.197   0.894   5.378
18078TIP3   OH254110   8.231   4.914   0.545
18078TIP3    H154111   8.154   4.933   0.491
18078TIP3    H254112   8.272   4.999   0.560
18079TIP3   OH254113   5.728   8.568   2.629
18079TIP3    H154114   5.690   8.576   2.541
18079TIP3    H254115   5.729   8.474   2.646
18080TIP3   OH254116   3.127   8.196   5.775
18080TIP3    H154117   3.101   8.112   5.813
18080TIP3    H254118   3.222   8.199   5.787
18081TIP3   OH254119   1.814   0.134   0.999
18081TIP3    H154120   1.900   0.129   0.957
18081TIP3    H254121   1.776   0.047   0.985
18082TIP3   OH254122   8.852   3.665   4.288
18082TIP3    H154123   8.815   3.714   4.215
18082TIP3    H254124   8.881   3.732   4.350
18083TIP3   OH254125   2.066   2.782   1.011
18083TIP3    H154126   2.078   2.807   0.919
18083TIP3    H254127   2.148   2.737   1.033
18084TIP3   OH254128   9.515   5.180   6.361
18084TIP3    H154129   9.434   5.145   6.396
18084TIP3    H254130   9.488   5.242   6.293
18085TIP3   OH254131   8.358   1.559   1.589
18085TIP3    H154132   8.387   1.487   1.646
18085TIP3    H254133   8.320   1.515   1.513
18086TIP3   OH254134   4.112   2.317   0.412
18086TIP3    H154135   4.024   2.347   0.389
18086TIP3    H254136   4.098   2.248   0.476
18087TIP3   OH254137   4.698   7.392   6.456
18087TIP3    H154138   4.673   7.361   6.544
18087TIP3    H254139   4.618   7.433   6.422
18088TIP3   OH254140   7.343   8.143   7.460
18088TIP3    H154141   7.412   8.091   7.418
18088TIP3    H254142   7.286   8.171   7.389
18089TIP3   OH254143   9.112   0.005   5.181
18089TIP3    H154144   9.152   0.091   5.188
18089TIP3    H254145   9.073  -0.011   5.268
18090TIP3   OH254146   2.072   4.099   2.394
18090TIP3    H154147   2.035   4.187   2.402
18090TIP3    H254148   2.088   4.071   2.484
18091TIP3   OH254149   1.563   5.314   5.671
18091TIP3    H154150   1.551   5.339   5.580
18091TIP3    H254151   1.640   5.364   5.700
18092TIP3   OH254152   2.556   6.847   0.836
18092TIP3    H154153   2.556   6.763   0.791
18092TIP3    H254154   2.513   6.907   0.776
18093TIP3   OH254155   3.074   0.794   1.258
18093TIP3    H154156   3.096   0.715   1.208
18093TIP3    H254157   3.158   0.836   1.275
18094TIP3   OH254158   6.341   6.585   1.138
18094TIP3    H154159   6.339   6.662   1.195
18094TIP3    H254160   6.250   6.572   1.112
18095TIP3   OH254161   8.369   4.907   1.440
18095TIP3    H154162   8.423   4.860   1.375
18095TIP3    H254163   8.418   4.899   1.522
18096TIP3   OH254164   5.350   6.694   7.336
18096TIP3    H154165   5.402   6.614   7.335
18096TIP3    H254166   5.405   6.760   7.292
18097TIP3   OH254167   1.811   6.396   2.046
18097TIP3    H154168   1.855   6.332   2.100
18097TIP3    H254169   1.733   6.421   2.096
18098TIP3   OH254170   7.469   6.368   5.962
18098TIP3    H154171   7.424   6.285   5.943
18098TIP3    H254172   7.500   6.399   5.877
18099TIP3   OH254173   3.185   0.277   6.531
18099TIP3    H154174   3.246   0.205   6.517
18099TIP3    H254175   3.100   0.234   6.539
18100TIP3   OH254176   0.013   5.958   5.145
18100TIP3    H154177  -0.048   6.027   5.169
18100TIP3    H254178   0.066   5.944   5.223
18101TIP3   OH254179   8.310   4.669   0.705
18101TIP3    H154180   8.253   4.618   0.648
18101TIP3    H254181   8.308   4.758   0.669
18102TIP3   OH254182   4.912   0.643   4.809
18102TIP3    H154183   4.932   0.635   4.716
18102TIP3    H254184   4.816   0.651   4.813
18103TIP3   OH254185   5.317   2.314   5.191
18103TIP3    H154186   5.379   2.329   5.262
18103TIP3    H254187   5.363   2.343   5.112
18104TIP3   OH254188   7.538   2.624   6.483
18104TIP3    H154189   7.535   2.578   6.567
18104TIP3    H254190   7.464   2.684   6.487
18105TIP3   OH254191   6.529   1.287   1.191
18105TIP3    H154192   6.601   1.335   1.150
18105TIP3    H254193   6.461   1.352   1.204
18106TIP3   OH254194   7.786   3.764   1.262
18106TIP3    H154195   7.865   3.798   1.304
18106TIP3    H254196   7.717   3.776   1.328
18107TIP3   OH254197   1.045   4.275   6.898
18107TIP3    H154198   1.059   4.181   6.900
18107TIP3    H254199   1.077   4.303   6.813
18108TIP3   OH254200   4.743   8.570   4.742
18108TIP3    H154201   4.820   8.603   4.696
18108TIP3    H254202   4.670   8.618   4.703
18109TIP3   OH254203   4.807   1.762   7.474
18109TIP3    H154204   4.867   1.730   7.542
18109TIP3    H254205   4.753   1.826   7.520
18110TIP3   OH254206   7.497   6.243   2.987
18110TIP3    H154207   7.461   6.330   3.001
18110TIP3    H254208   7.464   6.216   2.902
18111TIP3   OH254209   8.259   2.898   7.547
18111TIP3    H154210   8.205   2.887   7.468
18111TIP3    H254211   8.213   2.965   7.598
18112TIP3   OH254212   8.297   1.392   6.693
18112TIP3    H154213   8.215   1.441   6.694
18112TIP3    H254214   8.300   1.347   6.778
18113TIP3   OH254215   7.922   4.990   3.451
18113TIP3    H154216   7.996   5.050   3.446
18113TIP3    H254217   7.859   5.034   3.508
18114TIP3   OH254218   7.759   8.237   4.045
18114TIP3    H154219   7.739   8.293   4.120
18114TIP3    H254220   7.690   8.171   4.045
18115TIP3   OH254221   0.803   8.411   4.114
18115TIP3    H154222   0.720   8.459   4.116
18115TIP3    H254223   0.782   8.326   4.153
18116TIP3   OH254224   1.662   8.032   7.748
18116TIP3    H154225   1.681   8.121   7.777
18116TIP3    H254226   1.650   8.040   7.653
18117TIP3   OH254227   4.924   0.306   1.305
18117TIP3    H154228   4.863   0.379   1.305
18117TIP3    H254229   4.954   0.299   1.396
18118TIP3   OH254230   5.832   0.562   2.029
18118TIP3    H154231   5.770   0.625   1.992
18118TIP3    H254232   5.808   0.479   1.988
18119TIP3   OH254233   4.567   0.371   7.796
18119TIP3    H154234   4.621   0.445   7.824
18119TIP3    H254235   4.483   0.385   7.839
18120TIP3   OH254236   8.172   5.069   0.076
18120TIP3    H154237   8.148   4.981   0.103
18120TIP3    H254238   8.262   5.061   0.045
18121TIP3   OH254239   3.130   3.256   2.969
18121TIP3    H154240   3.159   3.289   2.884
18121TIP3    H254241   3.044   3.217   2.952
18122TIP3   OH254242   6.413   0.529   5.778
18122TIP3    H154243   6.396   0.438   5.753
18122TIP3    H254244   6.469   0.523   5.855
18123TIP3   OH254245   7.829   5.551   3.770
18123TIP3    H154246   7.866   5.638   3.782
18123TIP3    H254247   7.846   5.505   3.852
18124TIP3   OH254248   7.335   6.762   0.382
18124TIP3    H154249   7.307   6.682   0.425
18124TIP3    H254250   7.298   6.756   0.294
18125TIP3   OH254251   6.175   6.748   0.818
18125TIP3    H154252   6.260   6.712   0.792
18125TIP3    H254253   6.150   6.696   0.895
18126TIP3   OH254254   3.741   7.535   4.338
18126TIP3    H154255   3.804   7.541   4.409
18126TIP3    H254256   3.761   7.451   4.296
18127TIP3   OH254257   6.951   4.970   6.651
18127TIP3    H154258   7.045   4.974   6.665
18127TIP3    H254259   6.936   5.023   6.572
18128TIP3   OH254260   0.327   3.580   4.279
18128TIP3    H154261   0.385   3.521   4.231
18128TIP3    H254262   0.333   3.552   4.370
18129TIP3   OH254263   2.773   7.794   2.025
18129TIP3    H154264   2.777   7.837   1.939
18129TIP3    H254265   2.720   7.853   2.079
18130TIP3   OH254266   8.224   4.232   4.854
18130TIP3    H154267   8.224   4.163   4.787
18130TIP3    H254268   8.286   4.201   4.920
18131TIP3   OH254269   4.727   4.711   4.573
18131TIP3    H154270   4.685   4.793   4.598
18131TIP3    H254271   4.656   4.655   4.542
18132TIP3   OH254272   7.844   1.387   6.381
18132TIP3    H154273   7.937   1.377   6.363
18132TIP3    H254274   7.841   1.449   6.454
18133TIP3   OH254275   3.304   3.413   0.761
18133TIP3    H154276   3.357   3.488   0.787
18133TIP3    H254277   3.273   3.376   0.844
18134TIP3   OH254278   6.406   3.764   2.120
18134TIP3    H154279   6.453   3.704   2.062
18134TIP3    H254280   6.375   3.708   2.192
18135TIP3   OH254281   5.616   4.054   7.317
18135TIP3    H154282   5.671   4.058   7.395
18135TIP3    H254283   5.677   4.032   7.246
18136TIP3   OH254284   7.806   7.846   7.400
18136TIP3    H154285   7.816   7.751   7.409
18136TIP3    H254286   7.743   7.869   7.468
18137TIP3   OH254287   9.195   6.684   3.152
18137TIP3    H154288   9.247   6.644   3.222
18137TIP3    H254289   9.252   6.679   3.075
18138TIP3   OH254290   7.916   3.394   0.876
18138TIP3    H154291   7.866   3.445   0.812
18138TIP3    H254292   7.866   3.313   0.887
18139TIP3   OH254293   4.066   0.755   1.447
18139TIP3    H154294   4.142   0.812   1.450
18139TIP3    H254295   4.102   0.668   1.428
18140TIP3   OH254296   5.340   1.470   7.206
18140TIP3    H154297   5.278   1.405   7.172
18140TIP3    H254298   5.373   1.515   7.129
18141TIP3   OH254299   5.151   6.159   1.026
18141TIP3    H154300   5.199   6.154   0.944
18141TIP3    H254301   5.201   6.106   1.087
18142TIP3   OH254302   3.879   2.085   3.889
18142TIP3    H154303   3.879   2.152   3.956
18142TIP3    H254304   3.955   2.030   3.909
18143TIP3   OH254305   0.719   0.183   6.473
18143TIP3    H154306   0.759   0.216   6.553
18143TIP3    H254307   0.626   0.174   6.495
18144TIP3   OH254308   8.990   6.514   3.347
18144TIP3    H154309   8.970   6.430   3.387
18144TIP3    H254310   9.062   6.549   3.400
18145TIP3   OH254311   6.352   6.460   3.974
18145TIP3    H154312   6.297   6.436   3.900
18145TIP3    H254313   6.442   6.450   3.942
18146TIP3   OH254314   1.521   2.972   3.495
18146TIP3    H154315   1.498   3.001   3.583
18146TIP3    H254316   1.456   2.905   3.474
18147TIP3   OH254317   1.726   8.717   4.769
18147TIP3    H154318   1.727   8.761   4.854
18147TIP3    H254319   1.654   8.759   4.722
18148TIP3   OH254320   2.566   1.791   2.385
18148TIP3    H154321   2.645   1.819   2.431
18148TIP3    H254322   2.591   1.712   2.338
18149TIP3   OH254323   7.606   4.695   1.635
18149TIP3    H154324   7.572   4.687   1.724
18149TIP3    H254325   7.563   4.625   1.586
18150TIP3   OH254326   5.152   8.084   0.220
18150TIP3    H154327   5.101   8.162   0.199
18150TIP3    H254328   5.185   8.052   0.136
18151TIP3   OH254329   1.452   2.038   3.256
18151TIP3    H154330   1.530   2.011   3.207
18151TIP3    H254331   1.483   2.046   3.346
18152TIP3   OH254332   4.698   0.666   4.337
18152TIP3    H154333   4.718   0.758   4.347
18152TIP3    H254334   4.608   0.657   4.370
18153TIP3   OH254335   0.860   5.290   2.410
18153TIP3    H154336   0.880   5.315   2.320
18153TIP3    H254337   0.826   5.370   2.451
18154TIP3   OH254338   4.986   5.807   4.365
18154TIP3    H154339   4.989   5.837   4.456
18154TIP3    H254340   4.964   5.886   4.315
18155TIP3   OH254341   1.068   3.185   7.047
18155TIP3    H154342   0.994   3.145   7.001
18155TIP3    H254343   1.139   3.185   6.983
18156TIP3   OH254344   4.933   6.676   2.807
18156TIP3    H154345   4.843   6.644   2.801
18156TIP3    H254346   4.925   6.765   2.840
18157TIP3   OH254347   8.187   6.085   5.862
18157TIP3    H154348   8.213   6.133   5.783
18157TIP3    H254349   8.249   6.113   5.929
18158TIP3   OH254350   9.437   7.800   6.379
18158TIP3    H154351   9.420   7.843   6.296
18158TIP3    H254352   9.453   7.708   6.356
18159TIP3   OH254353   2.785   7.652   7.566
18159TIP3    H154354   2.701   7.622   7.600
18159TIP3    H254355   2.833   7.571   7.546
18160TIP3   OH254356   4.435   5.690   0.784
18160TIP3    H154357   4.347   5.651   0.779
18160TIP3    H254358   4.424   5.778   0.748
18161TIP3   OH254359   0.176   1.383   7.673
18161TIP3    H154360   0.103   1.343   7.720
18161TIP3    H254361   0.175   1.342   7.587
18162TIP3   OH254362   0.319   8.695   7.107
18162TIP3    H154363   0.346   8.613   7.066
18162TIP3    H254364   0.310   8.674   7.200
18163TIP3   OH254365   1.168   2.653   0.031
18163TIP3    H154366   1.126   2.637   0.115
18163TIP3    H254367   1.207   2.739   0.040
18164TIP3   OH254368   5.446   6.639   6.074
18164TIP3    H154369   5.355   6.654   6.102
18164TIP3    H254370   5.478   6.725   6.050
18165TIP3   OH254371   9.437   7.243   1.886
18165TIP3    H154372   9.502   7.180   1.916
18165TIP3    H254373   9.383   7.194   1.823
18166TIP3   OH254374   2.328   6.820   7.608
18166TIP3    H154375   2.352   6.889   7.670
18166TIP3    H254376   2.267   6.863   7.548
18167TIP3   OH254377   3.139   4.505   7.510
18167TIP3    H154378   3.229   4.474   7.519
18167TIP3    H254379   3.146   4.600   7.504
18168TIP3   OH254380   7.628   5.519   7.049
18168TIP3    H154381   7.542   5.479   7.063
18168TIP3    H254382   7.674   5.505   7.132
18169TIP3   OH254383   4.371   2.460   6.067
18169TIP3    H154384   4.390   2.423   6.153
18169TIP3    H254385   4.420   2.405   6.006
18170TIP3   OH254386   3.424   1.648   3.336
18170TIP3    H154387   3.370   1.591   3.391
18170TIP3    H254388   3.441   1.596   3.257
18171TIP3   OH254389   5.514   5.316   5.940
18171TIP3    H154390   5.522   5.220   5.937
18171TIP3    H254391   5.480   5.335   6.027
18172TIP3   OH254392   0.849   1.465   5.643
18172TIP3    H154393   0.898   1.506   5.571
18172TIP3    H254394   0.892   1.379   5.654
18173TIP3   OH254395   6.145   8.052   0.335
18173TIP3    H154396   6.145   7.977   0.394
18173TIP3    H254397   6.070   8.038   0.278
18174TIP3   OH254398   3.136   3.054   4.445
18174TIP3    H154399   3.182   2.970   4.439
18174TIP3    H254400   3.056   3.035   4.493
18175TIP3   OH254401   0.034   2.781   4.979
18175TIP3    H154402   0.016   2.695   5.017
18175TIP3    H254403  -0.017   2.783   4.898
18176TIP3   OH254404   8.803   2.346   3.718
18176TIP3    H154405   8.796   2.363   3.812
18176TIP3    H254406   8.716   2.367   3.683
18177TIP3   OH254407   2.967   1.620   1.234
18177TIP3    H154408   2.878   1.638   1.266
18177TIP3    H254409   3.012   1.704   1.240
18178TIP3   OH254410   5.272   2.651   5.709
18178TIP3    H154411   5.248   2.607   5.627
18178TIP3    H254412   5.359   2.687   5.693
18179TIP3   OH254413   6.528   8.167   5.982
18179TIP3    H154414   6.548   8.254   5.948
18179TIP3    H254415   6.612   8.134   6.014
18180TIP3   OH254416   5.654   4.393   2.297
18180TIP3    H154417   5.663   4.447   2.376
18180TIP3    H254418   5.704   4.441   2.230
18181TIP3   OH254419   5.576   1.001   7.162
18181TIP3    H154420   5.492   0.957   7.169
18181TIP3    H254421   5.630   0.942   7.109
18182TIP3   OH254422   4.322   6.566   4.057
18182TIP3    H154423   4.228   6.550   4.066
18182TIP3    H254424   4.337   6.648   4.102
18183TIP3   OH254425   1.881   6.682   3.811
18183TIP3    H154426   1.932   6.746   3.762
18183TIP3    H254427   1.867   6.610   3.750
18184TIP3   OH254428   0.407   6.445   7.554
18184TIP3    H154429   0.351   6.368   7.549
18184TIP3    H254430   0.411   6.477   7.464
18185TIP3   OH254431   7.650   8.404   6.608
18185TIP3    H154432   7.689   8.329   6.563
18185TIP3    H254433   7.562   8.411   6.570
18186TIP3   OH254434   4.453   4.775   4.017
18186TIP3    H154435   4.401   4.851   3.991
18186TIP3    H254436   4.539   4.812   4.040
18187TIP3   OH254437   7.694   5.719   3.340
18187TIP3    H154438   7.754   5.649   3.365
18187TIP3    H254439   7.694   5.717   3.244
18188TIP3   OH254440   2.234   3.688   6.133
18188TIP3    H154441   2.219   3.634   6.211
18188TIP3    H254442   2.148   3.695   6.092
18189TIP3   OH254443   9.024   4.170   0.255
18189TIP3    H154444   9.088   4.103   0.277
18189TIP3    H254445   9.008   4.216   0.338
18190TIP3   OH254446   5.014   2.356   7.786
18190TIP3    H154447   4.966   2.354   7.869
18190TIP3    H254448   5.021   2.449   7.765
18191TIP3   OH254449   1.218   2.232   0.760
18191TIP3    H154450   1.139   2.283   0.779
18191TIP3    H254451   1.200   2.188   0.677
18192TIP3   OH254452   5.272   6.300   2.083
18192TIP3    H154453   5.240   6.321   2.171
18192TIP3    H254454   5.315   6.380   2.054
18193TIP3   OH254455   0.836   6.325   2.691
18193TIP3    H154456   0.844   6.341   2.785
18193TIP3    H254457   0.763   6.381   2.663
18194TIP3   OH254458   5.593   5.244   7.645
18194TIP3    H154459   5.628   5.327   7.614
18194TIP3    H254460   5.560   5.263   7.733
18195TIP3   OH254461   1.699   8.155   3.271
18195TIP3    H154462   1.662   8.193   3.191
18195TIP3    H254463   1.774   8.210   3.291
18196TIP3   OH254464   1.474   0.666   3.835
18196TIP3    H154465   1.551   0.619   3.866
18196TIP3    H254466   1.477   0.657   3.739
18197TIP3   OH254467   7.787   7.402   0.371
18197TIP3    H154468   7.724   7.439   0.308
18197TIP3    H254469   7.772   7.451   0.452
18198TIP3   OH254470   3.654   8.965   3.421
18198TIP3    H154471   3.675   8.998   3.334
18198TIP3    H254472   3.568   8.923   3.411
18199TIP3   OH254473   0.354   5.788   7.604
18199TIP3    H154474   0.359   5.816   7.512
18199TIP3    H254475   0.379   5.696   7.602
18200TIP3   OH254476   4.107   7.699   4.679
18200TIP3    H154477   4.096   7.682   4.585
18200TIP3    H254478   4.175   7.767   4.683
18201TIP3   OH254479   7.714   9.016   0.157
18201TIP3    H154480   7.739   8.951   0.091
18201TIP3    H254481   7.696   8.964   0.235
18202TIP3   OH254482   5.076   3.737   5.597
18202TIP3    H154483   5.046   3.727   5.507
18202TIP3    H254484   5.166   3.767   5.589
18203TIP3   OH254485   6.365   4.293   1.058
18203TIP3    H154486   6.399   4.204   1.061
18203TIP3    H254487   6.346   4.308   0.965
18204TIP3   OH254488   8.931   3.721   0.638
18204TIP3    H154489   9.016   3.684   0.616
18204TIP3    H254490   8.946   3.771   0.718
18205TIP3   OH254491   7.070   2.916   1.519
18205TIP3    H154492   7.144   2.866   1.554
18205TIP3    H254493   7.086   2.921   1.425
18206TIP3   OH254494   3.346   8.236   2.050
18206TIP3    H154495   3.382   8.266   1.966
18206TIP3    H254496   3.347   8.141   2.044
18207TIP3   OH254497   1.142   1.468   6.086
18207TIP3    H154498   1.160   1.561   6.096
18207TIP3    H254499   1.059   1.465   6.039
18208TIP3   OH254500   4.482   3.356   5.541
18208TIP3    H154501   4.408   3.322   5.590
18208TIP3    H254502   4.547   3.286   5.544
18209TIP3   OH254503   4.432   8.906   2.530
18209TIP3    H154504   4.413   8.997   2.507
18209TIP3    H254505   4.350   8.860   2.515
18210TIP3   OH254506   7.576   1.052   6.072
18210TIP3    H154507   7.548   1.132   6.027
18210TIP3    H254508   7.620   1.084   6.151
18211TIP3   OH254509   3.212   7.673   3.711
18211TIP3    H154510   3.241   7.597   3.761
18211TIP3    H254511   3.294   7.712   3.678
18212TIP3   OH254512   5.247   4.091   6.679
18212TIP3    H154513   5.334   4.107   6.716
18212TIP3    H254514   5.248   4.138   6.595
18213TIP3   OH254515   7.661   7.484   4.943
18213TIP3    H154516   7.756   7.500   4.948
18213TIP3    H254517   7.648   7.407   4.998
18214TIP3   OH254518   6.701   0.353   4.226
18214TIP3    H154519   6.651   0.421   4.271
18214TIP3    H254520   6.655   0.272   4.245
18215TIP3   OH254521   5.717   8.911   2.614
18215TIP3    H154522   5.626   8.891   2.595
18215TIP3    H254523   5.764   8.892   2.533
18216TIP3   OH254524   0.130   6.349   1.017
18216TIP3    H154525   0.098   6.269   0.974
18216TIP3    H254526   0.056   6.380   1.069
18217TIP3   OH254527   5.728   3.739   2.726
18217TIP3    H154528   5.676   3.782   2.658
18217TIP3    H254529   5.811   3.719   2.684
18218TIP3   OH254530   4.009   2.024   2.411
18218TIP3    H154531   4.085   2.063   2.369
18218TIP3    H254532   3.934   2.068   2.371
18219TIP3   OH254533   0.669   8.461   3.302
18219TIP3    H154534   0.712   8.418   3.376
18219TIP3    H254535   0.594   8.505   3.341
18220TIP3   OH254536   1.263   1.316   3.986
18220TIP3    H154537   1.245   1.264   3.908
18220TIP3    H254538   1.257   1.253   4.058
18221TIP3   OH254539   7.494   4.831   7.020
18221TIP3    H154540   7.440   4.754   7.039
18221TIP3    H254541   7.490   4.841   6.925
18222TIP3   OH254542   5.803   2.099   3.877
18222TIP3    H154543   5.845   2.105   3.792
18222TIP3    H254544   5.718   2.143   3.865
18223TIP3   OH254545   7.068   6.040   7.632
18223TIP3    H154546   7.155   6.078   7.645
18223TIP3    H254547   7.016   6.111   7.595
18224TIP3   OH254548   5.107   8.060   3.747
18224TIP3    H154549   5.018   8.027   3.758
18224TIP3    H254550   5.157   8.016   3.816
18225TIP3   OH254551   4.055   0.842   5.626
18225TIP3    H154552   4.001   0.788   5.569
18225TIP3    H254553   4.121   0.781   5.661
18226TIP3   OH254554   2.008   2.939   3.137
18226TIP3    H154555   1.937   2.893   3.093
18226TIP3    H254556   2.088   2.907   3.094
18227TIP3   OH254557   6.336   4.133   7.141
18227TIP3    H154558   6.388   4.145   7.061
18227TIP3    H254559   6.319   4.222   7.172
18228TIP3   OH254560   2.589   0.815   1.772
18228TIP3    H154561   2.569   0.873   1.698
18228TIP3    H254562   2.663   0.858   1.816
18229TIP3   OH254563   5.412   8.712   7.805
18229TIP3    H154564   5.373   8.631   7.772
18229TIP3    H254565   5.341   8.776   7.798
18230TIP3   OH254566   4.504   4.294   6.669
18230TIP3    H154567   4.446   4.359   6.630
18230TIP3    H254568   4.588   4.339   6.678
18231TIP3   OH254569   0.446   1.770   6.971
18231TIP3    H154570   0.425   1.690   6.923
18231TIP3    H254571   0.364   1.820   6.970
18232TIP3   OH254572   7.353   8.437   4.454
18232TIP3    H154573   7.348   8.512   4.394
18232TIP3    H254574   7.389   8.366   4.401
18233TIP3   OH254575   4.124   4.062   7.795
18233TIP3    H154576   4.198   4.115   7.765
18233TIP3    H254577   4.096   4.013   7.717
18234TIP3   OH254578   2.874   0.391   6.188
18234TIP3    H154579   2.808   0.460   6.178
18234TIP3    H254580   2.831   0.325   6.244
18235TIP3   OH254581   0.304   4.127   5.178
18235TIP3    H154582   0.215   4.148   5.151
18235TIP3    H254583   0.349   4.104   5.097
18236TIP3   OH254584   4.701   8.709   1.252
18236TIP3    H154585   4.644   8.785   1.244
18236TIP3    H254586   4.786   8.739   1.219
18237TIP3   OH254587   3.007   6.007   0.807
18237TIP3    H154588   3.015   5.918   0.842
18237TIP3    H254589   2.955   6.054   0.872
18238TIP3   OH254590   5.529   3.634   7.251
18238TIP3    H154591   5.560   3.556   7.204
18238TIP3    H254592   5.460   3.669   7.194
18239TIP3   OH254593   9.137   4.885   6.012
18239TIP3    H154594   9.096   4.880   6.098
18239TIP3    H254595   9.206   4.950   6.022
18240TIP3   OH254596   7.959   6.926   5.011
18240TIP3    H154597   8.012   6.961   4.940
18240TIP3    H254598   7.996   6.964   5.090
18241TIP3   OH254599   0.448   0.161   6.635
18241TIP3    H154600   0.361   0.130   6.612
18241TIP3    H254601   0.433   0.230   6.700
18242TIP3   OH254602   8.273   5.639   2.301
18242TIP3    H154603   8.266   5.554   2.344
18242TIP3    H254604   8.245   5.702   2.368
18243TIP3   OH254605   9.438   8.794   3.708
18243TIP3    H154606   9.354   8.840   3.709
18243TIP3    H254607   9.445   8.755   3.795
18244TIP3   OH254608   2.528   4.721   6.887
18244TIP3    H154609   2.471   4.753   6.957
18244TIP3    H254610   2.514   4.626   6.887
18245TIP3   OH254611   6.409   1.725   5.166
18245TIP3    H154612   6.498   1.739   5.133
18245TIP3    H254613   6.390   1.634   5.142
18246TIP3   OH254614   4.224   2.169   5.081
18246TIP3    H154615   4.266   2.151   5.165
18246TIP3    H254616   4.135   2.195   5.105
18247TIP3   OH254617   1.931   2.291   4.281
18247TIP3    H154618   1.853   2.238   4.298
18247TIP3    H254619   1.936   2.350   4.356
18248TIP3   OH254620   4.075   1.261   2.524
18248TIP3    H154621   4.157   1.226   2.489
18248TIP3    H254622   4.081   1.355   2.512
18249TIP3   OH254623   6.248   3.975   6.691
18249TIP3    H154624   6.191   3.975   6.768
18249TIP3    H254625   6.253   3.883   6.666
18250TIP3   OH254626   8.822   1.355   3.274
18250TIP3    H154627   8.763   1.365   3.350
18250TIP3    H254628   8.784   1.411   3.207
18251TIP3   OH254629   1.565   4.346   7.425
18251TIP3    H154630   1.508   4.272   7.403
18251TIP3    H254631   1.504   4.419   7.436
18252TIP3   OH254632   5.233   3.984   2.711
18252TIP3    H154633   5.303   3.951   2.766
18252TIP3    H254634   5.278   4.021   2.635
18253TIP3   OH254635   3.714   1.280   3.229
18253TIP3    H154636   3.744   1.207   3.284
18253TIP3    H254637   3.760   1.269   3.146
18254TIP3   OH254638   0.446   6.596   2.527
18254TIP3    H154639   0.395   6.576   2.606
18254TIP3    H254640   0.462   6.690   2.532
18255TIP3   OH254641   2.859   5.390   1.752
18255TIP3    H154642   2.825   5.325   1.814
18255TIP3    H254643   2.896   5.459   1.808
18256TIP3   OH254644   1.832   0.598   3.018
18256TIP3    H154645   1.816   0.546   2.939
18256TIP3    H254646   1.762   0.574   3.078
18257TIP3   OH254647   2.231   8.925   0.662
18257TIP3    H154648   2.288   8.983   0.713
18257TIP3    H254649   2.145   8.931   0.705
18258TIP3   OH254650   1.194   3.855   1.174
18258TIP3    H154651   1.123   3.873   1.112
18258TIP3    H254652   1.173   3.908   1.251
18259TIP3   OH254653   7.219   0.048   0.324
18259TIP3    H154654   7.190   0.123   0.272
18259TIP3    H254655   7.191  -0.029   0.274
18260TIP3   OH254656   6.853   5.957   4.528
18260TIP3    H154657   6.874   5.864   4.522
18260TIP3    H254658   6.790   5.963   4.599
18261TIP3   OH254659   1.199   0.400   5.995
18261TIP3    H154660   1.177   0.492   6.006
18261TIP3    H254661   1.248   0.396   5.913
18262TIP3   OH254662   4.654   8.113   7.251
18262TIP3    H154663   4.675   8.020   7.261
18262TIP3    H254664   4.725   8.158   7.298
18263TIP3   OH254665   3.970   5.943   0.595
18263TIP3    H154666   4.014   5.962   0.512
18263TIP3    H254667   4.003   6.008   0.656
18264TIP3   OH254668   2.043   7.793   7.076
18264TIP3    H154669   2.121   7.741   7.058
18264TIP3    H254670   2.050   7.816   7.169
18265TIP3   OH254671   3.197   7.974   6.438
18265TIP3    H154672   3.230   8.038   6.374
18265TIP3    H254673   3.242   7.893   6.416
18266TIP3   OH254674   7.290   3.672   1.468
18266TIP3    H154675   7.203   3.651   1.436
18266TIP3    H254676   7.275   3.711   1.554
18267TIP3   OH254677   2.643   5.379   6.795
18267TIP3    H154678   2.711   5.437   6.829
18267TIP3    H254679   2.586   5.361   6.870
18268TIP3   OH254680   7.524   0.134   0.961
18268TIP3    H154681   7.601   0.192   0.963
18268TIP3    H254682   7.554   0.057   0.913
18269TIP3   OH254683   1.847   4.510   0.083
18269TIP3    H154684   1.810   4.457   0.013
18269TIP3    H254685   1.928   4.464   0.107
18270TIP3   OH254686   9.185   8.652   4.015
18270TIP3    H154687   9.257   8.610   3.968
18270TIP3    H254688   9.111   8.592   4.004
18271TIP3   OH254689   2.813   1.162   6.788
18271TIP3    H154690   2.859   1.237   6.749
18271TIP3    H254691   2.735   1.151   6.733
18272TIP3   OH254692   8.523   5.220   1.742
18272TIP3    H154693   8.553   5.136   1.776
18272TIP3    H254694   8.505   5.203   1.649
18273TIP3   OH254695   1.310   2.104   0.985
18273TIP3    H154696   1.404   2.120   0.990
18273TIP3    H254697   1.280   2.160   0.914
18274TIP3   OH254698   6.835   1.263   6.574
18274TIP3    H154699   6.868   1.304   6.654
18274TIP3    H254700   6.839   1.169   6.593
18275TIP3   OH254701   8.859   5.788   7.520
18275TIP3    H154702   8.843   5.706   7.474
18275TIP3    H254703   8.783   5.800   7.577
18276TIP3   OH254704   0.291   0.701   2.858
18276TIP3    H154705   0.361   0.649   2.819
18276TIP3    H254706   0.321   0.791   2.853
18277TIP3   OH254707   6.016   5.467   3.865
18277TIP3    H154708   6.057   5.552   3.850
18277TIP3    H254709   6.062   5.407   3.807
18278TIP3   OH254710   0.141   2.469   2.646
18278TIP3    H154711   0.131   2.553   2.601
18278TIP3    H254712   0.061   2.421   2.627
18279TIP3   OH254713   4.739   5.147   3.915
18279TIP3    H154714   4.746   5.054   3.936
18279TIP3    H254715   4.808   5.162   3.851
18280TIP3   OH254716   5.807   2.662   1.267
18280TIP3    H154717   5.883   2.717   1.288
18280TIP3    H254718   5.841   2.572   1.269
18281TIP3   OH254719   5.541   2.424   2.052
18281TIP3    H154720   5.596   2.384   1.985
18281TIP3    H254721   5.498   2.351   2.096
18282TIP3   OH254722   3.098   4.417   6.955
18282TIP3    H154723   3.025   4.478   6.967
18282TIP3    H254724   3.145   4.419   7.038
18283TIP3   OH254725   0.049   4.518   6.538
18283TIP3    H154726  -0.042   4.544   6.522
18283TIP3    H254727   0.097   4.601   6.542
18284TIP3   OH254728   2.629   0.980   1.162
18284TIP3    H154729   2.602   0.953   1.074
18284TIP3    H254730   2.725   0.983   1.157
18285TIP3   OH254731   6.348   4.140   3.998
18285TIP3    H154732   6.376   4.121   4.088
18285TIP3    H254733   6.289   4.215   4.007
18286TIP3   OH254734   3.565   6.772   2.291
18286TIP3    H154735   3.582   6.837   2.222
18286TIP3    H254736   3.646   6.770   2.342
18287TIP3   OH254737   7.506   5.538   1.566
18287TIP3    H154738   7.435   5.586   1.522
18287TIP3    H254739   7.571   5.525   1.498
18288TIP3   OH254740   1.574   7.667   6.765
18288TIP3    H154741   1.634   7.731   6.726
18288TIP3    H254742   1.487   7.701   6.747
18289TIP3   OH254743   6.100   6.610   6.945
18289TIP3    H154744   6.083   6.560   6.865
18289TIP3    H254745   6.097   6.544   7.015
18290TIP3   OH254746   6.248   5.868   2.324
18290TIP3    H154747   6.344   5.872   2.329
18290TIP3    H254748   6.225   5.935   2.260
18291TIP3   OH254749   5.148   1.902   4.107
18291TIP3    H154750   5.147   1.810   4.079
18291TIP3    H254751   5.055   1.926   4.112
18292TIP3   OH254752   7.343   0.662   2.377
18292TIP3    H154753   7.289   0.632   2.450
18292TIP3    H254754   7.414   0.710   2.419
18293TIP3   OH254755   3.579   2.195   3.611
18293TIP3    H154756   3.509   2.256   3.633
18293TIP3    H254757   3.597   2.148   3.692
18294TIP3   OH254758   5.501   5.846   6.246
18294TIP3    H154759   5.456   5.927   6.224
18294TIP3    H254760   5.496   5.841   6.342
18295TIP3   OH254761   5.105   2.224   1.387
18295TIP3    H154762   5.057   2.182   1.315
18295TIP3    H254763   5.183   2.260   1.347
18296TIP3   OH254764   2.721   7.286   6.661
18296TIP3    H154765   2.785   7.220   6.688
18296TIP3    H254766   2.678   7.313   6.743
18297TIP3   OH254767   5.764   7.466   4.941
18297TIP3    H154768   5.796   7.447   5.030
18297TIP3    H254769   5.685   7.413   4.933
18298TIP3   OH254770   8.691   4.014   1.031
18298TIP3    H154771   8.649   3.964   1.101
18298TIP3    H254772   8.736   4.086   1.077
18299TIP3   OH254773   7.233   7.729   2.703
18299TIP3    H154774   7.183   7.809   2.685
18299TIP3    H254775   7.219   7.713   2.796
18300TIP3   OH254776   0.487   6.255   2.581
18300TIP3    H154777   0.563   6.238   2.526
18300TIP3    H254778   0.416   6.275   2.520
18301TIP3   OH254779   5.905   0.602   7.122
18301TIP3    H154780   5.912   0.697   7.110
18301TIP3    H254781   5.847   0.592   7.198
18302TIP3   OH254782   4.958   2.931   4.881
18302TIP3    H154783   4.983   2.938   4.789
18302TIP3    H254784   4.866   2.907   4.879
18303TIP3   OH254785   4.444   5.761   7.662
18303TIP3    H154786   4.492   5.682   7.687
18303TIP3    H254787   4.355   5.746   7.693
18304TIP3   OH254788   2.273   3.725   1.810
18304TIP3    H154789   2.202   3.730   1.746
18304TIP3    H254790   2.236   3.762   1.890
18305TIP3   OH254791   4.750   1.398   1.169
18305TIP3    H154792   4.754   1.430   1.078
18305TIP3    H254793   4.780   1.472   1.222
18306TIP3   OH254794   2.952   3.385   4.134
18306TIP3    H154795   2.898   3.437   4.075
18306TIP3    H254796   3.042   3.407   4.110
18307TIP3   OH254797   8.874   8.082   1.898
18307TIP3    H154798   8.909   7.993   1.905
18307TIP3    H254799   8.948   8.139   1.916
18308TIP3   OH254800   3.993   7.904   3.493
18308TIP3    H154801   4.021   7.828   3.544
18308TIP3    H254802   3.898   7.896   3.489
18309TIP3   OH254803   7.966   3.933   1.756
18309TIP3    H154804   7.871   3.942   1.756
18309TIP3    H254805   7.982   3.848   1.796
18310TIP3   OH254806   7.372   3.650   3.346
18310TIP3    H154807   7.405   3.737   3.324
18310TIP3    H254808   7.394   3.639   3.438
18311TIP3   OH254809   4.655   3.963   5.441
18311TIP3    H154810   4.726   4.025   5.459
18311TIP3    H254811   4.608   4.000   5.366
18312TIP3   OH254812   2.410   1.103   0.399
18312TIP3    H154813   2.353   1.112   0.323
18312TIP3    H254814   2.364   1.148   0.470
18313TIP3   OH254815   1.801   7.593   6.101
18313TIP3    H154816   1.780   7.534   6.173
18313TIP3    H254817   1.862   7.544   6.046
18314TIP3   OH254818   2.765   8.676   6.551
18314TIP3    H154819   2.680   8.714   6.530
18314TIP3    H254820   2.745   8.600   6.607
18315TIP3   OH254821   2.439   7.061   2.407
18315TIP3    H154822   2.391   7.134   2.369
18315TIP3    H254823   2.465   7.008   2.332
18316TIP3   OH254824   1.339   8.397   5.001
18316TIP3    H154825   1.353   8.413   4.908
18316TIP3    H254826   1.296   8.312   5.004
18317TIP3   OH254827   0.722   2.444   4.758
18317TIP3    H154828   0.751   2.521   4.709
18317TIP3    H254829   0.627   2.455   4.765
18318TIP3   OH254830   1.716   2.512   2.714
18318TIP3    H154831   1.741   2.601   2.689
18318TIP3    H254832   1.745   2.457   2.641
18319TIP3   OH254833   6.390   6.905   0.935
18319TIP3    H154834   6.312   6.895   0.881
18319TIP3    H254835   6.463   6.910   0.873
18320TIP3   OH254836   7.889   7.815   4.543
18320TIP3    H154837   7.894   7.849   4.632
18320TIP3    H254838   7.938   7.733   4.546
18321TIP3   OH254839   4.187   3.827   5.095
18321TIP3    H154840   4.185   3.789   5.183
18321TIP3    H254841   4.222   3.915   5.107
18322TIP3   OH254842   4.917   3.325   1.415
18322TIP3    H154843   4.996   3.318   1.468
18322TIP3    H254844   4.848   3.290   1.472
18323TIP3   OH254845   4.541   2.749   7.648
18323TIP3    H154846   4.532   2.654   7.643
18323TIP3    H254847   4.503   2.773   7.732
18324TIP3   OH254848   6.654   4.523   0.411
18324TIP3    H154849   6.584   4.574   0.369
18324TIP3    H254850   6.732   4.546   0.361
18325TIP3   OH254851   6.031   3.191   3.492
18325TIP3    H154852   6.061   3.275   3.458
18325TIP3    H254853   6.094   3.127   3.460
18326TIP3   OH254854   4.410   6.173   0.525
18326TIP3    H154855   4.480   6.177   0.590
18326TIP3    H254856   4.333   6.146   0.575
18327TIP3   OH254857   3.520   0.412   0.933
18327TIP3    H154858   3.533   0.501   0.965
18327TIP3    H254859   3.587   0.400   0.866
18328TIP3   OH254860   1.392   1.392   2.769
18328TIP3    H154861   1.463   1.456   2.776
18328TIP3    H254862   1.419   1.334   2.698
18329TIP3   OH254863   1.619   6.822   4.412
18329TIP3    H154864   1.630   6.844   4.319
18329TIP3    H254865   1.694   6.766   4.432
18330TIP3   OH254866   8.422   2.715   1.931
18330TIP3    H154867   8.347   2.765   1.965
18330TIP3    H254868   8.456   2.668   2.007
18331TIP3   OH254869   7.998   8.220   5.508
18331TIP3    H154870   8.009   8.221   5.603
18331TIP3    H254871   7.922   8.276   5.491
18332TIP3   OH254872   7.737   0.981   4.258
18332TIP3    H154873   7.666   1.043   4.238
18332TIP3    H254874   7.765   0.948   4.173
18333TIP3   OH254875   7.876   7.915   1.250
18333TIP3    H154876   7.901   7.830   1.287
18333TIP3    H254877   7.846   7.895   1.162
18334TIP3   OH254878   3.221   9.007   3.541
18334TIP3    H154879   3.192   9.078   3.598
18334TIP3    H254880   3.241   8.935   3.602
18335TIP3   OH254881   7.476   3.702   3.595
18335TIP3    H154882   7.417   3.735   3.663
18335TIP3    H254883   7.545   3.656   3.643
18336TIP3   OH254884   8.092   7.594   7.172
18336TIP3    H154885   8.148   7.523   7.139
18336TIP3    H254886   8.056   7.560   7.254
18337TIP3   OH254887   0.060   0.792   5.858
18337TIP3    H154888  -0.008   0.848   5.821
18337TIP3    H254889   0.126   0.785   5.790
18338TIP3   OH254890   6.470   8.819   1.204
18338TIP3    H154891   6.526   8.806   1.127
18338TIP3    H254892   6.493   8.907   1.235
18339TIP3   OH254893   9.558   7.021   7.345
18339TIP3    H154894   9.524   6.937   7.315
18339TIP3    H254895   9.620   6.999   7.415
18340TIP3   OH254896   3.043   1.447   7.719
18340TIP3    H154897   3.084   1.391   7.653
18340TIP3    H254898   2.954   1.462   7.686
18341TIP3   OH254899   5.907   2.400   1.202
18341TIP3    H154900   5.891   2.307   1.192
18341TIP3    H254901   5.984   2.406   1.259
18342TIP3   OH254902   0.517   7.688   2.422
18342TIP3    H154903   0.577   7.750   2.380
18342TIP3    H254904   0.536   7.604   2.380
18343TIP3   OH254905   4.260   8.468   6.884
18343TIP3    H154906   4.165   8.463   6.898
18343TIP3    H254907   4.289   8.377   6.891
18344TIP3   OH254908   5.053   1.112   7.292
18344TIP3    H154909   4.971   1.159   7.279
18344TIP3    H254910   5.069   1.118   7.387
18345TIP3   OH254911   5.089   5.981   7.292
18345TIP3    H154912   5.002   5.956   7.262
18345TIP3    H254913   5.103   5.930   7.372
18346TIP3   OH254914   8.204   7.419   2.396
18346TIP3    H154915   8.120   7.464   2.410
18346TIP3    H254916   8.242   7.413   2.483
18347TIP3   OH254917   4.420   8.200   6.017
18347TIP3    H154918   4.460   8.145   6.084
18347TIP3    H254919   4.448   8.159   5.934
18348TIP3   OH254920   0.658   3.489   2.648
18348TIP3    H154921   0.686   3.565   2.597
18348TIP3    H254922   0.673   3.415   2.589
18349TIP3   OH254923   5.657   6.310   6.172
18349TIP3    H154924   5.712   6.285   6.246
18349TIP3    H254925   5.604   6.232   6.154
18350TIP3   OH254926   3.507   7.432   6.105
18350TIP3    H154927   3.526   7.339   6.093
18350TIP3    H254928   3.423   7.445   6.060
18351TIP3   OH254929   7.586   5.252   6.815
18351TIP3    H154930   7.550   5.220   6.732
18351TIP3    H254931   7.549   5.340   6.825
18352TIP3   OH254932   3.153   1.620   0.235
18352TIP3    H154933   3.151   1.697   0.179
18352TIP3    H254934   3.153   1.546   0.173
18353TIP3   OH254935   8.065   3.088   4.817
18353TIP3    H154936   8.029   3.134   4.740
18353TIP3    H254937   8.105   3.158   4.869
18354TIP3   OH254938   0.924   4.517   6.496
18354TIP3    H154939   0.905   4.451   6.428
18354TIP3    H254940   0.840   4.533   6.537
18355TIP3   OH254941   6.720   3.198   0.877
18355TIP3    H154942   6.702   3.271   0.818
18355TIP3    H254943   6.708   3.120   0.823
18356TIP3   OH254944   2.050   2.293   5.139
18356TIP3    H154945   1.965   2.250   5.141
18356TIP3    H254946   2.105   2.235   5.086
18357TIP3   OH254947   1.490   5.560   1.131
18357TIP3    H154948   1.429   5.493   1.160
18357TIP3    H254949   1.437   5.619   1.077
18358TIP3   OH254950   8.987   1.910   7.428
18358TIP3    H154951   9.083   1.914   7.426
18358TIP3    H254952   8.968   1.819   7.451
18359TIP3   OH254953   0.136   0.991   7.788
18359TIP3    H154954   0.085   1.058   7.743
18359TIP3    H254955   0.213   0.978   7.733
18360TIP3   OH254956   0.402   8.673   2.670
18360TIP3    H154957   0.361   8.758   2.686
18360TIP3    H254958   0.365   8.644   2.587
18361TIP3   OH254959   8.959   5.900   7.264
18361TIP3    H154960   8.897   5.935   7.200
18361TIP3    H254961   8.903   5.859   7.331
18362TIP3   OH254962   0.979   0.781   7.760
18362TIP3    H154963   1.034   0.714   7.719
18362TIP3    H254964   0.958   0.841   7.689
18363TIP3   OH254965   8.442   4.320   0.394
18363TIP3    H154966   8.470   4.229   0.386
18363TIP3    H254967   8.511   4.371   0.353
18364TIP3   OH254968   9.255   0.680   1.210
18364TIP3    H154969   9.256   0.745   1.280
18364TIP3    H254970   9.164   0.651   1.205
18365TIP3   OH254971   8.451   2.614   1.414
18365TIP3    H154972   8.536   2.659   1.411
18365TIP3    H254973   8.413   2.641   1.498
18366TIP3   OH254974   7.814   8.222   3.708
18366TIP3    H154975   7.822   8.259   3.796
18366TIP3    H254976   7.877   8.271   3.656
18367TIP3   OH254977   1.779   5.102   7.750
18367TIP3    H154978   1.712   5.038   7.769
18367TIP3    H254979   1.787   5.154   7.830
18368TIP3   OH254980   0.888   6.731   7.267
18368TIP3    H154981   0.974   6.709   7.230
18368TIP3    H254982   0.897   6.712   7.360
18369TIP3   OH254983   8.519   5.243   6.455
18369TIP3    H154984   8.424   5.247   6.463
18369TIP3    H254985   8.549   5.206   6.538
18370TIP3   OH254986   7.666   1.587   6.206
18370TIP3    H154987   7.719   1.542   6.272
18370TIP3    H254988   7.582   1.604   6.249
18371TIP3   OH254989   5.475   0.972   6.376
18371TIP3    H154990   5.467   0.881   6.345
18371TIP3    H254991   5.385   1.002   6.383
18372TIP3   OH254992   4.634   3.465   5.303
18372TIP3    H154993   4.680   3.542   5.337
18372TIP3    H254994   4.580   3.435   5.376
18373TIP3   OH254995   6.562   5.404   0.121
18373TIP3    H154996   6.628   5.463   0.084
18373TIP3    H254997   6.601   5.372   0.202
18374TIP3   OH254998   0.474   0.861   5.339
18374TIP3    H154999   0.549   0.877   5.396
18374TIP3    H255000   0.403   0.835   5.398
18375TIP3   OH255001   8.753   5.820   5.396
18375TIP3    H155002   8.725   5.766   5.323
18375TIP3    H255003   8.822   5.769   5.439
18376TIP3   OH255004   9.209   5.637   0.616
18376TIP3    H155005   9.225   5.638   0.522
18376TIP3    H255006   9.115   5.619   0.624
18377TIP3   OH255007   7.557   1.204   7.551
18377TIP3    H155008   7.471   1.206   7.592
18377TIP3    H255009   7.546   1.148   7.474
18378TIP3   OH255010   4.661   5.472   7.675
18378TIP3    H155011   4.629   5.436   7.758
18378TIP3    H255012   4.701   5.556   7.700
18379TIP3   OH255013   2.818   4.085   3.415
18379TIP3    H155014   2.801   3.997   3.382
18379TIP3    H255015   2.746   4.138   3.381
18380TIP3   OH255016   7.201   1.679   5.300
18380TIP3    H155017   7.130   1.703   5.359
18380TIP3    H255018   7.212   1.585   5.313
18381TIP3   OH255019   6.068   2.740   2.978
18381TIP3    H155020   6.076   2.729   2.884
18381TIP3    H255021   6.056   2.834   2.990
18382TIP3   OH255022   8.292   0.230   1.368
18382TIP3    H155023   8.278   0.219   1.462
18382TIP3    H255024   8.387   0.236   1.358
18383TIP3   OH255025   8.394   0.727   2.184
18383TIP3    H155026   8.361   0.655   2.238
18383TIP3    H255027   8.323   0.746   2.123
18384TIP3   OH255028   3.774   3.561   2.004
18384TIP3    H155029   3.837   3.600   1.943
18384TIP3    H255030   3.691   3.559   1.955
18385TIP3   OH255031   8.939   7.642   6.913
18385TIP3    H155032   8.921   7.661   7.005
18385TIP3    H255033   8.893   7.710   6.864
18386TIP3   OH255034   0.626   5.546   5.248
18386TIP3    H155035   0.671   5.576   5.169
18386TIP3    H255036   0.686   5.482   5.287
18387TIP3   OH255037   5.891   4.684   2.544
18387TIP3    H155038   5.914   4.757   2.602
18387TIP3    H255039   5.842   4.726   2.472
18388TIP3   OH255040   3.805   3.843   1.639
18388TIP3    H155041   3.768   3.761   1.606
18388TIP3    H255042   3.900   3.827   1.638
18389TIP3   OH255043   6.555   8.284   2.351
18389TIP3    H155044   6.504   8.352   2.308
18389TIP3    H255045   6.514   8.273   2.437
18390TIP3   OH255046   1.166   3.812   3.607
18390TIP3    H155047   1.169   3.862   3.689
18390TIP3    H255048   1.112   3.864   3.549
18391TIP3   OH255049   4.378   8.696   0.129
18391TIP3    H155050   4.364   8.611   0.089
18391TIP3    H255051   4.414   8.677   0.216
18392TIP3   OH255052   2.061   5.290   4.440
18392TIP3    H155053   2.156   5.289   4.428
18392TIP3    H255054   2.047   5.349   4.514
18393TIP3   OH255055   6.546   4.133   0.669
18393TIP3    H155056   6.626   4.137   0.721
18393TIP3    H255057   6.572   4.164   0.582
18394TIP3   OH255058   5.235   1.913   5.243
18394TIP3    H155059   5.205   2.003   5.253
18394TIP3    H255060   5.259   1.885   5.331
18395TIP3   OH255061   0.175   8.448   2.167
18395TIP3    H155062   0.101   8.500   2.137
18395TIP3    H255063   0.239   8.513   2.196
18396TIP3   OH255064   5.252   2.747   4.682
18396TIP3    H155065   5.171   2.701   4.659
18396TIP3    H255066   5.227   2.839   4.690
18397TIP3   OH255067   2.703   5.261   5.320
18397TIP3    H155068   2.777   5.311   5.286
18397TIP3    H255069   2.627   5.301   5.277
18398TIP3   OH255070   6.094   7.091   4.005
18398TIP3    H155071   6.074   7.069   3.914
18398TIP3    H255072   6.121   7.183   4.002
18399TIP3   OH255073   0.574   1.545   0.953
18399TIP3    H155074   0.522   1.604   0.900
18399TIP3    H255075   0.596   1.473   0.893
18400TIP3   OH255076   6.423   2.872   5.942
18400TIP3    H155077   6.463   2.794   5.905
18400TIP3    H255078   6.333   2.872   5.908
18401TIP3   OH255079   6.419   4.579   6.103
18401TIP3    H155080   6.324   4.591   6.110
18401TIP3    H255081   6.431   4.535   6.019
18402TIP3   OH255082   7.864   7.646   7.038
18402TIP3    H155083   7.938   7.651   7.099
18402TIP3    H255084   7.901   7.608   6.959
18403TIP3   OH255085   2.499   0.064   1.862
18403TIP3    H155086   2.490   0.133   1.796
18403TIP3    H255087   2.420   0.072   1.915
18404TIP3   OH255088   0.102   4.505   5.789
18404TIP3    H155089   0.100   4.423   5.739
18404TIP3    H255090   0.174   4.555   5.749
18405TIP3   OH255091   3.607   8.274   7.410
18405TIP3    H155092   3.595   8.349   7.468
18405TIP3    H255093   3.635   8.313   7.327
18406TIP3   OH255094   0.696   0.351   7.635
18406TIP3    H155095   0.790   0.357   7.650
18406TIP3    H255096   0.664   0.440   7.648
18407TIP3   OH255097   1.957   0.071   1.412
18407TIP3    H155098   2.035   0.055   1.358
18407TIP3    H255099   1.906  -0.010   1.406
18408TIP3   OH255100   4.886   5.011   0.052
18408TIP3    H155101   4.946   4.939   0.069
18408TIP3    H255102   4.874   5.053   0.137
18409TIP3   OH255103   5.699   5.508   6.577
18409TIP3    H155104   5.635   5.548   6.519
18409TIP3    H255105   5.744   5.444   6.523
18410TIP3   OH255106   3.159   7.786   5.633
18410TIP3    H155107   3.212   7.707   5.622
18410TIP3    H255108   3.103   7.788   5.555
18411TIP3   OH255109   1.158   7.171   2.297
18411TIP3    H155110   1.241   7.197   2.338
18411TIP3    H255111   1.137   7.243   2.238
18412TIP3   OH255112   8.119   1.507   0.554
18412TIP3    H155113   8.066   1.582   0.580
18412TIP3    H255114   8.126   1.514   0.459
18413TIP3   OH255115   6.842   0.718   7.327
18413TIP3    H155116   6.814   0.694   7.239
18413TIP3    H255117   6.766   0.700   7.382
18414TIP3   OH255118   3.507   5.124   3.877
18414TIP3    H155119   3.501   5.150   3.785
18414TIP3    H255120   3.450   5.047   3.883
18415TIP3   OH255121   1.548   3.644   0.741
18415TIP3    H155122   1.523   3.734   0.762
18415TIP3    H255123   1.620   3.625   0.801
18416TIP3   OH255124   0.086   8.637   7.607
18416TIP3    H155125   0.168   8.626   7.656
18416TIP3    H255126   0.054   8.548   7.593
18417TIP3   OH255127   1.630   5.192   3.604
18417TIP3    H155128   1.576   5.216   3.529
18417TIP3    H255129   1.567   5.169   3.673
18418TIP3   OH255130   6.082   4.899   4.732
18418TIP3    H155131   6.150   4.950   4.776
18418TIP3    H255132   6.121   4.813   4.719
18419TIP3   OH255133   7.277   3.239   6.229
18419TIP3    H155134   7.290   3.163   6.285
18419TIP3    H255135   7.185   3.263   6.241
18420TIP3   OH255136   0.668   1.715   2.084
18420TIP3    H155137   0.674   1.802   2.043
18420TIP3    H255138   0.640   1.657   2.013
18421TIP3   OH255139   4.790   1.110   2.519
18421TIP3    H155140   4.757   1.064   2.441
18421TIP3    H255141   4.720   1.100   2.584
18422TIP3   OH255142   3.382   7.798   4.926
18422TIP3    H155143   3.349   7.862   4.990
18422TIP3    H255144   3.470   7.778   4.956
18423TIP3   OH255145   2.559   8.066   5.327
18423TIP3    H155146   2.517   8.137   5.375
18423TIP3    H255147   2.653   8.085   5.332
18424TIP3   OH255148   3.195   2.095   1.519
18424TIP3    H155149   3.156   2.106   1.606
18424TIP3    H255150   3.120   2.087   1.460
18425TIP3   OH255151   2.134   6.146   0.720
18425TIP3    H155152   2.122   6.130   0.813
18425TIP3    H255153   2.047   6.168   0.687
18426TIP3   OH255154   6.897   3.826   3.571
18426TIP3    H155155   6.958   3.783   3.631
18426TIP3    H255156   6.922   3.795   3.484
18427TIP3   OH255157   6.924   3.722   4.586
18427TIP3    H155158   7.017   3.723   4.611
18427TIP3    H255159   6.886   3.795   4.634
18428TIP3   OH255160   8.446   5.224   3.667
18428TIP3    H155161   8.474   5.141   3.705
18428TIP3    H255162   8.522   5.257   3.620
18429TIP3   OH255163   1.655   1.282   3.098
18429TIP3    H155164   1.651   1.252   3.189
18429TIP3    H255165   1.642   1.202   3.046
18430TIP3   OH255166   4.906   0.040   5.792
18430TIP3    H155167   4.968  -0.012   5.740
18430TIP3    H255168   4.820   0.018   5.757
18431TIP3   OH255169   4.148   6.289   2.349
18431TIP3    H155170   4.217   6.223   2.339
18431TIP3    H255171   4.130   6.290   2.443
18432TIP3   OH255172   5.368   0.924   0.454
18432TIP3    H155173   5.453   0.959   0.427
18432TIP3    H255174   5.388   0.871   0.532
18433TIP3   OH255175   0.052   7.100   2.236
18433TIP3    H155176   0.044   7.140   2.323
18433TIP3    H255177  -0.008   7.025   2.238
18434TIP3   OH255178   1.530   4.022   6.052
18434TIP3    H155179   1.438   3.999   6.066
18434TIP3    H255180   1.555   3.974   5.973
18435TIP3   OH255181   1.626   7.980   6.101
18435TIP3    H155182   1.533   7.996   6.088
18435TIP3    H255183   1.631   7.927   6.180
18436TIP3   OH255184   6.716   5.887   7.550
18436TIP3    H155185   6.783   5.934   7.499
18436TIP3    H255186   6.640   5.945   7.550
18437TIP3   OH255187   4.760   3.690   6.469
18437TIP3    H155188   4.692   3.711   6.405
18437TIP3    H255189   4.782   3.599   6.452
18438TIP3   OH255190   7.106   4.280   6.201
18438TIP3    H155191   7.060   4.288   6.118
18438TIP3    H255192   7.073   4.353   6.254
18439TIP3   OH255193   7.405   8.887   2.244
18439TIP3    H155194   7.463   8.941   2.298
18439TIP3    H255195   7.463   8.821   2.205
18440TIP3   OH255196   4.397   1.391   3.948
18440TIP3    H155197   4.363   1.325   3.889
18440TIP3    H255198   4.400   1.471   3.895
18441TIP3   OH255199   6.687   5.886   0.595
18441TIP3    H155200   6.644   5.932   0.522
18441TIP3    H255201   6.647   5.924   0.674
18442TIP3   OH255202   4.049   7.384   2.759
18442TIP3    H155203   4.002   7.458   2.721
18442TIP3    H255204   4.072   7.413   2.847
18443TIP3   OH255205   9.045   5.685   6.133
18443TIP3    H155206   9.137   5.697   6.157
18443TIP3    H255207   9.038   5.594   6.106
18444TIP3   OH255208   1.021   7.325   1.908
18444TIP3    H155209   1.029   7.295   1.818
18444TIP3    H255210   0.935   7.368   1.911
18445TIP3   OH255211   5.180   0.495   1.421
18445TIP3    H155212   5.213   0.507   1.332
18445TIP3    H255213   5.114   0.563   1.432
18446TIP3   OH255214   3.665   0.814   0.577
18446TIP3    H155215   3.572   0.793   0.575
18446TIP3    H255216   3.709   0.730   0.587
18447TIP3   OH255217   8.811   3.945   6.008
18447TIP3    H155218   8.805   3.850   6.014
18447TIP3    H255219   8.732   3.972   5.962
18448TIP3   OH255220   3.402   6.702   4.149
18448TIP3    H155221   3.325   6.726   4.097
18448TIP3    H255222   3.402   6.765   4.222
18449TIP3   OH255223   6.329   5.158   0.774
18449TIP3    H155224   6.308   5.092   0.708
18449TIP3    H255225   6.330   5.110   0.856
18450TIP3   OH255226   1.966   0.339   1.977
18450TIP3    H155227   1.899   0.405   1.960
18450TIP3    H255228   1.921   0.255   1.971
18451TIP3   OH255229   2.861   4.071   2.374
18451TIP3    H155230   2.873   4.120   2.455
18451TIP3    H255231   2.780   4.106   2.337
18452TIP3   OH255232   6.588   6.106   1.736
18452TIP3    H155233   6.538   6.082   1.659
18452TIP3    H255234   6.653   6.036   1.746
18453TIP3   OH255235   2.800   5.382   7.474
18453TIP3    H155236   2.704   5.375   7.475
18453TIP3    H255237   2.821   5.413   7.386
18454TIP3   OH255238   2.204   3.716   2.083
18454TIP3    H155239   2.250   3.768   2.149
18454TIP3    H255240   2.172   3.639   2.132
18455TIP3   OH255241   9.259   0.326   5.647
18455TIP3    H155242   9.244   0.297   5.737
18455TIP3    H255243   9.188   0.387   5.629
18456TIP3   OH255244   6.614   9.020   7.395
18456TIP3    H155245   6.572   8.940   7.363
18456TIP3    H255246   6.600   9.084   7.326
18457TIP3   OH255247   8.220   2.613   0.867
18457TIP3    H155248   8.217   2.622   0.771
18457TIP3    H255249   8.296   2.665   0.893
18458TIP3   OH255250   3.393   1.099   1.075
18458TIP3    H155251   3.312   1.148   1.060
18458TIP3    H255252   3.447   1.119   0.999
18459TIP3   OH255253   5.707   3.921   4.670
18459TIP3    H155254   5.617   3.888   4.668
18459TIP3    H255255   5.761   3.844   4.685
18460TIP3   OH255256   0.348   7.119   3.247
18460TIP3    H155257   0.372   7.203   3.206
18460TIP3    H255258   0.271   7.091   3.199
18461TIP3   OH255259   4.649   0.006   1.966
18461TIP3    H155260   4.694   0.076   2.013
18461TIP3    H255261   4.676  -0.074   2.012
18462TIP3   OH255262   3.857   1.149   5.405
18462TIP3    H155263   3.762   1.142   5.418
18462TIP3    H255264   3.868   1.177   5.314
18463TIP3   OH255265   6.367   2.837   4.475
18463TIP3    H155266   6.306   2.855   4.546
18463TIP3    H255267   6.331   2.760   4.431
18464TIP3   OH255268   7.832   2.915   4.653
18464TIP3    H155269   7.903   2.876   4.704
18464TIP3    H255270   7.843   2.880   4.565
18465TIP3   OH255271   9.370   6.994   3.955
18465TIP3    H155272   9.328   6.925   3.902
18465TIP3    H255273   9.347   7.075   3.910
18466TIP3   OH255274   8.195   8.107   5.740
18466TIP3    H155275   8.169   8.192   5.777
18466TIP3    H255276   8.272   8.127   5.687
18467TIP3   OH255277   1.987   8.939   6.373
18467TIP3    H155278   1.917   8.986   6.327
18467TIP3    H255279   2.047   9.008   6.401
18468TIP3   OH255280   3.559   0.280   2.417
18468TIP3    H155281   3.580   0.365   2.380
18468TIP3    H255282   3.584   0.217   2.349
18469TIP3   OH255283   8.449   7.850   3.924
18469TIP3    H155284   8.383   7.914   3.946
18469TIP3    H255285   8.404   7.765   3.930
18470TIP3   OH255286   7.660   0.105   0.569
18470TIP3    H155287   7.611   0.103   0.486
18470TIP3    H255288   7.666   0.013   0.595
18471TIP3   OH255289   6.832   1.849   4.005
18471TIP3    H155290   6.837   1.923   3.944
18471TIP3    H255291   6.831   1.772   3.949
18472TIP3   OH255292   5.262   2.876   7.502
18472TIP3    H155293   5.308   2.814   7.445
18472TIP3    H255294   5.186   2.904   7.451
18473TIP3   OH255295   2.382   5.001   7.099
18473TIP3    H155296   2.314   5.068   7.109
18473TIP3    H255297   2.438   5.033   7.028
18474TIP3   OH255298   9.362   1.692   0.307
18474TIP3    H155299   9.302   1.643   0.251
18474TIP3    H255300   9.371   1.638   0.386
18475TIP3   OH255301   0.262   3.812   5.212
18475TIP3    H155302   0.354   3.823   5.187
18475TIP3    H255303   0.255   3.856   5.297
18476TIP3   OH255304   1.108   5.439   0.179
18476TIP3    H155305   1.047   5.398   0.118
18476TIP3    H255306   1.052   5.492   0.237
18477TIP3   OH255307   4.888   7.074   1.278
18477TIP3    H155308   4.907   6.991   1.235
18477TIP3    H255309   4.909   7.140   1.213
18478TIP3   OH255310   7.876   0.216   4.399
18478TIP3    H155311   7.809   0.195   4.464
18478TIP3    H255312   7.832   0.205   4.315
18479TIP3   OH255313   6.776   1.787   7.651
18479TIP3    H155314   6.789   1.850   7.721
18479TIP3    H255315   6.692   1.812   7.611
18480TIP3   OH255316   6.389   8.672   4.545
18480TIP3    H155317   6.393   8.767   4.554
18480TIP3    H255318   6.477   8.643   4.568
18481TIP3   OH255319   7.381   5.805   5.459
18481TIP3    H155320   7.359   5.788   5.550
18481TIP3    H255321   7.304   5.778   5.409
18482TIP3   OH255322   5.988   2.030   6.825
18482TIP3    H155323   6.042   1.954   6.806
18482TIP3    H255324   5.974   2.026   6.920
18483TIP3   OH255325   9.427   5.065   2.885
18483TIP3    H155326   9.393   5.133   2.828
18483TIP3    H255327   9.513   5.097   2.912
18484TIP3   OH255328   2.947   7.752   7.751
18484TIP3    H155329   2.882   7.708   7.696
18484TIP3    H255330   2.972   7.830   7.701
18485TIP3   OH255331   2.720   4.289   2.762
18485TIP3    H155332   2.686   4.378   2.771
18485TIP3    H255333   2.750   4.266   2.851
18486TIP3   OH255334   9.114   5.834   3.008
18486TIP3    H155335   9.147   5.794   3.088
18486TIP3    H255336   9.022   5.855   3.028
18487TIP3   OH255337   3.007   6.048   5.899
18487TIP3    H155338   3.027   5.981   5.834
18487TIP3    H255339   2.926   6.088   5.867
18488TIP3   OH255340   9.274   7.761   4.958
18488TIP3    H155341   9.319   7.778   4.876
18488TIP3    H255342   9.218   7.838   4.970
18489TIP3   OH255343   3.772   6.417   7.655
18489TIP3    H155344   3.695   6.473   7.650
18489TIP3    H255345   3.780   6.380   7.567
18490TIP3   OH255346   9.023   4.386   5.413
18490TIP3    H155347   8.955   4.334   5.456
18490TIP3    H255348   9.010   4.370   5.320
18491TIP3   OH255349   3.227   3.321   6.884
18491TIP3    H155350   3.189   3.407   6.898
18491TIP3    H255351   3.206   3.299   6.793
18492TIP3   OH255352   6.409   6.805   3.982
18492TIP3    H155353   6.333   6.820   4.037
18492TIP3    H255354   6.425   6.710   3.987
18493TIP3   OH255355   8.474   2.907   1.727
18493TIP3    H155356   8.477   2.838   1.793
18493TIP3    H255357   8.381   2.923   1.713
18494TIP3   OH255358   2.363   2.090   7.398
18494TIP3    H155359   2.295   2.157   7.387
18494TIP3    H255360   2.445   2.139   7.400
18495TIP3   OH255361   3.761   5.691   0.778
18495TIP3    H155362   3.792   5.737   0.856
18495TIP3    H255363   3.793   5.601   0.789
18496TIP3   OH255364   6.867   7.921   5.119
18496TIP3    H155365   6.793   7.902   5.062
18496TIP3    H255366   6.883   7.840   5.166
18497TIP3   OH255367   9.487   1.053   1.880
18497TIP3    H155368   9.455   1.139   1.852
18497TIP3    H255369   9.568   1.071   1.927
18498TIP3   OH255370   9.233   6.513   3.575
18498TIP3    H155371   9.205   6.593   3.618
18498TIP3    H255372   9.241   6.449   3.646
18499TIP3   OH255373   9.437   2.693   7.283
18499TIP3    H155374   9.416   2.764   7.343
18499TIP3    H255375   9.445   2.735   7.197
18500TIP3   OH255376   1.974   5.962   7.463
18500TIP3    H155377   1.944   5.984   7.374
18500TIP3    H255378   1.893   5.953   7.513
18501TIP3   OH255379   8.817   4.730   1.471
18501TIP3    H155380   8.897   4.776   1.448
18501TIP3    H255381   8.807   4.663   1.403
18502TIP3   OH255382   8.491   8.277   4.552
18502TIP3    H155383   8.481   8.258   4.646
18502TIP3    H255384   8.463   8.368   4.543
18503TIP3   OH255385   6.655   5.401   6.967
18503TIP3    H155386   6.725   5.444   7.018
18503TIP3    H255387   6.603   5.354   7.032
18504TIP3   OH255388   0.237   8.339   1.635
18504TIP3    H155389   0.263   8.388   1.713
18504TIP3    H255390   0.164   8.390   1.598
18505TIP3   OH255391   6.409   4.544   0.808
18505TIP3    H155392   6.455   4.464   0.784
18505TIP3    H255393   6.337   4.549   0.744
18506TIP3   OH255394   0.790   5.111   5.317
18506TIP3    H155395   0.805   5.033   5.264
18506TIP3    H255396   0.804   5.083   5.407
18507TIP3   OH255397   6.001   0.390   5.410
18507TIP3    H155398   5.989   0.301   5.445
18507TIP3    H255399   5.913   0.428   5.410
18508TIP3   OH255400   8.535   1.471   2.497
18508TIP3    H155401   8.554   1.563   2.480
18508TIP3    H255402   8.621   1.430   2.508
18509TIP3   OH255403   7.444   2.504   4.100
18509TIP3    H155404   7.407   2.465   4.020
18509TIP3    H255405   7.490   2.582   4.069
18510TIP3   OH255406   3.023   3.937   0.545
18510TIP3    H155407   2.943   3.972   0.505
18510TIP3    H255408   3.078   4.013   0.562
18511TIP3   OH255409   4.957   5.511   1.573
18511TIP3    H155410   4.923   5.477   1.490
18511TIP3    H255411   5.050   5.491   1.571
18512TIP3   OH255412   7.228   5.609   6.229
18512TIP3    H155413   7.156   5.546   6.227
18512TIP3    H255414   7.269   5.601   6.143
18513TIP3   OH255415   6.592   5.522   4.841
18513TIP3    H155416   6.587   5.485   4.929
18513TIP3    H255417   6.685   5.539   4.827
18514TIP3   OH255418   6.888   8.986   2.336
18514TIP3    H155419   6.915   9.017   2.250
18514TIP3    H255420   6.809   8.935   2.320
18515TIP3   OH255421   2.210   0.367   3.456
18515TIP3    H155422   2.207   0.322   3.371
18515TIP3    H255423   2.125   0.411   3.463
18516TIP3   OH255424   5.922   1.586   2.592
18516TIP3    H155425   5.899   1.511   2.645
18516TIP3    H255426   5.921   1.660   2.653
18517TIP3   OH255427   7.686   0.528   3.850
18517TIP3    H155428   7.756   0.523   3.915
18517TIP3    H255429   7.705   0.457   3.789
18518TIP3   OH255430   8.729   6.143   1.443
18518TIP3    H155431   8.662   6.076   1.453
18518TIP3    H255432   8.812   6.096   1.456
18519TIP3   OH255433   6.217   8.415   5.550
18519TIP3    H155434   6.276   8.482   5.515
18519TIP3    H255435   6.141   8.417   5.492
18520TIP3   OH255436   5.326   1.382   1.024
18520TIP3    H155437   5.393   1.375   1.091
18520TIP3    H255438   5.277   1.300   1.030
18521TIP3   OH255439   6.559   4.187   1.867
18521TIP3    H155440   6.535   4.130   1.940
18521TIP3    H255441   6.477   4.227   1.840
18522TIP3   OH255442   9.409   3.765   4.323
18522TIP3    H155443   9.375   3.681   4.293
18522TIP3    H255444   9.504   3.755   4.320
18523TIP3   OH255445   6.651   3.497   0.209
18523TIP3    H155446   6.742   3.487   0.240
18523TIP3    H255447   6.629   3.413   0.169
18524TIP3   OH255448   4.253   0.649   5.263
18524TIP3    H155449   4.345   0.641   5.240
18524TIP3    H255450   4.209   0.580   5.213
18525TIP3   OH255451   8.480   3.119   5.460
18525TIP3    H155452   8.534   3.043   5.436
18525TIP3    H255453   8.540   3.193   5.454
18526TIP3   OH255454   3.705   4.639   5.801
18526TIP3    H155455   3.620   4.655   5.842
18526TIP3    H255456   3.737   4.558   5.840
18527TIP3   OH255457   1.779   8.747   0.626
18527TIP3    H155458   1.707   8.783   0.575
18527TIP3    H255459   1.748   8.661   0.654
18528TIP3   OH255460   2.855   0.602   0.932
18528TIP3    H155461   2.818   0.576   1.016
18528TIP3    H255462   2.874   0.519   0.888
18529TIP3   OH255463   4.975   6.675   1.223
18529TIP3    H155464   5.045   6.694   1.285
18529TIP3    H255465   5.020   6.648   1.143
18530TIP3   OH255466   1.872   3.484   7.033
18530TIP3    H155467   1.929   3.528   7.095
18530TIP3    H255468   1.801   3.546   7.016
18531TIP3   OH255469   3.122   3.157   3.239
18531TIP3    H155470   3.100   3.238   3.285
18531TIP3    H255471   3.129   3.183   3.147
18532TIP3   OH255472   5.329   3.448   2.283
18532TIP3    H155473   5.355   3.528   2.328
18532TIP3    H255474   5.266   3.406   2.341
18533TIP3   OH255475   0.737   8.485   7.585
18533TIP3    H155476   0.801   8.432   7.538
18533TIP3    H255477   0.689   8.423   7.639
18534TIP3   OH255478   0.224   1.283   1.334
18534TIP3    H155479   0.272   1.362   1.359
18534TIP3    H255480   0.143   1.316   1.295
18535TIP3   OH255481   6.141   3.385   6.074
18535TIP3    H155482   6.230   3.359   6.052
18535TIP3    H255483   6.143   3.401   6.168
18536TIP3   OH255484   0.548   6.238   3.269
18536TIP3    H155485   0.632   6.220   3.227
18536TIP3    H255486   0.564   6.318   3.320
18537TIP3   OH255487   2.514   4.117   1.366
18537TIP3    H155488   2.452   4.074   1.426
18537TIP3    H255489   2.477   4.205   1.353
18538TIP3   OH255490   1.141   4.615   1.114
18538TIP3    H155491   1.081   4.544   1.138
18538TIP3    H255492   1.228   4.575   1.118
18539TIP3   OH255493   5.864   3.854   6.214
18539TIP3    H155494   5.788   3.832   6.161
18539TIP3    H255495   5.899   3.934   6.175
18540TIP3   OH255496   0.536   8.281   1.813
18540TIP3    H155497   0.562   8.357   1.760
18540TIP3    H255498   0.440   8.283   1.813
18541TIP3   OH255499   0.312   7.274   1.635
18541TIP3    H155500   0.315   7.306   1.726
18541TIP3    H255501   0.393   7.306   1.596
18542TIP3   OH255502   9.534   2.121   3.168
18542TIP3    H155503   9.569   2.128   3.080
18542TIP3    H255504   9.507   2.030   3.177
18543TIP3   OH255505   7.212   6.216   1.913
18543TIP3    H155506   7.285   6.172   1.958
18543TIP3    H255507   7.228   6.309   1.928
18544TIP3   OH255508   7.906   6.963   1.472
18544TIP3    H155509   7.852   6.895   1.433
18544TIP3    H255510   7.846   7.012   1.528
18545TIP3   OH255511   5.937   8.731   2.567
18545TIP3    H155512   5.857   8.716   2.616
18545TIP3    H255513   5.996   8.661   2.595
18546TIP3   OH255514   0.111   7.488   6.264
18546TIP3    H155515   0.047   7.483   6.335
18546TIP3    H255516   0.060   7.517   6.188
18547TIP3   OH255517   3.484   4.144   6.534
18547TIP3    H155518   3.399   4.159   6.493
18547TIP3    H255519   3.548   4.172   6.469
18548TIP3   OH255520   6.048   3.863   0.415
18548TIP3    H155521   6.036   3.853   0.321
18548TIP3    H255522   6.097   3.785   0.442
18549TIP3   OH255523   9.553   1.681   5.803
18549TIP3    H155524   9.575   1.588   5.803
18549TIP3    H255525   9.585   1.713   5.888
18550TIP3   OH255526   2.811   4.935   3.372
18550TIP3    H155527   2.851   5.009   3.417
18550TIP3    H255528   2.718   4.957   3.366
18551TIP3   OH255529   5.382   7.024   6.692
18551TIP3    H155530   5.418   7.082   6.625
18551TIP3    H255531   5.442   7.034   6.766
18552TIP3   OH255532   6.272   1.735   3.659
18552TIP3    H155533   6.239   1.726   3.748
18552TIP3    H255534   6.246   1.654   3.615
18553TIP3   OH255535   1.561   8.730   0.425
18553TIP3    H155536   1.469   8.755   0.431
18553TIP3    H255537   1.561   8.635   0.437
18554TIP3   OH255538   1.283   7.003   1.867
18554TIP3    H155539   1.287   7.096   1.887
18554TIP3    H255540   1.230   6.998   1.787
18555TIP3   OH255541   2.026   4.764   2.770
18555TIP3    H155542   1.992   4.700   2.832
18555TIP3    H255543   2.019   4.848   2.816
18556TIP3   OH255544   8.829   8.735   1.070
18556TIP3    H155545   8.787   8.649   1.077
18556TIP3    H255546   8.794   8.772   0.988
18557TIP3   OH255547   1.995   5.865   7.128
18557TIP3    H155548   2.054   5.834   7.059
18557TIP3    H255549   1.968   5.952   7.099
18558TIP3   OH255550   0.501   3.634   5.517
18558TIP3    H155551   0.555   3.604   5.444
18558TIP3    H255552   0.531   3.724   5.533
18559TIP3   OH255553   4.046   3.432   3.526
18559TIP3    H155554   4.123   3.437   3.583
18559TIP3    H255555   4.001   3.516   3.539
18560TIP3   OH255556   7.290   8.381   1.694
18560TIP3    H155557   7.229   8.386   1.620
18560TIP3    H255558   7.235   8.355   1.768
18561TIP3   OH255559   5.541   4.705   4.751
18561TIP3    H155560   5.509   4.794   4.737
18561TIP3    H255561   5.634   4.709   4.728
18562TIP3   OH255562   1.126   5.539   2.050
18562TIP3    H155563   1.154   5.449   2.034
18562TIP3    H255564   1.081   5.566   1.970
18563TIP3   OH255565   5.750   0.431   6.107
18563TIP3    H155566   5.670   0.478   6.083
18563TIP3    H255567   5.815   0.462   6.044
18564TIP3   OH255568   9.410   6.226   2.211
18564TIP3    H155569   9.337   6.288   2.200
18564TIP3    H255570   9.449   6.219   2.124
18565TIP3   OH255571   9.414   8.319   5.803
18565TIP3    H155572   9.463   8.387   5.850
18565TIP3    H255573   9.325   8.354   5.796
18566TIP3   OH255574   2.618   0.261   7.299
18566TIP3    H155575   2.630   0.171   7.269
18566TIP3    H255576   2.658   0.314   7.230
18567TIP3   OH255577   8.645   0.222   2.887
18567TIP3    H155578   8.713   0.245   2.951
18567TIP3    H255579   8.594   0.154   2.930
18568TIP3   OH255580   3.100   6.004   6.566
18568TIP3    H155581   3.158   6.078   6.547
18568TIP3    H255582   3.104   5.994   6.661
18569TIP3   OH255583   0.218   8.249   0.552
18569TIP3    H155584   0.312   8.264   0.543
18569TIP3    H255585   0.197   8.282   0.640
18570TIP3   OH255586   1.995   1.138   6.612
18570TIP3    H155587   2.078   1.159   6.655
18570TIP3    H255588   1.929   1.159   6.678
18571TIP3   OH255589   6.974   5.321   3.225
18571TIP3    H155590   7.057   5.275   3.207
18571TIP3    H255591   6.921   5.257   3.272
18572TIP3   OH255592   0.931   6.907   4.299
18572TIP3    H155593   0.997   6.850   4.261
18572TIP3    H255594   0.848   6.871   4.270
18573TIP3   OH255595   7.290   1.479   5.705
18573TIP3    H155596   7.313   1.419   5.634
18573TIP3    H255597   7.367   1.535   5.714
18574TIP3   OH255598   8.784   2.145   5.285
18574TIP3    H155599   8.807   2.078   5.221
18574TIP3    H255600   8.868   2.174   5.321
18575TIP3   OH255601   6.937   2.111   1.930
18575TIP3    H155602   6.889   2.193   1.922
18575TIP3    H255603   6.884   2.047   1.883
18576TIP3   OH255604   9.052   8.591   5.008
18576TIP3    H155605   9.143   8.607   5.032
18576TIP3    H255606   9.007   8.672   5.030
18577TIP3   OH255607   2.644   8.704   0.693
18577TIP3    H155608   2.672   8.749   0.613
18577TIP3    H255609   2.709   8.634   0.705
18578TIP3   OH255610   1.314   9.017   5.972
18578TIP3    H155611   1.289   8.967   6.049
18578TIP3    H255612   1.365   9.090   6.006
18579TIP3   OH255613   1.359   5.077   5.520
18579TIP3    H155614   1.319   5.018   5.455
18579TIP3    H255615   1.451   5.082   5.494
18580TIP3   OH255616   5.843   8.017   1.338
18580TIP3    H155617   5.820   8.000   1.430
18580TIP3    H255618   5.836   7.931   1.296
18581TIP3   OH255619   6.300   5.101   3.129
18581TIP3    H155620   6.342   5.020   3.160
18581TIP3    H255621   6.331   5.168   3.189
18582TIP3   OH255622   0.255   0.687   6.559
18582TIP3    H155623   0.268   0.711   6.467
18582TIP3    H255624   0.212   0.764   6.597
18583TIP3   OH255625   0.555   5.565   0.106
18583TIP3    H155626   0.463   5.547   0.086
18583TIP3    H255627   0.576   5.502   0.175
18584TIP3   OH255628   9.510   8.342   0.037
18584TIP3    H155629   9.473   8.373  -0.045
18584TIP3    H255630   9.438   8.350   0.100
18585TIP3   OH255631   4.823   4.001   6.186
18585TIP3    H155632   4.891   3.965   6.130
18585TIP3    H255633   4.797   3.928   6.243
18586TIP3   OH255634   5.556   4.811   2.517
18586TIP3    H155635   5.476   4.809   2.466
18586TIP3    H255636   5.624   4.839   2.455
18587TIP3   OH255637   6.651   6.512   2.785
18587TIP3    H155638   6.627   6.456   2.860
18587TIP3    H255639   6.655   6.600   2.822
18588TIP3   OH255640   6.718   4.361   7.666
18588TIP3    H155641   6.669   4.434   7.628
18588TIP3    H255642   6.719   4.380   7.760
18589TIP3   OH255643   8.391   4.172   6.256
18589TIP3    H155644   8.303   4.208   6.264
18589TIP3    H255645   8.443   4.224   6.317
18590TIP3   OH255646   7.751   5.047   5.655
18590TIP3    H155647   7.772   5.128   5.701
18590TIP3    H255648   7.703   5.074   5.577
18591TIP3   OH255649   8.232   4.428   5.083
18591TIP3    H155650   8.203   4.512   5.119
18591TIP3    H255651   8.255   4.447   4.992
18592TIP3   OH255652   8.841   8.198   3.004
18592TIP3    H155653   8.757   8.163   2.974
18592TIP3    H255654   8.825   8.224   3.095
18593TIP3   OH255655   0.665   7.225   0.625
18593TIP3    H155656   0.740   7.210   0.684
18593TIP3    H255657   0.695   7.294   0.566
18594TIP3   OH255658   1.224   5.157   4.390
18594TIP3    H155659   1.272   5.120   4.317
18594TIP3    H255660   1.250   5.249   4.392
18595TIP3   OH255661   2.383   2.016   7.130
18595TIP3    H155662   2.343   1.929   7.128
18595TIP3    H255663   2.369   2.047   7.219
18596TIP3   OH255664   7.253   0.986   1.067
18596TIP3    H155665   7.319   1.010   1.002
18596TIP3    H255666   7.238   1.066   1.117
18597TIP3   OH255667   2.322   5.261   4.386
18597TIP3    H155668   2.384   5.245   4.457
18597TIP3    H255669   2.374   5.250   4.306
18598TIP3   OH255670   7.239   8.883   6.261
18598TIP3    H155671   7.266   8.975   6.258
18598TIP3    H255672   7.287   8.842   6.189
18599TIP3   OH255673   4.488   5.223   3.574
18599TIP3    H155674   4.411   5.254   3.526
18599TIP3    H255675   4.476   5.256   3.663
18600TIP3   OH255676   1.469   6.781   7.531
18600TIP3    H155677   1.521   6.713   7.575
18600TIP3    H255678   1.401   6.804   7.594
18601TIP3   OH255679   3.873   8.033   3.729
18601TIP3    H155680   3.922   8.101   3.682
18601TIP3    H255681   3.796   8.018   3.674
18602TIP3   OH255682   8.026   2.233   6.306
18602TIP3    H155683   8.012   2.147   6.267
18602TIP3    H255684   7.973   2.233   6.385
18603TIP3   OH255685   7.139   8.588   5.813
18603TIP3    H155686   7.113   8.543   5.894
18603TIP3    H255687   7.108   8.678   5.825
18604TIP3   OH255688   6.358   0.163   6.389
18604TIP3    H155689   6.340   0.074   6.362
18604TIP3    H255690   6.320   0.218   6.320
18605TIP3   OH255691   3.374   2.481   6.550
18605TIP3    H155692   3.312   2.418   6.586
18605TIP3    H255693   3.325   2.564   6.547
18606TIP3   OH255694   7.561   5.401   3.227
18606TIP3    H155695   7.595   5.326   3.179
18606TIP3    H255696   7.579   5.476   3.171
18607TIP3   OH255697   8.933   6.324   6.734
18607TIP3    H155698   8.929   6.417   6.711
18607TIP3    H255699   8.914   6.278   6.652
18608TIP3   OH255700   5.753   5.444   5.615
18608TIP3    H155701   5.701   5.443   5.534
18608TIP3    H255702   5.694   5.481   5.681
18609TIP3   OH255703   0.328   0.250   5.802
18609TIP3    H155704   0.383   0.205   5.867
18609TIP3    H255705   0.280   0.180   5.758
18610TIP3   OH255706   7.645   0.806   2.647
18610TIP3    H155707   7.686   0.773   2.727
18610TIP3    H255708   7.637   0.729   2.590
18611TIP3   OH255709   7.518   3.175   5.469
18611TIP3    H155710   7.492   3.242   5.533
18611TIP3    H255711   7.448   3.110   5.472
18612TIP3   OH255712   8.775   8.336   1.740
18612TIP3    H155713   8.744   8.423   1.716
18612TIP3    H255714   8.859   8.327   1.694
18613TIP3   OH255715   6.189   5.699   7.272
18613TIP3    H155716   6.260   5.751   7.309
18613TIP3    H255717   6.183   5.729   7.181
18614TIP3   OH255718   6.350   7.652   5.353
18614TIP3    H155719   6.445   7.651   5.338
18614TIP3    H255720   6.313   7.621   5.270
18615TIP3   OH255721   6.958   7.963   1.510
18615TIP3    H155722   6.978   7.907   1.586
18615TIP3    H255723   6.942   8.050   1.548
18616TIP3   OH255724   1.045   3.284   4.994
18616TIP3    H155725   1.010   3.318   4.912
18616TIP3    H255726   0.967   3.271   5.049
18617TIP3   OH255727   7.146   2.758   0.730
18617TIP3    H155728   7.128   2.798   0.645
18617TIP3    H255729   7.231   2.716   0.719
18618TIP3   OH255730   3.013   8.427   4.957
18618TIP3    H155731   3.101   8.460   4.940
18618TIP3    H255732   2.955   8.492   4.917
18619TIP3   OH255733   9.098   5.695   2.552
18619TIP3    H155734   9.065   5.607   2.572
18619TIP3    H255735   9.022   5.752   2.563
18620TIP3   OH255736   0.964   2.196   6.208
18620TIP3    H155737   0.912   2.116   6.216
18620TIP3    H255738   0.966   2.232   6.297
18621TIP3   OH255739   5.054   6.530   6.885
18621TIP3    H155740   5.102   6.557   6.963
18621TIP3    H255741   5.000   6.605   6.862
18622TIP3   OH255742   7.696   8.699   7.425
18622TIP3    H155743   7.675   8.613   7.461
18622TIP3    H255744   7.622   8.720   7.368
18623TIP3   OH255745   2.186   4.722   3.724
18623TIP3    H155746   2.233   4.792   3.678
18623TIP3    H255747   2.238   4.644   3.709
18624TIP3   OH255748   6.157   2.683   4.358
18624TIP3    H155749   6.132   2.639   4.277
18624TIP3    H255750   6.128   2.774   4.346
18625TIP3   OH255751   9.114   6.785   6.809
18625TIP3    H155752   9.149   6.759   6.894
18625TIP3    H255753   9.128   6.709   6.753
18626TIP3   OH255754   2.382   4.985   6.542
18626TIP3    H155755   2.356   5.063   6.493
18626TIP3    H255756   2.377   4.914   6.479
18627TIP3   OH255757   2.319   8.609   6.102
18627TIP3    H155758   2.305   8.645   6.014
18627TIP3    H255759   2.316   8.685   6.160
18628TIP3   OH255760   3.711   6.178   2.264
18628TIP3    H155761   3.729   6.093   2.304
18628TIP3    H255762   3.784   6.192   2.203
18629TIP3   OH255763   7.395   4.740   1.403
18629TIP3    H155764   7.373   4.777   1.489
18629TIP3    H255765   7.330   4.672   1.389
18630TIP3   OH255766   6.618   0.991   0.685
18630TIP3    H155767   6.684   0.928   0.658
18630TIP3    H255768   6.561   1.002   0.609
18631TIP3   OH255769   5.391   3.894   0.425
18631TIP3    H155770   5.478   3.857   0.440
18631TIP3    H255771   5.386   3.969   0.484
18632TIP3   OH255772   8.925   4.963   4.782
18632TIP3    H155773   8.960   5.047   4.813
18632TIP3    H255774   8.842   4.954   4.829
18633TIP3   OH255775   0.381   8.313   6.527
18633TIP3    H155776   0.444   8.244   6.507
18633TIP3    H255777   0.422   8.363   6.597
18634TIP3   OH255778   8.910   3.009   3.500
18634TIP3    H155779   8.915   2.925   3.454
18634TIP3    H255780   8.999   3.028   3.528
18635TIP3   OH255781   0.863   0.846   1.585
18635TIP3    H155782   0.860   0.864   1.491
18635TIP3    H255783   0.938   0.897   1.617
18636TIP3   OH255784   9.267   5.175   4.306
18636TIP3    H155785   9.184   5.160   4.351
18636TIP3    H255786   9.252   5.253   4.253
18637TIP3   OH255787   6.719   0.138   5.320
18637TIP3    H155788   6.800   0.089   5.307
18637TIP3    H255789   6.727   0.214   5.263
18638TIP3   OH255790   8.435   3.707   5.983
18638TIP3    H155791   8.473   3.669   6.062
18638TIP3    H255792   8.392   3.633   5.939
18639TIP3   OH255793   4.671   3.536   7.218
18639TIP3    H155794   4.696   3.448   7.190
18639TIP3    H255795   4.715   3.595   7.156
18640TIP3   OH255796   5.976   3.402   5.175
18640TIP3    H155797   5.898   3.413   5.229
18640TIP3    H255798   6.017   3.488   5.174
18641TIP3   OH255799   8.998   2.909   0.798
18641TIP3    H155800   9.033   2.992   0.765
18641TIP3    H255801   8.938   2.880   0.728
18642TIP3   OH255802   6.349   1.543   1.570
18642TIP3    H155803   6.289   1.468   1.575
18642TIP3    H255804   6.407   1.532   1.646
18643TIP3   OH255805   1.092   1.810   7.695
18643TIP3    H155806   1.089   1.718   7.669
18643TIP3    H255807   1.167   1.845   7.647
18644TIP3   OH255808   7.778   7.599   6.756
18644TIP3    H155809   7.737   7.609   6.841
18644TIP3    H255810   7.746   7.515   6.723
18645TIP3   OH255811   0.365   6.624   0.486
18645TIP3    H155812   0.377   6.539   0.444
18645TIP3    H255813   0.351   6.603   0.579
18646TIP3   OH255814   7.385   5.051   7.166
18646TIP3    H155815   7.300   5.035   7.124
18646TIP3    H255816   7.442   4.983   7.130
18647TIP3   OH255817   8.388   2.044   7.167
18647TIP3    H155818   8.467   2.090   7.196
18647TIP3    H255819   8.385   2.060   7.072
18648TIP3   OH255820   3.218   2.157   6.980
18648TIP3    H155821   3.130   2.196   6.983
18648TIP3    H255822   3.254   2.173   7.067
18649TIP3   OH255823   8.808   4.674   1.732
18649TIP3    H155824   8.802   4.699   1.640
18649TIP3    H255825   8.876   4.607   1.734
18650TIP3   OH255826   0.888   6.339   4.007
18650TIP3    H155827   0.882   6.406   3.940
18650TIP3    H255828   0.805   6.345   4.055
18651TIP3   OH255829   7.516   1.741   0.041
18651TIP3    H155830   7.551   1.788  -0.034
18651TIP3    H255831   7.566   1.659   0.043
18652TIP3   OH255832   1.032   2.677   0.833
18652TIP3    H155833   0.977   2.632   0.897
18652TIP3    H255834   1.093   2.610   0.802
18653TIP3   OH255835   7.970   3.232   5.161
18653TIP3    H155836   7.876   3.240   5.144
18653TIP3    H255837   7.991   3.308   5.216
18654TIP3   OH255838   4.093   2.487   2.675
18654TIP3    H155839   4.109   2.495   2.581
18654TIP3    H255840   4.143   2.410   2.701
18655TIP3   OH255841   4.911   3.036   1.901
18655TIP3    H155842   5.003   3.058   1.884
18655TIP3    H255843   4.906   2.942   1.889
18656TIP3   OH255844   2.962   6.420   1.072
18656TIP3    H155845   3.015   6.398   1.149
18656TIP3    H255846   3.008   6.379   0.999
18657TIP3   OH255847   0.005   3.100   4.540
18657TIP3    H155848   0.040   3.176   4.494
18657TIP3    H255849   0.005   3.030   4.474
18658TIP3   OH255850   7.769   6.733   5.576
18658TIP3    H155851   7.752   6.789   5.652
18658TIP3    H255852   7.794   6.648   5.614
18659TIP3   OH255853   8.464   1.163   0.984
18659TIP3    H155854   8.468   1.254   0.957
18659TIP3    H255855   8.454   1.166   1.079
18660TIP3   OH255856   4.939   2.499   3.282
18660TIP3    H155857   4.896   2.422   3.318
18660TIP3    H255858   4.882   2.572   3.308
18661TIP3   OH255859   6.293   4.818   5.884
18661TIP3    H155860   6.303   4.859   5.798
18661TIP3    H255861   6.377   4.775   5.901
18662TIP3   OH255862   8.417   6.806   4.284
18662TIP3    H155863   8.395   6.899   4.285
18662TIP3    H255864   8.332   6.762   4.274
18663TIP3   OH255865   2.474   3.407   7.454
18663TIP3    H155866   2.475   3.325   7.503
18663TIP3    H255867   2.444   3.472   7.516
18664TIP3   OH255868   7.114   8.438   0.102
18664TIP3    H155869   7.179   8.505   0.080
18664TIP3    H255870   7.108   8.442   0.198
18665TIP3   OH255871   9.345   7.491   7.226
18665TIP3    H155872   9.367   7.461   7.138
18665TIP3    H255873   9.341   7.411   7.279
18666TIP3   OH255874   4.787   8.790   6.279
18666TIP3    H155875   4.827   8.704   6.269
18666TIP3    H255876   4.833   8.845   6.216
18667TIP3   OH255877   2.943   1.871   3.739
18667TIP3    H155878   2.988   1.872   3.654
18667TIP3    H255879   3.013   1.880   3.803
18668TIP3   OH255880   7.366   0.610   4.787
18668TIP3    H155881   7.410   0.632   4.869
18668TIP3    H255882   7.282   0.573   4.814
18669TIP3   OH255883   6.289   8.763   3.191
18669TIP3    H155884   6.224   8.694   3.191
18669TIP3    H255885   6.329   8.759   3.278
18670TIP3   OH255886   0.413   8.059   4.646
18670TIP3    H155887   0.436   8.148   4.618
18670TIP3    H255888   0.454   8.003   4.580
18671TIP3   OH255889   8.799   6.771   7.458
18671TIP3    H155890   8.749   6.690   7.449
18671TIP3    H255891   8.864   6.751   7.526
18672TIP3   OH255892   4.623   7.739   4.821
18672TIP3    H155893   4.677   7.721   4.898
18672TIP3    H255894   4.559   7.804   4.852
18673TIP3   OH255895   5.018   2.572   5.777
18673TIP3    H155896   4.982   2.600   5.692
18673TIP3    H255897   5.106   2.609   5.779
18674TIP3   OH255898   2.533   5.623   0.461
18674TIP3    H155899   2.531   5.593   0.371
18674TIP3    H255900   2.448   5.599   0.497
18675TIP3   OH255901   2.623   1.696   2.745
18675TIP3    H155902   2.662   1.744   2.818
18675TIP3    H255903   2.654   1.742   2.667
18676TIP3   OH255904   5.196   8.958   7.243
18676TIP3    H155905   5.154   8.912   7.171
18676TIP3    H255906   5.281   8.916   7.253
18677TIP3   OH255907   7.414   1.278   1.897
18677TIP3    H155908   7.402   1.373   1.893
18677TIP3    H255909   7.346   1.243   1.841
18678TIP3   OH255910   4.010   7.388   7.463
18678TIP3    H155911   4.057   7.447   7.522
18678TIP3    H255912   4.013   7.303   7.507
18679TIP3   OH255913   8.595   1.177   0.706
18679TIP3    H155914   8.681   1.173   0.747
18679TIP3    H255915   8.535   1.200   0.777
18680TIP3   OH255916   0.486   3.519   1.737
18680TIP3    H155917   0.450   3.585   1.796
18680TIP3    H255918   0.475   3.557   1.650
18681TIP3   OH255919   7.450   6.436   5.038
18681TIP3    H155920   7.421   6.408   4.951
18681TIP3    H255921   7.461   6.530   5.031
18682TIP3   OH255922   0.496   6.929   5.295
18682TIP3    H155923   0.514   6.876   5.218
18682TIP3    H255924   0.582   6.942   5.335
18683TIP3   OH255925   7.102   7.888   3.916
18683TIP3    H155926   7.148   7.810   3.885
18683TIP3    H255927   7.036   7.855   3.976
18684TIP3   OH255928   1.169   6.684   6.567
18684TIP3    H155929   1.085   6.718   6.536
18684TIP3    H255930   1.145   6.621   6.636
18685TIP3   OH255931   2.537   5.966   1.196
18685TIP3    H155932   2.582   6.014   1.266
18685TIP3    H255933   2.488   5.898   1.243
18686TIP3   OH255934   2.633   8.311   0.715
18686TIP3    H155935   2.689   8.234   0.722
18686TIP3    H255936   2.694   8.385   0.711
18687TIP3   OH255937   1.239   1.112   1.354
18687TIP3    H155938   1.319   1.060   1.342
18687TIP3    H255939   1.268   1.203   1.355
18688TIP3   OH255940   4.289   0.897   1.129
18688TIP3    H155941   4.199   0.864   1.121
18688TIP3    H255942   4.302   0.950   1.051
18689TIP3   OH255943   2.088   4.680   0.995
18689TIP3    H155944   2.162   4.706   1.051
18689TIP3    H255945   2.128   4.625   0.928
18690TIP3   OH255946   7.964   8.636   5.883
18690TIP3    H155947   8.021   8.708   5.911
18690TIP3    H255948   7.928   8.666   5.799
18691TIP3   OH255949   5.850   6.771   3.134
18691TIP3    H155950   5.927   6.735   3.178
18691TIP3    H255951   5.810   6.828   3.200
18692TIP3   OH255952   5.368   6.980   2.380
18692TIP3    H155953   5.311   6.998   2.456
18692TIP3    H255954   5.437   6.924   2.415
18693TIP3   OH255955   1.317   7.498   0.707
18693TIP3    H155956   1.337   7.466   0.619
18693TIP3    H255957   1.252   7.567   0.693
18694TIP3   OH255958   3.270   6.267   2.381
18694TIP3    H155959   3.362   6.268   2.408
18694TIP3    H255960   3.224   6.229   2.455
18695TIP3   OH255961   2.735   2.899   0.909
18695TIP3    H155962   2.779   2.965   0.962
18695TIP3    H255963   2.787   2.819   0.923
18696TIP3   OH255964   5.795   2.909   4.180
18696TIP3    H155965   5.854   2.985   4.180
18696TIP3    H255966   5.837   2.846   4.121
18697TIP3   OH255967   6.718   4.326   5.741
18697TIP3    H155968   6.813   4.338   5.740
18697TIP3    H255969   6.706   4.231   5.745
18698TIP3   OH255970   2.210   0.282   5.776
18698TIP3    H155971   2.126   0.254   5.812
18698TIP3    H255972   2.273   0.267   5.847
18699TIP3   OH255973   3.905   4.528   1.852
18699TIP3    H155974   3.882   4.460   1.916
18699TIP3    H255975   3.992   4.558   1.878
18700TIP3   OH255976   1.122   7.094   0.705
18700TIP3    H155977   1.144   7.183   0.732
18700TIP3    H255978   1.085   7.054   0.784
18701TIP3   OH255979   8.059   5.702   7.614
18701TIP3    H155980   8.090   5.665   7.697
18701TIP3    H255981   8.006   5.778   7.640
18702TIP3   OH255982   7.879   6.505   3.962
18702TIP3    H155983   7.853   6.413   3.969
18702TIP3    H255984   7.905   6.515   3.870
18703TIP3   OH255985   6.805   4.715   0.888
18703TIP3    H155986   6.861   4.742   0.815
18703TIP3    H255987   6.865   4.701   0.961
18704TIP3   OH255988   1.405   0.491   0.050
18704TIP3    H155989   1.394   0.578   0.013
18704TIP3    H255990   1.368   0.432  -0.015
18705TIP3   OH255991   2.921   0.333   4.529
18705TIP3    H155992   2.983   0.366   4.594
18705TIP3    H255993   2.970   0.331   4.447
18706TIP3   OH255994   9.492   5.999   3.264
18706TIP3    H155995   9.444   6.081   3.280
18706TIP3    H255996   9.515   6.003   3.171
18707TIP3   OH255997   1.048   0.389   2.092
18707TIP3    H155998   1.085   0.341   2.018
18707TIP3    H255999   1.119   0.395   2.155
18708TIP3   OH256000   1.200   7.243   3.501
18708TIP3    H156001   1.259   7.275   3.432
18708TIP3    H256002   1.121   7.218   3.453
18709TIP3   OH256003   7.794   5.700   4.542
18709TIP3    H156004   7.832   5.639   4.605
18709TIP3    H256005   7.824   5.668   4.457
18710TIP3   OH256006   5.083   3.012   0.123
18710TIP3    H156007   5.133   3.074   0.070
18710TIP3    H256008   4.991   3.036   0.108
18711TIP3   OH256009   7.226   5.893   1.313
18711TIP3    H156010   7.205   5.983   1.340
18711TIP3    H256011   7.306   5.902   1.261
18712TIP3   OH256012   9.085   0.764   3.911
18712TIP3    H156013   9.161   0.709   3.892
18712TIP3    H256014   9.074   0.817   3.831
18713TIP3   OH256015   8.130   0.703   7.667
18713TIP3    H156016   8.164   0.757   7.738
18713TIP3    H256017   8.141   0.757   7.589
18714TIP3   OH256018   5.778   0.184   7.251
18714TIP3    H156019   5.796   0.092   7.232
18714TIP3    H256020   5.832   0.232   7.188
18715TIP3   OH256021   0.726   1.540   0.263
18715TIP3    H156022   0.674   1.482   0.319
18715TIP3    H256023   0.688   1.531   0.176
18716TIP3   OH256024   4.294   7.074   2.746
18716TIP3    H156025   4.278   6.982   2.723
18716TIP3    H256026   4.266   7.123   2.669
18717TIP3   OH256027   8.124   6.237   7.681
18717TIP3    H156028   8.219   6.244   7.690
18717TIP3    H256029   8.091   6.251   7.770
18718TIP3   OH256030   4.005   7.399   4.407
18718TIP3    H156031   3.931   7.357   4.362
18718TIP3    H256032   3.971   7.420   4.494
18719TIP3   OH256033   3.937   7.593   0.082
18719TIP3    H156034   3.843   7.576   0.090
18719TIP3    H256035   3.943   7.678   0.039
18720TIP3   OH256036   3.049   0.410   5.366
18720TIP3    H156037   3.128   0.386   5.317
18720TIP3    H256038   3.081   0.428   5.454
18721TIP3   OH256039   8.116   5.472   7.199
18721TIP3    H156040   8.197   5.519   7.177
18721TIP3    H256041   8.058   5.539   7.233
18722TIP3   OH256042   5.721   7.995   7.096
18722TIP3    H156043   5.816   7.995   7.106
18722TIP3    H256044   5.704   7.939   7.020
18723TIP3   OH256045   7.423   5.396   2.696
18723TIP3    H156046   7.420   5.421   2.604
18723TIP3    H256047   7.419   5.301   2.695
18724TIP3   OH256048   4.251   2.334   4.430
18724TIP3    H156049   4.191   2.289   4.490
18724TIP3    H256050   4.264   2.420   4.469
18725TIP3   OH256051   7.729   5.272   0.989
18725TIP3    H156052   7.702   5.184   0.964
18725TIP3    H256053   7.795   5.258   1.058
18726TIP3   OH256054   6.539   4.583   6.812
18726TIP3    H156055   6.553   4.627   6.896
18726TIP3    H256056   6.608   4.617   6.756
18727TIP3   OH256057   8.442   5.690   3.654
18727TIP3    H156058   8.352   5.716   3.675
18727TIP3    H256059   8.462   5.621   3.717
18728TIP3   OH256060   5.054   5.741   6.658
18728TIP3    H156061   5.037   5.687   6.580
18728TIP3    H256062   4.973   5.789   6.672
18729TIP3   OH256063   4.688   6.769   7.332
18729TIP3    H156064   4.669   6.675   7.332
18729TIP3    H256065   4.777   6.775   7.366
18730TIP3   OH256066   2.179   4.166   7.396
18730TIP3    H156067   2.183   4.074   7.420
18730TIP3    H256068   2.183   4.166   7.300
18731TIP3   OH256069   0.154   1.092   2.025
18731TIP3    H156070   0.184   1.182   2.012
18731TIP3    H256071   0.229   1.047   2.065
18732TIP3   OH256072   8.692   8.468   1.494
18732TIP3    H156073   8.719   8.530   1.426
18732TIP3    H256074   8.700   8.382   1.454
18733TIP3   OH256075   6.504   4.732   2.348
18733TIP3    H156076   6.543   4.683   2.276
18733TIP3    H256077   6.450   4.667   2.394
18734TIP3   OH256078   2.068   0.797   4.425
18734TIP3    H156079   2.045   0.869   4.483
18734TIP3    H256080   2.157   0.773   4.451
18735TIP3   OH256081   8.782   2.964   5.601
18735TIP3    H156082   8.812   3.023   5.533
18735TIP3    H256083   8.818   2.878   5.577
18736TIP3   OH256084   3.248   1.262   5.628
18736TIP3    H156085   3.229   1.170   5.614
18736TIP3    H256086   3.170   1.297   5.670
18737TIP3   OH256087   9.453   6.434   4.472
18737TIP3    H156088   9.486   6.494   4.538
18737TIP3    H256089   9.530   6.409   4.421
18738TIP3   OH256090   4.972   6.509   4.423
18738TIP3    H156091   4.950   6.531   4.332
18738TIP3    H256092   5.068   6.507   4.425
18739TIP3   OH256093   2.224   4.140   6.668
18739TIP3    H156094   2.207   4.234   6.675
18739TIP3    H256095   2.183   4.102   6.746
18740TIP3   OH256096   1.142   0.688   5.207
18740TIP3    H156097   1.227   0.661   5.171
18740TIP3    H256098   1.127   0.775   5.169
18741TIP3   OH256099   4.213   3.453   3.230
18741TIP3    H156100   4.235   3.544   3.251
18741TIP3    H256101   4.173   3.419   3.310
18742TIP3   OH256102   7.265   8.145   0.504
18742TIP3    H156103   7.176   8.169   0.479
18742TIP3    H256104   7.305   8.113   0.422
18743TIP3   OH256105   3.071   3.116   6.467
18743TIP3    H156106   2.990   3.105   6.517
18743TIP3    H256107   3.041   3.135   6.378
18744TIP3   OH256108   0.357   1.493   1.437
18744TIP3    H156109   0.421   1.496   1.508
18744TIP3    H256110   0.408   1.515   1.358
18745TIP3   OH256111   9.459   0.703   4.067
18745TIP3    H156112   9.425   0.620   4.032
18745TIP3    H256113   9.403   0.722   4.142
18746TIP3   OH256114   5.694   3.555   0.887
18746TIP3    H156115   5.731   3.470   0.864
18746TIP3    H256116   5.651   3.541   0.971
18747TIP3   OH256117   4.383   4.199   1.780
18747TIP3    H156118   4.288   4.206   1.769
18747TIP3    H256119   4.413   4.151   1.703
18748TIP3   OH256120   5.723   1.109   3.711
18748TIP3    H156121   5.716   1.099   3.616
18748TIP3    H256122   5.643   1.069   3.745
18749TIP3   OH256123   9.557   3.100   1.259
18749TIP3    H156124   9.476   3.050   1.248
18749TIP3    H256125   9.548   3.144   1.343
18750TIP3   OH256126   6.568   2.668   4.542
18750TIP3    H156127   6.518   2.747   4.519
18750TIP3    H256128   6.653   2.681   4.502
18751TIP3   OH256129   4.308   3.002   3.363
18751TIP3    H156130   4.248   3.015   3.290
18751TIP3    H256131   4.337   3.090   3.386
18752TIP3   OH256132   9.183   8.519   0.471
18752TIP3    H156133   9.138   8.600   0.493
18752TIP3    H256134   9.168   8.462   0.547
18753TIP3   OH256135   3.751   4.688   4.866
18753TIP3    H156136   3.690   4.670   4.794
18753TIP3    H256137   3.708   4.652   4.944
18754TIP3   OH256138   0.757   1.826   4.804
18754TIP3    H156139   0.791   1.865   4.723
18754TIP3    H256140   0.670   1.795   4.781
18755TIP3   OH256141   3.725   4.266   2.761
18755TIP3    H156142   3.703   4.334   2.825
18755TIP3    H256143   3.760   4.194   2.814
18756TIP3   OH256144   5.231   7.400   0.260
18756TIP3    H156145   5.196   7.488   0.278
18756TIP3    H256146   5.296   7.385   0.329
18757TIP3   OH256147   2.042   2.777   6.898
18757TIP3    H156148   1.969   2.808   6.952
18757TIP3    H256149   2.009   2.697   6.858
18758TIP3   OH256150   2.168   0.292   1.252
18758TIP3    H156151   2.171   0.347   1.330
18758TIP3    H256152   2.219   0.214   1.276
18759TIP3   OH256153   6.607   4.423   3.699
18759TIP3    H156154   6.531   4.400   3.646
18759TIP3    H256155   6.678   4.371   3.661
18760TIP3   OH256156   5.979   8.260   1.376
18760TIP3    H156157   5.910   8.323   1.354
18760TIP3    H256158   5.946   8.176   1.344
18761TIP3   OH256159   7.810   5.119   6.680
18761TIP3    H156160   7.739   5.137   6.742
18761TIP3    H256161   7.884   5.170   6.713
18762TIP3   OH256162   2.771   4.241   5.067
18762TIP3    H156163   2.767   4.335   5.082
18762TIP3    H256164   2.860   4.217   5.095
18763TIP3   OH256165   8.603   3.630   0.246
18763TIP3    H156166   8.631   3.691   0.177
18763TIP3    H256167   8.522   3.669   0.280
18764TIP3   OH256168   1.263   4.212   0.031
18764TIP3    H156169   1.220   4.234  -0.051
18764TIP3    H256170   1.293   4.296   0.066
18765TIP3   OH256171   5.557   6.260   3.965
18765TIP3    H156172   5.588   6.344   3.999
18765TIP3    H256173   5.470   6.279   3.932
18766TIP3   OH256174   2.896   2.379   6.452
18766TIP3    H156175   2.925   2.292   6.482
18766TIP3    H256176   2.976   2.423   6.425
18767TIP3   OH256177   3.849   1.945   2.987
18767TIP3    H156178   3.820   1.931   2.897
18767TIP3    H256179   3.789   2.011   3.022
18768TIP3   OH256180   3.113   2.875   0.866
18768TIP3    H156181   3.108   2.967   0.840
18768TIP3    H256182   3.203   2.849   0.847
18769TIP3   OH256183   0.515   6.065   7.106
18769TIP3    H156184   0.591   6.081   7.163
18769TIP3    H256185   0.526   6.128   7.035
18770TIP3   OH256186   4.521   4.250   7.484
18770TIP3    H156187   4.532   4.163   7.446
18770TIP3    H256188   4.580   4.305   7.432
18771TIP3   OH256189   2.118   2.931   7.351
18771TIP3    H156190   2.173   2.889   7.417
18771TIP3    H256191   2.028   2.914   7.381
18772TIP3   OH256192   3.947   4.232   4.750
18772TIP3    H156193   3.976   4.155   4.701
18772TIP3    H256194   4.003   4.233   4.828
18773TIP3   OH256195   0.388   7.770   5.150
18773TIP3    H156196   0.293   7.766   5.141
18773TIP3    H256197   0.420   7.778   5.060
18774TIP3   OH256198   2.315   4.927   3.591
18774TIP3    H156199   2.323   4.911   3.497
18774TIP3    H256200   2.279   5.016   3.597
18775TIP3   OH256201   2.106   6.736   1.750
18775TIP3    H156202   2.062   6.811   1.789
18775TIP3    H256203   2.062   6.660   1.787
18776TIP3   OH256204   7.633   3.758   0.170
18776TIP3    H156205   7.626   3.825   0.238
18776TIP3    H256206   7.652   3.677   0.217
18777TIP3   OH256207   6.258   1.650   2.806
18777TIP3    H156208   6.333   1.610   2.761
18777TIP3    H256209   6.193   1.661   2.737
18778TIP3   OH256210   3.668   9.012   0.501
18778TIP3    H156211   3.725   9.048   0.568
18778TIP3    H256212   3.670   9.076   0.430
18779TIP3   OH256213   4.505   3.555   1.389
18779TIP3    H156214   4.592   3.595   1.394
18779TIP3    H256215   4.482   3.559   1.297
18780TIP3   OH256216   9.415   2.067   1.407
18780TIP3    H156217   9.358   2.022   1.345
18780TIP3    H256218   9.502   2.062   1.367
18781TIP3   OH256219   3.545   3.520   2.573
18781TIP3    H156220   3.554   3.464   2.650
18781TIP3    H256221   3.511   3.603   2.607
18782TIP3   OH256222   4.324   5.470   6.541
18782TIP3    H156223   4.302   5.468   6.635
18782TIP3    H256224   4.314   5.563   6.517
18783TIP3   OH256225   1.555   7.026   7.425
18783TIP3    H156226   1.608   7.074   7.488
18783TIP3    H256227   1.526   6.948   7.472
18784TIP3   OH256228   8.885   7.754   2.577
18784TIP3    H156229   8.870   7.844   2.547
18784TIP3    H256230   8.831   7.700   2.519
18785TIP3   OH256231   8.382   2.252   3.373
18785TIP3    H156232   8.373   2.195   3.450
18785TIP3    H256233   8.337   2.205   3.303
18786TIP3   OH256234   6.874   6.809   5.317
18786TIP3    H156235   6.783   6.830   5.294
18786TIP3    H256236   6.926   6.873   5.269
18787TIP3   OH256237   6.267   3.232   0.355
18787TIP3    H156238   6.270   3.312   0.302
18787TIP3    H256239   6.245   3.163   0.292
18788TIP3   OH256240   2.972   6.945   4.053
18788TIP3    H156241   2.890   6.927   4.006
18788TIP3    H256242   2.953   7.022   4.106
18789TIP3   OH256243   4.898   6.838   5.467
18789TIP3    H156244   4.846   6.761   5.489
18789TIP3    H256245   4.980   6.827   5.516
18790TIP3   OH256246   7.531   7.957   3.451
18790TIP3    H156247   7.510   7.897   3.379
18790TIP3    H256248   7.477   7.927   3.524
18791TIP3   OH256249   0.106   4.846   0.111
18791TIP3    H156250   0.115   4.941   0.105
18791TIP3    H256251   0.134   4.825   0.199
18792TIP3   OH256252   7.600   6.316   7.607
18792TIP3    H156253   7.692   6.291   7.607
18792TIP3    H256254   7.581   6.335   7.515
18793TIP3   OH256255   7.460   0.507   0.867
18793TIP3    H156256   7.464   0.442   0.797
18793TIP3    H256257   7.541   0.558   0.857
18794TIP3   OH256258   5.104   3.325   3.942
18794TIP3    H156259   5.107   3.236   3.979
18794TIP3    H256260   5.154   3.318   3.860
18795TIP3   OH256261   9.163   8.923   1.654
18795TIP3    H156262   9.166   8.891   1.564
18795TIP3    H256263   9.197   9.013   1.649
18796TIP3   OH256264   4.815   3.115   6.575
18796TIP3    H156265   4.879   3.173   6.616
18796TIP3    H256266   4.735   3.168   6.570
18797TIP3   OH256267   2.484   5.236   3.466
18797TIP3    H156268   2.389   5.230   3.478
18797TIP3    H256269   2.512   5.303   3.529
18798TIP3   OH256270   5.885   3.275   0.513
18798TIP3    H156271   5.917   3.186   0.497
18798TIP3    H256272   5.809   3.283   0.455
18799TIP3   OH256273   3.395   7.814   1.746
18799TIP3    H156274   3.464   7.869   1.711
18799TIP3    H256275   3.441   7.745   1.795
18800TIP3   OH256276   2.535   0.429   1.436
18800TIP3    H156277   2.559   0.522   1.429
18800TIP3    H256278   2.610   0.382   1.400
18801TIP3   OH256279   8.400   0.686   5.798
18801TIP3    H156280   8.493   0.670   5.811
18801TIP3    H256281   8.358   0.601   5.810
18802TIP3   OH256282   7.432   3.004   7.211
18802TIP3    H156283   7.473   2.986   7.127
18802TIP3    H256284   7.390   3.089   7.200
18803TIP3   OH256285   2.999   2.878   5.978
18803TIP3    H156286   2.961   2.840   6.058
18803TIP3    H256287   2.926   2.882   5.916
18804TIP3   OH256288   5.014   7.224   1.056
18804TIP3    H156289   4.974   7.235   0.970
18804TIP3    H256290   5.050   7.136   1.055
18805TIP3   OH256291   8.381   6.021   1.899
18805TIP3    H156292   8.417   5.999   1.985
18805TIP3    H256293   8.289   6.043   1.916
18806TIP3   OH256294   7.167   2.383   4.786
18806TIP3    H156295   7.158   2.393   4.691
18806TIP3    H256296   7.115   2.306   4.807
18807TIP3   OH256297   9.332   6.863   5.977
18807TIP3    H156298   9.339   6.789   6.038
18807TIP3    H256299   9.411   6.915   5.994
18808TIP3   OH256300   9.237   3.637   1.522
18808TIP3    H156301   9.214   3.550   1.555
18808TIP3    H256302   9.205   3.637   1.431
18809TIP3   OH256303   8.084   2.098   0.194
18809TIP3    H156304   8.014   2.066   0.251
18809TIP3    H256305   8.147   2.139   0.253
18810TIP3   OH256306   9.037   2.157   3.770
18810TIP3    H156307   8.985   2.078   3.755
18810TIP3    H256308   8.975   2.229   3.757
18811TIP3   OH256309   5.373   5.172   0.529
18811TIP3    H156310   5.436   5.237   0.559
18811TIP3    H256311   5.415   5.088   0.546
18812TIP3   OH256312   6.394   3.463   4.481
18812TIP3    H156313   6.312   3.437   4.523
18812TIP3    H256314   6.388   3.558   4.475
18813TIP3   OH256315   2.688   6.932   2.009
18813TIP3    H156316   2.732   7.013   1.984
18813TIP3    H256317   2.616   6.960   2.065
18814TIP3   OH256318   3.384   8.081   0.270
18814TIP3    H156319   3.411   8.170   0.292
18814TIP3    H256320   3.436   8.058   0.194
18815TIP3   OH256321   4.485   3.052   2.444
18815TIP3    H156322   4.530   3.062   2.361
18815TIP3    H256323   4.430   3.130   2.452
18816TIP3   OH256324   7.237   1.050   2.427
18816TIP3    H156325   7.330   1.030   2.435
18816TIP3    H256326   7.214   1.094   2.508
18817TIP3   OH256327   2.492   1.693   0.639
18817TIP3    H156328   2.449   1.632   0.698
18817TIP3    H256329   2.429   1.708   0.569
18818TIP3   OH256330   5.526   1.788   1.615
18818TIP3    H156331   5.504   1.852   1.548
18818TIP3    H256332   5.594   1.733   1.575
18819TIP3   OH256333   2.062   8.382   4.816
18819TIP3    H156334   1.974   8.414   4.795
18819TIP3    H256335   2.120   8.452   4.785
18820TIP3   OH256336   0.856   6.714   2.379
18820TIP3    H156337   0.790   6.768   2.335
18820TIP3    H256338   0.814   6.628   2.386
18821TIP3   OH256339   3.727   5.041   5.646
18821TIP3    H156340   3.783   4.964   5.631
18821TIP3    H256341   3.682   5.022   5.728
18822TIP3   OH256342   4.028   7.644   3.660
18822TIP3    H156343   4.081   7.599   3.595
18822TIP3    H256344   3.949   7.589   3.669
18823TIP3   OH256345   6.268   0.183   7.329
18823TIP3    H156346   6.227   0.149   7.249
18823TIP3    H256347   6.300   0.105   7.374
18824TIP3   OH256348   1.124   1.560   7.564
18824TIP3    H156349   1.073   1.546   7.484
18824TIP3    H256350   1.095   1.492   7.624
18825TIP3   OH256351   4.778   7.726   0.325
18825TIP3    H156352   4.797   7.675   0.246
18825TIP3    H256353   4.698   7.774   0.304
18826TIP3   OH256354   3.235   0.993   6.771
18826TIP3    H156355   3.153   1.017   6.815
18826TIP3    H256356   3.227   1.031   6.683
18827TIP3   OH256357   3.138   3.748   0.272
18827TIP3    H156358   3.067   3.794   0.227
18827TIP3    H256359   3.189   3.818   0.313
18828TIP3   OH256360   4.416   7.574   1.598
18828TIP3    H156361   4.434   7.536   1.683
18828TIP3    H256362   4.446   7.508   1.535
18829TIP3   OH256363   0.868   1.465   0.513
18829TIP3    H156364   0.935   1.421   0.460
18829TIP3    H256365   0.797   1.484   0.451
18830TIP3   OH256366   7.838   5.878   7.598
18830TIP3    H156367   7.876   5.961   7.568
18830TIP3    H256368   7.749   5.878   7.563
18831TIP3   OH256369   8.319   8.437   0.106
18831TIP3    H156370   8.391   8.462   0.164
18831TIP3    H256371   8.356   8.368   0.051
18832TIP3   OH256372   5.792   3.075   0.863
18832TIP3    H156373   5.812   3.047   0.774
18832TIP3    H256374   5.750   3.000   0.904
18833TIP3   OH256375   3.163   1.517   2.308
18833TIP3    H156376   3.241   1.535   2.361
18833TIP3    H256377   3.092   1.512   2.371
18834TIP3   OH256378   8.217   5.198   5.938
18834TIP3    H156379   8.127   5.197   5.906
18834TIP3    H256380   8.243   5.290   5.934
18835TIP3   OH256381   0.540   7.983   4.955
18835TIP3    H156382   0.460   7.941   4.925
18835TIP3    H256383   0.600   7.978   4.881
18836TIP3   OH256384   3.536   2.426   7.373
18836TIP3    H156385   3.559   2.333   7.368
18836TIP3    H256386   3.455   2.429   7.423
18837TIP3   OH256387   6.599   7.454   4.352
18837TIP3    H156388   6.557   7.509   4.418
18837TIP3    H256389   6.529   7.397   4.320
18838TIP3   OH256390   3.913   4.902   0.566
18838TIP3    H156391   3.953   4.816   0.576
18838TIP3    H256392   3.917   4.941   0.653
18839TIP3   OH256393   8.639   6.218   3.800
18839TIP3    H156394   8.584   6.232   3.877
18839TIP3    H256395   8.715   6.172   3.834
18840TIP3   OH256396   1.779   4.028   0.997
18840TIP3    H156397   1.798   3.935   1.008
18840TIP3    H256398   1.836   4.072   1.059
18841TIP3   OH256399   4.661   7.219   4.416
18841TIP3    H156400   4.568   7.234   4.433
18841TIP3    H256401   4.698   7.196   4.501
18842TIP3   OH256402   0.482   0.210   2.489
18842TIP3    H156403   0.503   0.130   2.440
18842TIP3    H256404   0.555   0.269   2.471
18843TIP3   OH256405   7.830   1.233   6.728
18843TIP3    H156406   7.776   1.166   6.684
18843TIP3    H256407   7.876   1.276   6.657
18844TIP3   OH256408   7.092   6.588   3.998
18844TIP3    H156409   7.052   6.618   3.917
18844TIP3    H256410   7.181   6.563   3.972
18845TIP3   OH256411   8.715   0.235   6.730
18845TIP3    H156412   8.761   0.150   6.728
18845TIP3    H256413   8.786   0.299   6.739
18846TIP3   OH256414   6.541   8.282   3.619
18846TIP3    H156415   6.571   8.303   3.707
18846TIP3    H256416   6.606   8.221   3.584
18847TIP3   OH256417   0.665   4.277   3.520
18847TIP3    H156418   0.754   4.258   3.489
18847TIP3    H256419   0.635   4.193   3.555
18848TIP3   OH256420   4.003   8.285   3.974
18848TIP3    H156421   4.036   8.343   4.042
18848TIP3    H256422   4.053   8.204   3.984
18849TIP3   OH256423   2.522   5.849   6.225
18849TIP3    H156424   2.605   5.886   6.257
18849TIP3    H256425   2.458   5.919   6.238
18850TIP3   OH256426   4.037   2.803   7.441
18850TIP3    H156427   4.073   2.886   7.410
18850TIP3    H256428   4.091   2.780   7.517
18851TIP3   OH256429   4.604   7.815   3.021
18851TIP3    H156430   4.601   7.787   3.112
18851TIP3    H256431   4.557   7.899   3.020
18852TIP3   OH256432   4.593   0.009   0.614
18852TIP3    H156433   4.610   0.042   0.526
18852TIP3    H256434   4.671   0.034   0.665
18853TIP3   OH256435   1.308   5.041   6.768
18853TIP3    H156436   1.321   5.119   6.714
18853TIP3    H256437   1.214   5.029   6.771
18854TIP3   OH256438   3.526   3.863   1.702
18854TIP3    H156439   3.560   3.777   1.727
18854TIP3    H256440   3.598   3.903   1.653
18855TIP3   OH256441   3.378   3.072   0.985
18855TIP3    H156442   3.458   3.124   0.981
18855TIP3    H256443   3.307   3.136   0.974
18856TIP3   OH256444   6.477   6.196   4.099
18856TIP3    H156445   6.564   6.237   4.104
18856TIP3    H256446   6.484   6.119   4.155
18857TIP3   OH256447   4.421   0.937   4.455
18857TIP3    H156448   4.517   0.937   4.449
18857TIP3    H256449   4.398   0.845   4.465
18858TIP3   OH256450   0.115   5.743   3.054
18858TIP3    H156451   0.182   5.810   3.039
18858TIP3    H256452   0.043   5.768   2.996
18859TIP3   OH256453   6.988   5.614   7.541
18859TIP3    H156454   6.984   5.519   7.539
18859TIP3    H256455   6.933   5.639   7.616
18860TIP3   OH256456   7.900   3.513   2.114
18860TIP3    H156457   7.951   3.590   2.089
18860TIP3    H256458   7.839   3.500   2.040
18861TIP3   OH256459   1.198   8.107   2.294
18861TIP3    H156460   1.143   8.031   2.274
18861TIP3    H256461   1.287   8.078   2.278
18862TIP3   OH256462   8.185   4.115   3.720
18862TIP3    H156463   8.206   4.032   3.762
18862TIP3    H256464   8.091   4.127   3.738
18863TIP3   OH256465   8.224   4.214   1.942
18863TIP3    H156466   8.138   4.177   1.962
18863TIP3    H256467   8.205   4.302   1.908
18864TIP3   OH256468   6.898   4.166   4.096
18864TIP3    H156469   6.883   4.095   4.033
18864TIP3    H256470   6.952   4.229   4.049
18865TIP3   OH256471   1.332   4.028   5.727
18865TIP3    H156472   1.330   3.965   5.656
18865TIP3    H256473   1.424   4.054   5.735
18866TIP3   OH256474   0.580   0.098   3.525
18866TIP3    H156475   0.548   0.045   3.451
18866TIP3    H256476   0.638   0.162   3.485
18867TIP3   OH256477   4.640   0.087   4.605
18867TIP3    H156478   4.715   0.076   4.547
18867TIP3    H256479   4.626   0.182   4.610
18868TIP3   OH256480   0.714   6.151   6.455
18868TIP3    H156481   0.679   6.079   6.403
18868TIP3    H256482   0.747   6.109   6.534
18869TIP3   OH256483   5.329   0.316   2.968
18869TIP3    H156484   5.385   0.260   3.021
18869TIP3    H256485   5.255   0.338   3.025
18870TIP3   OH256486   6.840   3.546   2.407
18870TIP3    H156487   6.883   3.475   2.455
18870TIP3    H256488   6.858   3.527   2.315
18871TIP3   OH256489   7.335   0.896   1.931
18871TIP3    H156490   7.339   0.834   2.004
18871TIP3    H256491   7.282   0.851   1.865
18872TIP3   OH256492   5.409   5.940   0.675
18872TIP3    H156493   5.407   5.920   0.581
18872TIP3    H256494   5.333   5.997   0.688
18873TIP3   OH256495   2.445   7.553   0.738
18873TIP3    H156496   2.389   7.576   0.664
18873TIP3    H256497   2.480   7.637   0.769
18874TIP3   OH256498   6.373   8.534   0.980
18874TIP3    H156499   6.389   8.441   0.999
18874TIP3    H256500   6.456   8.566   0.947
18875TIP3   OH256501   8.072   7.296   3.436
18875TIP3    H156502   8.155   7.342   3.430
18875TIP3    H256503   8.007   7.359   3.405
18876TIP3   OH256504   4.564   7.833   0.192
18876TIP3    H156505   4.548   7.865   0.103
18876TIP3    H256506   4.517   7.750   0.196
18877TIP3   OH256507   9.026   3.558   4.827
18877TIP3    H156508   8.957   3.620   4.850
18877TIP3    H256509   9.035   3.565   4.732
18878TIP3   OH256510   4.585   0.855   1.728
18878TIP3    H156511   4.648   0.880   1.795
18878TIP3    H256512   4.599   0.918   1.657
18879TIP3   OH256513   1.648   4.927   6.911
18879TIP3    H156514   1.660   4.884   6.827
18879TIP3    H256515   1.599   4.864   6.964
18880TIP3   OH256516   0.393   3.334   6.497
18880TIP3    H156517   0.352   3.388   6.566
18880TIP3    H256518   0.319   3.302   6.445
18881TIP3   OH256519   3.959   1.373   4.101
18881TIP3    H156520   3.999   1.410   4.179
18881TIP3    H256521   4.027   1.379   4.034
18882TIP3   OH256522   0.608   6.493   0.103
18882TIP3    H156523   0.515   6.493   0.080
18882TIP3    H256524   0.613   6.546   0.182
18883TIP3   OH256525   3.194   8.122   1.764
18883TIP3    H156526   3.182   8.163   1.678
18883TIP3    H256527   3.177   8.029   1.748
18884TIP3   OH256528   0.737   1.135   0.039
18884TIP3    H156529   0.716   1.121   0.131
18884TIP3    H256530   0.652   1.150  -0.003
18885TIP3   OH256531   5.518   5.066   6.356
18885TIP3    H156532   5.432   5.028   6.371
18885TIP3    H256533   5.501   5.158   6.336
18886TIP3   OH256534   3.367   5.973   4.175
18886TIP3    H156535   3.279   5.938   4.167
18886TIP3    H256536   3.408   5.956   4.090
18887TIP3   OH256537   0.387   1.623   0.234
18887TIP3    H156538   0.390   1.527   0.229
18887TIP3    H256539   0.439   1.652   0.158
18888TIP3   OH256540   4.859   5.047   2.783
18888TIP3    H156541   4.847   5.067   2.876
18888TIP3    H256542   4.896   5.127   2.746
18889TIP3   OH256543   6.728   6.753   2.281
18889TIP3    H156544   6.753   6.672   2.327
18889TIP3    H256545   6.636   6.740   2.260
18890TIP3   OH256546   2.138   7.416   1.304
18890TIP3    H156547   2.079   7.459   1.365
18890TIP3    H256548   2.083   7.355   1.255
18891TIP3   OH256549   2.658   2.798   2.733
18891TIP3    H156550   2.589   2.733   2.718
18891TIP3    H256551   2.637   2.836   2.818
18892TIP3   OH256552   7.629   5.922   6.825
18892TIP3    H156553   7.665   5.854   6.768
18892TIP3    H256554   7.616   5.879   6.909
18893TIP3   OH256555   4.052   3.978   2.764
18893TIP3    H156556   4.053   3.916   2.690
18893TIP3    H256557   4.065   4.064   2.723
18894TIP3   OH256558   9.477   3.952   6.505
18894TIP3    H156559   9.415   3.899   6.455
18894TIP3    H256560   9.473   4.039   6.466
18895TIP3   OH256561   5.456   4.785   2.042
18895TIP3    H156562   5.474   4.716   1.978
18895TIP3    H256563   5.516   4.856   2.018
18896TIP3   OH256564   3.729   0.377   3.574
18896TIP3    H156565   3.660   0.396   3.638
18896TIP3    H256566   3.770   0.297   3.608
18897TIP3   OH256567   9.400   1.278   4.209
18897TIP3    H156568   9.327   1.337   4.196
18897TIP3    H256569   9.476   1.335   4.219
18898TIP3   OH256570   0.281   6.157   3.908
18898TIP3    H156571   0.299   6.250   3.897
18898TIP3    H256572   0.202   6.154   3.961
18899TIP3   OH256573   4.772   8.187   2.285
18899TIP3    H156574   4.834   8.130   2.240
18899TIP3    H256575   4.816   8.209   2.368
18900TIP3   OH256576   5.213   5.068   1.470
18900TIP3    H156577   5.171   5.009   1.407
18900TIP3    H256578   5.160   5.148   1.467
18901TIP3   OH256579   1.303   2.582   6.714
18901TIP3    H156580   1.259   2.553   6.634
18901TIP3    H256581   1.240   2.641   6.755
18902TIP3   OH256582   2.470   8.222   3.667
18902TIP3    H156583   2.544   8.264   3.710
18902TIP3    H256584   2.474   8.131   3.696
18903TIP3   OH256585   5.581   7.578   1.299
18903TIP3    H156586   5.513   7.519   1.332
18903TIP3    H256587   5.536   7.633   1.236
18904TIP3   OH256588   5.587   6.385   3.405
18904TIP3    H156589   5.540   6.427   3.334
18904TIP3    H256590   5.636   6.315   3.363
18905TIP3   OH256591   6.858   1.748   1.649
18905TIP3    H156592   6.952   1.759   1.656
18905TIP3    H256593   6.841   1.741   1.555
18906TIP3   OH256594   3.821   4.263   2.285
18906TIP3    H156595   3.848   4.283   2.375
18906TIP3    H256596   3.764   4.335   2.261
18907TIP3   OH256597   8.590   4.034   1.749
18907TIP3    H156598   8.633   3.951   1.728
18907TIP3    H256599   8.661   4.090   1.780
18908TIP3   OH256600   2.018   6.538   2.479
18908TIP3    H156601   2.056   6.618   2.443
18908TIP3    H256602   1.988   6.489   2.403
18909TIP3   OH256603   3.644   1.394   4.678
18909TIP3    H156604   3.673   1.462   4.617
18909TIP3    H256605   3.632   1.439   4.761
18910TIP3   OH256606   0.455   4.255   6.760
18910TIP3    H156607   0.388   4.189   6.775
18910TIP3    H256608   0.408   4.330   6.723
18911TIP3   OH256609   3.260   6.201   3.252
18911TIP3    H156610   3.195   6.246   3.306
18911TIP3    H256611   3.322   6.164   3.314
18912TIP3   OH256612   0.443   7.093   6.541
18912TIP3    H156613   0.423   7.001   6.555
18912TIP3    H256614   0.498   7.095   6.463
18913TIP3   OH256615   9.005   3.077   0.169
18913TIP3    H156616   9.031   2.986   0.150
18913TIP3    H256617   9.023   3.088   0.262
18914TIP3   OH256618   5.037   5.595   6.429
18914TIP3    H156619   5.061   5.636   6.346
18914TIP3    H256620   4.988   5.517   6.405
18915TIP3   OH256621   3.947   3.087   2.798
18915TIP3    H156622   3.875   3.136   2.838
18915TIP3    H256623   4.026   3.131   2.828
18916TIP3   OH256624   6.361   7.540   2.030
18916TIP3    H156625   6.328   7.451   2.015
18916TIP3    H256626   6.441   7.528   2.081
18917TIP3   OH256627   4.435   3.640   6.410
18917TIP3    H156628   4.430   3.680   6.323
18917TIP3    H256629   4.374   3.566   6.406
18918TIP3   OH256630   3.947   5.431   3.893
18918TIP3    H156631   3.885   5.366   3.924
18918TIP3    H256632   4.030   5.406   3.934
18919TIP3   OH256633   4.237   5.232   3.472
18919TIP3    H156634   4.187   5.201   3.396
18919TIP3    H256635   4.186   5.202   3.548
18920TIP3   OH256636   8.803   2.545   0.683
18920TIP3    H156637   8.837   2.618   0.631
18920TIP3    H256638   8.708   2.553   0.675
18921TIP3   OH256639   3.650   7.451   0.116
18921TIP3    H156640   3.637   7.363   0.079
18921TIP3    H256641   3.585   7.505   0.072
18922TIP3   OH256642   5.083   5.806   6.103
18922TIP3    H156643   5.038   5.869   6.159
18922TIP3    H256644   5.015   5.744   6.077
18923TIP3   OH256645   7.127   2.519   1.034
18923TIP3    H156646   7.119   2.496   0.942
18923TIP3    H256647   7.047   2.569   1.053
18924TIP3   OH256648   5.902   0.995   5.345
18924TIP3    H156649   5.900   0.909   5.388
18924TIP3    H256650   5.950   1.051   5.405
18925TIP3   OH256651   1.512   4.008   3.924
18925TIP3    H156652   1.553   4.088   3.957
18925TIP3    H256653   1.580   3.941   3.935
18926TIP3   OH256654   9.280   8.063   4.300
18926TIP3    H156655   9.314   8.090   4.385
18926TIP3    H256656   9.230   7.983   4.319
18927TIP3   OH256657   8.340   6.029   3.154
18927TIP3    H156658   8.294   6.034   3.070
18927TIP3    H256659   8.416   6.087   3.144
18928TIP3   OH256660   2.535   1.925   7.594
18928TIP3    H156661   2.490   1.998   7.552
18928TIP3    H256662   2.559   1.867   7.521
18929TIP3   OH256663   0.657   0.761   4.526
18929TIP3    H156664   0.631   0.749   4.435
18929TIP3    H256665   0.581   0.735   4.577
18930TIP3   OH256666   5.681   2.626   4.998
18930TIP3    H156667   5.620   2.698   5.013
18930TIP3    H256668   5.756   2.646   5.053
18931TIP3   OH256669   9.111   6.994   0.501
18931TIP3    H156670   9.021   6.988   0.531
18931TIP3    H256671   9.132   6.905   0.471
18932TIP3   OH256672   2.322   5.273   6.496
18932TIP3    H156673   2.271   5.280   6.577
18932TIP3    H256674   2.256   5.268   6.427
18933TIP3   OH256675   8.558   6.793   5.792
18933TIP3    H156676   8.498   6.791   5.867
18933TIP3    H256677   8.538   6.712   5.745
18934TIP3   OH256678   0.489   7.329   0.238
18934TIP3    H156679   0.496   7.423   0.220
18934TIP3    H256680   0.442   7.293   0.163
18935TIP3   OH256681   9.421   3.990   0.964
18935TIP3    H156682   9.352   3.938   0.923
18935TIP3    H256683   9.416   3.969   1.057
18936TIP3   OH256684   0.013   4.040   0.052
18936TIP3    H156685  -0.032   4.007   0.130
18936TIP3    H256686   0.099   3.998   0.054
18937TIP3   OH256687   0.415   8.351   1.390
18937TIP3    H156688   0.489   8.409   1.373
18937TIP3    H256689   0.358   8.402   1.448
18938TIP3   OH256690   0.751   5.367   6.286
18938TIP3    H156691   0.704   5.300   6.236
18938TIP3    H256692   0.817   5.318   6.335
18939TIP3   OH256693   4.338   1.736   1.590
18939TIP3    H156694   4.284   1.806   1.626
18939TIP3    H256695   4.334   1.750   1.495
18940TIP3   OH256696   0.016   5.503   6.621
18940TIP3    H156697  -0.036   5.423   6.622
18940TIP3    H256698  -0.024   5.558   6.689
18941TIP3   OH256699   3.218   1.360   6.525
18941TIP3    H156700   3.275   1.337   6.599
18941TIP3    H256701   3.214   1.281   6.472
18942TIP3   OH256702   6.068   7.905   5.795
18942TIP3    H156703   6.076   7.943   5.882
18942TIP3    H256704   5.974   7.901   5.779
18943TIP3   OH256705   0.107   4.718   3.674
18943TIP3    H156706   0.183   4.663   3.654
18943TIP3    H256707   0.122   4.798   3.625
18944TIP3   OH256708   1.864   4.003   4.353
18944TIP3    H156709   1.959   4.011   4.365
18944TIP3    H256710   1.833   4.092   4.339
18945TIP3   OH256711   3.898   7.303   7.106
18945TIP3    H156712   3.828   7.298   7.172
18945TIP3    H256713   3.854   7.334   7.027
18946TIP3   OH256714   8.494   7.514   2.391
18946TIP3    H156715   8.431   7.577   2.428
18946TIP3    H256716   8.478   7.517   2.297
18947TIP3   OH256717   3.125   3.094   7.747
18947TIP3    H156718   3.048   3.071   7.695
18947TIP3    H256719   3.152   3.011   7.788
18948TIP3   OH256720   4.274   2.718   2.039
18948TIP3    H156721   4.313   2.805   2.026
18948TIP3    H256722   4.326   2.679   2.109
18949TIP3   OH256723   9.217   3.841   2.065
18949TIP3    H156724   9.166   3.857   2.144
18949TIP3    H256725   9.234   3.928   2.030
18950TIP3   OH256726   4.066   4.804   6.282
18950TIP3    H156727   4.005   4.867   6.319
18950TIP3    H256728   4.113   4.770   6.358
18951TIP3   OH256729   3.736   6.240   5.810
18951TIP3    H156730   3.818   6.282   5.786
18951TIP3    H256731   3.748   6.148   5.784
18952TIP3   OH256732   7.206   8.096   1.465
18952TIP3    H156733   7.120   8.054   1.471
18952TIP3    H256734   7.253   8.066   1.542
18953TIP3   OH256735   1.264   3.479   1.497
18953TIP3    H156736   1.251   3.440   1.411
18953TIP3    H256737   1.320   3.555   1.481
18954TIP3   OH256738   1.761   2.156   3.592
18954TIP3    H156739   1.717   2.203   3.521
18954TIP3    H256740   1.764   2.219   3.664
18955TIP3   OH256741   9.458   7.543   3.835
18955TIP3    H156742   9.451   7.621   3.890
18955TIP3    H256743   9.528   7.564   3.772
18956TIP3   OH256744   6.696   8.912   4.413
18956TIP3    H156745   6.656   8.896   4.499
18956TIP3    H256746   6.761   8.981   4.430
18957TIP3   OH256747   1.428   4.447   4.961
18957TIP3    H156748   1.518   4.436   4.991
18957TIP3    H256749   1.424   4.538   4.931
18958TIP3   OH256750   7.155   8.893   0.603
18958TIP3    H156751   7.121   8.855   0.522
18958TIP3    H256752   7.120   8.982   0.605
18959TIP3   OH256753   6.865   2.006   7.078
18959TIP3    H156754   6.901   2.094   7.074
18959TIP3    H256755   6.934   1.953   7.118
18960TIP3   OH256756   8.960   8.603   1.632
18960TIP3    H156757   8.946   8.666   1.561
18960TIP3    H256758   8.882   8.609   1.686
18961TIP3   OH256759   2.250   7.228   4.090
18961TIP3    H156760   2.331   7.203   4.046
18961TIP3    H256761   2.191   7.155   4.074
18962TIP3   OH256762   8.497   0.378   6.647
18962TIP3    H156763   8.558   0.307   6.666
18962TIP3    H256764   8.412   0.336   6.639
18963TIP3   OH256765   2.125   7.421   4.783
18963TIP3    H156766   2.046   7.452   4.828
18963TIP3    H256767   2.123   7.464   4.698
18964TIP3   OH256768   1.793   1.952   5.613
18964TIP3    H156769   1.841   1.933   5.693
18964TIP3    H256770   1.762   2.042   5.623
18965TIP3   OH256771   1.524   1.641   2.972
18965TIP3    H156772   1.617   1.624   2.955
18965TIP3    H256773   1.509   1.605   3.060
18966TIP3   OH256774   6.915   4.849   3.347
18966TIP3    H156775   6.909   4.755   3.362
18966TIP3    H256776   6.997   4.875   3.390
18967TIP3   OH256777   3.719   8.039   1.286
18967TIP3    H156778   3.629   8.036   1.318
18967TIP3    H256779   3.772   8.052   1.364
18968TIP3   OH256780   6.185   2.837   5.772
18968TIP3    H156781   6.179   2.776   5.699
18968TIP3    H256782   6.214   2.919   5.732
18969TIP3   OH256783   5.922   2.075   5.823
18969TIP3    H156784   5.828   2.079   5.838
18969TIP3    H256785   5.960   2.116   5.901
18970TIP3   OH256786   9.377   6.482   5.369
18970TIP3    H156787   9.433   6.471   5.446
18970TIP3    H256788   9.288   6.474   5.403
18971TIP3   OH256789   3.742   5.736   6.849
18971TIP3    H156790   3.721   5.647   6.820
18971TIP3    H256791   3.835   5.732   6.871
18972TIP3   OH256792   1.225   6.148   5.580
18972TIP3    H156793   1.298   6.209   5.591
18972TIP3    H256794   1.266   6.061   5.579
18973TIP3   OH256795   2.980   2.301   1.703
18973TIP3    H156796   3.044   2.350   1.651
18973TIP3    H256797   3.012   2.308   1.793
18974TIP3   OH256798   5.392   8.811   1.262
18974TIP3    H156799   5.411   8.759   1.183
18974TIP3    H256800   5.306   8.780   1.290
18975TIP3   OH256801   4.978   4.864   1.351
18975TIP3    H156802   4.943   4.788   1.304
18975TIP3    H256803   4.913   4.933   1.338
18976TIP3   OH256804   3.935   0.444   0.562
18976TIP3    H156805   4.011   0.483   0.517
18976TIP3    H256806   3.972   0.369   0.609
18977TIP3   OH256807   2.306   8.591   2.490
18977TIP3    H156808   2.342   8.660   2.546
18977TIP3    H256809   2.327   8.509   2.536
18978TIP3   OH256810   2.266   7.807   2.413
18978TIP3    H156811   2.320   7.798   2.333
18978TIP3    H256812   2.295   7.735   2.469
18979TIP3   OH256813   5.776   3.610   6.585
18979TIP3    H156814   5.772   3.518   6.560
18979TIP3    H256815   5.764   3.657   6.502
18980TIP3   OH256816   5.788   4.344   4.665
18980TIP3    H156817   5.830   4.293   4.734
18980TIP3    H256818   5.695   4.339   4.685
18981TIP3   OH256819   1.260   5.124   2.308
18981TIP3    H156820   1.264   5.044   2.360
18981TIP3    H256821   1.174   5.123   2.267
18982TIP3   OH256822   3.977   5.499   0.825
18982TIP3    H156823   3.977   5.515   0.730
18982TIP3    H256824   4.011   5.410   0.834
18983TIP3   OH256825   8.745   5.311   5.257
18983TIP3    H156826   8.728   5.383   5.318
18983TIP3    H256827   8.741   5.352   5.170
18984TIP3   OH256828   8.867   3.810   4.523
18984TIP3    H156829   8.776   3.825   4.499
18984TIP3    H256830   8.867   3.815   4.619
18985TIP3   OH256831   9.370   1.751   7.583
18985TIP3    H156832   9.301   1.723   7.643
18985TIP3    H256833   9.328   1.816   7.527
18986TIP3   OH256834   3.059   8.015   1.293
18986TIP3    H156835   3.137   8.010   1.237
18986TIP3    H256836   3.077   7.953   1.364
18987TIP3   OH256837   2.939   5.019   5.661
18987TIP3    H156838   2.924   5.024   5.567
18987TIP3    H256839   3.019   4.966   5.669
18988TIP3   OH256840   7.951   1.183   5.907
18988TIP3    H156841   8.042   1.157   5.892
18988TIP3    H256842   7.951   1.223   5.995
18989TIP3   OH256843   3.435   1.909   4.147
18989TIP3    H156844   3.468   1.899   4.058
18989TIP3    H256845   3.418   1.819   4.177
18990TIP3   OH256846   8.559   7.812   4.955
18990TIP3    H156847   8.475   7.779   4.923
18990TIP3    H256848   8.621   7.793   4.885
18991TIP3   OH256849   8.456   6.624   2.335
18991TIP3    H156850   8.429   6.621   2.426
18991TIP3    H256851   8.477   6.534   2.312
18992TIP3   OH256852   0.448   4.326   3.234
18992TIP3    H156853   0.366   4.315   3.187
18992TIP3    H256854   0.470   4.238   3.265
18993TIP3   OH256855   5.304   5.574   5.540
18993TIP3    H156856   5.372   5.529   5.589
18993TIP3    H256857   5.333   5.570   5.449
18994TIP3   OH256858   4.665   1.267   4.566
18994TIP3    H156859   4.650   1.238   4.476
18994TIP3    H256860   4.760   1.274   4.573
18995TIP3   OH256861   3.788   6.911   6.615
18995TIP3    H156862   3.754   6.986   6.567
18995TIP3    H256863   3.824   6.948   6.695
18996TIP3   OH256864   1.375   2.642   4.417
18996TIP3    H156865   1.376   2.737   4.402
18996TIP3    H256866   1.388   2.633   4.511
18997TIP3   OH256867   3.883   7.967   2.200
18997TIP3    H156868   3.954   8.019   2.239
18997TIP3    H256869   3.838   8.028   2.141
18998TIP3   OH256870   8.407   0.694   1.552
18998TIP3    H156871   8.390   0.647   1.470
18998TIP3    H256872   8.423   0.784   1.525
18999TIP3   OH256873   7.609   7.169   0.618
18999TIP3    H156874   7.518   7.197   0.610
18999TIP3    H256875   7.605   7.073   0.614
19000TIP3   OH256876   5.232   4.448   6.648
19000TIP3    H156877   5.292   4.385   6.608
19000TIP3    H256878   5.270   4.466   6.734
19001TIP3   OH256879   3.164   4.227   1.410
19001TIP3    H156880   3.086   4.245   1.462
19001TIP3    H256881   3.199   4.146   1.447
19002TIP3   OH256882   0.651   8.404   4.751
19002TIP3    H156883   0.602   8.353   4.686
19002TIP3    H256884   0.591   8.415   4.824
19003TIP3   OH256885   5.708   5.004   1.198
19003TIP3    H156886   5.654   5.083   1.196
19003TIP3    H256887   5.660   4.941   1.143
19004TIP3   OH256888   7.515   7.748   4.751
19004TIP3    H156889   7.580   7.793   4.804
19004TIP3    H256890   7.459   7.703   4.814
19005TIP3   OH256891   2.874   8.581   1.212
19005TIP3    H156892   2.797   8.597   1.157
19005TIP3    H256893   2.930   8.657   1.198
19006TIP3   OH256894   0.273   8.357   6.245
19006TIP3    H156895   0.306   8.340   6.334
19006TIP3    H256896   0.326   8.430   6.213
19007TIP3   OH256897   0.689   6.158   3.605
19007TIP3    H156898   0.660   6.232   3.550
19007TIP3    H256899   0.629   6.159   3.679
19008TIP3   OH256900   0.538   4.053   5.291
19008TIP3    H156901   0.584   4.135   5.308
19008TIP3    H256902   0.453   4.080   5.256
19009TIP3   OH256903   6.538   3.355   7.122
19009TIP3    H156904   6.617   3.378   7.072
19009TIP3    H256905   6.542   3.259   7.128
19010TIP3   OH256906   9.298   3.139   7.543
19010TIP3    H156907   9.244   3.199   7.491
19010TIP3    H256908   9.382   3.183   7.550
19011TIP3   OH256909   6.349   8.944   6.594
19011TIP3    H156910   6.359   9.025   6.644
19011TIP3    H256911   6.261   8.914   6.614
19012TIP3   OH256912   3.912   1.119   2.202
19012TIP3    H156913   3.983   1.106   2.138
19012TIP3    H256914   3.917   1.212   2.224
19013TIP3   OH256915   8.902   5.510   5.696
19013TIP3    H156916   8.947   5.561   5.764
19013TIP3    H256917   8.815   5.493   5.733
19014TIP3   OH256918   2.478   1.976   5.043
19014TIP3    H156919   2.521   1.933   4.969
19014TIP3    H256920   2.496   2.070   5.030
19015TIP3   OH256921   3.947   7.189   6.249
19015TIP3    H156922   3.898   7.108   6.237
19015TIP3    H256923   3.928   7.241   6.171
19016TIP3   OH256924   0.663   8.631   2.603
19016TIP3    H156925   0.675   8.545   2.562
19016TIP3    H256926   0.569   8.635   2.623
19017TIP3   OH256927   6.156   7.951   1.989
19017TIP3    H156928   6.103   8.021   1.951
19017TIP3    H256929   6.191   7.989   2.070
19018TIP3   OH256930   3.588   7.541   1.381
19018TIP3    H156931   3.644   7.463   1.372
19018TIP3    H256932   3.642   7.603   1.429
19019TIP3   OH256933   7.432   2.247   1.467
19019TIP3    H156934   7.432   2.185   1.540
19019TIP3    H256935   7.439   2.333   1.509
19020TIP3   OH256936   8.235   1.346   7.385
19020TIP3    H156937   8.231   1.441   7.391
19020TIP3    H256938   8.219   1.326   7.293
19021TIP3   OH256939   8.541   3.245   7.257
19021TIP3    H156940   8.584   3.286   7.182
19021TIP3    H256941   8.538   3.152   7.236
19022TIP3   OH256942   5.878   3.585   7.571
19022TIP3    H156943   5.938   3.650   7.607
19022TIP3    H256944   5.803   3.585   7.630
19023TIP3   OH256945   9.369   6.982   2.562
19023TIP3    H156946   9.418   6.932   2.627
19023TIP3    H256947   9.347   7.064   2.607
19024TIP3   OH256948   5.940   0.186   6.120
19024TIP3    H156949   6.035   0.197   6.120
19024TIP3    H256950   5.905   0.275   6.122
19025TIP3   OH256951   6.074   4.502   0.524
19025TIP3    H156952   6.156   4.456   0.508
19025TIP3    H256953   6.021   4.439   0.574
19026TIP3   OH256954   3.576   5.934   1.857
19026TIP3    H156955   3.618   6.002   1.805
19026TIP3    H256956   3.636   5.859   1.852
19027TIP3   OH256957   1.850   2.990   5.015
19027TIP3    H156958   1.892   2.909   5.045
19027TIP3    H256959   1.835   3.040   5.096
19028TIP3   OH256960   2.244   8.053   7.719
19028TIP3    H156961   2.188   7.999   7.775
19028TIP3    H256962   2.273   8.125   7.775
19029TIP3   OH256963   5.613   5.434   5.072
19029TIP3    H156964   5.533   5.387   5.050
19029TIP3    H256965   5.678   5.403   5.009
19030TIP3   OH256966   7.305   5.110   4.189
19030TIP3    H156967   7.311   5.112   4.093
19030TIP3    H256968   7.353   5.030   4.214
19031TIP3   OH256969   2.212   8.000   6.515
19031TIP3    H156970   2.255   7.943   6.580
19031TIP3    H256971   2.254   8.085   6.527
19032TIP3   OH256972   0.246   7.429   3.120
19032TIP3    H156973   0.170   7.401   3.069
19032TIP3    H256974   0.302   7.474   3.056
19033TIP3   OH256975   6.831   4.198   0.300
19033TIP3    H156976   6.840   4.205   0.205
19033TIP3    H256977   6.918   4.174   0.331
19034TIP3   OH256978   4.065   5.485   2.994
19034TIP3    H156979   4.001   5.444   3.052
19034TIP3    H256980   4.072   5.575   3.027
19035TIP3   OH256981   7.519   3.046   7.468
19035TIP3    H156982   7.453   3.114   7.482
19035TIP3    H256983   7.489   2.999   7.390
19036TIP3   OH256984   1.411   0.439   0.306
19036TIP3    H156985   1.388   0.482   0.224
19036TIP3    H256986   1.427   0.348   0.283
19037TIP3   OH256987   2.247   8.093   2.386
19037TIP3    H156988   2.270   8.002   2.400
19037TIP3    H256989   2.158   8.090   2.352
19038TIP3   OH256990   1.470   0.041   5.610
19038TIP3    H156991   1.449   0.035   5.703
19038TIP3    H256992   1.386   0.049   5.566
19039TIP3   OH256993   0.953   4.927   4.861
19039TIP3    H156994   1.030   4.871   4.857
19039TIP3    H256995   0.879   4.866   4.867
19040TIP3   OH256996   2.245   5.640   2.408
19040TIP3    H156997   2.164   5.648   2.458
19040TIP3    H256998   2.315   5.649   2.473
19041TIP3   OH256999   6.228   3.422   0.149
19041TIP3    H157000   6.206   3.373   0.069
19041TIP3    H257001   6.302   3.478   0.123
19042TIP3   OH257002   3.070   7.456   5.835
19042TIP3    H157003   3.014   7.378   5.841
19042TIP3    H257004   3.078   7.472   5.741
19043TIP3   OH257005   3.341   0.726   0.289
19043TIP3    H157006   3.390   0.683   0.219
19043TIP3    H257007   3.298   0.655   0.336
19044TIP3   OH257008   2.426   1.442   4.704
19044TIP3    H157009   2.492   1.494   4.657
19044TIP3    H257010   2.386   1.388   4.637
19045TIP3   OH257011   7.640   0.713   0.700
19045TIP3    H157012   7.629   0.669   0.616
19045TIP3    H257013   7.565   0.773   0.705
19046TIP3   OH257014   7.349   4.665   0.663
19046TIP3    H157015   7.341   4.739   0.603
19046TIP3    H257016   7.332   4.702   0.749
19047TIP3   OH257017   2.082   5.712   3.597
19047TIP3    H157018   2.097   5.748   3.509
19047TIP3    H257019   2.169   5.688   3.628
19048TIP3   OH257020   2.575   8.161   3.957
19048TIP3    H157021   2.627   8.228   3.913
19048TIP3    H257022   2.614   8.079   3.930
19049TIP3   OH257023   7.238   2.406   2.006
19049TIP3    H157024   7.225   2.499   2.024
19049TIP3    H257025   7.333   2.396   2.003
19050TIP3   OH257026   0.388   4.136   3.005
19050TIP3    H157027   0.419   4.072   3.069
19050TIP3    H257028   0.425   4.107   2.922
19051TIP3   OH257029   8.507   1.268   5.056
19051TIP3    H157030   8.600   1.280   5.073
19051TIP3    H257031   8.463   1.316   5.125
19052TIP3   OH257032   6.425   7.273   5.429
19052TIP3    H157033   6.333   7.257   5.408
19052TIP3    H257034   6.426   7.291   5.523
19053TIP3   OH257035   1.671   6.031   0.780
19053TIP3    H157036   1.662   5.938   0.760
19053TIP3    H257037   1.709   6.033   0.868
19054TIP3   OH257038   8.666   5.235   4.021
19054TIP3    H157039   8.716   5.153   4.017
19054TIP3    H257040   8.681   5.277   3.937
19055TIP3   OH257041   2.196   8.273   1.006
19055TIP3    H157042   2.267   8.235   0.953
19055TIP3    H257043   2.142   8.321   0.943
19056TIP3   OH257044   5.788   0.153   5.828
19056TIP3    H157045   5.778   0.113   5.915
19056TIP3    H257046   5.877   0.190   5.830
19057TIP3   OH257047   7.548   6.742   4.614
19057TIP3    H157048   7.513   6.653   4.616
19057TIP3    H257049   7.619   6.741   4.679
19058TIP3   OH257050   1.308   7.083   5.069
19058TIP3    H157051   1.390   7.126   5.044
19058TIP3    H257052   1.316   7.068   5.163
19059TIP3   OH257053   3.468   5.133   1.341
19059TIP3    H157054   3.509   5.190   1.407
19059TIP3    H257055   3.534   5.066   1.323
19060TIP3   OH257056   7.335   3.598   0.636
19060TIP3    H157057   7.354   3.530   0.572
19060TIP3    H257058   7.244   3.582   0.662
19061TIP3   OH257059   7.472   4.894   6.725
19061TIP3    H157060   7.477   4.941   6.642
19061TIP3    H257061   7.552   4.918   6.772
19062TIP3   OH257062   4.583   5.246   0.166
19062TIP3    H157063   4.502   5.197   0.181
19062TIP3    H257064   4.649   5.201   0.219
19063TIP3   OH257065   5.642   7.667   0.520
19063TIP3    H157066   5.598   7.749   0.542
19063TIP3    H257067   5.729   7.675   0.561
19064TIP3   OH257068   1.260   1.214   0.967
19064TIP3    H157069   1.337   1.163   0.991
19064TIP3    H257070   1.193   1.188   1.030
19065TIP3   OH257071   6.612   0.729   7.510
19065TIP3    H157072   6.530   0.680   7.504
19065TIP3    H257073   6.586   0.816   7.541
19066TIP3   OH257074   7.650   5.004   0.913
19066TIP3    H157075   7.563   4.997   0.874
19066TIP3    H257076   7.658   4.926   0.967
19067TIP3   OH257077   4.625   1.604   2.725
19067TIP3    H157078   4.666   1.623   2.809
19067TIP3    H257079   4.655   1.516   2.703
19068TIP3   OH257080   5.651   4.540   2.520
19068TIP3    H157081   5.734   4.586   2.533
19068TIP3    H257082   5.584   4.609   2.525
19069TIP3   OH257083   8.390   2.788   0.985
19069TIP3    H157084   8.339   2.774   1.065
19069TIP3    H257085   8.446   2.863   1.005
19070TIP3   OH257086   3.608   7.508   6.334
19070TIP3    H157087   3.553   7.471   6.403
19070TIP3    H257088   3.574   7.470   6.253
19071TIP3   OH257089   6.934   6.625   5.064
19071TIP3    H157090   6.944   6.658   4.975
19071TIP3    H257091   7.003   6.559   5.073
19072TIP3   OH257092   6.597   1.825   0.711
19072TIP3    H157093   6.571   1.856   0.798
19072TIP3    H257094   6.685   1.860   0.698
19073TIP3   OH257095   7.550   1.537   7.323
19073TIP3    H157096   7.575   1.524   7.414
19073TIP3    H257097   7.473   1.594   7.327
19074TIP3   OH257098   0.981   4.762   3.496
19074TIP3    H157099   1.044   4.693   3.516
19074TIP3    H257100   0.898   4.729   3.531
19075TIP3   OH257101   4.459   4.269   2.337
19075TIP3    H157102   4.480   4.303   2.250
19075TIP3    H257103   4.510   4.188   2.344
19076TIP3   OH257104   0.071   7.437   6.695
19076TIP3    H157105   0.125   7.359   6.706
19076TIP3    H257106   0.082   7.462   6.603
19077TIP3   OH257107   0.139   3.359   3.667
19077TIP3    H157108   0.100   3.442   3.641
19077TIP3    H257109   0.212   3.346   3.607
19078TIP3   OH257110   9.238   8.522   2.452
19078TIP3    H157111   9.212   8.605   2.412
19078TIP3    H257112   9.276   8.546   2.536
19079TIP3   OH257113   8.718   0.798   7.754
19079TIP3    H157114   8.622   0.793   7.753
19079TIP3    H257115   8.737   0.889   7.778
19080TIP3   OH257116   6.312   6.270   7.450
19080TIP3    H157117   6.364   6.256   7.370
19080TIP3    H257118   6.375   6.302   7.514
19081TIP3   OH257119   8.065   1.569   2.103
19081TIP3    H157120   8.159   1.567   2.118
19081TIP3    H257121   8.051   1.513   2.026
19082TIP3   OH257122   9.282   6.903   5.319
19082TIP3    H157123   9.291   6.931   5.228
19082TIP3    H257124   9.247   6.814   5.314
19083TIP3   OH257125   4.547   2.951   2.711
19083TIP3    H157126   4.543   2.976   2.619
19083TIP3    H257127   4.457   2.924   2.732
19084TIP3   OH257128   8.641   8.732   6.324
19084TIP3    H157129   8.712   8.794   6.304
19084TIP3    H257130   8.653   8.712   6.417
19085TIP3   OH257131   0.976   2.074   2.487
19085TIP3    H157132   1.044   2.030   2.437
19085TIP3    H257133   0.955   2.013   2.558
19086TIP3   OH257134   0.284   2.507   3.415
19086TIP3    H157135   0.380   2.503   3.417
19086TIP3    H257136   0.262   2.590   3.456
19087TIP3   OH257137   5.625   5.170   4.187
19087TIP3    H157138   5.563   5.145   4.256
19087TIP3    H257139   5.637   5.264   4.199
19088TIP3   OH257140   6.924   6.047   7.325
19088TIP3    H157141   7.003   6.096   7.349
19088TIP3    H257142   6.953   5.987   7.256
19089TIP3   OH257143   7.863   7.250   7.144
19089TIP3    H157144   7.909   7.206   7.215
19089TIP3    H257145   7.790   7.192   7.122
19090TIP3   OH257146   3.967   0.144   3.973
19090TIP3    H157147   3.876   0.140   4.002
19090TIP3    H257148   3.965   0.113   3.883
19091TIP3   OH257149   2.382   4.359   1.305
19091TIP3    H157150   2.304   4.410   1.324
19091TIP3    H257151   2.451   4.424   1.291
19092TIP3   OH257152   1.433   2.572   5.301
19092TIP3    H157153   1.515   2.532   5.329
19092TIP3    H257154   1.400   2.617   5.380
19093TIP3   OH257155   0.130   6.905   3.646
19093TIP3    H157156   0.054   6.934   3.696
19093TIP3    H257157   0.172   6.986   3.618
19094TIP3   OH257158   1.313   7.753   6.715
19094TIP3    H157159   1.271   7.837   6.698
19094TIP3    H257160   1.240   7.693   6.730
19095TIP3   OH257161   4.357   6.437   5.697
19095TIP3    H157162   4.332   6.364   5.755
19095TIP3    H257163   4.384   6.394   5.616
19096TIP3   OH257164   6.032   6.610   2.694
19096TIP3    H157165   6.040   6.518   2.671
19096TIP3    H257166   6.098   6.654   2.641
19097TIP3   OH257167   4.066   6.737   5.665
19097TIP3    H157168   4.037   6.779   5.746
19097TIP3    H257169   3.992   6.682   5.639
19098TIP3   OH257170   9.185   2.953   2.645
19098TIP3    H157171   9.192   2.908   2.561
19098TIP3    H257172   9.240   2.901   2.704
19099TIP3   OH257173   1.845   4.249   5.212
19099TIP3    H157174   1.756   4.281   5.224
19099TIP3    H257175   1.894   4.288   5.285
19100TIP3   OH257176   1.443   3.077   0.896
19100TIP3    H157177   1.369   3.044   0.846
19100TIP3    H257178   1.492   3.131   0.834
19101TIP3   OH257179   7.819   1.797   2.000
19101TIP3    H157180   7.857   1.749   2.074
19101TIP3    H257181   7.809   1.731   1.932
19102TIP3   OH257182   0.896   7.806   5.191
19102TIP3    H157183   0.987   7.796   5.219
19102TIP3    H257184   0.900   7.872   5.122
19103TIP3   OH257185   1.814   8.711   3.569
19103TIP3    H157186   1.790   8.800   3.543
19103TIP3    H257187   1.759   8.655   3.513
19104TIP3   OH257188   2.528   3.972   3.458
19104TIP3    H157189   2.544   3.958   3.552
19104TIP3    H257190   2.543   3.886   3.418
19105TIP3   OH257191   5.242   4.529   2.349
19105TIP3    H157192   5.181   4.546   2.421
19105TIP3    H257193   5.298   4.606   2.346
19106TIP3   OH257194   2.423   4.698   1.066
19106TIP3    H157195   2.475   4.665   1.139
19106TIP3    H257196   2.432   4.631   0.998
19107TIP3   OH257197   4.649   5.950   0.891
19107TIP3    H157198   4.650   5.896   0.971
19107TIP3    H257199   4.723   5.918   0.840
19108TIP3   OH257200   0.598   5.903   3.219
19108TIP3    H157201   0.648   5.892   3.300
19108TIP3    H257202   0.514   5.939   3.248
19109TIP3   OH257203   7.181   5.951   1.620
19109TIP3    H157204   7.134   6.034   1.630
19109TIP3    H257205   7.263   5.975   1.577
19110TIP3   OH257206   6.884   4.776   2.435
19110TIP3    H157207   6.840   4.815   2.510
19110TIP3    H257208   6.892   4.683   2.458
19111TIP3   OH257209   2.466   8.589   4.149
19111TIP3    H157210   2.409   8.664   4.130
19111TIP3    H257211   2.418   8.514   4.114
19112TIP3   OH257212   6.224   1.047   3.782
19112TIP3    H157213   6.136   1.023   3.810
19112TIP3    H257214   6.238   0.998   3.701
19113TIP3   OH257215   4.257   2.886   7.172
19113TIP3    H157216   4.227   2.950   7.236
19113TIP3    H257217   4.292   2.813   7.224
19114TIP3   OH257218   5.051   5.961   3.375
19114TIP3    H157219   5.091   5.918   3.451
19114TIP3    H257220   5.104   6.039   3.361
19115TIP3   OH257221   7.824   0.624   4.762
19115TIP3    H157222   7.748   0.617   4.819
19115TIP3    H257223   7.833   0.537   4.723
19116TIP3   OH257224   3.185   8.523   6.742
19116TIP3    H157225   3.199   8.566   6.826
19116TIP3    H257226   3.109   8.467   6.757
19117TIP3   OH257227   5.479   0.059   6.365
19117TIP3    H157228   5.480  -0.005   6.436
19117TIP3    H257229   5.420   0.128   6.395
19118TIP3   OH257230   2.506   7.538   5.929
19118TIP3    H157231   2.525   7.629   5.905
19118TIP3    H257232   2.514   7.489   5.848
19119TIP3   OH257233   9.070   6.831   3.412
19119TIP3    H157234   9.140   6.883   3.375
19119TIP3    H257235   9.099   6.740   3.403
19120TIP3   OH257236   5.519   5.281   4.551
19120TIP3    H157237   5.587   5.214   4.553
19120TIP3    H257238   5.447   5.240   4.501
19121TIP3   OH257239   3.499   5.911   5.664
19121TIP3    H157240   3.581   5.960   5.655
19121TIP3    H257241   3.505   5.870   5.751
19122TIP3   OH257242   1.844   1.772   7.506
19122TIP3    H157243   1.781   1.831   7.466
19122TIP3    H257244   1.792   1.713   7.560
19123TIP3   OH257245   4.342   3.078   6.197
19123TIP3    H157246   4.370   3.154   6.249
19123TIP3    H257247   4.247   3.076   6.207
19124TIP3   OH257248   8.456   2.710   4.156
19124TIP3    H157249   8.473   2.619   4.181
19124TIP3    H257250   8.528   2.732   4.097
19125TIP3   OH257251   7.874   7.165   7.464
19125TIP3    H157252   7.894   7.203   7.549
19125TIP3    H257253   7.957   7.130   7.432
19126TIP3   OH257254   1.231   1.504   0.406
19126TIP3    H157255   1.314   1.516   0.361
19126TIP3    H257256   1.165   1.520   0.338
19127TIP3   OH257257   8.991   1.474   4.171
19127TIP3    H157258   9.042   1.537   4.120
19127TIP3    H257259   9.055   1.430   4.226
19128TIP3   OH257260   4.464   7.131   0.549
19128TIP3    H157261   4.516   7.209   0.526
19128TIP3    H257262   4.467   7.077   0.469
19129TIP3   OH257263   0.381   5.685   4.451
19129TIP3    H157264   0.344   5.638   4.526
19129TIP3    H257265   0.407   5.770   4.487
19130TIP3   OH257266   0.446   3.067   1.081
19130TIP3    H157267   0.352   3.049   1.073
19130TIP3    H257268   0.451   3.140   1.142
19131TIP3   OH257269   7.067   0.218   0.153
19131TIP3    H157270   7.093   0.310   0.152
19131TIP3    H257271   7.100   0.182   0.071
19132TIP3   OH257272   8.234   5.937   6.335
19132TIP3    H157273   8.171   5.962   6.402
19132TIP3    H257274   8.181   5.925   6.256
19133TIP3   OH257275   4.078   0.972   2.919
19133TIP3    H157276   4.058   0.945   2.830
19133TIP3    H257277   4.010   0.932   2.973
19134TIP3   OH257278   1.080   1.036   1.633
19134TIP3    H157279   1.111   1.041   1.543
19134TIP3    H257280   1.100   1.122   1.670
19135TIP3   OH257281   8.021   1.478   6.702
19135TIP3    H157282   7.934   1.500   6.669
19135TIP3    H257283   8.007   1.451   6.792
19136TIP3   OH257284   6.316   0.172   2.986
19136TIP3    H157285   6.375   0.123   2.929
19136TIP3    H257286   6.318   0.125   3.069
19137TIP3   OH257287   3.132   6.126   4.102
19137TIP3    H157288   3.133   6.222   4.095
19137TIP3    H257289   3.059   6.107   4.160
19138TIP3   OH257290   4.914   8.736   5.818
19138TIP3    H157291   4.925   8.761   5.726
19138TIP3    H257292   4.933   8.642   5.820
19139TIP3   OH257293   7.830   0.353   5.020
19139TIP3    H157294   7.915   0.398   5.020
19139TIP3    H257295   7.853   0.261   5.008
19140TIP3   OH257296   0.892   5.536   2.564
19140TIP3    H157297   0.979   5.506   2.537
19140TIP3    H257298   0.902   5.556   2.657
19141TIP3   OH257299   2.665   1.682   1.486
19141TIP3    H157300   2.749   1.691   1.531
19141TIP3    H257301   2.659   1.759   1.431
19142TIP3   OH257302   7.643   2.807   3.254
19142TIP3    H157303   7.734   2.797   3.282
19142TIP3    H257304   7.617   2.893   3.287
19143TIP3   OH257305   6.506   2.030   6.425
19143TIP3    H157306   6.578   1.996   6.479
19143TIP3    H257307   6.432   2.032   6.485
19144TIP3   OH257308   5.598   2.105   3.499
19144TIP3    H157309   5.527   2.045   3.478
19144TIP3    H257310   5.674   2.069   3.453
19145TIP3   OH257311   5.986   8.387   3.631
19145TIP3    H157312   6.010   8.330   3.558
19145TIP3    H257313   6.046   8.362   3.701
19146TIP3   OH257314   2.459   3.095   6.474
19146TIP3    H157315   2.399   3.150   6.524
19146TIP3    H257316   2.406   3.060   6.403
19147TIP3   OH257317   8.847   5.958   3.074
19147TIP3    H157318   8.842   6.051   3.099
19147TIP3    H257319   8.864   5.912   3.156
19148TIP3   OH257320   8.594   1.567   0.710
19148TIP3    H157321   8.669   1.527   0.666
19148TIP3    H257322   8.528   1.575   0.642
19149TIP3   OH257323   1.771   4.327   4.221
19149TIP3    H157324   1.711   4.301   4.290
19149TIP3    H257325   1.743   4.277   4.144
19150TIP3   OH257326   2.532   3.371   2.426
19150TIP3    H157327   2.510   3.280   2.448
19150TIP3    H257328   2.572   3.365   2.339
19151TIP3   OH257329   5.248   5.675   7.247
19151TIP3    H157330   5.262   5.743   7.180
19151TIP3    H257331   5.295   5.599   7.213
19152TIP3   OH257332   2.244   1.403   5.872
19152TIP3    H157333   2.299   1.412   5.794
19152TIP3    H257334   2.241   1.490   5.910
19153TIP3   OH257335   2.383   0.088   0.445
19153TIP3    H157336   2.362   0.171   0.489
19153TIP3    H257337   2.332   0.090   0.364
19154TIP3   OH257338   5.458   7.301   4.650
19154TIP3    H157339   5.541   7.282   4.607
19154TIP3    H257340   5.481   7.316   4.742
19155TIP3   OH257341   6.543   8.699   0.573
19155TIP3    H157342   6.460   8.700   0.526
19155TIP3    H257343   6.535   8.770   0.637
19156TIP3   OH257344   8.481   6.179   7.413
19156TIP3    H157345   8.389   6.154   7.422
19156TIP3    H257346   8.479   6.265   7.369
19157TIP3   OH257347   0.270   2.363   4.336
19157TIP3    H157348   0.199   2.409   4.292
19157TIP3    H257349   0.255   2.271   4.314
19158TIP3   OH257350   6.350   6.258   6.954
19158TIP3    H157351   6.255   6.267   6.961
19158TIP3    H257352   6.385   6.345   6.974
19159TIP3   OH257353   6.692   0.296   5.757
19159TIP3    H157354   6.696   0.238   5.833
19159TIP3    H257355   6.754   0.366   5.776
19160TIP3   OH257356   3.824   4.095   1.519
19160TIP3    H157357   3.810   4.138   1.603
19160TIP3    H257358   3.846   4.004   1.542
19161TIP3   OH257359   3.801   2.108   7.395
19161TIP3    H157360   3.842   2.121   7.310
19161TIP3    H257361   3.872   2.120   7.458
19162TIP3   OH257362   1.958   2.354   2.253
19162TIP3    H157363   1.892   2.380   2.317
19162TIP3    H257364   2.042   2.375   2.294
19163TIP3   OH257365   7.116   0.934   0.168
19163TIP3    H157366   7.088   0.864   0.226
19163TIP3    H257367   7.056   1.007   0.187
19164TIP3   OH257368   2.795   3.511   3.949
19164TIP3    H157369   2.740   3.585   3.922
19164TIP3    H257370   2.865   3.509   3.884
19165TIP3   OH257371   2.625   4.735   3.469
19165TIP3    H157372   2.596   4.814   3.424
19165TIP3    H257373   2.564   4.667   3.439
19166TIP3   OH257374   6.448   6.035   6.887
19166TIP3    H157375   6.501   6.057   6.810
19166TIP3    H257376   6.416   6.119   6.919
19167TIP3   OH257377   0.521   3.764   6.149
19167TIP3    H157378   0.577   3.703   6.198
19167TIP3    H257379   0.467   3.805   6.217
19168TIP3   OH257380   1.629   8.219   3.558
19168TIP3    H157381   1.646   8.217   3.464
19168TIP3    H257382   1.544   8.175   3.567
19169TIP3   OH257383   6.219   8.464   4.437
19169TIP3    H157384   6.275   8.538   4.462
19169TIP3    H257385   6.140   8.505   4.400
19170TIP3   OH257386   8.874   4.941   7.168
19170TIP3    H157387   8.937   5.012   7.179
19170TIP3    H257388   8.878   4.892   7.250
19171TIP3   OH257389   6.705   6.965   4.218
19171TIP3    H157390   6.763   6.890   4.210
19171TIP3    H257391   6.763   7.041   4.215
19172TIP3   OH257392   3.039   1.953   2.154
19172TIP3    H157393   2.952   1.953   2.194
19172TIP3    H257394   3.061   2.046   2.146
19173TIP3   OH257395   5.082   8.046   1.961
19173TIP3    H157396   5.043   8.009   1.882
19173TIP3    H257397   5.038   8.002   2.033
19174TIP3   OH257398   8.413   5.892   6.563
19174TIP3    H157399   8.489   5.949   6.549
19174TIP3    H257400   8.364   5.897   6.481
19175TIP3   OH257401   5.081   8.583   5.297
19175TIP3    H157402   5.032   8.664   5.286
19175TIP3    H257403   5.113   8.562   5.209
19176TIP3   OH257404   2.832   1.182   4.116
19176TIP3    H157405   2.862   1.141   4.035
19176TIP3    H257406   2.884   1.262   4.124
19177TIP3   OH257407   7.747   0.610   7.585
19177TIP3    H157408   7.683   0.677   7.610
19177TIP3    H257409   7.741   0.606   7.489
19178TIP3   OH257410   1.758   0.925   5.366
19178TIP3    H157411   1.744   0.865   5.440
19178TIP3    H257412   1.748   1.012   5.404
19179TIP3   OH257413   2.770   8.879   5.373
19179TIP3    H157414   2.817   8.823   5.434
19179TIP3    H257415   2.838   8.918   5.318
19180TIP3   OH257416   0.083   1.717   3.296
19180TIP3    H157417   0.107   1.750   3.382
19180TIP3    H257418   0.158   1.665   3.267
19181TIP3   OH257419   8.777   2.265   1.940
19181TIP3    H157420   8.761   2.264   1.845
19181TIP3    H257421   8.705   2.317   1.975
19182TIP3   OH257422   6.988   1.744   5.881
19182TIP3    H157423   6.997   1.838   5.863
19182TIP3    H257424   7.011   1.701   5.799
19183TIP3   OH257425   7.729   8.709   0.088
19183TIP3    H157426   7.670   8.636   0.110
19183TIP3    H257427   7.803   8.699   0.148
19184TIP3   OH257428   8.285   4.349   5.545
19184TIP3    H157429   8.380   4.340   5.542
19184TIP3    H257430   8.267   4.381   5.633
19185TIP3   OH257431   1.684   2.793   0.686
19185TIP3    H157432   1.722   2.706   0.675
19185TIP3    H257433   1.747   2.852   0.644
19186TIP3   OH257434   8.691   8.754   1.755
19186TIP3    H157435   8.771   8.769   1.804
19186TIP3    H257436   8.623   8.802   1.803
19187TIP3   OH257437   5.174   0.726   2.487
19187TIP3    H157438   5.162   0.633   2.508
19187TIP3    H257439   5.100   0.769   2.530
19188TIP3   OH257440   1.216   8.428   7.600
19188TIP3    H157441   1.266   8.353   7.631
19188TIP3    H257442   1.168   8.395   7.524
19189TIP3   OH257443   3.885   4.011   6.159
19189TIP3    H157444   3.827   4.027   6.085
19189TIP3    H257445   3.949   3.948   6.126
19190TIP3   OH257446   5.593   3.619   4.904
19190TIP3    H157447   5.562   3.680   4.837
19190TIP3    H257448   5.680   3.593   4.875
19191TIP3   OH257449   0.076   3.043   6.855
19191TIP3    H157450   0.140   3.106   6.889
19191TIP3    H257451   0.089   3.044   6.760
19192TIP3   OH257452   9.422   2.042   5.542
19192TIP3    H157453   9.425   2.037   5.446
19192TIP3    H257454   9.514   2.034   5.569
19193TIP3   OH257455   4.282   4.474   3.675
19193TIP3    H157456   4.261   4.395   3.725
19193TIP3    H257457   4.333   4.443   3.600
19194TIP3   OH257458   2.012   5.028   1.637
19194TIP3    H157459   2.003   5.124   1.632
19194TIP3    H257460   2.107   5.014   1.641
19195TIP3   OH257461   3.657   5.165   3.094
19195TIP3    H157462   3.723   5.096   3.104
19195TIP3    H257463   3.573   5.118   3.096
19196TIP3   OH257464   8.661   7.658   0.480
19196TIP3    H157465   8.687   7.567   0.494
19196TIP3    H257466   8.694   7.679   0.392
19197TIP3   OH257467   3.617   5.087   2.307
19197TIP3    H157468   3.563   5.136   2.246
19197TIP3    H257469   3.645   5.010   2.258
19198TIP3   OH257470   7.708   3.344   4.846
19198TIP3    H157471   7.788   3.389   4.873
19198TIP3    H257472   7.714   3.258   4.886
19199TIP3   OH257473   2.500   6.594   1.163
19199TIP3    H157474   2.553   6.594   1.083
19199TIP3    H257475   2.460   6.507   1.165
19200TIP3   OH257476   8.359   3.253   6.347
19200TIP3    H157477   8.286   3.313   6.363
19200TIP3    H257478   8.341   3.215   6.261
19201TIP3   OH257479   9.337   2.932   0.943
19201TIP3    H157480   9.352   2.974   1.028
19201TIP3    H257481   9.247   2.955   0.921
19202TIP3   OH257482   7.144   5.964   2.646
19202TIP3    H157483   7.049   5.955   2.640
19202TIP3    H257484   7.171   5.990   2.557
19203TIP3   OH257485   9.551   6.600   0.632
19203TIP3    H157486   9.483   6.571   0.693
19203TIP3    H257487   9.549   6.535   0.562
19204TIP3   OH257488   2.468   3.111   2.508
19204TIP3    H157489   2.420   3.074   2.582
19204TIP3    H257490   2.527   3.041   2.480
19205TIP3   OH257491   5.751   0.744   0.626
19205TIP3    H157492   5.679   0.761   0.566
19205TIP3    H257493   5.829   0.741   0.570
19206TIP3   OH257494   2.946   4.177   1.950
19206TIP3    H157495   2.928   4.116   2.022
19206TIP3    H257496   2.997   4.127   1.887
19207TIP3   OH257497   5.299   7.087   4.096
19207TIP3    H157498   5.333   7.157   4.152
19207TIP3    H257499   5.211   7.070   4.130
19208TIP3   OH257500   7.723   1.438   4.159
19208TIP3    H157501   7.648   1.477   4.204
19208TIP3    H257502   7.763   1.511   4.111
19209TIP3   OH257503   3.773   8.530   2.422
19209TIP3    H157504   3.744   8.440   2.406
19209TIP3    H257505   3.705   8.568   2.478
19210TIP3   OH257506   7.674   2.716   2.727
19210TIP3    H157507   7.633   2.756   2.804
19210TIP3    H257508   7.600   2.692   2.670
19211TIP3   OH257509   7.246   2.868   5.802
19211TIP3    H157510   7.210   2.838   5.886
19211TIP3    H257511   7.305   2.798   5.775
19212TIP3   OH257512   3.350   7.098   7.748
19212TIP3    H157513   3.369   7.097   7.842
19212TIP3    H257514   3.435   7.088   7.706
19213TIP3   OH257515   4.018   2.859   1.870
19213TIP3    H157516   4.079   2.913   1.820
19213TIP3    H257517   4.050   2.864   1.960
19214TIP3   OH257518   3.076   2.741   1.624
19214TIP3    H157519   3.075   2.752   1.719
19214TIP3    H257520   3.168   2.729   1.601
19215TIP3   OH257521   7.359   6.668   5.550
19215TIP3    H157522   7.276   6.676   5.599
19215TIP3    H257523   7.345   6.719   5.471
19216TIP3   OH257524   0.782   2.130   3.362
19216TIP3    H157525   0.711   2.179   3.402
19216TIP3    H257526   0.852   2.131   3.428
19217TIP3   OH257527   1.092   5.464   1.539
19217TIP3    H157528   1.015   5.406   1.535
19217TIP3    H257529   1.165   5.409   1.510
19218TIP3   OH257530   8.186   1.999   4.265
19218TIP3    H157531   8.108   2.004   4.211
19218TIP3    H257532   8.196   1.906   4.283
19219TIP3   OH257533   7.958   3.228   4.566
19219TIP3    H157534   8.013   3.292   4.612
19219TIP3    H257535   7.869   3.261   4.577
19220TIP3   OH257536   0.793   7.977   2.056
19220TIP3    H157537   0.824   8.025   1.979
19220TIP3    H257538   0.701   8.002   2.065
19221TIP3   OH257539   5.897   3.797   2.108
19221TIP3    H157540   5.839   3.723   2.089
19221TIP3    H257541   5.921   3.832   2.022
19222TIP3   OH257542   4.957   1.803   5.913
19222TIP3    H157543   4.928   1.760   5.832
19222TIP3    H257544   4.946   1.736   5.980
19223TIP3   OH257545   5.578   8.740   4.879
19223TIP3    H157546   5.575   8.825   4.924
19223TIP3    H257547   5.608   8.679   4.946
19224TIP3   OH257548   0.117   7.520   1.740
19224TIP3    H157549   0.141   7.600   1.787
19224TIP3    H257550   0.025   7.531   1.718
19225TIP3   OH257551   5.950   8.190   6.535
19225TIP3    H157552   6.029   8.227   6.496
19225TIP3    H257553   5.965   8.095   6.534
19226TIP3   OH257554   4.563   4.284   0.650
19226TIP3    H157555   4.560   4.206   0.705
19226TIP3    H257556   4.639   4.332   0.683
19227TIP3   OH257557   0.197   8.641   2.367
19227TIP3    H157558   0.132   8.584   2.409
19227TIP3    H257559   0.145   8.707   2.322
19228TIP3   OH257560   2.512   3.936   6.730
19228TIP3    H157561   2.602   3.948   6.698
19228TIP3    H257562   2.512   3.977   6.816
19229TIP3   OH257563   7.651   4.091   6.749
19229TIP3    H157564   7.742   4.100   6.718
19229TIP3    H257565   7.644   4.154   6.821
19230TIP3   OH257566   0.310   6.059   4.249
19230TIP3    H157567   0.300   6.095   4.337
19230TIP3    H257568   0.233   6.090   4.202
19231TIP3   OH257569   7.789   3.406   0.592
19231TIP3    H157570   7.723   3.407   0.661
19231TIP3    H257571   7.761   3.336   0.533
19232TIP3   OH257572   5.966   7.832   3.044
19232TIP3    H157573   5.984   7.866   3.131
19232TIP3    H257574   5.874   7.806   3.047
19233TIP3   OH257575   3.638   6.733   0.817
19233TIP3    H157576   3.718   6.784   0.801
19233TIP3    H257577   3.575   6.766   0.753
19234TIP3   OH257578   6.466   6.021   7.582
19234TIP3    H157579   6.403   5.983   7.520
19234TIP3    H257580   6.414   6.080   7.636
19235TIP3   OH257581   1.102   4.415   1.457
19235TIP3    H157582   1.198   4.411   1.454
19235TIP3    H257583   1.077   4.346   1.518
19236TIP3   OH257584   1.502   5.315   4.261
19236TIP3    H157585   1.532   5.229   4.228
19236TIP3    H257586   1.582   5.358   4.291
19237TIP3   OH257587   5.913   5.700   7.700
19237TIP3    H157588   5.964   5.645   7.760
19237TIP3    H257589   5.824   5.697   7.734
19238TIP3   OH257590   3.729   2.621   3.709
19238TIP3    H157591   3.760   2.615   3.799
19238TIP3    H257592   3.805   2.653   3.660
19239TIP3   OH257593   5.520   7.410   5.159
19239TIP3    H157594   5.518   7.420   5.064
19239TIP3    H257595   5.428   7.412   5.186
19240TIP3   OH257596   1.029   2.737   3.917
19240TIP3    H157597   0.943   2.747   3.956
19240TIP3    H257598   1.088   2.724   3.991
19241TIP3   OH257599   6.154   0.151   4.370
19241TIP3    H157600   6.104   0.204   4.308
19241TIP3    H257601   6.229   0.206   4.395
19242TIP3   OH257602   8.831   7.972   1.046
19242TIP3    H157603   8.768   7.996   1.114
19242TIP3    H257604   8.792   8.003   0.964
19243TIP3   OH257605   5.797   7.841   0.736
19243TIP3    H157606   5.880   7.833   0.782
19243TIP3    H257607   5.803   7.924   0.688
19244TIP3   OH257608   6.649   0.332   5.494
19244TIP3    H157609   6.673   0.251   5.450
19244TIP3    H257610   6.655   0.311   5.587
19245TIP3   OH257611   6.120   7.375   5.103
19245TIP3    H157612   6.030   7.349   5.083
19245TIP3    H257613   6.112   7.465   5.136
19246TIP3   OH257614   6.738   3.911   6.014
19246TIP3    H157615   6.790   3.888   5.937
19246TIP3    H257616   6.727   4.006   6.008
19247TIP3   OH257617   4.569   0.654   4.072
19247TIP3    H157618   4.500   0.587   4.077
19247TIP3    H257619   4.616   0.646   4.155
19248TIP3   OH257620   2.236   3.098   2.344
19248TIP3    H157621   2.186   3.177   2.326
19248TIP3    H257622   2.310   3.128   2.397
19249TIP3   OH257623   3.568   8.177   7.775
19249TIP3    H157624   3.510   8.101   7.782
19249TIP3    H257625   3.655   8.139   7.760
19250TIP3   OH257626   3.177   7.233   1.192
19250TIP3    H157627   3.150   7.168   1.128
19250TIP3    H257628   3.268   7.253   1.169
19251TIP3   OH257629   5.227   3.991   4.021
19251TIP3    H157630   5.320   4.009   4.038
19251TIP3    H257631   5.224   3.967   3.929
19252TIP3   OH257632   2.320   5.411   3.690
19252TIP3    H157633   2.231   5.427   3.721
19252TIP3    H257634   2.355   5.498   3.670
19253TIP3   OH257635   1.619   0.536   4.232
19253TIP3    H157636   1.550   0.470   4.234
19253TIP3    H257637   1.576   0.614   4.195
19254TIP3   OH257638   8.419   2.877   6.661
19254TIP3    H157639   8.460   2.816   6.600
19254TIP3    H257640   8.325   2.862   6.650
19255TIP3   OH257641   7.072   1.892   3.223
19255TIP3    H157642   7.135   1.953   3.184
19255TIP3    H257643   7.014   1.948   3.275
19256TIP3   OH257644   0.124   8.391   5.536
19256TIP3    H157645   0.130   8.482   5.564
19256TIP3    H257646   0.186   8.345   5.592
19257TIP3   OH257647   0.694   1.791   5.281
19257TIP3    H157648   0.657   1.850   5.347
19257TIP3    H257649   0.631   1.794   5.209
19258TIP3   OH257650   4.622   8.489   3.462
19258TIP3    H157651   4.702   8.464   3.507
19258TIP3    H257652   4.602   8.416   3.404
19259TIP3   OH257653   9.044   4.225   3.842
19259TIP3    H157654   8.966   4.262   3.883
19259TIP3    H257655   9.010   4.182   3.763
19260TIP3   OH257656   7.621   2.213   0.300
19260TIP3    H157657   7.561   2.202   0.373
19260TIP3    H257658   7.589   2.152   0.233
19261TIP3   OH257659   8.071   2.675   5.781
19261TIP3    H157660   8.084   2.674   5.876
19261TIP3    H257661   8.160   2.677   5.746
19262TIP3   OH257662   6.684   0.695   3.491
19262TIP3    H157663   6.749   0.678   3.423
19262TIP3    H257664   6.615   0.744   3.446
19263TIP3   OH257665   5.256   8.661   6.967
19263TIP3    H157666   5.199   8.733   6.993
19263TIP3    H257667   5.198   8.600   6.920
19264TIP3   OH257668   2.239   8.270   1.889
19264TIP3    H157669   2.238   8.192   1.943
19264TIP3    H257670   2.291   8.245   1.812
19265TIP3   OH257671   8.462   0.038   1.601
19265TIP3    H157672   8.369   0.040   1.579
19265TIP3    H257673   8.505   0.083   1.529
19266TIP3   OH257674   1.921   8.854   7.239
19266TIP3    H157675   1.926   8.799   7.161
19266TIP3    H257676   1.836   8.835   7.277
19267TIP3   OH257677   2.324   0.094   3.359
19267TIP3    H157678   2.370   0.047   3.289
19267TIP3    H257679   2.306   0.180   3.323
19268TIP3   OH257680   7.906   6.020   4.125
19268TIP3    H157681   7.953   6.103   4.114
19268TIP3    H257682   7.841   6.020   4.055
19269TIP3   OH257683   6.516   5.711   0.020
19269TIP3    H157684   6.504   5.756  -0.063
19269TIP3    H257685   6.451   5.641   0.019
19270TIP3   OH257686   7.552   5.739   7.262
19270TIP3    H157687   7.517   5.708   7.345
19270TIP3    H257688   7.639   5.699   7.256
19271TIP3   OH257689   2.435   6.610   2.709
19271TIP3    H157690   2.517   6.564   2.695
19271TIP3    H257691   2.440   6.687   2.652
19272TIP3   OH257692   1.805   5.199   4.139
19272TIP3    H157693   1.767   5.214   4.052
19272TIP3    H257694   1.859   5.120   4.129
19273TIP3   OH257695   4.952   4.889   4.272
19273TIP3    H157696   4.942   4.977   4.237
19273TIP3    H257697   4.863   4.852   4.269
19274TIP3   OH257698   3.804   8.932   0.941
19274TIP3    H157699   3.882   8.877   0.928
19274TIP3    H257700   3.833   9.019   0.916
19275TIP3   OH257701   2.264   1.437   4.150
19275TIP3    H157702   2.178   1.431   4.190
19275TIP3    H257703   2.288   1.529   4.158
19276TIP3   OH257704   9.331   4.906   5.025
19276TIP3    H157705   9.303   4.990   5.061
19276TIP3    H257706   9.249   4.860   5.006
19277TIP3   OH257707   1.126   4.681   6.786
19277TIP3    H157708   1.219   4.681   6.808
19277TIP3    H257709   1.122   4.696   6.692
19278TIP3   OH257710   3.140   0.149   1.695
19278TIP3    H157711   3.054   0.187   1.712
19278TIP3    H257712   3.145   0.142   1.600
19279TIP3   OH257713   1.055   5.992   0.600
19279TIP3    H157714   1.089   5.951   0.520
19279TIP3    H257715   1.133   6.009   0.652
19280TIP3   OH257716   3.276   6.228   1.697
19280TIP3    H157717   3.345   6.286   1.665
19280TIP3    H257718   3.301   6.209   1.788
19281TIP3   OH257719   2.141   8.058   6.855
19281TIP3    H157720   2.166   8.128   6.795
19281TIP3    H257721   2.046   8.066   6.863
19282TIP3   OH257722   2.314   7.191   6.839
19282TIP3    H157723   2.249   7.248   6.878
19282TIP3    H257724   2.337   7.233   6.756
19283TIP3   OH257725   3.347   2.901   1.428
19283TIP3    H157726   3.321   2.818   1.468
19283TIP3    H257727   3.336   2.887   1.334
19284TIP3   OH257728   3.229   8.004   2.143
19284TIP3    H157729   3.170   7.969   2.077
19284TIP3    H257730   3.261   7.927   2.190
19285TIP3   OH257731   1.701   4.012   4.674
19285TIP3    H157732   1.779   3.967   4.706
19285TIP3    H257733   1.690   4.085   4.734
19286TIP3   OH257734   7.197   1.398   5.326
19286TIP3    H157735   7.217   1.348   5.246
19286TIP3    H257736   7.275   1.389   5.380
19287TIP3   OH257737   1.117   3.088   0.409
19287TIP3    H157738   1.084   3.174   0.436
19287TIP3    H257739   1.074   3.026   0.468
19288TIP3   OH257740   6.343   1.119   6.971
19288TIP3    H157741   6.378   1.031   6.983
19288TIP3    H257742   6.375   1.168   7.048
19289TIP3   OH257743   3.405   4.087   1.783
19289TIP3    H157744   3.432   4.001   1.750
19289TIP3    H257745   3.485   4.138   1.786
19290TIP3   OH257746   9.472   6.255   7.247
19290TIP3    H157747   9.484   6.349   7.257
19290TIP3    H257748   9.420   6.246   7.167
19291TIP3   OH257749   3.009   1.503   2.517
19291TIP3    H157750   3.060   1.495   2.597
19291TIP3    H257751   2.918   1.500   2.547
19292TIP3   OH257752   4.707   3.823   5.740
19292TIP3    H157753   4.741   3.883   5.806
19292TIP3    H257754   4.615   3.849   5.729
19293TIP3   OH257755   0.205   4.777   1.761
19293TIP3    H157756   0.205   4.863   1.721
19293TIP3    H257757   0.156   4.722   1.700
19294TIP3   OH257758   6.254   3.565   2.913
19294TIP3    H157759   6.282   3.483   2.955
19294TIP3    H257760   6.226   3.620   2.986
19295TIP3   OH257761   2.000   4.920   5.423
19295TIP3    H157762   1.933   4.966   5.373
19295TIP3    H257763   1.952   4.881   5.497
19296TIP3   OH257764   4.374   0.372   3.784
19296TIP3    H157765   4.394   0.381   3.691
19296TIP3    H257766   4.459   0.357   3.826
19297TIP3   OH257767   6.881   6.131   0.874
19297TIP3    H157768   6.951   6.114   0.810
19297TIP3    H257769   6.927   6.162   0.952
19298TIP3   OH257770   8.878   4.219   7.004
19298TIP3    H157771   8.802   4.171   6.971
19298TIP3    H257772   8.953   4.179   6.960
19299TIP3   OH257773   8.423   1.818   7.356
19299TIP3    H157774   8.393   1.895   7.307
19299TIP3    H257775   8.471   1.854   7.430
19300TIP3   OH257776   5.165   8.895   5.401
19300TIP3    H157777   5.164   8.957   5.328
19300TIP3    H257778   5.251   8.854   5.396
19301TIP3   OH257779   7.819   4.065   5.991
19301TIP3    H157780   7.740   4.025   5.955
19301TIP3    H257781   7.839   4.138   5.931
19302TIP3   OH257782   0.784   1.685   7.544
19302TIP3    H157783   0.735   1.761   7.572
19302TIP3    H257784   0.739   1.610   7.584
19303TIP3   OH257785   0.922   0.586   0.190
19303TIP3    H157786   0.840   0.635   0.182
19303TIP3    H257787   0.905   0.523   0.260
19304TIP3   OH257788   4.989   8.712   3.855
19304TIP3    H157789   4.933   8.752   3.920
19304TIP3    H257790   5.054   8.663   3.906
19305TIP3   OH257791   4.351   7.443   6.693
19305TIP3    H157792   4.304   7.454   6.776
19305TIP3    H257793   4.337   7.525   6.646
19306TIP3   OH257794   6.910   2.467   6.276
19306TIP3    H157795   6.901   2.478   6.181
19306TIP3    H257796   6.840   2.406   6.300
19307TIP3   OH257797   0.637   1.661   2.379
19307TIP3    H157798   0.645   1.692   2.469
19307TIP3    H257799   0.604   1.736   2.330
19308TIP3   OH257800   1.192   3.120   2.394
19308TIP3    H157801   1.275   3.124   2.347
19308TIP3    H257802   1.206   3.174   2.472
19309TIP3   OH257803   7.004   7.725   4.621
19309TIP3    H157804   7.047   7.718   4.536
19309TIP3    H257805   7.068   7.770   4.677
19310TIP3   OH257806   8.258   7.666   1.145
19310TIP3    H157807   8.336   7.619   1.117
19310TIP3    H257808   8.263   7.664   1.241
19311TIP3   OH257809   1.179   8.194   3.761
19311TIP3    H157810   1.149   8.116   3.715
19311TIP3    H257811   1.104   8.221   3.814
19312TIP3   OH257812   9.549   5.208   2.060
19312TIP3    H157813   9.631   5.251   2.037
19312TIP3    H257814   9.508   5.268   2.124
19313TIP3   OH257815   5.682   2.112   2.680
19313TIP3    H157816   5.728   2.057   2.617
19313TIP3    H257817   5.750   2.141   2.741
19314TIP3   OH257818   6.532   2.978   6.640
19314TIP3    H157819   6.463   2.931   6.594
19314TIP3    H257820   6.614   2.946   6.602
19315TIP3   OH257821   3.361   5.605   4.423
19315TIP3    H157822   3.446   5.624   4.462
19315TIP3    H257823   3.360   5.510   4.413
19316TIP3   OH257824   2.733   1.978   1.793
19316TIP3    H157825   2.719   2.073   1.795
19316TIP3    H257826   2.678   1.947   1.720
19317TIP3   OH257827   8.409   8.990   6.086
19317TIP3    H157828   8.436   9.044   6.011
19317TIP3    H257829   8.459   9.026   6.160
19318TIP3   OH257830   5.665   7.179   1.071
19318TIP3    H157831   5.600   7.110   1.083
19318TIP3    H257832   5.713   7.154   0.992
19319TIP3   OH257833   8.925   6.122   7.490
19319TIP3    H157834   8.955   6.205   7.455
19319TIP3    H257835   8.848   6.100   7.437
19320TIP3   OH257836   1.247   3.565   4.210
19320TIP3    H157837   1.253   3.531   4.299
19320TIP3    H257838   1.261   3.489   4.154
19321TIP3   OH257839   4.913   8.878   6.069
19321TIP3    H157840   4.940   8.819   5.999
19321TIP3    H257841   4.836   8.923   6.036
19322TIP3   OH257842   2.384   8.439   2.085
19322TIP3    H157843   2.342   8.392   2.012
19322TIP3    H257844   2.465   8.474   2.047
19323TIP3   OH257845   4.340   1.284   7.257
19323TIP3    H157846   4.365   1.244   7.340
19323TIP3    H257847   4.276   1.224   7.219
19324TIP3   OH257848   5.154   1.424   5.421
19324TIP3    H157849   5.177   1.475   5.498
19324TIP3    H257850   5.095   1.356   5.454
19325TIP3   OH257851   9.202   2.287   3.110
19325TIP3    H157852   9.258   2.283   3.188
19325TIP3    H257853   9.130   2.345   3.135
19326TIP3   OH257854   7.305   5.936   5.026
19326TIP3    H157855   7.370   6.005   5.041
19326TIP3    H257856   7.323   5.906   4.937
19327TIP3   OH257857   8.664   2.078   0.193
19327TIP3    H157858   8.650   2.035   0.108
19327TIP3    H257859   8.611   2.158   0.188
19328TIP3   OH257860   4.835   5.674   3.641
19328TIP3    H157861   4.903   5.656   3.577
19328TIP3    H257862   4.804   5.588   3.669
19329TIP3   OH257863   9.247   6.030   4.190
19329TIP3    H157864   9.338   6.054   4.175
19329TIP3    H257865   9.250   5.950   4.241
19330TIP3   OH257866   7.643   5.118   5.403
19330TIP3    H157867   7.632   5.046   5.342
19330TIP3    H257868   7.657   5.195   5.348
19331TIP3   OH257869   5.006   6.319   4.944
19331TIP3    H157870   5.017   6.274   5.027
19331TIP3    H257871   4.921   6.362   4.951
19332TIP3   OH257872   7.218   7.620   2.988
19332TIP3    H157873   7.297   7.575   3.019
19332TIP3    H257874   7.201   7.687   3.053
19333TIP3   OH257875   6.519   1.442   3.522
19333TIP3    H157876   6.530   1.533   3.494
19333TIP3    H257877   6.446   1.444   3.584
19334TIP3   OH257878   0.703   4.792   0.259
19334TIP3    H157879   0.774   4.751   0.209
19334TIP3    H257880   0.743   4.871   0.295
19335TIP3   OH257881   5.982   4.012   0.634
19335TIP3    H157882   6.017   3.948   0.572
19335TIP3    H257883   6.008   3.979   0.720
19336TIP3   OH257884   0.577   0.742   6.927
19336TIP3    H157885   0.553   0.670   6.869
19336TIP3    H257886   0.494   0.770   6.965
19337TIP3   OH257887   8.438   8.258   3.182
19337TIP3    H157888   8.441   8.164   3.165
19337TIP3    H257889   8.452   8.266   3.276
19338TIP3   OH257890   9.186   7.101   3.700
19338TIP3    H157891   9.228   7.171   3.750
19338TIP3    H257892   9.099   7.093   3.738
19339TIP3   OH257893   1.486   2.858   4.068
19339TIP3    H157894   1.498   2.929   4.131
19339TIP3    H257895   1.538   2.785   4.102
19340TIP3   OH257896   3.326   6.504   6.611
19340TIP3    H157897   3.391   6.547   6.668
19340TIP3    H257898   3.340   6.410   6.627
19341TIP3   OH257899   6.683   0.589   2.287
19341TIP3    H157900   6.653   0.501   2.311
19341TIP3    H257901   6.778   0.583   2.290
19342TIP3   OH257902   6.525   5.104   1.945
19342TIP3    H157903   6.538   5.032   2.007
19342TIP3    H257904   6.609   5.150   1.943
19343TIP3   OH257905   9.306   8.143   6.770
19343TIP3    H157906   9.354   8.208   6.719
19343TIP3    H257907   9.265   8.193   6.841
19344TIP3   OH257908   5.441   5.238   2.131
19344TIP3    H157909   5.411   5.174   2.067
19344TIP3    H257910   5.463   5.315   2.078
19345TIP3   OH257911   4.751   6.602   6.673
19345TIP3    H157912   4.676   6.601   6.615
19345TIP3    H257913   4.782   6.511   6.674
19346TIP3   OH257914   1.789   6.701   2.074
19346TIP3    H157915   1.697   6.682   2.091
19346TIP3    H257916   1.836   6.623   2.105
19347TIP3   OH257917   1.161   8.799   1.216
19347TIP3    H157918   1.112   8.739   1.273
19347TIP3    H257919   1.135   8.886   1.245
19348TIP3   OH257920   4.349   6.805   5.215
19348TIP3    H157921   4.342   6.852   5.298
19348TIP3    H257922   4.442   6.785   5.206
19349TIP3   OH257923   3.748   2.180   5.370
19349TIP3    H157924   3.820   2.227   5.412
19349TIP3    H257925   3.669   2.215   5.411
19350TIP3   OH257926   7.870   6.595   2.944
19350TIP3    H157927   7.791   6.641   2.974
19350TIP3    H257928   7.912   6.565   3.025
19351TIP3   OH257929   2.141   3.364   2.297
19351TIP3    H157930   2.108   3.446   2.334
19351TIP3    H257931   2.062   3.316   2.271
19352TIP3   OH257932   0.568   3.128   6.519
19352TIP3    H157933   0.512   3.202   6.498
19352TIP3    H257934   0.528   3.088   6.596
19353TIP3   OH257935   3.219   0.933   5.780
19353TIP3    H157936   3.207   0.838   5.774
19353TIP3    H257937   3.304   0.944   5.822
19354TIP3   OH257938   0.352   5.322   0.440
19354TIP3    H157939   0.373   5.348   0.351
19354TIP3    H257940   0.425   5.267   0.468
19355TIP3   OH257941   3.308   8.576   3.556
19355TIP3    H157942   3.370   8.506   3.534
19355TIP3    H257943   3.222   8.536   3.543
19356TIP3   OH257944   0.285   1.871   0.933
19356TIP3    H157945   0.348   1.880   1.005
19356TIP3    H257946   0.245   1.958   0.926
19357TIP3   OH257947   3.565   0.905   3.282
19357TIP3    H157948   3.660   0.909   3.284
19357TIP3    H257949   3.538   0.944   3.366
19358TIP3   OH257950   5.695   8.648   5.790
19358TIP3    H157951   5.770   8.590   5.789
19358TIP3    H257952   5.634   8.610   5.727
19359TIP3   OH257953   9.533   4.713   4.467
19359TIP3    H157954   9.550   4.726   4.561
19359TIP3    H257955   9.587   4.781   4.425
19360TIP3   OH257956   2.050   1.153   5.106
19360TIP3    H157957   2.095   1.222   5.155
19360TIP3    H257958   2.051   1.077   5.164
19361TIP3   OH257959   7.320   0.214   5.367
19361TIP3    H157960   7.410   0.183   5.360
19361TIP3    H257961   7.301   0.214   5.461
19362TIP3   OH257962   9.080   0.795   6.847
19362TIP3    H157963   9.134   0.794   6.768
19362TIP3    H257964   9.093   0.709   6.887
19363TIP3   OH257965   0.036   0.825   0.972
19363TIP3    H157966  -0.004   0.910   0.994
19363TIP3    H257967  -0.024   0.761   1.010
19364TIP3   OH257968   2.622   6.422   2.904
19364TIP3    H157969   2.647   6.422   2.811
19364TIP3    H257970   2.619   6.330   2.928
19365TIP3   OH257971   3.638   1.771   2.395
19365TIP3    H157972   3.636   1.676   2.407
19365TIP3    H257973   3.680   1.783   2.310
19366TIP3   OH257974   7.078   8.938   6.698
19366TIP3    H157975   6.990   8.955   6.731
19366TIP3    H257976   7.136   8.982   6.760
19367TIP3   OH257977   1.131   6.510   4.411
19367TIP3    H157978   1.136   6.470   4.324
19367TIP3    H257979   1.051   6.561   4.410
19368TIP3   OH257980   1.567   8.305   3.072
19368TIP3    H157981   1.608   8.380   3.030
19368TIP3    H257982   1.506   8.271   3.007
19369TIP3   OH257983   5.402   2.282   4.605
19369TIP3    H157984   5.461   2.356   4.592
19369TIP3    H257985   5.319   2.311   4.569
19370TIP3   OH257986   8.695   3.788   0.041
19370TIP3    H157987   8.613   3.796  -0.007
19370TIP3    H257988   8.763   3.790  -0.027
19371TIP3   OH257989   0.078   3.211   2.927
19371TIP3    H157990   0.147   3.149   2.905
19371TIP3    H257991   0.117   3.267   2.995
19372TIP3   OH257992   5.719   8.430   6.132
19372TIP3    H157993   5.758   8.413   6.046
19372TIP3    H257994   5.699   8.524   6.131
19373TIP3   OH257995   0.918   1.280   2.363
19373TIP3    H157996   0.855   1.326   2.306
19373TIP3    H257997   0.972   1.350   2.399
19374TIP3   OH257998   7.387   7.601   4.402
19374TIP3    H157999   7.440   7.525   4.379
19374TIP3    H258000   7.297   7.569   4.397
19375TIP3   OH258001   4.782   2.037   6.415
19375TIP3    H158002   4.807   2.029   6.507
19375TIP3    H258003   4.726   1.961   6.399
19376TIP3   OH258004   0.388   2.220   1.424
19376TIP3    H158005   0.402   2.242   1.516
19376TIP3    H258006   0.423   2.295   1.376
19377TIP3   OH258007   0.285   0.256   5.430
19377TIP3    H158008   0.206   0.209   5.405
19377TIP3    H258009   0.357   0.198   5.406
19378TIP3   OH258010   6.800   6.354   3.794
19378TIP3    H158011   6.866   6.419   3.771
19378TIP3    H258012   6.820   6.278   3.739
19379TIP3   OH258013   0.569   5.440   6.905
19379TIP3    H158014   0.600   5.504   6.969
19379TIP3    H258015   0.548   5.362   6.956
19380TIP3   OH258016   3.887   4.022   7.117
19380TIP3    H158017   3.838   3.948   7.080
19380TIP3    H258018   3.956   4.039   7.054
19381TIP3   OH258019   8.155   5.714   0.117
19381TIP3    H158020   8.172   5.625   0.087
19381TIP3    H258021   8.099   5.752   0.050
19382TIP3   OH258022   2.391   7.918   2.135
19382TIP3    H158023   2.326   7.987   2.122
19382TIP3    H258024   2.408   7.884   2.047
19383TIP3   OH258025   0.862   8.198   2.222
19383TIP3    H158026   0.934   8.258   2.204
19383TIP3    H258027   0.839   8.160   2.137
19384TIP3   OH258028   9.278   6.208   5.853
19384TIP3    H158029   9.216   6.213   5.926
19384TIP3    H258030   9.259   6.285   5.799
19385TIP3   OH258031   4.846   5.431   5.438
19385TIP3    H158032   4.870   5.444   5.530
19385TIP3    H258033   4.851   5.519   5.400
19386TIP3   OH258034   0.024   7.760   7.763
19386TIP3    H158035   0.103   7.772   7.816
19386TIP3    H258036  -0.009   7.674   7.788
19387TIP3   OH258037   0.290   7.596   1.195
19387TIP3    H158038   0.275   7.554   1.280
19387TIP3    H258039   0.225   7.557   1.137
19388TIP3   OH258040   2.902   1.455   1.996
19388TIP3    H158041   2.837   1.396   2.036
19388TIP3    H258042   2.867   1.472   1.908
19389TIP3   OH258043   1.470   6.780   1.878
19389TIP3    H158044   1.467   6.776   1.974
19389TIP3    H258045   1.441   6.868   1.857
19390TIP3   OH258046   3.964   8.392   6.484
19390TIP3    H158047   3.926   8.405   6.397
19390TIP3    H258048   3.985   8.298   6.487
19391TIP3   OH258049   4.377   5.890   2.342
19391TIP3    H158050   4.378   5.817   2.280
19391TIP3    H258051   4.470   5.906   2.361
19392TIP3   OH258052   4.451   8.699   0.454
19392TIP3    H158053   4.439   8.658   0.540
19392TIP3    H258054   4.505   8.776   0.471
19393TIP3   OH258055   6.794   5.161   7.754
19393TIP3    H158056   6.834   5.115   7.681
19393TIP3    H258057   6.709   5.118   7.767
19394TIP3   OH258058   9.202   4.261   0.685
19394TIP3    H158059   9.279   4.204   0.687
19394TIP3    H258060   9.235   4.347   0.711
19395TIP3   OH258061   1.251   7.993   3.152
19395TIP3    H158062   1.176   8.046   3.181
19395TIP3    H258063   1.303   7.982   3.232
19396TIP3   OH258064   9.473   6.461   5.942
19396TIP3    H158065   9.400   6.522   5.941
19396TIP3    H258066   9.549   6.513   5.970
19397TIP3   OH258067   2.495   4.910   1.663
19397TIP3    H158068   2.516   4.997   1.699
19397TIP3    H258069   2.577   4.862   1.666
19398TIP3   OH258070   5.640   3.682   0.591
19398TIP3    H158071   5.709   3.682   0.657
19398TIP3    H258072   5.686   3.676   0.508
19399TIP3   OH258073   5.072   3.501   4.913
19399TIP3    H158074   5.141   3.438   4.934
19399TIP3    H258075   4.990   3.452   4.924
19400TIP3   OH258076   0.709   0.436   4.458
19400TIP3    H158077   0.773   0.491   4.413
19400TIP3    H258078   0.640   0.421   4.392
19401TIP3   OH258079   2.028   1.528   6.217
19401TIP3    H158080   2.004   1.537   6.125
19401TIP3    H258081   1.946   1.537   6.265
19402TIP3   OH258082   2.717   3.638   6.849
19402TIP3    H158083   2.676   3.551   6.848
19402TIP3    H258084   2.777   3.637   6.774
19403TIP3   OH258085   2.271   4.928   5.991
19403TIP3    H158086   2.257   4.929   5.896
19403TIP3    H258087   2.366   4.934   6.001
19404TIP3   OH258088   5.437   0.350   2.424
19404TIP3    H158089   5.500   0.419   2.403
19404TIP3    H258090   5.359   0.398   2.452
19405TIP3   OH258091   0.518   4.416   6.023
19405TIP3    H158092   0.445   4.355   6.017
19405TIP3    H258093   0.530   4.430   6.117
19406TIP3   OH258094   9.113   7.335   2.448
19406TIP3    H158095   9.098   7.404   2.512
19406TIP3    H258096   9.178   7.372   2.388
19407TIP3   OH258097   5.411   5.033   7.618
19407TIP3    H158098   5.339   5.087   7.585
19407TIP3    H258099   5.477   5.096   7.648
19408TIP3   OH258100   2.758   2.213   2.371
19408TIP3    H158101   2.825   2.155   2.406
19408TIP3    H258102   2.707   2.239   2.448
19409TIP3   OH258103   0.379   7.915   5.896
19409TIP3    H158104   0.453   7.947   5.844
19409TIP3    H258105   0.318   7.878   5.833
19410TIP3   OH258106   5.368   6.451   0.377
19410TIP3    H158107   5.301   6.454   0.309
19410TIP3    H258108   5.439   6.399   0.339
19411TIP3   OH258109   5.439   3.445   3.470
19411TIP3    H158110   5.522   3.428   3.425
19411TIP3    H258111   5.447   3.534   3.504
19412TIP3   OH258112   0.605   2.200   6.879
19412TIP3    H158113   0.643   2.191   6.967
19412TIP3    H258114   0.634   2.122   6.832
19413TIP3   OH258115   2.501   3.464   3.937
19413TIP3    H158116   2.593   3.456   3.913
19413TIP3    H258117   2.472   3.374   3.952
19414TIP3   OH258118   3.504   4.290   6.765
19414TIP3    H158119   3.473   4.235   6.693
19414TIP3    H258120   3.580   4.245   6.800
19415TIP3   OH258121   3.457   4.578   5.945
19415TIP3    H158122   3.405   4.552   5.869
19415TIP3    H258123   3.499   4.497   5.974
19416TIP3   OH258124   4.519   2.715   7.011
19416TIP3    H158125   4.613   2.699   7.014
19416TIP3    H258126   4.496   2.710   6.918
19417TIP3   OH258127   5.394   4.217   7.245
19417TIP3    H158128   5.458   4.158   7.285
19417TIP3    H258129   5.317   4.211   7.301
19418TIP3   OH258130   4.595   2.655   2.572
19418TIP3    H158131   4.649   2.585   2.610
19418TIP3    H258132   4.520   2.661   2.630
19419TIP3   OH258133   2.733   2.163   3.585
19419TIP3    H158134   2.710   2.167   3.492
19419TIP3    H258135   2.660   2.115   3.626
19420TIP3   OH258136   9.049   3.149   0.990
19420TIP3    H158137   8.959   3.170   0.967
19420TIP3    H258138   9.048   3.056   1.011
19421TIP3   OH258139   4.445   1.745   3.010
19421TIP3    H158140   4.483   1.822   3.051
19421TIP3    H258141   4.515   1.680   3.011
19422TIP3   OH258142   1.263   1.264   4.536
19422TIP3    H158143   1.286   1.267   4.443
19422TIP3    H258144   1.233   1.175   4.551
19423TIP3   OH258145   4.517   4.801   5.593
19423TIP3    H158146   4.484   4.718   5.558
19423TIP3    H258147   4.459   4.820   5.667
19424TIP3   OH258148   1.659   4.106   2.783
19424TIP3    H158149   1.739   4.056   2.764
19424TIP3    H258150   1.650   4.102   2.878
19425TIP3   OH258151   7.309   0.798   5.789
19425TIP3    H158152   7.346   0.716   5.757
19425TIP3    H258153   7.224   0.773   5.826
19426TIP3   OH258154   2.681   5.283   1.560
19426TIP3    H158155   2.755   5.312   1.613
19426TIP3    H258156   2.653   5.201   1.601
19427TIP3   OH258157   1.318   1.846   3.741
19427TIP3    H158158   1.346   1.914   3.802
19427TIP3    H258159   1.225   1.834   3.759
19428TIP3   OH258160   9.270   5.944   1.649
19428TIP3    H158161   9.362   5.917   1.659
19428TIP3    H258162   9.268   5.989   1.564
19429TIP3   OH258163   8.563   4.298   6.101
19429TIP3    H158164   8.521   4.373   6.145
19429TIP3    H258165   8.530   4.221   6.148
19430TIP3   OH258166   3.401   7.103   2.284
19430TIP3    H158167   3.399   7.189   2.327
19430TIP3    H258168   3.432   7.044   2.352
19431TIP3   OH258169   5.688   4.735   6.902
19431TIP3    H158170   5.711   4.827   6.906
19431TIP3    H258171   5.769   4.690   6.876
19432TIP3   OH258172   4.990   6.602   3.094
19432TIP3    H158173   4.917   6.544   3.115
19432TIP3    H258174   4.971   6.635   3.007
19433TIP3   OH258175   7.502   1.002   2.499
19433TIP3    H158176   7.515   0.941   2.571
19433TIP3    H258177   7.580   1.058   2.500
19434TIP3   OH258178   4.468   3.341   0.071
19434TIP3    H158179   4.540   3.283   0.096
19434TIP3    H258180   4.395   3.315   0.128
19435TIP3   OH258181   0.749   4.151   1.459
19435TIP3    H158182   0.680   4.085   1.456
19435TIP3    H258183   0.820   4.109   1.508
19436TIP3   OH258184   7.786   3.243   2.060
19436TIP3    H158185   7.749   3.321   2.019
19436TIP3    H258186   7.721   3.175   2.047
19437TIP3   OH258187   8.031   6.681   4.164
19437TIP3    H158188   7.971   6.630   4.109
19437TIP3    H258189   8.103   6.703   4.106
19438TIP3   OH258190   4.144   0.409   2.302
19438TIP3    H158191   4.235   0.435   2.287
19438TIP3    H258192   4.120   0.454   2.384
19439TIP3   OH258193   9.109   0.593   1.984
19439TIP3    H158194   9.022   0.574   1.948
19439TIP3    H258195   9.148   0.654   1.921
19440TIP3   OH258196   2.131   1.783   6.607
19440TIP3    H158197   2.194   1.854   6.618
19440TIP3    H258198   2.118   1.748   6.696
19441TIP3   OH258199   2.024   3.336   6.171
19441TIP3    H158200   2.079   3.395   6.223
19441TIP3    H258201   1.940   3.381   6.164
19442TIP3   OH258202   8.909   8.807   4.306
19442TIP3    H158203   8.934   8.763   4.388
19442TIP3    H258204   8.913   8.900   4.327
19443TIP3   OH258205   4.226   8.268   6.217
19443TIP3    H158206   4.311   8.260   6.174
19443TIP3    H258207   4.238   8.340   6.279
19444TIP3   OH258208   5.837   7.613   2.367
19444TIP3    H158209   5.865   7.527   2.399
19444TIP3    H258210   5.743   7.615   2.382
19445TIP3   OH258211   3.896   5.520   5.683
19445TIP3    H158212   3.876   5.454   5.749
19445TIP3    H258213   3.930   5.594   5.733
19446TIP3   OH258214   3.987   8.240   2.270
19446TIP3    H158215   4.031   8.284   2.343
19446TIP3    H258216   3.931   8.308   2.232
19447TIP3   OH258217   5.031   8.573   1.497
19447TIP3    H158218   5.075   8.505   1.446
19447TIP3    H258219   5.051   8.654   1.451
19448TIP3   OH258220   3.759   4.408   5.351
19448TIP3    H158221   3.716   4.354   5.417
19448TIP3    H258222   3.741   4.364   5.268
19449TIP3   OH258223   0.021   1.539   1.232
19449TIP3    H158224   0.076   1.561   1.156
19449TIP3    H258225  -0.013   1.623   1.262
19450TIP3   OH258226   2.673   3.144   2.096
19450TIP3    H158227   2.578   3.156   2.099
19450TIP3    H258228   2.696   3.155   2.003
19451TIP3   OH258229   5.199   8.430   3.091
19451TIP3    H158230   5.230   8.513   3.127
19451TIP3    H258231   5.265   8.407   3.026
19452TIP3   OH258232   6.841   7.323   4.338
19452TIP3    H158233   6.757   7.367   4.327
19452TIP3    H258234   6.894   7.355   4.265
19453TIP3   OH258235   1.412   1.438   7.284
19453TIP3    H158236   1.454   1.512   7.241
19453TIP3    H258237   1.319   1.449   7.266
19454TIP3   OH258238   6.149   8.693   6.483
19454TIP3    H158239   6.172   8.648   6.401
19454TIP3    H258240   6.127   8.623   6.544
19455TIP3   OH258241   9.366   6.907   0.017
19455TIP3    H158242   9.272   6.920   0.032
19455TIP3    H258243   9.382   6.946  -0.069
19456TIP3   OH258244   2.590   7.215   6.208
19456TIP3    H158245   2.658   7.279   6.187
19456TIP3    H258246   2.514   7.268   6.233
19457TIP3   OH258247   2.084   7.510   0.158
19457TIP3    H158248   2.115   7.458   0.232
19457TIP3    H258249   2.081   7.447   0.085
19458TIP3   OH258250   3.165   6.946   2.748
19458TIP3    H158251   3.196   6.974   2.662
19458TIP3    H258252   3.175   7.024   2.803
19459TIP3   OH258253   9.011   1.635   7.466
19459TIP3    H158254   9.097   1.600   7.444
19459TIP3    H258255   8.965   1.641   7.383
19460TIP3   OH258256   3.976   6.192   4.501
19460TIP3    H158257   4.047   6.246   4.534
19460TIP3    H258258   4.014   6.147   4.425
19461TIP3   OH258259   4.159   8.869   2.519
19461TIP3    H158260   4.092   8.805   2.542
19461TIP3    H258261   4.111   8.948   2.497
19462TIP3   OH258262   6.899   1.194   5.960
19462TIP3    H158263   6.898   1.163   5.870
19462TIP3    H258264   6.936   1.282   5.955
19463TIP3   OH258265   7.332   3.834   0.782
19463TIP3    H158266   7.354   3.754   0.734
19463TIP3    H258267   7.270   3.805   0.849
19464TIP3   OH258268   7.351   0.544   5.650
19464TIP3    H158269   7.402   0.501   5.719
19464TIP3    H258270   7.416   0.572   5.586
19465TIP3   OH258271   3.221   7.223   1.461
19465TIP3    H158272   3.186   7.256   1.378
19465TIP3    H258273   3.174   7.273   1.528
19466TIP3   OH258274   0.453   2.164   4.782
19466TIP3    H158275   0.446   2.100   4.711
19466TIP3    H258276   0.366   2.164   4.822
19467TIP3   OH258277   5.931   8.844   4.552
19467TIP3    H158278   5.851   8.859   4.601
19467TIP3    H258279   5.902   8.802   4.471
19468TIP3   OH258280   2.602   6.175   3.041
19468TIP3    H158281   2.562   6.088   3.046
19468TIP3    H258282   2.660   6.179   3.117
19469TIP3   OH258283   4.541   0.653   1.945
19469TIP3    H158284   4.503   0.714   2.007
19469TIP3    H258285   4.511   0.682   1.860
19470TIP3   OH258286   5.804   8.769   6.595
19470TIP3    H158287   5.754   8.699   6.552
19470TIP3    H258288   5.859   8.724   6.659
19471TIP3   OH258289   0.371   8.565   7.358
19471TIP3    H158290   0.432   8.492   7.344
19471TIP3    H258291   0.410   8.617   7.428
19472TIP3   OH258292   0.332   6.810   7.406
19472TIP3    H158293   0.425   6.814   7.382
19472TIP3    H258294   0.298   6.897   7.386
19473TIP3   OH258295   5.128   6.322   2.353
19473TIP3    H158296   5.115   6.413   2.382
19473TIP3    H258297   5.041   6.282   2.363
19474TIP3   OH258298   3.451   6.690   3.175
19474TIP3    H158299   3.403   6.731   3.103
19474TIP3    H258300   3.530   6.655   3.134
19475TIP3   OH258301   9.030   3.547   3.982
19475TIP3    H158302   8.951   3.535   3.929
19475TIP3    H258303   9.076   3.619   3.939
19476TIP3   OH258304   2.447   3.581   0.858
19476TIP3    H158305   2.440   3.606   0.766
19476TIP3    H258306   2.463   3.486   0.856
19477TIP3   OH258307   2.251   6.766   0.144
19477TIP3    H158308   2.194   6.813   0.083
19477TIP3    H258309   2.284   6.834   0.203
19478TIP3   OH258310   7.736   8.817   5.165
19478TIP3    H158311   7.642   8.804   5.166
19478TIP3    H258312   7.750   8.899   5.212
19479TIP3   OH258313   3.287   3.123   3.561
19479TIP3    H158314   3.317   3.200   3.512
19479TIP3    H258315   3.357   3.059   3.550
19480TIP3   OH258316   1.376   1.019   2.810
19480TIP3    H158317   1.403   0.961   2.738
19480TIP3    H258318   1.299   1.064   2.776
19481TIP3   OH258319   0.770   2.446   2.090
19481TIP3    H158320   0.827   2.489   2.154
19481TIP3    H258321   0.687   2.492   2.096
19482TIP3   OH258322   6.649   1.885   3.090
19482TIP3    H158323   6.593   1.877   3.013
19482TIP3    H258324   6.619   1.964   3.134
19483TIP3   OH258325   8.539   2.786   5.473
19483TIP3    H158326   8.597   2.847   5.427
19483TIP3    H258327   8.595   2.745   5.539
19484TIP3   OH258328   6.155   2.184   2.202
19484TIP3    H158329   6.211   2.256   2.174
19484TIP3    H258330   6.086   2.180   2.136
19485TIP3   OH258331   6.083   0.253   5.847
19485TIP3    H158332   6.170   0.270   5.882
19485TIP3    H258333   6.067   0.161   5.867
19486TIP3   OH258334   8.093   3.104   7.633
19486TIP3    H158335   8.127   3.192   7.614
19486TIP3    H258336   8.010   3.121   7.679
19487TIP3   OH258337   1.897   0.510   4.223
19487TIP3    H158338   1.948   0.584   4.190
19487TIP3    H258339   1.807   0.544   4.230
19488TIP3   OH258340   5.740   0.477   5.434
19488TIP3    H158341   5.668   0.491   5.372
19488TIP3    H258342   5.697   0.452   5.515
19489TIP3   OH258343   5.895   0.824   1.638
19489TIP3    H158344   5.814   0.800   1.683
19489TIP3    H258345   5.871   0.829   1.546
19490TIP3   OH258346   1.127   6.530   0.649
19490TIP3    H158347   1.153   6.535   0.741
19490TIP3    H258348   1.093   6.441   0.639
19491TIP3   OH258349   7.069   1.428   6.343
19491TIP3    H158350   7.038   1.337   6.347
19491TIP3    H258351   7.122   1.439   6.422
19492TIP3   OH258352   3.446   8.841   5.527
19492TIP3    H158353   3.524   8.831   5.582
19492TIP3    H258354   3.471   8.802   5.443
19493TIP3   OH258355   6.672   3.424   4.047
19493TIP3    H158356   6.657   3.461   4.135
19493TIP3    H258357   6.673   3.330   4.061
19494TIP3   OH258358   1.273   0.402   5.719
19494TIP3    H158359   1.232   0.470   5.665
19494TIP3    H258360   1.365   0.402   5.691
19495TIP3   OH258361   2.310   3.192   7.074
19495TIP3    H158362   2.264   3.269   7.041
19495TIP3    H258363   2.241   3.126   7.086
19496TIP3   OH258364   5.578   3.025   7.780
19496TIP3    H158365   5.593   3.087   7.708
19496TIP3    H258366   5.660   2.978   7.788
19497TIP3   OH258367   9.472   7.043   5.597
19497TIP3    H158368   9.557   7.055   5.554
19497TIP3    H258369   9.420   7.118   5.569
19498TIP3   OH258370   4.930   4.563   4.181
19498TIP3    H158371   4.857   4.520   4.227
19498TIP3    H258372   4.904   4.562   4.089
19499TIP3   OH258373   7.619   5.627   3.033
19499TIP3    H158374   7.701   5.624   2.983
19499TIP3    H258375   7.579   5.711   3.009
19500TIP3   OH258376   4.158   4.504   6.808
19500TIP3    H158377   4.249   4.475   6.802
19500TIP3    H258378   4.164   4.596   6.834
19501TIP3   OH258379   4.253   6.577   1.362
19501TIP3    H158380   4.292   6.496   1.395
19501TIP3    H258381   4.175   6.549   1.315
19502TIP3   OH258382   0.657   8.000   0.633
19502TIP3    H158383   0.640   7.905   0.637
19502TIP3    H258384   0.748   8.006   0.606
19503TIP3   OH258385   7.487   1.076   3.346
19503TIP3    H158386   7.405   1.040   3.311
19503TIP3    H258387   7.509   1.148   3.286
19504TIP3   OH258388   4.740   0.523   1.265
19504TIP3    H158389   4.687   0.480   1.331
19504TIP3    H258390   4.737   0.616   1.288
19505TIP3   OH258391   4.874   1.809   4.349
19505TIP3    H158392   4.875   1.737   4.287
19505TIP3    H258393   4.781   1.823   4.369
19506TIP3   OH258394   0.623   0.882   3.902
19506TIP3    H158395   0.667   0.940   3.963
19506TIP3    H258396   0.579   0.940   3.840
19507TIP3   OH258397   1.196   8.878   1.803
19507TIP3    H158398   1.232   8.958   1.766
19507TIP3    H258399   1.244   8.865   1.885
19508TIP3   OH258400   0.437   5.083   5.675
19508TIP3    H158401   0.357   5.086   5.728
19508TIP3    H258402   0.490   5.014   5.715
19509TIP3   OH258403   6.741   4.671   1.598
19509TIP3    H158404   6.779   4.728   1.531
19509TIP3    H258405   6.728   4.729   1.673
19510TIP3   OH258406   6.955   5.745   0.299
19510TIP3    H158407   6.969   5.786   0.214
19510TIP3    H258408   7.039   5.705   0.320
19511TIP3   OH258409   7.539   8.855   4.358
19511TIP3    H158410   7.529   8.821   4.270
19511TIP3    H258411   7.456   8.836   4.402
19512TIP3   OH258412   9.020   2.784   4.383
19512TIP3    H158413   9.085   2.851   4.403
19512TIP3    H258414   8.967   2.777   4.462
19513TIP3   OH258415   0.997   1.885   6.591
19513TIP3    H158416   0.950   1.859   6.512
19513TIP3    H258417   0.973   1.820   6.656
19514TIP3   OH258418   3.297   2.871   1.148
19514TIP3    H158419   3.325   2.944   1.093
19514TIP3    H258420   3.296   2.795   1.089
19515TIP3   OH258421   1.257   8.337   1.861
19515TIP3    H158422   1.293   8.315   1.775
19515TIP3    H258423   1.197   8.266   1.882
19516TIP3   OH258424   3.110   6.093   2.076
19516TIP3    H158425   3.093   6.085   1.982
19516TIP3    H258426   3.180   6.030   2.094
19517TIP3   OH258427   5.643   8.536   0.870
19517TIP3    H158428   5.598   8.599   0.815
19517TIP3    H258429   5.736   8.553   0.855
19518TIP3   OH258430   6.042   8.147   2.491
19518TIP3    H158431   6.044   8.088   2.416
19518TIP3    H258432   6.126   8.193   2.487
19519TIP3   OH258433   5.464   4.317   4.297
19519TIP3    H158434   5.477   4.398   4.348
19519TIP3    H258435   5.370   4.299   4.304
19520TIP3   OH258436   0.794   1.348   7.207
19520TIP3    H158437   0.834   1.325   7.123
19520TIP3    H258438   0.701   1.361   7.186
19521TIP3   OH258439   0.165   0.457   1.898
19521TIP3    H158440   0.166   0.531   1.958
19521TIP3    H258441   0.091   0.404   1.926
19522TIP3   OH258442   3.314   4.441   3.431
19522TIP3    H158443   3.324   4.428   3.337
19522TIP3    H258444   3.390   4.396   3.469
19523TIP3   OH258445   4.836   4.774   7.015
19523TIP3    H158446   4.842   4.739   7.104
19523TIP3    H258447   4.905   4.729   6.967
19524TIP3   OH258448   6.313   8.908   3.998
19524TIP3    H158449   6.374   8.846   3.959
19524TIP3    H258450   6.322   8.896   4.093
19525TIP3   OH258451   0.348   5.684   1.064
19525TIP3    H158452   0.343   5.731   1.147
19525TIP3    H258453   0.429   5.715   1.024
19526TIP3   OH258454   1.005   4.062   2.165
19526TIP3    H158455   0.921   4.081   2.123
19526TIP3    H258456   1.052   4.007   2.103
19527TIP3   OH258457   2.554   8.301   4.221
19527TIP3    H158458   2.596   8.387   4.213
19527TIP3    H258459   2.549   8.268   4.132
19528TIP3   OH258460   7.619   4.469   4.263
19528TIP3    H158461   7.546   4.409   4.246
19528TIP3    H258462   7.688   4.441   4.203
19529TIP3   OH258463   6.093   2.787   6.714
19529TIP3    H158464   6.040   2.708   6.717
19529TIP3    H258465   6.163   2.772   6.777
19530TIP3   OH258466   5.625   1.436   4.309
19530TIP3    H158467   5.672   1.364   4.268
19530TIP3    H258468   5.670   1.515   4.279
19531TIP3   OH258469   0.955   2.428   3.992
19531TIP3    H158470   0.994   2.341   4.007
19531TIP3    H258471   1.005   2.486   4.050
19532TIP3   OH258472   2.690   8.979   3.966
19532TIP3    H158473   2.634   9.031   3.910
19532TIP3    H258474   2.630   8.924   4.017
19533TIP3   OH258475   1.862   6.241   1.396
19533TIP3    H158476   1.886   6.230   1.304
19533TIP3    H258477   1.805   6.166   1.414
19534TIP3   OH258478   8.025   0.895   0.733
19534TIP3    H158479   7.935   0.922   0.711
19534TIP3    H258480   8.052   0.956   0.802
19535TIP3   OH258481   6.478   0.972   1.726
19535TIP3    H158482   6.538   0.975   1.801
19535TIP3    H258483   6.415   0.904   1.749
19536TIP3   OH258484   4.122   4.414   7.638
19536TIP3    H158485   4.115   4.400   7.543
19536TIP3    H258486   4.190   4.353   7.666
19537TIP3   OH258487   2.500   4.947   4.814
19537TIP3    H158488   2.448   4.960   4.892
19537TIP3    H258489   2.562   5.020   4.813
19538TIP3   OH258490   6.351   3.820   1.169
19538TIP3    H158491   6.281   3.758   1.184
19538TIP3    H258492   6.415   3.801   1.238
19539TIP3   OH258493   2.010   8.845   3.835
19539TIP3    H158494   1.960   8.925   3.819
19539TIP3    H258495   1.956   8.775   3.800
19540TIP3   OH258496   0.096   0.544   5.147
19540TIP3    H158497   0.144   0.518   5.226
19540TIP3    H258498   0.130   0.486   5.079
19541TIP3   OH258499   6.471   4.585   3.862
19541TIP3    H158500   6.442   4.651   3.799
19541TIP3    H258501   6.530   4.529   3.812
19542TIP3   OH258502   4.236   1.608   5.296
19542TIP3    H158503   4.222   1.527   5.345
19542TIP3    H258504   4.259   1.672   5.364
19543TIP3   OH258505   7.961   1.766   1.070
19543TIP3    H158506   7.986   1.729   1.155
19543TIP3    H258507   7.978   1.860   1.080
19544TIP3   OH258508   8.709   6.401   2.489
19544TIP3    H158509   8.693   6.458   2.564
19544TIP3    H258510   8.627   6.403   2.439
19545TIP3   OH258511   1.595   1.098   4.262
19545TIP3    H158512   1.634   1.080   4.348
19545TIP3    H258513   1.508   1.060   4.267
19546TIP3   OH258514   7.273   5.367   3.186
19546TIP3    H158515   7.273   5.302   3.116
19546TIP3    H258516   7.361   5.364   3.222
19547TIP3   OH258517   1.257   0.266   7.537
19547TIP3    H158518   1.285   0.356   7.520
19547TIP3    H258519   1.222   0.269   7.626
19548TIP3   OH258520   6.199   4.352   5.690
19548TIP3    H158521   6.195   4.329   5.783
19548TIP3    H258522   6.149   4.284   5.646
19549TIP3   OH258523   0.154   6.699   5.015
19549TIP3    H158524   0.163   6.791   4.990
19549TIP3    H258525   0.097   6.700   5.091
19550TIP3   OH258526   9.002   6.097   4.838
19550TIP3    H158527   8.965   6.166   4.783
19550TIP3    H258528   9.092   6.086   4.806
19551TIP3   OH258529   5.607   7.589   7.671
19551TIP3    H158530   5.536   7.578   7.734
19551TIP3    H258531   5.596   7.679   7.639
19552TIP3   OH258532   9.007   8.339   2.504
19552TIP3    H158533   9.096   8.370   2.485
19552TIP3    H258534   9.020   8.257   2.552
19553TIP3   OH258535   6.051   2.750   0.353
19553TIP3    H158536   6.142   2.777   0.350
19553TIP3    H258537   6.054   2.655   0.354
19554TIP3   OH258538   5.240   8.079   2.912
19554TIP3    H158539   5.272   8.134   2.984
19554TIP3    H258540   5.292   8.107   2.836
19555TIP3   OH258541   6.853   7.985   1.804
19555TIP3    H158542   6.799   7.909   1.782
19555TIP3    H258543   6.936   7.949   1.833
19556TIP3   OH258544   1.110   2.127   2.809
19556TIP3    H158545   1.015   2.113   2.814
19556TIP3    H258546   1.121   2.220   2.830
19557TIP3   OH258547   7.738   0.375   2.592
19557TIP3    H158548   7.683   0.318   2.646
19557TIP3    H258549   7.761   0.320   2.517
19558TIP3   OH258550   1.715   8.830   1.110
19558TIP3    H158551   1.634   8.880   1.097
19558TIP3    H258552   1.686   8.740   1.124
19559TIP3   OH258553   7.997   4.617   6.151
19559TIP3    H158554   8.085   4.641   6.122
19559TIP3    H258555   7.978   4.675   6.224
19560TIP3   OH258556   2.181   8.257   3.408
19560TIP3    H158557   2.172   8.293   3.496
19560TIP3    H258558   2.256   8.303   3.370
19561TIP3   OH258559   3.588   8.008   4.724
19561TIP3    H158560   3.591   7.958   4.643
19561TIP3    H258561   3.521   8.074   4.710
19562TIP3   OH258562   7.440   5.692   7.528
19562TIP3    H158563   7.510   5.682   7.593
19562TIP3    H258564   7.364   5.721   7.578
19563TIP3   OH258565   0.447   3.742   2.731
19563TIP3    H158566   0.475   3.668   2.785
19563TIP3    H258567   0.420   3.808   2.794
19564TIP3   OH258568   9.157   2.570   1.884
19564TIP3    H158569   9.227   2.601   1.941
19564TIP3    H258570   9.093   2.641   1.885
19565TIP3   OH258571   3.825   2.885   7.616
19565TIP3    H158572   3.848   2.837   7.536
19565TIP3    H258573   3.731   2.903   7.607
19566TIP3   OH258574   6.513   5.044   2.832
19566TIP3    H158575   6.491   5.037   2.739
19566TIP3    H258576   6.497   4.956   2.867
19567TIP3   OH258577   5.996   6.389   0.758
19567TIP3    H158578   6.010   6.376   0.664
19567TIP3    H258579   6.085   6.394   0.794
19568TIP3   OH258580   7.531   3.791   2.275
19568TIP3    H158581   7.449   3.812   2.320
19568TIP3    H258582   7.587   3.754   2.343
19569TIP3   OH258583   9.152   7.840   6.084
19569TIP3    H158584   9.230   7.829   6.030
19569TIP3    H258585   9.165   7.780   6.158
19570TIP3   OH258586   3.676   3.439   0.541
19570TIP3    H158587   3.687   3.428   0.636
19570TIP3    H258588   3.602   3.382   0.519
19571TIP3   OH258589   2.885   3.974   4.632
19571TIP3    H158590   2.831   3.962   4.709
19571TIP3    H258591   2.974   3.981   4.665
19572TIP3   OH258592   0.427   2.989   3.991
19572TIP3    H158593   0.445   3.001   3.898
19572TIP3    H258594   0.332   2.997   3.998
19573TIP3   OH258595   6.166   9.001   2.185
19573TIP3    H158596   6.132   9.003   2.275
19573TIP3    H258597   6.223   9.078   2.180
19574TIP3   OH258598   2.402   3.821   6.337
19574TIP3    H158599   2.484   3.781   6.308
19574TIP3    H258600   2.335   3.757   6.313
19575TIP3   OH258601   6.318   8.031   5.028
19575TIP3    H158602   6.268   8.092   4.973
19575TIP3    H258603   6.406   8.070   5.033
19576TIP3   OH258604   2.850   8.735   5.608
19576TIP3    H158605   2.771   8.787   5.625
19576TIP3    H258606   2.828   8.648   5.642
19577TIP3   OH258607   0.319   5.867   0.033
19577TIP3    H158608   0.306   5.926  -0.041
19577TIP3    H258609   0.256   5.797   0.019
19578TIP3   OH258610   8.033   8.529   7.045
19578TIP3    H158611   7.993   8.448   7.012
19578TIP3    H258612   7.977   8.599   7.010
19579TIP3   OH258613   5.691   4.353   0.863
19579TIP3    H158614   5.686   4.395   0.948
19579TIP3    H258615   5.711   4.261   0.882
19580TIP3   OH258616   9.037   6.012   0.753
19580TIP3    H158617   9.008   6.071   0.823
19580TIP3    H258618   8.966   5.949   0.744
19581TIP3   OH258619   6.128   7.947   7.675
19581TIP3    H158620   6.160   7.940   7.765
19581TIP3    H258621   6.119   8.041   7.659
19582TIP3   OH258622   2.599   1.497   3.466
19582TIP3    H158623   2.594   1.589   3.439
19582TIP3    H258624   2.521   1.457   3.430
19583TIP3   OH258625   4.462   7.923   0.811
19583TIP3    H158626   4.471   8.018   0.804
19583TIP3    H258627   4.552   7.889   0.803
19584TIP3   OH258628   6.255   8.635   2.460
19584TIP3    H158629   6.326   8.585   2.419
19584TIP3    H258630   6.238   8.706   2.399
19585TIP3   OH258631   5.676   1.967   5.001
19585TIP3    H158632   5.593   1.920   5.014
19585TIP3    H258633   5.693   1.961   4.907
19586TIP3   OH258634   6.426   5.658   1.733
19586TIP3    H158635   6.518   5.678   1.720
19586TIP3    H258636   6.420   5.563   1.724
19587TIP3   OH258637   4.664   0.507   5.991
19587TIP3    H158638   4.690   0.533   5.902
19587TIP3    H258639   4.671   0.587   6.043
19588TIP3   OH258640   7.719   0.282   3.749
19588TIP3    H158641   7.626   0.261   3.747
19588TIP3    H258642   7.758   0.212   3.802
19589TIP3   OH258643   4.389   4.428   0.896
19589TIP3    H158644   4.447   4.386   0.959
19589TIP3    H258645   4.419   4.518   0.891
19590TIP3   OH258646   4.529   0.507   6.656
19590TIP3    H158647   4.497   0.446   6.589
19590TIP3    H258648   4.542   0.589   6.609
19591TIP3   OH258649   6.983   3.350   2.637
19591TIP3    H158650   7.061   3.404   2.627
19591TIP3    H258651   6.943   3.381   2.718
19592TIP3   OH258652   6.995   5.757   1.256
19592TIP3    H158653   7.082   5.795   1.268
19592TIP3    H258654   6.935   5.829   1.277
19593TIP3   OH258655   0.528   6.120   1.052
19593TIP3    H158656   0.527   6.157   0.964
19593TIP3    H258657   0.575   6.184   1.105
19594TIP3   OH258658   2.317   7.966   1.526
19594TIP3    H158659   2.242   7.981   1.468
19594TIP3    H258660   2.339   7.873   1.514
19595TIP3   OH258661   0.436   6.257   3.659
19595TIP3    H158662   0.385   6.290   3.733
19595TIP3    H258663   0.406   6.308   3.584
19596TIP3   OH258664   6.505   6.751   3.661
19596TIP3    H158665   6.462   6.818   3.715
19596TIP3    H258666   6.434   6.692   3.635
19597TIP3   OH258667   2.314   3.521   2.552
19597TIP3    H158668   2.386   3.499   2.493
19597TIP3    H258669   2.249   3.565   2.497
19598TIP3   OH258670   6.331   0.355   0.234
19598TIP3    H158671   6.268   0.423   0.209
19598TIP3    H258672   6.282   0.298   0.293
19599TIP3   OH258673   9.168   3.803   7.370
19599TIP3    H158674   9.147   3.887   7.331
19599TIP3    H258675   9.117   3.739   7.320
19600TIP3   OH258676   6.246   6.255   1.591
19600TIP3    H158677   6.316   6.274   1.654
19600TIP3    H258678   6.284   6.190   1.532
19601TIP3   OH258679   5.393   1.781   4.486
19601TIP3    H158680   5.297   1.788   4.481
19601TIP3    H258681   5.412   1.693   4.455
19602TIP3   OH258682   8.809   2.354   1.109
19602TIP3    H158683   8.841   2.284   1.052
19602TIP3    H258684   8.887   2.405   1.131
19603TIP3   OH258685   8.491   7.659   5.172
19603TIP3    H158686   8.521   7.718   5.103
19603TIP3    H258687   8.440   7.715   5.231
19604TIP3   OH258688   5.798   0.352   1.825
19604TIP3    H158689   5.860   0.381   1.758
19604TIP3    H258690   5.712   0.368   1.787
19605TIP3   OH258691   1.749   4.219   3.045
19605TIP3    H158692   1.792   4.137   3.069
19605TIP3    H258693   1.786   4.285   3.104
19606TIP3   OH258694   1.430   7.005   5.320
19606TIP3    H158695   1.363   6.960   5.373
19606TIP3    H258696   1.480   7.055   5.384
19607TIP3   OH258697   7.699   5.805   1.150
19607TIP3    H158698   7.711   5.896   1.122
19607TIP3    H258699   7.746   5.753   1.085
19608TIP3   OH258700   2.384   3.481   1.293
19608TIP3    H158701   2.345   3.553   1.342
19608TIP3    H258702   2.313   3.418   1.282
19609TIP3   OH258703   5.669   7.039   1.409
19609TIP3    H158704   5.594   7.007   1.360
19609TIP3    H258705   5.655   7.134   1.414
19610TIP3   OH258706   0.868   0.928   7.535
19610TIP3    H158707   0.811   1.003   7.516
19610TIP3    H258708   0.808   0.853   7.537
19611TIP3   OH258709   3.772   2.999   3.348
19611TIP3    H158710   3.686   3.019   3.312
19611TIP3    H258711   3.770   2.905   3.365
19612TIP3   OH258712   0.861   7.572   5.035
19612TIP3    H158713   0.835   7.638   5.098
19612TIP3    H258714   0.843   7.489   5.079
19613TIP3   OH258715   6.326   3.460   5.826
19613TIP3    H158716   6.301   3.431   5.738
19613TIP3    H258717   6.338   3.554   5.818
19614TIP3   OH258718   1.341   8.672   1.578
19614TIP3    H158719   1.389   8.744   1.538
19614TIP3    H258720   1.330   8.698   1.670
19615TIP3   OH258721   9.577   1.342   6.242
19615TIP3    H158722   9.522   1.339   6.163
19615TIP3    H258723   9.527   1.293   6.308
19616TIP3   OH258724   5.677   7.295   4.473
19616TIP3    H158725   5.740   7.224   4.487
19616TIP3    H258726   5.631   7.270   4.392
19617TIP3   OH258727   6.756   6.150   2.853
19617TIP3    H158728   6.668   6.186   2.839
19617TIP3    H258729   6.813   6.200   2.795
19618TIP3   OH258730   7.509   2.429   7.117
19618TIP3    H158731   7.423   2.393   7.096
19618TIP3    H258732   7.551   2.362   7.171
19619TIP3   OH258733   7.609   6.954   7.814
19619TIP3    H158734   7.535   6.943   7.873
19619TIP3    H258735   7.570   6.962   7.728
19620TIP3   OH258736   8.241   3.524   7.401
19620TIP3    H158737   8.304   3.596   7.406
19620TIP3    H258738   8.286   3.455   7.352
19621TIP3   OH258739   9.287   3.528   4.927
19621TIP3    H158740   9.298   3.507   4.835
19621TIP3    H258741   9.192   3.535   4.939
19622TIP3   OH258742   8.309   0.005   7.546
19622TIP3    H158743   8.237  -0.039   7.592
19622TIP3    H258744   8.274   0.024   7.459
19623TIP3   OH258745   9.439   4.956   4.204
19623TIP3    H158746   9.386   5.028   4.239
19623TIP3    H258747   9.493   4.997   4.136
19624TIP3   OH258748   4.967   3.833   3.657
19624TIP3    H158749   5.048   3.861   3.701
19624TIP3    H258750   4.899   3.842   3.723
19625TIP3   OH258751   3.977   2.146   6.127
19625TIP3    H158752   3.883   2.128   6.128
19625TIP3    H258753   3.996   2.172   6.037
19626TIP3   OH258754   8.028   5.513   1.245
19626TIP3    H158755   7.952   5.467   1.279
19626TIP3    H258756   8.093   5.506   1.315
19627TIP3   OH258757   2.517   8.115   7.498
19627TIP3    H158758   2.575   8.086   7.568
19627TIP3    H258759   2.476   8.035   7.465
19628TIP3   OH258760   8.333   2.946   3.329
19628TIP3    H158761   8.327   3.019   3.268
19628TIP3    H258762   8.270   2.882   3.296
19629TIP3   OH258763   9.395   4.412   1.310
19629TIP3    H158764   9.350   4.442   1.231
19629TIP3    H258765   9.469   4.360   1.277
19630TIP3   OH258766   8.756   3.068   3.802
19630TIP3    H158767   8.836   3.098   3.845
19630TIP3    H258768   8.781   2.988   3.758
19631TIP3   OH258769   1.046   5.862   0.883
19631TIP3    H158770   1.037   5.887   0.975
19631TIP3    H258771   0.963   5.889   0.842
19632TIP3   OH258772   4.722   4.440   0.155
19632TIP3    H158773   4.659   4.482   0.214
19632TIP3    H258774   4.750   4.511   0.096
19633TIP3   OH258775   1.540   7.036   2.477
19633TIP3    H158776   1.507   6.965   2.533
19633TIP3    H258777   1.631   7.047   2.503
19634TIP3   OH258778   0.422   1.431   2.154
19634TIP3    H158779   0.384   1.395   2.074
19634TIP3    H258780   0.479   1.502   2.123
19635TIP3   OH258781   5.345   7.335   0.893
19635TIP3    H158782   5.436   7.363   0.885
19635TIP3    H258783   5.316   7.371   0.977
19636TIP3   OH258784   3.016   5.915   7.194
19636TIP3    H158785   2.962   5.989   7.169
19636TIP3    H258786   3.049   5.879   7.111
19637TIP3   OH258787   5.834   6.379   2.907
19637TIP3    H158788   5.890   6.377   2.829
19637TIP3    H258789   5.748   6.352   2.876
19638TIP3   OH258790   7.737   8.080   6.207
19638TIP3    H158791   7.689   8.163   6.207
19638TIP3    H258792   7.790   8.083   6.127
19639TIP3   OH258793   5.053   8.327   0.172
19639TIP3    H158794   4.970   8.372   0.187
19639TIP3    H258795   5.098   8.382   0.108
19640TIP3   OH258796   3.709   6.931   1.699
19640TIP3    H158797   3.767   6.919   1.774
19640TIP3    H258798   3.621   6.928   1.736
19641TIP3   OH258799   8.050   7.940   3.537
19641TIP3    H158800   8.056   7.852   3.576
19641TIP3    H258801   7.956   7.960   3.540
19642TIP3   OH258802   2.827   6.882   0.345
19642TIP3    H158803   2.747   6.857   0.299
19642TIP3    H258804   2.800   6.953   0.403
19643TIP3   OH258805   8.683   7.325   4.126
19643TIP3    H158806   8.642   7.399   4.169
19643TIP3    H258807   8.737   7.285   4.194
19644TIP3   OH258808   1.387   5.312   4.742
19644TIP3    H158809   1.323   5.329   4.811
19644TIP3    H258810   1.371   5.221   4.717
19645TIP3   OH258811   9.387   6.651   0.203
19645TIP3    H158812   9.361   6.704   0.127
19645TIP3    H258813   9.477   6.680   0.221
19646TIP3   OH258814   1.586   6.090   0.444
19646TIP3    H158815   1.646   6.062   0.375
19646TIP3    H258816   1.592   6.020   0.510
19647TIP3   OH258817   6.865   1.894   5.114
19647TIP3    H158818   6.791   1.922   5.059
19647TIP3    H258819   6.934   1.957   5.094
19648TIP3   OH258820   0.781   8.872   2.564
19648TIP3    H158821   0.817   8.907   2.646
19648TIP3    H258822   0.784   8.777   2.575
19649TIP3   OH258823   4.438   5.383   2.053
19649TIP3    H158824   4.363   5.379   2.112
19649TIP3    H258825   4.418   5.455   1.994
19650TIP3   OH258826   7.703   6.316   2.498
19650TIP3    H158827   7.761   6.242   2.513
19650TIP3    H258828   7.722   6.376   2.571
19651TIP3   OH258829   3.465   0.425   4.873
19651TIP3    H158830   3.397   0.488   4.849
19651TIP3    H258831   3.455   0.413   4.967
19652TIP3   OH258832   4.644   1.441   6.635
19652TIP3    H158833   4.657   1.464   6.726
19652TIP3    H258834   4.732   1.429   6.600
19653TIP3   OH258835   1.224   0.392   3.956
19653TIP3    H158836   1.250   0.370   3.867
19653TIP3    H258837   1.143   0.443   3.945
19654TIP3   OH258838   2.210   3.239   7.442
19654TIP3    H158839   2.233   3.322   7.399
19654TIP3    H258840   2.212   3.260   7.535
19655TIP3   OH258841   7.604   6.648   3.915
19655TIP3    H158842   7.585   6.629   3.823
19655TIP3    H258843   7.691   6.611   3.930
19656TIP3   OH258844   1.749   3.226   5.783
19656TIP3    H158845   1.733   3.210   5.690
19656TIP3    H258846   1.662   3.224   5.823
19657TIP3   OH258847   1.222   1.052   5.644
19657TIP3    H158848   1.303   1.081   5.685
19657TIP3    H258849   1.250   0.985   5.582
19658TIP3   OH258850   1.456   0.522   0.572
19658TIP3    H158851   1.532   0.467   0.553
19658TIP3    H258852   1.389   0.493   0.510
19659TIP3   OH258853   6.390   0.726   7.054
19659TIP3    H158854   6.327   0.655   7.040
19659TIP3    H258855   6.372   0.756   7.143
19660TIP3   OH258856   5.171   0.716   3.134
19660TIP3    H158857   5.134   0.788   3.184
19660TIP3    H258858   5.171   0.747   3.043
19661TIP3   OH258859   6.396   0.334   4.654
19661TIP3    H158860   6.350   0.291   4.726
19661TIP3    H258861   6.481   0.291   4.650
19662TIP3   OH258862   5.738   1.550   6.608
19662TIP3    H158863   5.727   1.493   6.685
19662TIP3    H258864   5.830   1.543   6.586
19663TIP3   OH258865   0.016   2.976   1.684
19663TIP3    H158866   0.048   2.955   1.597
19663TIP3    H258867   0.095   2.984   1.738
19664TIP3   OH258868   1.382   1.433   5.625
19664TIP3    H158869   1.304   1.421   5.677
19664TIP3    H258870   1.419   1.345   5.615
19665TIP3   OH258871   7.671   3.782   4.224
19665TIP3    H158872   7.687   3.875   4.239
19665TIP3    H258873   7.642   3.749   4.309
19666TIP3   OH258874   5.662   0.186   2.254
19666TIP3    H158875   5.605   0.193   2.331
19666TIP3    H258876   5.750   0.200   2.288
19667TIP3   OH258877   6.456   4.082   6.798
19667TIP3    H158878   6.377   4.054   6.752
19667TIP3    H258879   6.526   4.074   6.733
19668TIP3   OH258880   4.371   6.621   6.265
19668TIP3    H158881   4.375   6.536   6.221
19668TIP3    H258882   4.278   6.641   6.273
19669TIP3   OH258883   0.697   5.599   4.117
19669TIP3    H158884   0.709   5.672   4.055
19669TIP3    H258885   0.779   5.550   4.111
19670TIP3   OH258886   9.156   8.478   4.466
19670TIP3    H158887   9.195   8.522   4.541
19670TIP3    H258888   9.084   8.426   4.502
19671TIP3   OH258889   8.704   5.808   2.360
19671TIP3    H158890   8.722   5.902   2.367
19671TIP3    H258891   8.734   5.771   2.443
19672TIP3   OH258892   8.645   3.122   3.421
19672TIP3    H158893   8.645   3.109   3.326
19672TIP3    H258894   8.723   3.075   3.452
19673TIP3   OH258895   6.154   5.550   2.037
19673TIP3    H158896   6.215   5.597   1.979
19673TIP3    H258897   6.211   5.497   2.093
19674TIP3   OH258898   8.506   0.605   0.640
19674TIP3    H158899   8.559   0.682   0.621
19674TIP3    H258900   8.520   0.588   0.733
19675TIP3   OH258901   2.725   3.572   5.762
19675TIP3    H158902   2.798   3.630   5.784
19675TIP3    H258903   2.717   3.514   5.837
19676TIP3   OH258904   9.418   1.363   1.133
19676TIP3    H158905   9.431   1.300   1.203
19676TIP3    H258906   9.482   1.432   1.152
19677TIP3   OH258907   2.923   3.752   7.019
19677TIP3    H158908   2.874   3.690   6.965
19677TIP3    H258909   3.009   3.757   6.977
19678TIP3   OH258910   6.161   7.747   6.442
19678TIP3    H158911   6.122   7.668   6.405
19678TIP3    H258912   6.241   7.760   6.391
19679TIP3   OH258913   9.003   4.177   2.168
19679TIP3    H158914   9.064   4.112   2.203
19679TIP3    H258915   9.040   4.202   2.083
19680TIP3   OH258916   5.118   7.407   2.699
19680TIP3    H158917   5.086   7.486   2.742
19680TIP3    H258918   5.055   7.391   2.629
19681TIP3   OH258919   4.753   4.155   3.719
19681TIP3    H158920   4.717   4.243   3.727
19681TIP3    H258921   4.691   4.099   3.766
19682TIP3   OH258922   3.525   1.145   7.373
19682TIP3    H158923   3.444   1.095   7.361
19682TIP3    H258924   3.547   1.177   7.286
19683TIP3   OH258925   6.088   8.076   6.041
19683TIP3    H158926   6.135   8.110   6.117
19683TIP3    H258927   6.024   8.015   6.077
19684TIP3   OH258928   2.275   2.812   5.838
19684TIP3    H158929   2.243   2.901   5.853
19684TIP3    H258930   2.203   2.768   5.792
19685TIP3   OH258931   2.342   0.636   0.122
19685TIP3    H158932   2.276   0.706   0.124
19685TIP3    H258933   2.291   0.555   0.127
19686TIP3   OH258934   9.024   8.446   3.101
19686TIP3    H158935   9.048   8.408   3.185
19686TIP3    H258936   8.929   8.457   3.106
19687TIP3   OH258937   1.479   5.667   2.909
19687TIP3    H158938   1.440   5.617   2.838
19687TIP3    H258939   1.573   5.668   2.890
19688TIP3   OH258940   2.305   7.521   7.332
19688TIP3    H158941   2.332   7.448   7.276
19688TIP3    H258942   2.370   7.521   7.403
19689TIP3   OH258943   7.273   0.024   1.046
19689TIP3    H158944   7.351   0.075   1.024
19689TIP3    H258945   7.293  -0.065   1.016
19690TIP3   OH258946   3.114   5.021   1.826
19690TIP3    H158947   3.125   5.115   1.840
19690TIP3    H258948   3.172   5.001   1.752
19691TIP3   OH258949   5.567   3.232   0.978
19691TIP3    H158950   5.482   3.232   1.022
19691TIP3    H258951   5.547   3.203   0.889
19692TIP3   OH258952   7.214   8.427   7.375
19692TIP3    H158953   7.294   8.425   7.323
19692TIP3    H258954   7.156   8.363   7.333
19693TIP3   OH258955   5.287   4.167   6.013
19693TIP3    H158956   5.255   4.080   6.037
19693TIP3    H258957   5.366   4.150   5.962
19694TIP3   OH258958   6.483   5.807   4.945
19694TIP3    H158959   6.427   5.859   5.002
19694TIP3    H258960   6.526   5.745   5.004
19695TIP3   OH258961   1.261   2.156   2.013
19695TIP3    H158962   1.180   2.207   2.008
19695TIP3    H258963   1.308   2.176   1.932
19696TIP3   OH258964   7.106   4.029   7.792
19696TIP3    H158965   7.194   4.027   7.830
19696TIP3    H258966   7.050   3.992   7.860
19697TIP3   OH258967   6.438   6.713   2.313
19697TIP3    H158968   6.357   6.675   2.279
19697TIP3    H258969   6.462   6.656   2.386
19698TIP3   OH258970   1.456   0.087   6.356
19698TIP3    H158971   1.363   0.090   6.378
19698TIP3    H258972   1.460   0.049   6.269
19699TIP3   OH258973   6.616   8.490   0.131
19699TIP3    H158974   6.546   8.425   0.139
19699TIP3    H258975   6.682   8.462   0.194
19700TIP3   OH258976   6.355   1.182   5.891
19700TIP3    H158977   6.295   1.140   5.953
19700TIP3    H258978   6.440   1.178   5.935
19701TIP3   OH258979   4.336   2.037   0.707
19701TIP3    H158980   4.273   2.045   0.635
19701TIP3    H258981   4.298   1.972   0.766
19702TIP3   OH258982   3.071   0.320   3.643
19702TIP3    H158983   3.122   0.245   3.673
19702TIP3    H258984   3.089   0.327   3.550
19703TIP3   OH258985   3.557   7.805   2.570
19703TIP3    H158986   3.639   7.850   2.586
19703TIP3    H258987   3.576   7.712   2.587
19704TIP3   OH258988   5.159   0.270   5.481
19704TIP3    H158989   5.099   0.195   5.486
19704TIP3    H258990   5.225   0.253   5.548
19705TIP3   OH258991   8.801   0.145   4.089
19705TIP3    H158992   8.779   0.138   3.996
19705TIP3    H258993   8.764   0.228   4.117
19706TIP3   OH258994   3.508   1.800   7.160
19706TIP3    H158995   3.515   1.861   7.086
19706TIP3    H258996   3.545   1.718   7.128
19707TIP3   OH258997   6.681   2.514   0.579
19707TIP3    H158998   6.616   2.508   0.649
19707TIP3    H258999   6.758   2.553   0.620
19708TIP3   OH259000   9.339   7.524   2.332
19708TIP3    H159001   9.331   7.491   2.243
19708TIP3    H259002   9.288   7.604   2.333
19709TIP3   OH259003   0.350   6.418   4.419
19709TIP3    H159004   0.328   6.325   4.418
19709TIP3    H259005   0.265   6.462   4.410
19710TIP3   OH259006   5.489   3.380   4.203
19710TIP3    H159007   5.427   3.450   4.185
19710TIP3    H259008   5.486   3.370   4.298
19711TIP3   OH259009   9.515   3.077   6.101
19711TIP3    H159010   9.579   3.007   6.092
19711TIP3    H259011   9.440   3.049   6.049
19712TIP3   OH259012   2.308   6.101   0.393
19712TIP3    H159013   2.334   6.032   0.454
19712TIP3    H259014   2.347   6.076   0.309
19713TIP3   OH259015   0.565   1.701   5.059
19713TIP3    H159016   0.510   1.762   5.010
19713TIP3    H259017   0.529   1.615   5.038
19714TIP3   OH259018   2.382   2.051   2.225
19714TIP3    H159019   2.316   2.016   2.285
19714TIP3    H259020   2.450   1.983   2.223
19715TIP3   OH259021   6.617   5.053   5.072
19715TIP3    H159022   6.640   5.141   5.103
19715TIP3    H259023   6.536   5.032   5.117
19716TIP3   OH259024   0.205   4.909   7.244
19716TIP3    H159025   0.241   4.906   7.333
19716TIP3    H259026   0.202   4.817   7.217
19717TIP3   OH259027   9.524   7.166   3.497
19717TIP3    H159028   9.551   7.128   3.414
19717TIP3    H259029   9.481   7.094   3.543
19718TIP3   OH259030   6.158   8.853   6.921
19718TIP3    H159031   6.205   8.770   6.927
19718TIP3    H259032   6.069   8.828   6.894
19719TIP3   OH259033   8.139   7.799   6.040
19719TIP3    H159034   8.213   7.750   6.005
19719TIP3    H259035   8.160   7.891   6.024
19720TIP3   OH259036   1.219   7.672   4.062
19720TIP3    H159037   1.255   7.679   4.150
19720TIP3    H259038   1.258   7.746   4.015
19721TIP3   OH259039   3.261   4.880   2.901
19721TIP3    H159040   3.166   4.896   2.895
19721TIP3    H259041   3.279   4.881   2.995
19722TIP3   OH259042   0.024   8.929   1.617
19722TIP3    H159043   0.004   9.012   1.660
19722TIP3    H259044   0.116   8.913   1.637
19723TIP3   OH259045   0.343   6.104   1.817
19723TIP3    H159046   0.371   6.116   1.907
19723TIP3    H259047   0.390   6.171   1.768
19724TIP3   OH259048   7.324   5.596   0.578
19724TIP3    H159049   7.397   5.608   0.639
19724TIP3    H259050   7.256   5.656   0.609
19725TIP3   OH259051   2.364   3.159   4.620
19725TIP3    H159052   2.434   3.105   4.585
19725TIP3    H259053   2.328   3.109   4.693
19726TIP3   OH259054   1.823   4.055   5.043
19726TIP3    H159055   1.904   4.046   4.993
19726TIP3    H259056   1.842   4.123   5.108
19727TIP3   OH259057   1.275   7.269   1.505
19727TIP3    H159058   1.289   7.354   1.547
19727TIP3    H259059   1.187   7.243   1.532
19728TIP3   OH259060   4.326   4.144   0.888
19728TIP3    H159061   4.323   4.234   0.921
19728TIP3    H259062   4.293   4.150   0.799
19729TIP3   OH259063   5.026   0.957   1.654
19729TIP3    H159064   5.010   0.882   1.710
19729TIP3    H259065   5.027   1.032   1.714
19730TIP3   OH259066   1.032   3.087   2.003
19730TIP3    H159067   1.096   3.025   2.039
19730TIP3    H259068   0.992   3.128   2.079
19731TIP3   OH259069   1.380   6.880   0.018
19731TIP3    H159070   1.308   6.892  -0.044
19731TIP3    H259071   1.459   6.888  -0.036
19732TIP3   OH259072   4.003   0.135   5.294
19732TIP3    H159073   3.977   0.222   5.264
19732TIP3    H259074   3.922   0.084   5.296
19733TIP3   OH259075   4.442   2.589   1.091
19733TIP3    H159076   4.436   2.662   1.028
19733TIP3    H259077   4.464   2.630   1.174
19734TIP3   OH259078   1.189   7.755   4.662
19734TIP3    H159079   1.210   7.755   4.755
19734TIP3    H259080   1.126   7.825   4.651
19735TIP3   OH259081   9.442   6.509   7.316
19735TIP3    H159082   9.493   6.575   7.364
19735TIP3    H259083   9.358   6.552   7.299
19736TIP3   OH259084   3.737   1.203   4.114
19736TIP3    H159085   3.679   1.230   4.185
19736TIP3    H259086   3.807   1.267   4.115
19737TIP3   OH259087   4.718   4.608   1.563
19737TIP3    H159088   4.797   4.649   1.598
19737TIP3    H259089   4.646   4.663   1.594
19738TIP3   OH259090   0.423   8.984   0.105
19738TIP3    H159091   0.440   8.953   0.194
19738TIP3    H259092   0.503   8.963   0.057
19739TIP3   OH259093   5.340   7.361   6.164
19739TIP3    H159094   5.347   7.341   6.071
19739TIP3    H259095   5.407   7.427   6.179
19740TIP3   OH259096   6.930   5.982   0.618
19740TIP3    H159097   6.953   5.969   0.526
19740TIP3    H259098   6.846   5.936   0.628
19741TIP3   OH259099   0.842   1.900   1.182
19741TIP3    H159100   0.772   1.921   1.119
19741TIP3    H259101   0.828   1.808   1.204
19742TIP3   OH259102   5.569   4.450   6.736
19742TIP3    H159103   5.502   4.390   6.705
19742TIP3    H259104   5.559   4.528   6.682
19743TIP3   OH259105   8.544   5.542   3.887
19743TIP3    H159106   8.604   5.468   3.874
19743TIP3    H259107   8.584   5.592   3.958
19744TIP3   OH259108   7.043   5.622   5.907
19744TIP3    H159109   7.034   5.637   6.001
19744TIP3    H259110   7.105   5.688   5.877
19745TIP3   OH259111   0.982   2.228   1.699
19745TIP3    H159112   1.034   2.293   1.652
19745TIP3    H259113   0.928   2.187   1.632
19746TIP3   OH259114   9.511   7.232   0.496
19746TIP3    H159115   9.569   7.169   0.539
19746TIP3    H259116   9.545   7.237   0.406
19747TIP3   OH259117   2.682   3.444   2.172
19747TIP3    H159118   2.689   3.422   2.079
19747TIP3    H259119   2.773   3.450   2.202
19748TIP3   OH259120   3.939   2.111   5.819
19748TIP3    H159121   3.970   2.024   5.796
19748TIP3    H259122   3.860   2.096   5.871
19749TIP3   OH259123   5.380   3.602   0.640
19749TIP3    H159124   5.361   3.642   0.726
19749TIP3    H259125   5.472   3.622   0.624
19750TIP3   OH259126   4.207   1.441   4.618
19750TIP3    H159127   4.287   1.459   4.569
19750TIP3    H259128   4.230   1.460   4.709
19751TIP3   OH259129   0.799   8.144   3.073
19751TIP3    H159130   0.867   8.167   3.136
19751TIP3    H259131   0.721   8.127   3.126
19752TIP3   OH259132   9.435   4.923   1.096
19752TIP3    H159133   9.486   4.896   1.172
19752TIP3    H259134   9.438   5.019   1.098
19753TIP3   OH259135   3.323   6.715   0.936
19753TIP3    H159136   3.252   6.712   1.001
19753TIP3    H259137   3.338   6.809   0.922
19754TIP3   OH259138   8.600   2.982   0.127
19754TIP3    H159139   8.592   3.072   0.097
19754TIP3    H259140   8.606   2.930   0.047
19755TIP3   OH259141   8.836   0.373   0.616
19755TIP3    H159142   8.832   0.441   0.683
19755TIP3    H259143   8.873   0.297   0.662
19756TIP3   OH259144   7.454   3.765   1.767
19756TIP3    H159145   7.471   3.718   1.849
19756TIP3    H259146   7.538   3.805   1.745
19757TIP3   OH259147   7.868   9.024   6.114
19757TIP3    H159148   7.908   8.939   6.097
19757TIP3    H259149   7.834   9.052   6.030
19758TIP3   OH259150   9.437   2.254   5.732
19758TIP3    H159151   9.487   2.205   5.797
19758TIP3    H259152   9.415   2.190   5.665
19759TIP3   OH259153   3.627   8.476   7.580
19759TIP3    H159154   3.626   8.485   7.676
19759TIP3    H259155   3.677   8.552   7.550
19760TIP3   OH259156   7.786   1.561   6.573
19760TIP3    H159157   7.799   1.637   6.629
19760TIP3    H259158   7.697   1.572   6.537
19761TIP3   OH259159   1.844   1.624   3.845
19761TIP3    H159160   1.756   1.661   3.849
19761TIP3    H259161   1.869   1.631   3.752
19762TIP3   OH259162   4.451   2.178   4.565
19762TIP3    H159163   4.387   2.220   4.507
19762TIP3    H259164   4.420   2.198   4.653
19763TIP3   OH259165   8.539   4.380   0.111
19763TIP3    H159166   8.483   4.336   0.047
19763TIP3    H259167   8.604   4.315   0.137
19764TIP3   OH259168   7.140   6.761   2.852
19764TIP3    H159169   7.105   6.827   2.793
19764TIP3    H259170   7.222   6.732   2.810
19765TIP3   OH259171   7.557   7.475   4.656
19765TIP3    H159172   7.585   7.457   4.746
19765TIP3    H259173   7.557   7.571   4.649
19766TIP3   OH259174   0.990   0.461   5.061
19766TIP3    H159175   0.925   0.497   5.122
19766TIP3    H259176   1.067   0.516   5.073
19767TIP3   OH259177   7.398   2.614   4.761
19767TIP3    H159178   7.421   2.613   4.854
19767TIP3    H259179   7.392   2.521   4.737
19768TIP3   OH259180   4.772   8.781   0.126
19768TIP3    H159181   4.809   8.854   0.076
19768TIP3    H259182   4.848   8.738   0.164
19769TIP3   OH259183   8.910   6.454   0.336
19769TIP3    H159184   8.974   6.478   0.269
19769TIP3    H259185   8.910   6.529   0.396
19770TIP3   OH259186   6.644   4.516   7.321
19770TIP3    H159187   6.684   4.435   7.289
19770TIP3    H259188   6.631   4.500   7.415
19771TIP3   OH259189   4.457   8.801   4.712
19771TIP3    H159190   4.465   8.869   4.645
19771TIP3    H259191   4.449   8.719   4.662
19772TIP3   OH259192   2.195   2.251   2.530
19772TIP3    H159193   2.126   2.313   2.553
19772TIP3    H259194   2.263   2.304   2.489
19773TIP3   OH259195   1.676   4.647   0.902
19773TIP3    H159196   1.669   4.580   0.970
19773TIP3    H259197   1.695   4.598   0.822
19774TIP3   OH259198   9.179   1.017   4.614
19774TIP3    H159199   9.125   1.046   4.687
19774TIP3    H259200   9.189   0.923   4.627
19775TIP3   OH259201   2.089   0.379   2.930
19775TIP3    H159202   2.032   0.357   2.857
19775TIP3    H259203   2.155   0.437   2.893
19776TIP3   OH259204   1.931   3.805   2.040
19776TIP3    H159205   1.894   3.719   2.019
19776TIP3    H259206   2.018   3.785   2.074
19777TIP3   OH259207   7.671   4.014   1.796
19777TIP3    H159208   7.623   4.042   1.874
19777TIP3    H259209   7.645   4.076   1.728
19778TIP3   OH259210   8.289   1.604   3.252
19778TIP3    H159211   8.310   1.566   3.167
19778TIP3    H259212   8.350   1.560   3.313
19779TIP3   OH259213   4.490   7.991   1.500
19779TIP3    H159214   4.458   7.953   1.582
19779TIP3    H259215   4.545   8.065   1.527
19780TIP3   OH259216   2.205   2.397   3.685
19780TIP3    H159217   2.289   2.438   3.665
19780TIP3    H259218   2.203   2.393   3.781
19781TIP3   OH259219   1.328   1.661   1.775
19781TIP3    H159220   1.288   1.675   1.860
19781TIP3    H259221   1.421   1.681   1.788
19782TIP3   OH259222   7.113   8.091   0.857
19782TIP3    H159223   7.101   8.061   0.767
19782TIP3    H259224   7.048   8.043   0.908
19783TIP3   OH259225   1.831   3.685   7.670
19783TIP3    H159226   1.889   3.651   7.738
19783TIP3    H259227   1.829   3.780   7.686
19784TIP3   OH259228   4.485   1.739   0.544
19784TIP3    H159229   4.420   1.764   0.479
19784TIP3    H259230   4.564   1.786   0.518
19785TIP3   OH259231   5.575   8.962   2.978
19785TIP3    H159232   5.510   8.943   3.046
19785TIP3    H259233   5.571   8.886   2.920
19786TIP3   OH259234   2.038   8.600   2.985
19786TIP3    H159235   2.004   8.538   2.920
19786TIP3    H259236   2.120   8.632   2.946
19787TIP3   OH259237   5.631   2.085   2.203
19787TIP3    H159238   5.627   1.999   2.245
19787TIP3    H259239   5.722   2.095   2.177
19788TIP3   OH259240   0.214   8.731   0.319
19788TIP3    H159241   0.141   8.700   0.265
19788TIP3    H259242   0.265   8.652   0.336
19789TIP3   OH259243   0.938   6.332   4.720
19789TIP3    H159244   0.951   6.243   4.754
19789TIP3    H259245   0.923   6.320   4.627
19790TIP3   OH259246   6.943   1.411   5.398
19790TIP3    H159247   7.016   1.430   5.340
19790TIP3    H259248   6.871   1.386   5.340
19791TIP3   OH259249   3.256   1.218   5.129
19791TIP3    H159250   3.350   1.219   5.145
19791TIP3    H259251   3.245   1.153   5.059
19792TIP3   OH259252   3.282   7.836   7.137
19792TIP3    H159253   3.314   7.748   7.156
19792TIP3    H259254   3.351   7.894   7.168
19793TIP3   OH259255   1.668   3.117   1.990
19793TIP3    H159256   1.698   3.142   1.902
19793TIP3    H259257   1.700   3.187   2.047
19794TIP3   OH259258   3.635   4.517   3.819
19794TIP3    H159259   3.606   4.523   3.910
19794TIP3    H259260   3.608   4.600   3.780
19795TIP3   OH259261   2.468   3.314   6.035
19795TIP3    H159262   2.489   3.370   6.109
19795TIP3    H259263   2.409   3.248   6.071
19796TIP3   OH259264   0.310   4.019   0.626
19796TIP3    H159265   0.383   4.050   0.680
19796TIP3    H259266   0.292   3.931   0.659
19797TIP3   OH259267   6.605   3.659   7.520
19797TIP3    H159268   6.574   3.597   7.454
19797TIP3    H259269   6.694   3.631   7.541
19798TIP3   OH259270   5.171   8.431   1.746
19798TIP3    H159271   5.246   8.491   1.742
19798TIP3    H259272   5.102   8.475   1.696
19799TIP3   OH259273   3.902   4.986   0.845
19799TIP3    H159274   3.816   4.943   0.846
19799TIP3    H259275   3.950   4.946   0.917
19800TIP3   OH259276   2.482   5.715   7.345
19800TIP3    H159277   2.394   5.684   7.368
19800TIP3    H259278   2.508   5.662   7.270
19801TIP3   OH259279   3.380   8.763   4.936
19801TIP3    H159280   3.395   8.762   4.841
19801TIP3    H259281   3.441   8.828   4.970
19802TIP3   OH259282   6.163   8.318   2.197
19802TIP3    H159283   6.073   8.314   2.231
19802TIP3    H259284   6.200   8.232   2.215
19803TIP3   OH259285   5.210   7.401   7.365
19803TIP3    H159286   5.208   7.340   7.439
19803TIP3    H259287   5.177   7.483   7.400
19804TIP3   OH259288   6.933   5.788   4.874
19804TIP3    H159289   6.914   5.743   4.956
19804TIP3    H259290   6.975   5.871   4.901
19805TIP3   OH259291   5.677   4.369   5.550
19805TIP3    H159292   5.668   4.447   5.604
19805TIP3    H259293   5.595   4.321   5.564
19806TIP3   OH259294   2.776   2.031   3.966
19806TIP3    H159295   2.817   2.099   4.019
19806TIP3    H259296   2.820   1.950   3.993
19807TIP3   OH259297   6.235   2.423   2.130
19807TIP3    H159298   6.149   2.453   2.158
19807TIP3    H259299   6.297   2.483   2.173
19808TIP3   OH259300   6.728   2.602   2.612
19808TIP3    H159301   6.725   2.696   2.628
19808TIP3    H259302   6.752   2.564   2.696
19809TIP3   OH259303   8.232   8.397   6.511
19809TIP3    H159304   8.231   8.440   6.426
19809TIP3    H259305   8.142   8.402   6.543
19810TIP3   OH259306   2.010   6.701   3.487
19810TIP3    H159307   2.058   6.624   3.519
19810TIP3    H259308   1.929   6.664   3.451
19811TIP3   OH259309   1.175   6.584   0.377
19811TIP3    H159310   1.138   6.593   0.464
19811TIP3    H259311   1.106   6.542   0.325
19812TIP3   OH259312   9.105   6.697   4.600
19812TIP3    H159313   9.160   6.761   4.555
19812TIP3    H259314   9.102   6.622   4.541
19813TIP3   OH259315   4.975   7.412   5.125
19813TIP3    H159316   4.932   7.495   5.144
19813TIP3    H259317   4.922   7.347   5.171
19814TIP3   OH259318   8.780   6.264   5.193
19814TIP3    H159319   8.771   6.202   5.266
19814TIP3    H259320   8.691   6.295   5.176
19815TIP3   OH259321   7.092   5.839   4.351
19815TIP3    H159322   7.118   5.841   4.443
19815TIP3    H259323   7.038   5.760   4.343
19816TIP3   OH259324   6.484   7.195   1.958
19816TIP3    H159325   6.459   7.227   2.044
19816TIP3    H259326   6.537   7.265   1.921
19817TIP3   OH259327   1.703   4.643   0.286
19817TIP3    H159328   1.746   4.728   0.276
19817TIP3    H259329   1.753   4.585   0.229
19818TIP3   OH259330   4.646   2.863   1.911
19818TIP3    H159331   4.692   2.873   1.828
19818TIP3    H259332   4.580   2.796   1.894
19819TIP3   OH259333   3.911   1.474   0.947
19819TIP3    H159334   3.878   1.394   0.904
19819TIP3    H259335   3.873   1.472   1.034
19820TIP3   OH259336   0.775   7.468   1.913
19820TIP3    H159337   0.741   7.396   1.965
19820TIP3    H259338   0.766   7.545   1.969
19821TIP3   OH259339   1.663   1.764   6.852
19821TIP3    H159340   1.684   1.778   6.945
19821TIP3    H259341   1.746   1.735   6.814
19822TIP3   OH259342   8.730   1.493   3.498
19822TIP3    H159343   8.776   1.494   3.581
19822TIP3    H259344   8.757   1.574   3.454
19823TIP3   OH259345   8.231   6.965   6.325
19823TIP3    H159346   8.208   7.022   6.251
19823TIP3    H259347   8.321   6.939   6.308
19824TIP3   OH259348   0.304   7.916   7.455
19824TIP3    H159349   0.254   7.996   7.475
19824TIP3    H259350   0.238   7.852   7.431
19825TIP3   OH259351   8.078   6.549   0.758
19825TIP3    H159352   8.144   6.481   0.773
19825TIP3    H259353   8.085   6.570   0.665
19826TIP3   OH259354   6.383   7.933   6.877
19826TIP3    H159355   6.391   7.897   6.966
19826TIP3    H259356   6.369   7.856   6.822
19827TIP3   OH259357   1.900   5.497   5.499
19827TIP3    H159358   1.838   5.450   5.443
19827TIP3    H259359   1.848   5.522   5.575
19828TIP3   OH259360   1.477   7.332   0.138
19828TIP3    H159361   1.413   7.262   0.155
19828TIP3    H259362   1.553   7.287   0.103
19829TIP3   OH259363   0.899   3.265   6.081
19829TIP3    H159364   0.922   3.290   5.991
19829TIP3    H259365   0.805   3.278   6.087
19830TIP3   OH259366   3.665   0.450   7.337
19830TIP3    H159367   3.605   0.458   7.411
19830TIP3    H259368   3.752   0.463   7.375
19831TIP3   OH259369   6.772   8.777   0.460
19831TIP3    H159370   6.745   8.857   0.416
19831TIP3    H259371   6.692   8.742   0.498
19832TIP3   OH259372   2.010   6.657   1.499
19832TIP3    H159373   2.081   6.688   1.556
19832TIP3    H259374   2.054   6.629   1.419
19833TIP3   OH259375   5.385   2.658   5.208
19833TIP3    H159376   5.345   2.614   5.132
19833TIP3    H259377   5.331   2.736   5.221
19834TIP3   OH259378   2.658   2.003   5.992
19834TIP3    H159379   2.638   2.094   5.970
19834TIP3    H259380   2.581   1.972   6.040
19835TIP3   OH259381   1.562   7.574   1.546
19835TIP3    H159382   1.524   7.642   1.490
19835TIP3    H259383   1.613   7.519   1.486
19836TIP3   OH259384   4.214   7.666   7.377
19836TIP3    H159385   4.133   7.616   7.366
19836TIP3    H259386   4.277   7.624   7.319
19837TIP3   OH259387   9.387   2.123   1.769
19837TIP3    H159388   9.454   2.174   1.815
19837TIP3    H259389   9.312   2.123   1.828
19838TIP3   OH259390   8.727   7.740   6.371
19838TIP3    H159391   8.780   7.668   6.338
19838TIP3    H259392   8.638   7.721   6.342
19839TIP3   OH259393   5.319   8.675   3.121
19839TIP3    H159394   5.292   8.754   3.075
19839TIP3    H259395   5.311   8.696   3.214
19840TIP3   OH259396   5.842   2.906   5.623
19840TIP3    H159397   5.840   2.813   5.603
19840TIP3    H259398   5.864   2.910   5.716
19841TIP3   OH259399   0.131   7.991   4.714
19841TIP3    H159400   0.226   8.004   4.710
19841TIP3    H259401   0.096   8.050   4.647
19842TIP3   OH259402   7.471   0.997   3.871
19842TIP3    H159403   7.487   1.062   3.802
19842TIP3    H259404   7.496   0.913   3.831
19843TIP3   OH259405   6.541   1.540   0.364
19843TIP3    H159406   6.495   1.489   0.297
19843TIP3    H259407   6.615   1.578   0.317
19844TIP3   OH259408   6.548   1.847   7.520
19844TIP3    H159409   6.457   1.817   7.528
19844TIP3    H259410   6.553   1.887   7.434
19845TIP3   OH259411   6.420   4.952   7.289
19845TIP3    H159412   6.459   5.036   7.315
19845TIP3    H259413   6.359   4.975   7.218
19846TIP3   OH259414   1.117   4.755   4.112
19846TIP3    H159415   1.108   4.737   4.205
19846TIP3    H259416   1.076   4.841   4.100
19847TIP3   OH259417   3.972   7.164   3.410
19847TIP3    H159418   3.895   7.109   3.397
19847TIP3    H259419   4.021   7.122   3.481
19848TIP3   OH259420   5.763   1.074   3.404
19848TIP3    H159421   5.718   0.990   3.410
19848TIP3    H259422   5.775   1.088   3.310
19849TIP3   OH259423   7.100   5.169   0.518
19849TIP3    H159424   7.010   5.136   0.516
19849TIP3    H259425   7.143   5.119   0.588
19850TIP3   OH259426   0.632   5.045   5.057
19850TIP3    H159427   0.688   4.976   5.092
19850TIP3    H259428   0.687   5.092   4.995
19851TIP3   OH259429   5.841   7.044   7.081
19851TIP3    H159430   5.765   7.045   7.139
19851TIP3    H259431   5.914   7.017   7.137
19852TIP3   OH259432   5.602   5.432   4.760
19852TIP3    H159433   5.674   5.376   4.790
19852TIP3    H259434   5.566   5.386   4.685
19853TIP3   OH259435   0.849   7.718   1.805
19853TIP3    H159436   0.877   7.631   1.837
19853TIP3    H259437   0.839   7.770   1.885
19854TIP3   OH259438   2.654   1.179   2.261
19854TIP3    H159439   2.702   1.213   2.336
19854TIP3    H259440   2.616   1.097   2.292
19855TIP3   OH259441   1.739   5.297   6.830
19855TIP3    H159442   1.744   5.202   6.823
19855TIP3    H259443   1.677   5.312   6.902
19856TIP3   OH259444   4.082   7.725   0.621
19856TIP3    H159445   4.175   7.707   0.611
19856TIP3    H259446   4.057   7.768   0.539
19857TIP3   OH259447   4.797   1.687   1.365
19857TIP3    H159448   4.792   1.598   1.400
19857TIP3    H259449   4.810   1.742   1.443
19858TIP3   OH259450   6.888   7.205   6.411
19858TIP3    H159451   6.832   7.134   6.444
19858TIP3    H259452   6.836   7.285   6.426
19859TIP3   OH259453   4.858   8.424   5.293
19859TIP3    H159454   4.937   8.477   5.291
19859TIP3    H259455   4.887   8.336   5.271
19860TIP3   OH259456   0.138   5.355   3.583
19860TIP3    H159457   0.191   5.357   3.503
19860TIP3    H259458   0.177   5.421   3.640
19861TIP3   OH259459   4.795   1.557   7.754
19861TIP3    H159460   4.806   1.608   7.835
19861TIP3    H259461   4.876   1.572   7.705
19862TIP3   OH259462   5.881   1.982   7.112
19862TIP3    H159463   5.785   1.991   7.111
19862TIP3    H259464   5.900   1.937   7.194
19863TIP3   OH259465   6.897   5.347   7.522
19863TIP3    H159466   6.836   5.280   7.553
19863TIP3    H259467   6.983   5.312   7.545
19864TIP3   OH259468   5.798   1.634   4.212
19864TIP3    H159469   5.787   1.694   4.285
19864TIP3    H259470   5.814   1.690   4.137
19865TIP3   OH259471   3.091   8.648   1.897
19865TIP3    H159472   3.060   8.737   1.880
19865TIP3    H259473   3.112   8.647   1.990
19866TIP3   OH259474   8.008   5.887   2.208
19866TIP3    H159475   8.012   5.898   2.113
19866TIP3    H259476   7.954   5.809   2.221
19867TIP3   OH259477   1.856   3.097   2.896
19867TIP3    H159478   1.835   3.004   2.886
19867TIP3    H259479   1.773   3.142   2.877
19868TIP3   OH259480   1.592   0.532   0.833
19868TIP3    H159481   1.644   0.609   0.810
19868TIP3    H259482   1.525   0.527   0.765
19869TIP3   OH259483   9.549   1.501   4.279
19869TIP3    H159484   9.585   1.549   4.205
19869TIP3    H259485   9.623   1.485   4.337
19870TIP3   OH259486   0.009   8.385   3.143
19870TIP3    H159487   0.009   8.460   3.202
19870TIP3    H259488   0.086   8.334   3.168
19871TIP3   OH259489   3.217   6.005   6.189
19871TIP3    H159490   3.297   6.039   6.228
19871TIP3    H259491   3.170   6.083   6.159
19872TIP3   OH259492   1.183   8.691   6.796
19872TIP3    H159493   1.133   8.772   6.784
19872TIP3    H259494   1.177   8.673   6.890
19873TIP3   OH259495   5.699   4.476   3.731
19873TIP3    H159496   5.623   4.530   3.751
19873TIP3    H259497   5.775   4.532   3.748
19874TIP3   OH259498   7.780   0.922   4.742
19874TIP3    H159499   7.809   0.923   4.650
19874TIP3    H259500   7.811   0.838   4.776
19875TIP3   OH259501   1.777   5.117   7.491
19875TIP3    H159502   1.787   5.119   7.586
19875TIP3    H259503   1.719   5.043   7.474
19876TIP3   OH259504   1.001   2.000   4.903
19876TIP3    H159505   0.976   1.969   4.990
19876TIP3    H259506   1.075   1.944   4.877
19877TIP3   OH259507   1.381   8.405   4.302
19877TIP3    H159508   1.469   8.371   4.319
19877TIP3    H259509   1.353   8.442   4.385
19878TIP3   OH259510   2.369   6.242   2.458
19878TIP3    H159511   2.397   6.292   2.382
19878TIP3    H259512   2.449   6.230   2.510
19879TIP3   OH259513   3.496   3.689   0.332
19879TIP3    H159514   3.577   3.734   0.357
19879TIP3    H259515   3.437   3.759   0.304
19880TIP3   OH259516   4.689   0.467   6.367
19880TIP3    H159517   4.770   0.458   6.317
19880TIP3    H259518   4.644   0.384   6.354
19881TIP3   OH259519   3.344   6.066   3.910
19881TIP3    H159520   3.258   6.058   3.953
19881TIP3    H259521   3.326   6.114   3.829
19882TIP3   OH259522   7.886   5.879   1.934
19882TIP3    H159523   7.939   5.893   1.856
19882TIP3    H259524   7.846   5.792   1.921
19883TIP3   OH259525   2.385   2.017   0.974
19883TIP3    H159526   2.311   2.021   0.912
19883TIP3    H259527   2.452   1.967   0.927
19884TIP3   OH259528   4.331   5.224   0.658
19884TIP3    H159529   4.336   5.299   0.599
19884TIP3    H259530   4.237   5.208   0.667
19885TIP3   OH259531   0.775   7.106   3.519
19885TIP3    H159532   0.688   7.079   3.550
19885TIP3    H259533   0.774   7.086   3.425
19886TIP3   OH259534   6.241   5.403   0.853
19886TIP3    H159535   6.283   5.322   0.826
19886TIP3    H259536   6.310   5.454   0.894
19887TIP3   OH259537   6.105   2.392   2.909
19887TIP3    H159538   6.111   2.486   2.894
19887TIP3    H259539   6.159   2.353   2.839
19888TIP3   OH259540   6.635   8.561   5.711
19888TIP3    H159541   6.690   8.505   5.765
19888TIP3    H259542   6.691   8.586   5.637
19889TIP3   OH259543   4.093   7.473   0.752
19889TIP3    H159544   4.075   7.552   0.700
19889TIP3    H259545   4.037   7.406   0.712
19890TIP3   OH259546   3.379   1.996   3.666
19890TIP3    H159547   3.381   1.978   3.760
19890TIP3    H259548   3.421   2.082   3.658
19891TIP3   OH259549   3.785   3.874   6.550
19891TIP3    H159550   3.830   3.899   6.631
19891TIP3    H259551   3.699   3.846   6.578
19892TIP3   OH259552   2.118   7.357   6.920
19892TIP3    H159553   2.030   7.334   6.949
19892TIP3    H259554   2.137   7.441   6.963
19893TIP3   OH259555   8.694   9.019   6.718
19893TIP3    H159556   8.653   9.042   6.801
19893TIP3    H259557   8.711   9.102   6.675
19894TIP3   OH259558   0.566   8.180   3.918
19894TIP3    H159559   0.538   8.091   3.938
19894TIP3    H259560   0.600   8.176   3.829
19895TIP3   OH259561   4.669   1.771   6.626
19895TIP3    H159562   4.697   1.803   6.711
19895TIP3    H259563   4.579   1.741   6.640
19896TIP3   OH259564   8.890   2.549   6.227
19896TIP3    H159565   8.832   2.477   6.203
19896TIP3    H259566   8.860   2.575   6.314
19897TIP3   OH259567   6.649   1.820   2.098
19897TIP3    H159568   6.682   1.732   2.116
19897TIP3    H259569   6.700   1.851   2.024
19898TIP3   OH259570   2.257   3.160   0.423
19898TIP3    H159571   2.226   3.092   0.483
19898TIP3    H259572   2.283   3.232   0.480
19899TIP3   OH259573   9.006   5.845   0.420
19899TIP3    H159574   8.940   5.817   0.483
19899TIP3    H259575   9.062   5.768   0.409
19900TIP3   OH259576   6.433   1.792   0.418
19900TIP3    H159577   6.503   1.824   0.474
19900TIP3    H259578   6.463   1.707   0.387
19901TIP3   OH259579   4.984   5.282   4.745
19901TIP3    H159580   4.986   5.235   4.662
19901TIP3    H259581   4.904   5.252   4.788
19902TIP3   OH259582   4.719   3.286   7.116
19902TIP3    H159583   4.789   3.255   7.059
19902TIP3    H259584   4.640   3.243   7.082
19903TIP3   OH259585   2.366   2.674   6.429
19903TIP3    H159586   2.391   2.751   6.481
19903TIP3    H259587   2.357   2.708   6.340
19904TIP3   OH259588   3.303   2.870   5.656
19904TIP3    H159589   3.232   2.933   5.648
19904TIP3    H259590   3.369   2.915   5.710
19905TIP3   OH259591   3.514   4.757   3.726
19905TIP3    H159592   3.476   4.749   3.639
19905TIP3    H259593   3.440   4.780   3.783
19906TIP3   OH259594   4.798   6.281   7.624
19906TIP3    H159595   4.795   6.345   7.695
19906TIP3    H259596   4.876   6.304   7.574
19907TIP3   OH259597   7.171   8.574   6.463
19907TIP3    H159598   7.264   8.575   6.439
19907TIP3    H259599   7.126   8.609   6.386
19908TIP3   OH259600   7.788   2.153   3.810
19908TIP3    H159601   7.865   2.210   3.810
19908TIP3    H259602   7.725   2.198   3.753
19909TIP3   OH259603   7.469   3.133   1.786
19909TIP3    H159604   7.491   3.215   1.743
19909TIP3    H259605   7.550   3.082   1.781
19910TIP3   OH259606   6.787   3.543   3.793
19910TIP3    H159607   6.801   3.476   3.859
19910TIP3    H259608   6.726   3.605   3.834
19911TIP3   OH259609   0.879   0.311   3.138
19911TIP3    H159610   0.859   0.395   3.099
19911TIP3    H259611   0.825   0.248   3.091
19912TIP3   OH259612   4.490   5.028   7.078
19912TIP3    H159613   4.564   4.990   7.125
19912TIP3    H259614   4.413   5.003   7.129
19913TIP3   OH259615   1.677   0.754   4.694
19913TIP3    H159616   1.705   0.842   4.671
19913TIP3    H259617   1.748   0.697   4.664
19914TIP3   OH259618   2.662   6.125   3.310
19914TIP3    H159619   2.576   6.118   3.351
19914TIP3    H259620   2.693   6.213   3.333
19915TIP3   OH259621   5.296   4.003   1.391
19915TIP3    H159622   5.206   3.996   1.361
19915TIP3    H259623   5.337   3.921   1.364
19916TIP3   OH259624   5.968   3.878   1.267
19916TIP3    H159625   5.878   3.848   1.267
19916TIP3    H259626   5.963   3.969   1.296
19917TIP3   OH259627   3.523   3.079   2.001
19917TIP3    H159628   3.581   3.022   1.951
19917TIP3    H259629   3.435   3.056   1.972
19918TIP3   OH259630   3.378   0.834   0.551
19918TIP3    H159631   3.368   0.921   0.512
19918TIP3    H259632   3.385   0.775   0.477
19919TIP3   OH259633   2.895   8.634   4.824
19919TIP3    H159634   2.905   8.720   4.782
19919TIP3    H259635   2.838   8.585   4.764
19920TIP3   OH259636   1.727   5.748   2.103
19920TIP3    H159637   1.745   5.753   2.009
19920TIP3    H259638   1.811   5.725   2.142
19921TIP3   OH259639   9.043   7.152   6.457
19921TIP3    H159640   9.036   7.106   6.541
19921TIP3    H259641   9.000   7.093   6.394
19922TIP3   OH259642   0.384   8.917   0.930
19922TIP3    H159643   0.430   8.982   0.983
19922TIP3    H259644   0.445   8.895   0.860
19923TIP3   OH259645   8.289   2.431   0.559
19923TIP3    H159646   8.277   2.522   0.532
19923TIP3    H259647   8.383   2.416   0.549
19924TIP3   OH259648   5.357   7.204   7.038
19924TIP3    H159649   5.264   7.195   7.062
19924TIP3    H259650   5.380   7.292   7.067
19925TIP3   OH259651   0.255   6.850   6.238
19925TIP3    H159652   0.234   6.762   6.209
19925TIP3    H259653   0.318   6.882   6.173
19926TIP3   OH259654   2.500   5.087   3.019
19926TIP3    H159655   2.504   4.996   3.048
19926TIP3    H259656   2.558   5.090   2.942
19927TIP3   OH259657   4.438   4.571   2.454
19927TIP3    H159658   4.372   4.633   2.422
19927TIP3    H259659   4.416   4.488   2.412
19928TIP3   OH259660   0.094   6.008   6.695
19928TIP3    H159661   0.014   5.964   6.723
19928TIP3    H259662   0.155   5.937   6.677
19929TIP3   OH259663   8.126   5.254   1.398
19929TIP3    H159664   8.104   5.162   1.411
19929TIP3    H259665   8.163   5.258   1.310
19930TIP3   OH259666   0.547   7.449   4.908
19930TIP3    H159667   0.591   7.365   4.914
19930TIP3    H259668   0.552   7.485   4.997
19931TIP3   OH259669   9.166   7.629   6.508
19931TIP3    H159670   9.094   7.690   6.518
19931TIP3    H259671   9.152   7.564   6.578
19932TIP3   OH259672   1.679   7.243   7.232
19932TIP3    H159673   1.602   7.271   7.184
19932TIP3    H259674   1.667   7.148   7.243
19933TIP3   OH259675   9.166   2.010   0.900
19933TIP3    H159676   9.107   1.957   0.847
19933TIP3    H259677   9.221   2.056   0.836
19934TIP3   OH259678   7.178   4.928   5.543
19934TIP3    H159679   7.139   4.989   5.606
19934TIP3    H259680   7.185   4.979   5.462
19935TIP3   OH259681   5.233   8.673   2.039
19935TIP3    H159682   5.322   8.687   2.005
19935TIP3    H259683   5.225   8.577   2.043
19936TIP3   OH259684   7.967   2.249   3.019
19936TIP3    H159685   7.986   2.221   2.929
19936TIP3    H259686   7.896   2.313   3.009
19937TIP3   OH259687   5.385   5.239   5.006
19937TIP3    H159688   5.341   5.196   4.932
19937TIP3    H259689   5.315   5.282   5.055
19938TIP3   OH259690   3.164   9.008   7.497
19938TIP3    H159691   3.118   8.931   7.530
19938TIP3    H259692   3.232   9.025   7.563
19939TIP3   OH259693   8.163   1.900   7.152
19939TIP3    H159694   8.086   1.888   7.209
19939TIP3    H259695   8.224   1.952   7.205
19940TIP3   OH259696   7.096   6.148   1.378
19940TIP3    H159697   7.122   6.228   1.423
19940TIP3    H259698   7.037   6.177   1.309
19941TIP3   OH259699   4.586   8.823   5.174
19941TIP3    H159700   4.601   8.740   5.219
19941TIP3    H259701   4.494   8.843   5.190
19942TIP3   OH259702   5.440   2.963   1.054
19942TIP3    H159703   5.497   2.915   1.114
19942TIP3    H259704   5.364   2.987   1.107
19943TIP3   OH259705   5.665   4.261   3.573
19943TIP3    H159706   5.700   4.338   3.618
19943TIP3    H259707   5.572   4.259   3.598
19944TIP3   OH259708   3.858   2.655   1.784
19944TIP3    H159709   3.863   2.598   1.861
19944TIP3    H259710   3.922   2.724   1.802
19945TIP3   OH259711   3.773   7.695   6.419
19945TIP3    H159712   3.720   7.620   6.389
19945TIP3    H259713   3.734   7.720   6.502
19946TIP3   OH259714   2.651   3.235   0.393
19946TIP3    H159715   2.605   3.188   0.324
19946TIP3    H259716   2.736   3.258   0.355
19947TIP3   OH259717   5.477   5.646   1.650
19947TIP3    H159718   5.434   5.561   1.656
19947TIP3    H259719   5.570   5.626   1.638
19948TIP3   OH259720   7.045   2.673   2.212
19948TIP3    H159721   7.060   2.751   2.267
19948TIP3    H259722   7.018   2.605   2.274
19949TIP3   OH259723   0.503   5.274   5.173
19949TIP3    H159724   0.512   5.261   5.268
19949TIP3    H259725   0.549   5.200   5.134
19950TIP3   OH259726   5.191   6.029   2.222
19950TIP3    H159727   5.118   6.049   2.163
19950TIP3    H259728   5.207   6.112   2.268
19951TIP3   OH259729   5.044   8.945   4.143
19951TIP3    H159730   5.076   9.036   4.146
19951TIP3    H259731   5.113   8.897   4.098
19952TIP3   OH259732   1.792   6.768   6.023
19952TIP3    H159733   1.738   6.752   5.945
19952TIP3    H259734   1.869   6.815   5.991
19953TIP3   OH259735   6.854   5.523   4.730
19953TIP3    H159736   6.885   5.432   4.727
19953TIP3    H259737   6.929   5.573   4.762
19954TIP3   OH259738   7.051   2.501   7.174
19954TIP3    H159739   7.094   2.502   7.260
19954TIP3    H259740   7.026   2.592   7.158
19955TIP3   OH259741   2.549   2.285   7.319
19955TIP3    H159742   2.466   2.303   7.275
19955TIP3    H259743   2.615   2.293   7.249
19956TIP3   OH259744   1.042   4.534   7.392
19956TIP3    H159745   1.048   4.561   7.300
19956TIP3    H259746   1.040   4.439   7.389
19957TIP3   OH259747   1.845   4.384   1.881
19957TIP3    H159748   1.801   4.348   1.959
19957TIP3    H259749   1.853   4.477   1.900
19958TIP3   OH259750   3.381   6.209   0.775
19958TIP3    H159751   3.313   6.211   0.707
19958TIP3    H259752   3.430   6.290   0.762
19959TIP3   OH259753   2.704   4.551   4.057
19959TIP3    H159754   2.678   4.643   4.049
19959TIP3    H259755   2.671   4.524   4.142
19960TIP3   OH259756   0.538   1.188   5.519
19960TIP3    H159757   0.474   1.133   5.564
19960TIP3    H259758   0.535   1.272   5.565
19961TIP3   OH259759   0.630   4.316   6.546
19961TIP3    H159760   0.623   4.284   6.456
19961TIP3    H259761   0.547   4.291   6.587
19962TIP3   OH259762   6.600   3.066   5.115
19962TIP3    H159763   6.621   3.160   5.115
19962TIP3    H259764   6.683   3.023   5.133
19963TIP3   OH259765   0.220   3.719   3.847
19963TIP3    H159766   0.227   3.815   3.850
19963TIP3    H259767   0.306   3.688   3.873
19964TIP3   OH259768   9.134   3.344   7.486
19964TIP3    H159769   9.092   3.352   7.400
19964TIP3    H259770   9.209   3.403   7.481
19965TIP3   OH259771   7.686   5.320   4.613
19965TIP3    H159772   7.781   5.333   4.611
19965TIP3    H259773   7.671   5.266   4.691
19966TIP3   OH259774   8.286   2.886   3.964
19966TIP3    H159775   8.339   2.841   3.898
19966TIP3    H259776   8.254   2.965   3.920
19967TIP3   OH259777   3.967   7.536   7.261
19967TIP3    H159778   4.000   7.480   7.332
19967TIP3    H259779   3.955   7.477   7.187
19968TIP3   OH259780   4.326   5.801   1.496
19968TIP3    H159781   4.263   5.792   1.424
19968TIP3    H259782   4.408   5.766   1.461
19969TIP3   OH259783   1.560   2.330   1.481
19969TIP3    H159784   1.475   2.314   1.438
19969TIP3    H259785   1.565   2.425   1.488
19970TIP3   OH259786   7.147   6.754   7.570
19970TIP3    H159787   7.227   6.760   7.517
19970TIP3    H259788   7.137   6.841   7.608
19971TIP3   OH259789   6.388   6.320   6.587
19971TIP3    H159790   6.420   6.402   6.624
19971TIP3    H259791   6.364   6.342   6.497
19972TIP3   OH259792   8.868   7.350   0.668
19972TIP3    H159793   8.810   7.347   0.593
19972TIP3    H259794   8.865   7.442   0.696
19973TIP3   OH259795   5.150   7.693   6.135
19973TIP3    H159796   5.229   7.678   6.187
19973TIP3    H259797   5.104   7.762   6.182
19974TIP3   OH259798   6.208   2.487   7.564
19974TIP3    H159799   6.291   2.533   7.575
19974TIP3    H259800   6.216   2.442   7.480
19975TIP3   OH259801   0.255   1.037   3.354
19975TIP3    H159802   0.223   1.113   3.305
19975TIP3    H259803   0.348   1.034   3.335
19976TIP3   OH259804   4.982   3.666   5.305
19976TIP3    H159805   5.001   3.587   5.255
19976TIP3    H259806   5.010   3.738   5.248
19977TIP3   OH259807   8.433   3.978   4.296
19977TIP3    H159808   8.470   4.017   4.217
19977TIP3    H259809   8.350   4.024   4.309
19978TIP3   OH259810   7.356   6.128   4.364
19978TIP3    H159811   7.264   6.122   4.340
19978TIP3    H259812   7.358   6.104   4.457
19979TIP3   OH259813   3.148   5.207   0.581
19979TIP3    H159814   3.178   5.139   0.521
19979TIP3    H259815   3.228   5.247   0.614
19980TIP3   OH259816   0.337   3.507   0.931
19980TIP3    H159817   0.424   3.520   0.894
19980TIP3    H259818   0.287   3.584   0.905
19981TIP3   OH259819   1.050   6.540   6.256
19981TIP3    H159820   1.000   6.466   6.291
19981TIP3    H259821   1.139   6.507   6.247
19982TIP3   OH259822   0.920   4.643   6.959
19982TIP3    H159823   0.880   4.557   6.971
19982TIP3    H259824   0.956   4.640   6.870
19983TIP3   OH259825   4.353   1.794   0.287
19983TIP3    H159826   4.334   1.845   0.208
19983TIP3    H259827   4.366   1.705   0.255
19984TIP3   OH259828   1.906   2.639   1.612
19984TIP3    H159829   1.887   2.706   1.678
19984TIP3    H259830   1.992   2.664   1.577
19985TIP3   OH259831   4.463   1.101   3.425
19985TIP3    H159832   4.496   1.018   3.460
19985TIP3    H259833   4.429   1.079   3.339
19986TIP3   OH259834   0.281   2.020   2.342
19986TIP3    H159835   0.219   1.964   2.296
19986TIP3    H259836   0.229   2.095   2.370
19987TIP3   OH259837   5.549   1.148   2.467
19987TIP3    H159838   5.586   1.190   2.544
19987TIP3    H259839   5.624   1.133   2.410
19988TIP3   OH259840   0.961   7.836   6.653
19988TIP3    H159841   0.872   7.803   6.667
19988TIP3    H259842   0.963   7.918   6.701
19989TIP3   OH259843   0.567   2.783   4.986
19989TIP3    H159844   0.620   2.748   4.915
19989TIP3    H259845   0.505   2.842   4.943
19990TIP3   OH259846   4.969   5.149   1.967
19990TIP3    H159847   4.950   5.238   1.938
19990TIP3    H259848   5.047   5.124   1.918
19991TIP3   OH259849   7.366   6.756   1.438
19991TIP3    H159850   7.401   6.764   1.527
19991TIP3    H259851   7.422   6.814   1.386
19992TIP3   OH259852   5.631   1.307   5.206
19992TIP3    H159853   5.662   1.218   5.187
19992TIP3    H259854   5.544   1.294   5.243
19993TIP3   OH259855   3.987   7.594   0.357
19993TIP3    H159856   3.950   7.552   0.280
19993TIP3    H259857   4.040   7.666   0.321
19994TIP3   OH259858   7.895   4.668   1.203
19994TIP3    H159859   7.897   4.581   1.162
19994TIP3    H259860   7.984   4.680   1.238
19995TIP3   OH259861   9.145   8.091   1.568
19995TIP3    H159862   9.196   8.049   1.498
19995TIP3    H259863   9.122   8.020   1.627
19996TIP3   OH259864   4.778   5.275   3.220
19996TIP3    H159865   4.848   5.263   3.284
19996TIP3    H259866   4.813   5.337   3.156
19997TIP3   OH259867   0.958   5.854   7.403
19997TIP3    H159868   1.030   5.839   7.465
19997TIP3    H259869   0.992   5.823   7.320
19998TIP3   OH259870   1.975   2.233   7.565
19998TIP3    H159871   1.946   2.151   7.526
19998TIP3    H259872   1.907   2.297   7.540
19999TIP3   OH259873   2.703   6.009   2.407
19999TIP3    H159874   2.656   6.005   2.323
19999TIP3    H259875   2.666   5.935   2.457
20000TIP3   OH259876   8.261   2.905   4.715
20000TIP3    H159877   8.192   2.951   4.761
20000TIP3    H259878   8.223   2.882   4.630
20001TIP3   OH259879   5.000   2.835   5.161
20001TIP3    H159880   5.090   2.848   5.129
20001TIP3    H259881   4.945   2.846   5.083
20002TIP3   OH259882   4.561   6.596   2.217
20002TIP3    H159883   4.494   6.595   2.286
20002TIP3    H259884   4.529   6.536   2.150
20003TIP3   OH259885   8.278   8.787   3.319
20003TIP3    H159886   8.265   8.700   3.355
20003TIP3    H259887   8.302   8.841   3.395
20004TIP3   OH259888   7.575   5.467   0.249
20004TIP3    H159889   7.634   5.502   0.182
20004TIP3    H259890   7.597   5.374   0.254
20005TIP3   OH259891   1.785   4.264   2.126
20005TIP3    H159892   1.729   4.278   2.202
20005TIP3    H259893   1.809   4.171   2.130
20006TIP3   OH259894   4.877   7.198   3.336
20006TIP3    H159895   4.883   7.189   3.431
20006TIP3    H259896   4.841   7.115   3.306
20007TIP3   OH259897   3.263   4.640   2.541
20007TIP3    H159898   3.310   4.676   2.466
20007TIP3    H259899   3.329   4.637   2.611
20008TIP3   OH259900   8.349   3.222   1.696
20008TIP3    H159901   8.409   3.155   1.664
20008TIP3    H259902   8.271   3.173   1.724
20009TIP3   OH259903   7.533   4.199   1.610
20009TIP3    H159904   7.601   4.176   1.547
20009TIP3    H259905   7.515   4.291   1.593
20010TIP3   OH259906   5.549   3.258   2.471
20010TIP3    H159907   5.626   3.243   2.525
20010TIP3    H259908   5.500   3.326   2.517
20011TIP3   OH259909   3.122   4.690   1.905
20011TIP3    H159910   3.185   4.703   1.976
20011TIP3    H259911   3.067   4.768   1.908
20012TIP3   OH259912   8.679   0.856   5.268
20012TIP3    H159913   8.774   0.843   5.260
20012TIP3    H259914   8.670   0.920   5.339
20013TIP3   OH259915   6.653   0.858   2.284
20013TIP3    H159916   6.662   0.763   2.280
20013TIP3    H259917   6.561   0.874   2.259
20014TIP3   OH259918   6.272   0.851   5.379
20014TIP3    H159919   6.319   0.769   5.368
20014TIP3    H259920   6.214   0.836   5.454
20015TIP3   OH259921   6.701   2.185   3.784
20015TIP3    H159922   6.657   2.269   3.772
20015TIP3    H259923   6.782   2.193   3.733
20016TIP3   OH259924   3.007   7.064   0.654
20016TIP3    H159925   2.942   7.077   0.585
20016TIP3    H259926   2.989   6.976   0.687
20017TIP3   OH259927   0.106   2.008   2.688
20017TIP3    H159928   0.148   1.933   2.647
20017TIP3    H259929   0.061   2.053   2.616
20018TIP3   OH259930   5.762   8.975   7.110
20018TIP3    H159931   5.744   8.913   7.040
20018TIP3    H259932   5.733   9.060   7.075
20019TIP3   OH259933   9.236   8.722   4.291
20019TIP3    H159934   9.152   8.687   4.320
20019TIP3    H259935   9.247   8.687   4.203
20020TIP3   OH259936   4.107   6.364   3.859
20020TIP3    H159937   4.024   6.326   3.832
20020TIP3    H259938   4.173   6.315   3.809
20021TIP3   OH259939   9.124   1.186   7.376
20021TIP3    H159940   9.079   1.212   7.456
20021TIP3    H259941   9.087   1.101   7.354
20022TIP3   OH259942   7.182   1.595   2.614
20022TIP3    H159943   7.197   1.530   2.545
20022TIP3    H259944   7.092   1.580   2.642
20023TIP3   OH259945   5.209   6.906   1.307
20023TIP3    H159946   5.286   6.945   1.349
20023TIP3    H259947   5.172   6.848   1.373
20024TIP3   OH259948   1.579   6.382   3.903
20024TIP3    H159949   1.640   6.354   3.970
20024TIP3    H259950   1.601   6.474   3.887
20025TIP3   OH259951   4.726   7.947   1.900
20025TIP3    H159952   4.701   8.037   1.918
20025TIP3    H259953   4.670   7.920   1.827
20026TIP3   OH259954   0.437   6.041   6.723
20026TIP3    H159955   0.394   5.959   6.700
20026TIP3    H259956   0.367   6.096   6.757
20027TIP3   OH259957   7.812   5.695   0.926
20027TIP3    H159958   7.871   5.753   0.877
20027TIP3    H259959   7.845   5.607   0.908
20028TIP3   OH259960   6.732   3.565   5.278
20028TIP3    H159961   6.701   3.489   5.229
20028TIP3    H259962   6.654   3.619   5.290
20029TIP3   OH259963   0.650   3.853   2.143
20029TIP3    H159964   0.702   3.789   2.095
20029TIP3    H259965   0.617   3.912   2.076
20030TIP3   OH259966   7.515   4.245   2.922
20030TIP3    H159967   7.490   4.161   2.884
20030TIP3    H259968   7.595   4.270   2.876
20031TIP3   OH259969   6.056   5.131   6.702
20031TIP3    H159970   6.045   5.222   6.673
20031TIP3    H259971   6.150   5.117   6.702
20032TIP3   OH259972   1.029   0.222   5.677
20032TIP3    H159973   0.963   0.230   5.746
20032TIP3    H259974   1.094   0.289   5.698
20033TIP3   OH259975   2.652   3.715   6.257
20033TIP3    H159976   2.728   3.758   6.296
20033TIP3    H259977   2.621   3.777   6.190
20034TIP3   OH259978   8.387   7.236   4.155
20034TIP3    H159979   8.411   7.328   4.145
20034TIP3    H259980   8.340   7.215   4.075
20035TIP3   OH259981   3.518   4.754   6.520
20035TIP3    H159982   3.466   4.709   6.454
20035TIP3    H259983   3.459   4.820   6.557
20036TIP3   OH259984   5.603   6.422   1.345
20036TIP3    H159985   5.572   6.346   1.295
20036TIP3    H259986   5.537   6.490   1.330
20037TIP3   OH259987   2.908   2.294   6.781
20037TIP3    H159988   2.942   2.318   6.695
20037TIP3    H259989   2.815   2.274   6.765
20038TIP3   OH259990   2.350   0.531   6.287
20038TIP3    H159991   2.395   0.504   6.368
20038TIP3    H259992   2.421   0.548   6.225
20039TIP3   OH259993   4.236   4.566   1.158
20039TIP3    H159994   4.179   4.493   1.132
20039TIP3    H259995   4.210   4.638   1.100
20040TIP3   OH259996   0.441   7.965   6.408
20040TIP3    H159997   0.352   7.957   6.443
20040TIP3    H259998   0.438   7.917   6.325
20041TIP3   OH259999   2.215   6.414   7.144
20041TIP3    H160000   2.162   6.379   7.215
20041TIP3    H260001   2.152   6.453   7.083
20042TIP3   OH260002   8.680   8.754   3.313
20042TIP3    H160003   8.591   8.742   3.344
20042TIP3    H260004   8.723   8.805   3.381
20043TIP3   OH260005   4.897   2.563   2.413
20043TIP3    H160006   4.872   2.652   2.436
20043TIP3    H260007   4.929   2.525   2.494
20044TIP3   OH260008   4.491   3.767   4.575
20044TIP3    H160009   4.482   3.704   4.647
20044TIP3    H260010   4.535   3.719   4.506
20045TIP3   OH260011   3.331   5.474   1.489
20045TIP3    H160012   3.277   5.396   1.473
20045TIP3    H260013   3.345   5.511   1.402
20046TIP3   OH260014   3.500   6.018   2.646
20046TIP3    H160015   3.510   6.073   2.568
20046TIP3    H260016   3.414   6.042   2.681
20047TIP3   OH260017   5.980   5.788   5.410
20047TIP3    H160018   5.914   5.835   5.359
20047TIP3    H260019   6.058   5.792   5.355
20048TIP3   OH260020   5.650   5.033   7.339
20048TIP3    H160021   5.631   5.049   7.432
20048TIP3    H260022   5.660   5.120   7.301
20049TIP3   OH260023   8.519   7.036   0.064
20049TIP3    H160024   8.434   7.078   0.047
20049TIP3    H260025   8.501   6.976   0.137
20050TIP3   OH260026   2.069   0.039   3.160
20050TIP3    H160027   2.091   0.132   3.162
20050TIP3    H260028   2.152  -0.005   3.141
20051TIP3   OH260029   9.532   3.501   6.313
20051TIP3    H160030   9.507   3.408   6.320
20051TIP3    H260031   9.537   3.517   6.219
20052TIP3   OH260032   6.624   6.069   6.630
20052TIP3    H160033   6.645   6.160   6.652
20052TIP3    H260034   6.599   6.072   6.538
20053TIP3   OH260035   0.940   7.174   7.580
20053TIP3    H160036   0.858   7.208   7.616
20053TIP3    H260037   0.921   7.083   7.560
20054TIP3   OH260038   9.310   4.552   3.638
20054TIP3    H160039   9.337   4.492   3.569
20054TIP3    H260040   9.364   4.630   3.627
20055TIP3   OH260041   3.172   5.296   1.867
20055TIP3    H160042   3.177   5.331   1.957
20055TIP3    H260043   3.106   5.351   1.825
20056TIP3   OH260044   2.815   7.450   4.192
20056TIP3    H160045   2.861   7.469   4.110
20056TIP3    H260046   2.860   7.504   4.257
20057TIP3   OH260047   9.211   5.412   2.138
20057TIP3    H160048   9.259   5.336   2.170
20057TIP3    H260049   9.208   5.472   2.212
20058TIP3   OH260050   1.136   5.212   1.092
20058TIP3    H160051   1.043   5.219   1.112
20058TIP3    H260052   1.141   5.226   0.997
20059TIP3   OH260053   9.387   8.646   3.423
20059TIP3    H160054   9.432   8.730   3.430
20059TIP3    H260055   9.325   8.658   3.352
20060TIP3   OH260056   2.830   4.192   0.448
20060TIP3    H160057   2.884   4.211   0.372
20060TIP3    H260058   2.790   4.107   0.428
20061TIP3   OH260059   7.410   2.912   3.887
20061TIP3    H160060   7.325   2.930   3.927
20061TIP3    H260061   7.461   2.871   3.956
20062TIP3   OH260062   8.922   7.689   5.965
20062TIP3    H160063   8.998   7.746   5.970
20062TIP3    H260064   8.950   7.617   5.908
20063TIP3   OH260065   7.187   3.130   5.227
20063TIP3    H160066   7.155   3.181   5.302
20063TIP3    H260067   7.273   3.168   5.208
20064TIP3   OH260068   9.217   4.566   7.487
20064TIP3    H160069   9.135   4.535   7.523
20064TIP3    H260070   9.284   4.517   7.534
20065TIP3   OH260071   7.698   6.163   0.143
20065TIP3    H160072   7.792   6.180   0.148
20065TIP3    H260073   7.684   6.129   0.055
20066TIP3   OH260074   3.193   0.508   0.432
20066TIP3    H160075   3.139   0.452   0.376
20066TIP3    H260076   3.131   0.567   0.474
20067TIP3   OH260077   9.432   0.047   3.252
20067TIP3    H160078   9.423  -0.048   3.257
20067TIP3    H260079   9.421   0.068   3.159
20068TIP3   OH260080   4.882   0.255   4.786
20068TIP3    H160081   4.909   0.163   4.785
20068TIP3    H260082   4.928   0.293   4.860
20069TIP3   OH260083   6.719   5.668   1.625
20069TIP3    H160084   6.803   5.630   1.653
20069TIP3    H260085   6.677   5.599   1.574
20070TIP3   OH260086   4.250   1.103   3.068
20070TIP3    H160087   4.178   1.066   3.018
20070TIP3    H260088   4.210   1.171   3.122
20071TIP3   OH260089   0.162   6.684   1.609
20071TIP3    H160090   0.156   6.734   1.527
20071TIP3    H260091   0.158   6.593   1.582
20072TIP3   OH260092   1.752   8.947   1.411
20072TIP3    H160093   1.743   8.864   1.458
20072TIP3    H260094   1.785   8.922   1.325
20073TIP3   OH260095   1.156   8.952   5.496
20073TIP3    H160096   1.184   9.037   5.462
20073TIP3    H260097   1.184   8.952   5.587
20074TIP3   OH260098   4.846   6.438   6.216
20074TIP3    H160099   4.832   6.379   6.142
20074TIP3    H260100   4.796   6.400   6.288
20075TIP3   OH260101   3.839   5.845   0.992
20075TIP3    H160102   3.926   5.825   1.028
20075TIP3    H260103   3.830   5.939   1.004
20076TIP3   OH260104   2.314   7.613   1.349
20076TIP3    H160105   2.257   7.550   1.304
20076TIP3    H260106   2.316   7.689   1.290
20077TIP3   OH260107   2.739   4.097   4.835
20077TIP3    H160108   2.788   4.103   4.917
20077TIP3    H260109   2.657   4.053   4.859
20078TIP3   OH260110   3.728   1.655   1.886
20078TIP3    H160111   3.660   1.589   1.898
20078TIP3    H260112   3.781   1.622   1.813
20079TIP3   OH260113   9.186   4.385   1.476
20079TIP3    H160114   9.259   4.394   1.416
20079TIP3    H260115   9.226   4.366   1.561
20080TIP3   OH260116   6.469   2.024   1.640
20080TIP3    H160117   6.409   1.950   1.647
20080TIP3    H260118   6.514   2.010   1.556
20081TIP3   OH260119   2.348   1.607   1.390
20081TIP3    H160120   2.403   1.544   1.437
20081TIP3    H260121   2.304   1.657   1.458
20082TIP3   OH260122   9.012   0.168   1.442
20082TIP3    H160123   9.067   0.090   1.444
20082TIP3    H260124   9.023   0.204   1.355
20083TIP3   OH260125   4.206   3.692   2.314
20083TIP3    H160126   4.123   3.668   2.275
20083TIP3    H260127   4.246   3.752   2.251
20084TIP3   OH260128   8.265   6.569   7.774
20084TIP3    H160129   8.330   6.518   7.725
20084TIP3    H260130   8.184   6.519   7.763
20085TIP3   OH260131   7.732   7.663   6.160
20085TIP3    H160132   7.822   7.671   6.191
20085TIP3    H260133   7.707   7.573   6.182
20086TIP3   OH260134   0.132   1.785   0.609
20086TIP3    H160135   0.150   1.800   0.516
20086TIP3    H260136   0.164   1.863   0.653
20087TIP3   OH260137   0.756   6.075   0.020
20087TIP3    H160138   0.734   5.993   0.065
20087TIP3    H260139   0.849   6.065  -0.003
20088TIP3   OH260140   1.911   3.775   4.769
20088TIP3    H160141   1.946   3.687   4.753
20088TIP3    H260142   1.988   3.827   4.793
20089TIP3   OH260143   1.571   2.536   3.721
20089TIP3    H160144   1.542   2.603   3.783
20089TIP3    H260145   1.602   2.586   3.645
20090TIP3   OH260146   9.342   2.246   5.322
20090TIP3    H160147   9.356   2.293   5.405
20090TIP3    H260148   9.402   2.171   5.326
20091TIP3   OH260149   1.665   1.874   3.211
20091TIP3    H160150   1.733   1.873   3.279
20091TIP3    H260151   1.711   1.904   3.132
20092TIP3   OH260152   8.433   7.361   4.696
20092TIP3    H160153   8.516   7.364   4.648
20092TIP3    H260154   8.370   7.403   4.638
20093TIP3   OH260155   2.827   5.241   5.755
20093TIP3    H160156   2.866   5.302   5.691
20093TIP3    H260157   2.845   5.154   5.719
20094TIP3   OH260158   5.079   8.372   4.976
20094TIP3    H160159   5.065   8.311   5.049
20094TIP3    H260160   5.056   8.321   4.898
20095TIP3   OH260161   8.150   1.211   0.600
20095TIP3    H160162   8.107   1.296   0.610
20095TIP3    H260163   8.213   1.224   0.530
20096TIP3   OH260164   8.430   0.648   7.553
20096TIP3    H160165   8.414   0.589   7.627
20096TIP3    H260166   8.486   0.597   7.494
20097TIP3   OH260167   7.602   0.839   7.601
20097TIP3    H160168   7.574   0.826   7.511
20097TIP3    H260169   7.543   0.907   7.635
20098TIP3   OH260170   7.629   1.299   1.253
20098TIP3    H160171   7.669   1.276   1.170
20098TIP3    H260172   7.671   1.242   1.317
20099TIP3   OH260173   8.031   5.266   2.433
20099TIP3    H160174   8.071   5.293   2.350
20099TIP3    H260175   8.046   5.340   2.492
20100TIP3   OH260176   5.591   7.644   4.806
20100TIP3    H160177   5.522   7.640   4.872
20100TIP3    H260178   5.641   7.564   4.820
20101TIP3   OH260179   6.022   7.505   6.340
20101TIP3    H160180   5.954   7.445   6.370
20101TIP3    H260181   5.988   7.541   6.258
20102TIP3   OH260182   1.934   4.867   2.059
20102TIP3    H160183   1.980   4.932   2.112
20102TIP3    H260184   1.920   4.793   2.118
20103TIP3   OH260185   0.409   5.581   6.743
20103TIP3    H160186   0.457   5.534   6.811
20103TIP3    H260187   0.391   5.515   6.677
20104TIP3   OH260188   3.405   1.075   0.769
20104TIP3    H160189   3.382   1.069   0.677
20104TIP3    H260190   3.382   1.164   0.794
20105TIP3   OH260191   8.398   5.826   0.670
20105TIP3    H160192   8.417   5.816   0.763
20105TIP3    H260193   8.463   5.771   0.626
20106TIP3   OH260194   1.124   6.848   2.047
20106TIP3    H160195   1.177   6.862   2.126
20106TIP3    H260196   1.169   6.896   1.978
20107TIP3   OH260197   7.643   3.368   4.565
20107TIP3    H160198   7.566   3.426   4.569
20107TIP3    H260199   7.650   3.332   4.653
20108TIP3   OH260200   0.631   5.410   0.617
20108TIP3    H160201   0.699   5.419   0.684
20108TIP3    H260202   0.551   5.389   0.665
20109TIP3   OH260203   3.970   6.132   6.565
20109TIP3    H160204   3.928   6.207   6.523
20109TIP3    H260205   4.052   6.167   6.600
20110TIP3   OH260206   2.958   8.945   0.576
20110TIP3    H160207   3.023   9.015   0.586
20110TIP3    H260208   2.938   8.918   0.666
20111TIP3   OH260209   9.027   3.590   6.099
20111TIP3    H160210   9.037   3.527   6.171
20111TIP3    H260211   9.107   3.643   6.102
20112TIP3   OH260212   5.891   7.914   6.445
20112TIP3    H160213   5.877   7.837   6.500
20112TIP3    H260214   5.925   7.878   6.362
20113TIP3   OH260215   5.760   5.605   1.629
20113TIP3    H160216   5.789   5.685   1.586
20113TIP3    H260217   5.831   5.583   1.690
20114TIP3   OH260218   3.285   7.769   0.213
20114TIP3    H160219   3.212   7.767   0.151
20114TIP3    H260220   3.285   7.858   0.248
20115TIP3   OH260221   4.685   1.310   2.766
20115TIP3    H160222   4.608   1.276   2.811
20115TIP3    H260223   4.756   1.253   2.793
20116TIP3   OH260224   7.163   4.902   7.078
20116TIP3    H160225   7.199   4.849   7.149
20116TIP3    H260226   7.075   4.868   7.064
20117TIP3   OH260227   7.125   8.994   4.539
20117TIP3    H160228   7.115   9.078   4.585
20117TIP3    H260229   7.210   9.001   4.495
20118TIP3   OH260230   1.147   1.162   6.916
20118TIP3    H160231   1.115   1.252   6.924
20118TIP3    H260232   1.229   1.161   6.965
20119TIP3   OH260233   1.075   7.972   1.100
20119TIP3    H160234   1.148   7.938   1.151
20119TIP3    H260235   1.063   8.062   1.132
20120TIP3   OH260236   6.327   6.966   1.486
20120TIP3    H160237   6.269   6.895   1.512
20120TIP3    H260238   6.324   6.965   1.390
20121TIP3   OH260239   4.409   0.997   7.136
20121TIP3    H160240   4.491   1.031   7.172
20121TIP3    H260241   4.362   0.962   7.212
20122TIP3   OH260242   2.061   2.384   0.115
20122TIP3    H160243   2.131   2.330   0.153
20122TIP3    H260244   1.983   2.329   0.121
20123TIP3   OH260245   2.888   2.916   0.617
20123TIP3    H160246   2.799   2.887   0.599
20123TIP3    H260247   2.882   2.961   0.702
20124TIP3   OH260248   3.450   6.234   5.959
20124TIP3    H160249   3.404   6.317   5.969
20124TIP3    H260250   3.495   6.241   5.875
20125TIP3   OH260251   8.172   1.723   2.435
20125TIP3    H160252   8.150   1.815   2.423
20125TIP3    H260253   8.242   1.706   2.372
20126TIP3   OH260254   4.413   6.109   6.151
20126TIP3    H160255   4.420   6.104   6.056
20126TIP3    H260256   4.341   6.050   6.173
20127TIP3   OH260257   7.923   4.545   3.582
20127TIP3    H160258   7.873   4.484   3.528
20127TIP3    H260259   7.938   4.621   3.525
20128TIP3   OH260260   3.050   2.460   3.775
20128TIP3    H160261   3.123   2.429   3.829
20128TIP3    H260262   3.020   2.382   3.728
20129TIP3   OH260263   1.712   6.103   7.770
20129TIP3    H160264   1.685   6.016   7.801
20129TIP3    H260265   1.806   6.107   7.789
20130TIP3   OH260266   5.966   8.146   1.921
20130TIP3    H160267   5.940   8.220   1.866
20130TIP3    H260268   5.956   8.178   2.011
20131TIP3   OH260269   4.034   5.353   5.301
20131TIP3    H160270   4.001   5.325   5.386
20131TIP3    H260271   3.956   5.375   5.250
20132TIP3   OH260272   7.480   0.423   7.021
20132TIP3    H160273   7.513   0.405   6.933
20132TIP3    H260274   7.391   0.390   7.022
20133TIP3   OH260275   7.603   3.830   5.721
20133TIP3    H160276   7.621   3.908   5.668
20133TIP3    H260277   7.646   3.759   5.673
20134TIP3   OH260278   2.667   0.841   5.399
20134TIP3    H160279   2.657   0.879   5.312
20134TIP3    H260280   2.736   0.774   5.388
20135TIP3   OH260281   0.819   1.729   4.336
20135TIP3    H160282   0.773   1.654   4.299
20135TIP3    H260283   0.750   1.780   4.379
20136TIP3   OH260284   6.968   1.983   2.892
20136TIP3    H160285   6.924   1.914   2.943
20136TIP3    H260286   7.027   2.025   2.955
20137TIP3   OH260287   8.779   7.164   4.356
20137TIP3    H160288   8.771   7.069   4.361
20137TIP3    H260289   8.871   7.180   4.337
20138TIP3   OH260290   8.425   6.488   6.689
20138TIP3    H160291   8.461   6.404   6.718
20138TIP3    H260292   8.342   6.465   6.646
20139TIP3   OH260293   0.400   1.132   0.311
20139TIP3    H160294   0.306   1.125   0.294
20139TIP3    H260295   0.407   1.128   0.406
20140TIP3   OH260296   9.554   1.580   3.757
20140TIP3    H160297   9.585   1.660   3.799
20140TIP3    H260298   9.631   1.544   3.714
20141TIP3   OH260299   8.840   1.809   2.748
20141TIP3    H160300   8.842   1.866   2.825
20141TIP3    H260301   8.927   1.771   2.744
20142TIP3   OH260302   5.029   2.760   1.305
20142TIP3    H160303   4.964   2.693   1.283
20142TIP3    H260304   5.082   2.720   1.375
20143TIP3   OH260305   7.143   7.489   0.654
20143TIP3    H160306   7.108   7.490   0.743
20143TIP3    H260307   7.194   7.570   0.647
20144TIP3   OH260308   6.573   8.158   1.099
20144TIP3    H160309   6.663   8.129   1.113
20144TIP3    H260310   6.523   8.111   1.166
20145TIP3   OH260311   4.561   4.520   4.929
20145TIP3    H160312   4.607   4.604   4.938
20145TIP3    H260313   4.617   4.469   4.871
20146TIP3   OH260314   7.168   1.466   2.013
20146TIP3    H160315   7.079   1.500   2.007
20146TIP3    H260316   7.210   1.522   2.079
20147TIP3   OH260317   8.385   1.057   7.131
20147TIP3    H160318   8.299   1.090   7.157
20147TIP3    H260319   8.388   0.967   7.166
20148TIP3   OH260320   4.694   4.161   0.948
20148TIP3    H160321   4.789   4.171   0.940
20148TIP3    H260322   4.665   4.241   0.992
20149TIP3   OH260323   1.599   2.786   1.268
20149TIP3    H160324   1.662   2.782   1.196
20149TIP3    H260325   1.549   2.865   1.251
20150TIP3   OH260326   6.453   3.189   4.337
20150TIP3    H160327   6.435   3.194   4.243
20150TIP3    H260328   6.368   3.169   4.376
20151TIP3   OH260329   3.746   8.260   3.879
20151TIP3    H160330   3.696   8.342   3.870
20151TIP3    H260331   3.823   8.285   3.929
20152TIP3   OH260332   5.342   7.262   1.544
20152TIP3    H160333   5.256   7.244   1.584
20152TIP3    H260334   5.322   7.320   1.471
20153TIP3   OH260335   5.008   4.960   4.829
20153TIP3    H160336   4.962   4.932   4.908
20153TIP3    H260337   4.938   4.980   4.767
20154TIP3   OH260338   7.679   1.773   4.332
20154TIP3    H160339   7.759   1.723   4.314
20154TIP3    H260340   7.709   1.864   4.338
20155TIP3   OH260341   1.119   0.452   4.392
20155TIP3    H160342   1.193   0.458   4.332
20155TIP3    H260343   1.054   0.512   4.357
20156TIP3   OH260344   4.784   5.245   4.934
20156TIP3    H160345   4.802   5.236   5.028
20156TIP3    H260346   4.706   5.192   4.920
20157TIP3   OH260347   4.495   5.641   3.573
20157TIP3    H160348   4.456   5.576   3.514
20157TIP3    H260349   4.583   5.607   3.589
20158TIP3   OH260350   6.989   7.790   2.431
20158TIP3    H160351   6.990   7.855   2.361
20158TIP3    H260352   6.932   7.720   2.398
20159TIP3   OH260353   9.284   5.316   1.730
20159TIP3    H160354   9.250   5.320   1.640
20159TIP3    H260355   9.230   5.249   1.772
20160TIP3   OH260356   3.684   3.269   7.767
20160TIP3    H160357   3.601   3.287   7.812
20160TIP3    H260358   3.663   3.198   7.707
20161TIP3   OH260359   0.013   6.743   1.954
20161TIP3    H160360  -0.007   6.676   1.889
20161TIP3    H260361  -0.061   6.742   2.014
20162TIP3   OH260362   2.987   7.438   4.677
20162TIP3    H160363   2.944   7.353   4.680
20162TIP3    H260364   3.051   7.435   4.748
20163TIP3   OH260365   1.859   1.150   6.091
20163TIP3    H160366   1.911   1.070   6.085
20163TIP3    H260367   1.873   1.194   6.007
20164TIP3   OH260368   4.105   8.814   6.944
20164TIP3    H160369   4.104   8.908   6.924
20164TIP3    H260370   4.173   8.805   7.011
20165TIP3   OH260371   5.273   7.560   6.698
20165TIP3    H160372   5.319   7.552   6.614
20165TIP3    H260373   5.342   7.583   6.760
20166TIP3   OH260374   5.150   3.923   7.261
20166TIP3    H160375   5.239   3.958   7.253
20166TIP3    H260376   5.100   3.973   7.197
20167TIP3   OH260377   5.076   7.913   0.766
20167TIP3    H160378   5.105   8.004   0.769
20167TIP3    H260379   5.145   7.864   0.811
20168TIP3   OH260380   2.771   1.309   6.364
20168TIP3    H160381   2.684   1.338   6.337
20168TIP3    H260382   2.830   1.348   6.300
20169TIP3   OH260383   0.947   5.253   7.517
20169TIP3    H160384   0.984   5.340   7.508
20169TIP3    H260385   0.915   5.232   7.429
20170TIP3   OH260386   4.680   0.894   4.678
20170TIP3    H160387   4.657   0.816   4.728
20170TIP3    H260388   4.715   0.861   4.596
20171TIP3   OH260389   2.458   7.460   7.557
20171TIP3    H160390   2.401   7.422   7.625
20171TIP3    H260391   2.524   7.393   7.541
20172TIP3   OH260392   2.217   5.214   4.028
20172TIP3    H160393   2.282   5.205   3.959
20172TIP3    H260394   2.152   5.274   3.994
20173TIP3   OH260395   4.653   8.902   0.573
20173TIP3    H160396   4.661   8.987   0.617
20173TIP3    H260397   4.712   8.844   0.622
20174TIP3   OH260398   2.620   7.948   0.407
20174TIP3    H160399   2.666   7.902   0.337
20174TIP3    H260400   2.688   7.997   0.452
20175TIP3   OH260401   1.660   3.892   3.614
20175TIP3    H160402   1.643   3.828   3.545
20175TIP3    H260403   1.584   3.950   3.613
20176TIP3   OH260404   1.530   0.051   6.669
20176TIP3    H160405   1.494  -0.014   6.610
20176TIP3    H260406   1.517   0.015   6.757
20177TIP3   OH260407   7.984   4.235   7.399
20177TIP3    H160408   8.064   4.276   7.432
20177TIP3    H260409   8.010   4.196   7.315
20178TIP3   OH260410   0.734   5.738   0.559
20178TIP3    H160411   0.711   5.645   0.563
20178TIP3    H260412   0.653   5.782   0.533
20179TIP3   OH260413   4.834   4.560   5.134
20179TIP3    H160414   4.920   4.602   5.138
20179TIP3    H260415   4.848   4.484   5.077
20180TIP3   OH260416   7.950   0.805   5.359
20180TIP3    H160417   7.952   0.855   5.441
20180TIP3    H260418   8.037   0.767   5.352
20181TIP3   OH260419   6.884   0.928   2.399
20181TIP3    H160420   6.887   1.020   2.373
20181TIP3    H260421   6.807   0.893   2.353
20182TIP3   OH260422   2.559   6.902   4.194
20182TIP3    H160423   2.503   6.834   4.234
20182TIP3    H260424   2.524   6.913   4.106
20183TIP3   OH260425   8.121   1.424   6.433
20183TIP3    H160426   8.155   1.339   6.460
20183TIP3    H260427   8.189   1.460   6.376
20184TIP3   OH260428   7.078   2.901   4.932
20184TIP3    H160429   7.140   2.935   4.866
20184TIP3    H260430   7.123   2.824   4.968
20185TIP3   OH260431   5.766   6.657   6.346
20185TIP3    H160432   5.752   6.681   6.254
20185TIP3    H260433   5.683   6.677   6.389
20186TIP3   OH260434   4.406   4.423   6.109
20186TIP3    H160435   4.443   4.464   6.187
20186TIP3    H260436   4.332   4.372   6.141
20187TIP3   OH260437   1.984   4.349   2.402
20187TIP3    H160438   1.990   4.431   2.451
20187TIP3    H260439   1.981   4.375   2.310
20188TIP3   OH260440   2.884   7.733   0.863
20188TIP3    H160441   2.872   7.691   0.948
20188TIP3    H260442   2.849   7.671   0.800
20189TIP3   OH260443   8.737   6.143   0.245
20189TIP3    H160444   8.769   6.082   0.179
20189TIP3    H260445   8.746   6.229   0.204
20190TIP3   OH260446   8.115   1.631   5.192
20190TIP3    H160447   8.120   1.622   5.097
20190TIP3    H260448   8.145   1.720   5.209
20191TIP3   OH260449   9.120   6.147   3.526
20191TIP3    H160450   9.097   6.059   3.499
20191TIP3    H260451   9.190   6.135   3.590
20192TIP3   OH260452   8.623   2.563   1.101
20192TIP3    H160453   8.641   2.645   1.147
20192TIP3    H260454   8.699   2.508   1.121
20193TIP3   OH260455   1.575   2.912   4.806
20193TIP3    H160456   1.638   2.975   4.841
20193TIP3    H260457   1.556   2.853   4.879
20194TIP3   OH260458   2.729   3.482   2.601
20194TIP3    H160459   2.667   3.553   2.613
20194TIP3    H260460   2.727   3.463   2.507
20195TIP3   OH260461   6.224   8.290   6.978
20195TIP3    H160462   6.294   8.234   7.011
20195TIP3    H260463   6.267   8.371   6.953
20196TIP3   OH260464   4.808   1.242   4.108
20196TIP3    H160465   4.870   1.271   4.176
20196TIP3    H260466   4.854   1.258   4.025
20197TIP3   OH260467   6.741   2.573   4.811
20197TIP3    H160468   6.791   2.644   4.852
20197TIP3    H260469   6.800   2.498   4.810
20198TIP3   OH260470   3.336   6.399   7.575
20198TIP3    H160471   3.267   6.456   7.609
20198TIP3    H260472   3.307   6.311   7.598
20199TIP3   OH260473   4.160   7.811   7.631
20199TIP3    H160474   4.136   7.901   7.609
20199TIP3    H260475   4.175   7.769   7.546
20200TIP3   OH260476   7.362   2.378   3.866
20200TIP3    H160477   7.269   2.396   3.881
20200TIP3    H260478   7.379   2.413   3.779
20201TIP3   OH260479   6.181   6.455   1.867
20201TIP3    H160480   6.200   6.546   1.846
20201TIP3    H260481   6.098   6.437   1.824
20202TIP3   OH260482   9.416   6.574   4.117
20202TIP3    H160483   9.333   6.580   4.070
20202TIP3    H260484   9.402   6.504   4.181
20203TIP3   OH260485   5.020   8.900   2.148
20203TIP3    H160486   5.000   8.985   2.189
20203TIP3    H260487   5.066   8.851   2.216
20204TIP3   OH260488   9.415   7.637   5.156
20204TIP3    H160489   9.484   7.604   5.099
20204TIP3    H260490   9.358   7.688   5.098
20205TIP3   OH260491   7.978   5.150   4.733
20205TIP3    H160492   8.045   5.216   4.720
20205TIP3    H260493   8.018   5.068   4.703
20206TIP3   OH260494   4.100   0.384   3.691
20206TIP3    H160495   4.119   0.292   3.672
20206TIP3    H260496   4.181   0.417   3.731
20207TIP3   OH260497   1.228   6.620   5.270
20207TIP3    H160498   1.322   6.625   5.255
20207TIP3    H260499   1.190   6.618   5.181
20208TIP3   OH260500   2.991   8.387   0.547
20208TIP3    H160501   2.996   8.330   0.470
20208TIP3    H260502   3.075   8.433   0.548
20209TIP3   OH260503   1.915   6.043   6.691
20209TIP3    H160504   1.973   6.101   6.642
20209TIP3    H260505   1.872   5.989   6.624
20210TIP3   OH260506   6.840   8.222   7.595
20210TIP3    H160507   6.801   8.236   7.681
20210TIP3    H260508   6.934   8.224   7.610
20211TIP3   OH260509   6.057   3.279   2.876
20211TIP3    H160510   5.995   3.334   2.924
20211TIP3    H260511   6.082   3.211   2.939
20212TIP3   OH260512   2.696   5.824   2.628
20212TIP3    H160513   2.782   5.810   2.588
20212TIP3    H260514   2.715   5.868   2.711
20213TIP3   OH260515   6.054   0.076   1.085
20213TIP3    H160516   6.008   0.008   1.133
20213TIP3    H260517   6.117   0.112   1.148
20214TIP3   OH260518   8.735   8.628   3.034
20214TIP3    H160519   8.658   8.570   3.031
20214TIP3    H260520   8.716   8.687   3.107
20215TIP3   OH260521   6.626   8.357   4.062
20215TIP3    H160522   6.538   8.396   4.061
20215TIP3    H260523   6.670   8.398   4.136
20216TIP3   OH260524   2.766   5.991   4.960
20216TIP3    H160525   2.854   5.956   4.972
20216TIP3    H260526   2.728   5.990   5.048
20217TIP3   OH260527   0.530   1.403   1.649
20217TIP3    H160528   0.611   1.372   1.690
20217TIP3    H260529   0.465   1.335   1.668
20218TIP3   OH260530   7.980   2.845   0.638
20218TIP3    H160531   7.955   2.777   0.576
20218TIP3    H260532   7.991   2.798   0.721
20219TIP3   OH260533   0.500   3.187   0.371
20219TIP3    H160534   0.487   3.245   0.296
20219TIP3    H260535   0.461   3.235   0.445
20220TIP3   OH260536   6.255   7.563   5.960
20220TIP3    H160537   6.331   7.620   5.948
20220TIP3    H260538   6.240   7.524   5.873
20221TIP3   OH260539   1.659   4.458   0.696
20221TIP3    H160540   1.717   4.401   0.645
20221TIP3    H260541   1.595   4.398   0.735
20222TIP3   OH260542   3.458   0.641   6.962
20222TIP3    H160543   3.459   0.712   7.025
20222TIP3    H260544   3.456   0.561   7.016
20223TIP3   OH260545   5.569   2.800   1.259
20223TIP3    H160546   5.499   2.742   1.290
20223TIP3    H260547   5.641   2.740   1.238
20224TIP3   OH260548   4.403   8.265   3.679
20224TIP3    H160549   4.349   8.326   3.628
20224TIP3    H260550   4.443   8.209   3.613
20225TIP3   OH260551   7.272   2.771   7.638
20225TIP3    H160552   7.265   2.866   7.643
20225TIP3    H260553   7.358   2.755   7.599
20226TIP3   OH260554   1.364   8.152   5.866
20226TIP3    H160555   1.297   8.108   5.919
20226TIP3    H260556   1.323   8.232   5.835
20227TIP3   OH260557   5.098   2.719   6.221
20227TIP3    H160558   5.172   2.734   6.279
20227TIP3    H260559   5.072   2.628   6.240
20228TIP3   OH260560   9.267   7.397   5.804
20228TIP3    H160561   9.327   7.401   5.730
20228TIP3    H260562   9.310   7.339   5.867
20229TIP3   OH260563   4.531   2.020   6.243
20229TIP3    H160564   4.461   1.959   6.266
20229TIP3    H260565   4.540   2.077   6.319
20230TIP3   OH260566   2.756   6.441   0.202
20230TIP3    H160567   2.840   6.466   0.240
20230TIP3    H260568   2.699   6.428   0.278
20231TIP3   OH260569   3.344   2.628   1.023
20231TIP3    H160570   3.398   2.550   1.033
20231TIP3    H260571   3.265   2.597   0.978
20232TIP3   OH260572   3.168   7.377   4.463
20232TIP3    H160573   3.149   7.284   4.478
20232TIP3    H260574   3.097   7.423   4.507
20233TIP3   OH260575   1.123   0.800   2.652
20233TIP3    H160576   1.169   0.755   2.723
20233TIP3    H260577   1.039   0.825   2.691
20234TIP3   OH260578   5.797   7.735   3.588
20234TIP3    H160579   5.708   7.699   3.587
20234TIP3    H260580   5.853   7.661   3.567
20235TIP3   OH260581   4.405   2.897   4.052
20235TIP3    H160582   4.390   2.939   4.137
20235TIP3    H260583   4.377   2.962   3.988
20236TIP3   OH260584   1.391   4.874   0.042
20236TIP3    H160585   1.413   4.783   0.061
20236TIP3    H260586   1.470   4.910   0.000
20237TIP3   OH260587   8.194   8.478   6.817
20237TIP3    H160588   8.268   8.535   6.839
20237TIP3    H260589   8.127   8.500   6.882
20238TIP3   OH260590   8.839   5.231   1.886
20238TIP3    H160591   8.919   5.255   1.839
20238TIP3    H260592   8.864   5.229   1.978
20239TIP3   OH260593   0.256   5.848   0.338
20239TIP3    H160594   0.163   5.844   0.362
20239TIP3    H260595   0.260   5.807   0.251
20240TIP3   OH260596   6.009   2.405   6.219
20240TIP3    H160597   5.979   2.383   6.307
20240TIP3    H260598   5.956   2.481   6.194
20241TIP3   OH260599   4.172   1.072   0.263
20241TIP3    H160600   4.095   1.111   0.223
20241TIP3    H260601   4.138   1.005   0.322
20242TIP3   OH260602   8.442   1.823   1.599
20242TIP3    H160603   8.430   1.734   1.632
20242TIP3    H260604   8.516   1.817   1.539
20243TIP3   OH260605   3.743   4.099   5.928
20243TIP3    H160606   3.700   4.051   5.857
20243TIP3    H260607   3.834   4.108   5.900
20244TIP3   OH260608   0.329   2.842   2.434
20244TIP3    H160609   0.391   2.869   2.501
20244TIP3    H260610   0.357   2.754   2.409
20245TIP3   OH260611   5.027   8.345   0.916
20245TIP3    H160612   5.012   8.339   1.010
20245TIP3    H260613   4.971   8.278   0.877
20246TIP3   OH260614   4.296   7.046   5.664
20246TIP3    H160615   4.238   7.108   5.618
20246TIP3    H260616   4.280   6.962   5.621
20247TIP3   OH260617   4.049   0.495   3.222
20247TIP3    H160618   3.960   0.477   3.253
20247TIP3    H260619   4.099   0.513   3.301
20248TIP3   OH260620   7.393   5.568   2.891
20248TIP3    H160621   7.480   5.573   2.929
20248TIP3    H260622   7.401   5.505   2.820
20249TIP3   OH260623   2.532   8.620   4.574
20249TIP3    H160624   2.520   8.535   4.531
20249TIP3    H260625   2.554   8.598   4.664
20250TIP3   OH260626   3.328   5.701   0.955
20250TIP3    H160627   3.347   5.785   0.914
20250TIP3    H260628   3.363   5.636   0.893
20251TIP3   OH260629   9.017   8.303   7.567
20251TIP3    H160630   9.070   8.368   7.613
20251TIP3    H260631   9.049   8.218   7.597
20252TIP3   OH260632   2.005   1.999   7.433
20252TIP3    H160633   1.957   1.917   7.441
20252TIP3    H260634   2.075   1.993   7.498
20253TIP3   OH260635   5.625   2.799   1.759
20253TIP3    H160636   5.548   2.849   1.734
20253TIP3    H260637   5.668   2.776   1.677
20254TIP3   OH260638   0.904   6.646   1.180
20254TIP3    H160639   0.994   6.633   1.210
20254TIP3    H260640   0.912   6.660   1.086
20255TIP3   OH260641   8.645   6.617   7.032
20255TIP3    H160642   8.562   6.574   7.051
20255TIP3    H260643   8.642   6.699   7.081
20256TIP3   OH260644   7.398   5.066   7.775
20256TIP3    H160645   7.304   5.051   7.767
20256TIP3    H260646   7.412   5.153   7.736
20257TIP3   OH260647   1.982   1.426   5.321
20257TIP3    H160648   1.971   1.447   5.228
20257TIP3    H260649   2.071   1.391   5.328
20258TIP3   OH260650   4.728   1.774   7.191
20258TIP3    H160651   4.636   1.797   7.199
20258TIP3    H260652   4.753   1.740   7.277
20259TIP3   OH260653   8.868   8.998   4.818
20259TIP3    H160654   8.779   8.964   4.807
20259TIP3    H260655   8.866   9.084   4.775
20260TIP3   OH260656   0.421   6.050   3.461
20260TIP3    H160657   0.430   6.111   3.534
20260TIP3    H260658   0.438   6.103   3.383
20261TIP3   OH260659   1.095   2.700   7.079
20261TIP3    H160660   1.008   2.730   7.107
20261TIP3    H260661   1.148   2.780   7.075
20262TIP3   OH260662   6.338   2.236   2.995
20262TIP3    H160663   6.250   2.252   2.962
20262TIP3    H260664   6.346   2.293   3.071
20263TIP3   OH260665   3.290   5.850   3.167
20263TIP3    H160666   3.252   5.832   3.253
20263TIP3    H260667   3.235   5.799   3.106
20264TIP3   OH260668   3.798   2.038   1.682
20264TIP3    H160669   3.710   2.073   1.692
20264TIP3    H260670   3.822   2.009   1.770
20265TIP3   OH260671   1.053   8.001   7.591
20265TIP3    H160672   1.113   8.056   7.540
20265TIP3    H260673   1.069   7.912   7.558
20266TIP3   OH260674   6.607   1.130   2.156
20266TIP3    H160675   6.523   1.116   2.200
20266TIP3    H260676   6.656   1.187   2.215
20267TIP3   OH260677   1.089   1.870   2.344
20267TIP3    H160678   1.027   1.812   2.300
20267TIP3    H260679   1.162   1.813   2.367
20268TIP3   OH260680   7.108   7.345   5.311
20268TIP3    H160681   7.041   7.281   5.287
20268TIP3    H260682   7.161   7.356   5.232
20269TIP3   OH260683   0.283   8.720   1.102
20269TIP3    H160684   0.231   8.648   1.067
20269TIP3    H260685   0.284   8.785   1.032
20270TIP3   OH260686   8.413   3.880   2.987
20270TIP3    H160687   8.489   3.935   2.973
20270TIP3    H260688   8.343   3.940   3.012
20271TIP3   OH260689   3.411   7.581   7.547
20271TIP3    H160690   3.399   7.676   7.545
20271TIP3    H260691   3.505   7.569   7.534
20272TIP3   OH260692   1.619   2.066   1.363
20272TIP3    H160693   1.558   2.009   1.410
20272TIP3    H260694   1.576   2.152   1.364
20273TIP3   OH260695   2.228   5.182   5.459
20273TIP3    H160696   2.176   5.226   5.527
20273TIP3    H260697   2.183   5.205   5.378
20274TIP3   OH260698   5.108   8.797   1.353
20274TIP3    H160699   5.058   8.855   1.411
20274TIP3    H260700   5.054   8.790   1.274
20275TIP3   OH260701   6.277   3.250   7.697
20275TIP3    H160702   6.182   3.260   7.683
20275TIP3    H260703   6.316   3.274   7.613
20276TIP3   OH260704   3.721   3.032   3.967
20276TIP3    H160705   3.684   2.955   3.925
20276TIP3    H260706   3.806   3.044   3.925
20277TIP3   OH260707   2.784   3.234   4.750
20277TIP3    H160708   2.826   3.173   4.811
20277TIP3    H260709   2.708   3.186   4.717
20278TIP3   OH260710   2.262   3.437   1.545
20278TIP3    H160711   2.241   3.396   1.629
20278TIP3    H260712   2.203   3.513   1.541
20279TIP3   OH260713   6.452   2.552   7.097
20279TIP3    H160714   6.478   2.643   7.085
20279TIP3    H260715   6.500   2.504   7.030
20280TIP3   OH260716   3.273   7.107   1.854
20280TIP3    H160717   3.217   7.148   1.920
20280TIP3    H260718   3.359   7.147   1.867
20281TIP3   OH260719   5.618   2.953   3.731
20281TIP3    H160720   5.665   2.948   3.815
20281TIP3    H260721   5.673   2.903   3.670
20282TIP3   OH260722   2.643   5.853   0.314
20282TIP3    H160723   2.577   5.811   0.369
20282TIP3    H260724   2.678   5.923   0.369
20283TIP3   OH260725   7.160   0.978   5.566
20283TIP3    H160726   7.250   0.994   5.539
20283TIP3    H260727   7.152   1.021   5.650
20284TIP3   OH260728   9.452   7.586   2.761
20284TIP3    H160729   9.536   7.618   2.729
20284TIP3    H260730   9.457   7.594   2.856
20285TIP3   OH260731   7.085   0.003   1.236
20285TIP3    H160732   7.127   0.060   1.300
20285TIP3    H260733   7.151  -0.011   1.169
20286TIP3   OH260734   5.351   8.913   2.309
20286TIP3    H160735   5.314   8.980   2.251
20286TIP3    H260736   5.364   8.837   2.252
20287TIP3   OH260737   1.006   1.690   5.982
20287TIP3    H160738   1.044   1.726   5.901
20287TIP3    H260739   1.068   1.715   6.050
20288TIP3   OH260740   4.237   8.610   2.743
20288TIP3    H160741   4.186   8.677   2.789
20288TIP3    H260742   4.171   8.547   2.712
20289TIP3   OH260743   1.939   7.088   4.093
20289TIP3    H160744   1.954   7.166   4.038
20289TIP3    H260745   1.986   7.018   4.048
20290TIP3   OH260746   2.712   4.544   4.997
20290TIP3    H160747   2.711   4.480   4.925
20290TIP3    H260748   2.763   4.617   4.963
20291TIP3   OH260749   0.685   3.713   4.269
20291TIP3    H160750   0.694   3.707   4.364
20291TIP3    H260751   0.711   3.627   4.237
20292TIP3   OH260752   8.978   2.678   3.788
20292TIP3    H160753   9.017   2.743   3.846
20292TIP3    H260754   8.897   2.719   3.757
20293TIP3   OH260755   3.476   0.806   3.834
20293TIP3    H160756   3.529   0.752   3.774
20293TIP3    H260757   3.390   0.764   3.834
20294TIP3   OH260758   4.517   5.414   4.540
20294TIP3    H160759   4.569   5.417   4.620
20294TIP3    H260760   4.427   5.403   4.571
20295TIP3   OH260761   6.527   3.527   4.732
20295TIP3    H160762   6.498   3.484   4.652
20295TIP3    H260763   6.621   3.510   4.736
20296TIP3   OH260764   8.323   3.707   2.780
20296TIP3    H160765   8.400   3.686   2.727
20296TIP3    H260766   8.360   3.748   2.859
20297TIP3   OH260767   0.588   8.838   1.688
20297TIP3    H160768   0.605   8.876   1.774
20297TIP3    H260769   0.508   8.880   1.658
20298TIP3   OH260770   0.227   5.762   7.278
20298TIP3    H160771   0.159   5.774   7.344
20298TIP3    H260772   0.250   5.850   7.251
20299TIP3   OH260773   8.292   8.527   5.356
20299TIP3    H160774   8.270   8.612   5.394
20299TIP3    H260775   8.378   8.540   5.317
20300TIP3   OH260776   8.767   6.515   2.080
20300TIP3    H160777   8.744   6.604   2.109
20300TIP3    H260778   8.763   6.463   2.160
20301TIP3   OH260779   0.354   6.235   3.064
20301TIP3    H160780   0.423   6.220   3.127
20301TIP3    H260781   0.399   6.267   2.986
20302TIP3   OH260782   7.436   7.895   0.536
20302TIP3    H160783   7.396   7.888   0.449
20302TIP3    H260784   7.529   7.881   0.522
20303TIP3   OH260785   0.344   8.809   3.615
20303TIP3    H160786   0.327   8.883   3.556
20303TIP3    H260787   0.322   8.843   3.702
20304TIP3   OH260788   7.091   2.783   7.102
20304TIP3    H160789   7.119   2.854   7.160
20304TIP3    H260790   7.172   2.755   7.058
20305TIP3   OH260791   7.722   5.712   6.703
20305TIP3    H160792   7.755   5.704   6.614
20305TIP3    H260793   7.778   5.654   6.755
20306TIP3   OH260794   0.148   3.707   4.537
20306TIP3    H160795   0.104   3.744   4.614
20306TIP3    H260796   0.235   3.747   4.538
20307TIP3   OH260797   2.405   4.730   7.180
20307TIP3    H160798   2.381   4.819   7.155
20307TIP3    H260799   2.354   4.674   7.122
20308TIP3   OH260800   2.840   1.047   6.421
20308TIP3    H160801   2.757   1.000   6.424
20308TIP3    H260802   2.816   1.137   6.396
20309TIP3   OH260803   3.241   8.038   6.714
20309TIP3    H160804   3.253   8.130   6.691
20309TIP3    H260805   3.202   7.999   6.635
20310TIP3   OH260806   3.127   5.014   0.142
20310TIP3    H160807   3.200   5.037   0.085
20310TIP3    H260808   3.051   5.013   0.084
20311TIP3   OH260809   8.445   2.240   1.453
20311TIP3    H160810   8.508   2.303   1.487
20311TIP3    H260811   8.486   2.204   1.374
20312TIP3   OH260812   5.041   7.553   6.903
20312TIP3    H160813   5.135   7.571   6.890
20312TIP3    H260814   5.015   7.506   6.824
20313TIP3   OH260815   7.745   7.398   4.486
20313TIP3    H160816   7.662   7.433   4.518
20313TIP3    H260817   7.729   7.304   4.478
20314TIP3   OH260818   3.245   2.075   7.473
20314TIP3    H160819   3.170   2.129   7.448
20314TIP3    H260820   3.209   1.986   7.474
20315TIP3   OH260821   3.520   4.797   5.590
20315TIP3    H160822   3.477   4.719   5.558
20315TIP3    H260823   3.590   4.765   5.646
20316TIP3   OH260824   8.682   3.088   3.146
20316TIP3    H160825   8.747   3.019   3.158
20316TIP3    H260826   8.648   3.074   3.058
20317TIP3   OH260827   8.943   5.610   0.656
20317TIP3    H160828   8.928   5.519   0.680
20317TIP3    H260829   8.878   5.659   0.705
20318TIP3   OH260830   6.520   1.651   5.830
20318TIP3    H160831   6.445   1.625   5.777
20318TIP3    H260832   6.535   1.577   5.889
20319TIP3   OH260833   4.733   8.192   1.304
20319TIP3    H160834   4.674   8.251   1.351
20319TIP3    H260835   4.681   8.158   1.231
20320TIP3   OH260836   5.072   7.584   0.740
20320TIP3    H160837   5.074   7.545   0.652
20320TIP3    H260838   5.159   7.622   0.752
20321TIP3   OH260839   5.393   0.919   3.362
20321TIP3    H160840   5.482   0.890   3.343
20321TIP3    H260841   5.340   0.839   3.358
20322TIP3   OH260842   0.975   3.531   6.748
20322TIP3    H160843   0.958   3.494   6.661
20322TIP3    H260844   0.914   3.485   6.806
20323TIP3   OH260845   9.458   8.353   5.068
20323TIP3    H160846   9.509   8.311   5.137
20323TIP3    H260847   9.484   8.445   5.071
20324TIP3   OH260848   5.779   6.566   3.468
20324TIP3    H160849   5.739   6.650   3.490
20324TIP3    H260850   5.705   6.506   3.460
20325TIP3   OH260851   0.661   9.014   7.188
20325TIP3    H160852   0.671   9.073   7.264
20325TIP3    H260853   0.629   9.071   7.118
20326TIP3   OH260854   8.751   5.056   5.030
20326TIP3    H160855   8.775   5.147   5.044
20326TIP3    H260856   8.814   5.006   5.081
20327TIP3   OH260857   8.820   2.482   4.798
20327TIP3    H160858   8.756   2.507   4.865
20327TIP3    H260859   8.801   2.390   4.779
20328TIP3   OH260860   5.767   4.790   2.324
20328TIP3    H160861   5.811   4.865   2.283
20328TIP3    H260862   5.729   4.741   2.251
20329TIP3   OH260863   1.790   2.781   2.685
20329TIP3    H160864   1.726   2.819   2.744
20329TIP3    H260865   1.854   2.740   2.743
20330TIP3   OH260866   7.150   0.446   6.215
20330TIP3    H160867   7.145   0.493   6.298
20330TIP3    H260868   7.060   0.439   6.185
20331TIP3   OH260869   0.845   4.850   7.148
20331TIP3    H160870   0.906   4.803   7.093
20331TIP3    H260871   0.896   4.921   7.187
20332TIP3   OH260872   4.945   5.263   2.661
20332TIP3    H160873   5.022   5.258   2.718
20332TIP3    H260874   4.925   5.356   2.656
20333TIP3   OH260875   8.302   2.102   6.428
20333TIP3    H160876   8.234   2.159   6.464
20333TIP3    H260877   8.287   2.017   6.469
20334TIP3   OH260878   5.735   8.531   1.875
20334TIP3    H160879   5.745   8.442   1.841
20334TIP3    H260880   5.772   8.528   1.963
20335TIP3   OH260881   8.035   6.605   3.152
20335TIP3    H160882   8.124   6.640   3.146
20335TIP3    H260883   8.030   6.570   3.241
20336TIP3   OH260884   5.577   2.823   7.568
20336TIP3    H160885   5.548   2.914   7.561
20336TIP3    H260886   5.672   2.826   7.555
20337TIP3   OH260887   8.719   1.886   7.298
20337TIP3    H160888   8.783   1.862   7.365
20337TIP3    H260889   8.737   1.978   7.280
20338TIP3   OH260890   0.205   0.013   1.296
20338TIP3    H160891   0.279   0.030   1.238
20338TIP3    H260892   0.229   0.055   1.379
20339TIP3   OH260893   1.028   8.098   3.276
20339TIP3    H160894   1.077   8.130   3.351
20339TIP3    H260895   0.983   8.020   3.308
20340TIP3   OH260896   1.360   2.889   0.058
20340TIP3    H160897   1.400   2.811   0.019
20340TIP3    H260898   1.425   2.958   0.046
20341TIP3   OH260899   0.237   3.394   1.174
20341TIP3    H160900   0.143   3.394   1.158
20341TIP3    H260901   0.276   3.417   1.090
20342TIP3   OH260902   1.780   3.758   2.366
20342TIP3    H160903   1.705   3.749   2.424
20342TIP3    H260904   1.744   3.792   2.285
20343TIP3   OH260905   9.380   8.523   3.868
20343TIP3    H160906   9.471   8.501   3.848
20343TIP3    H260907   9.339   8.533   3.782
20344TIP3   OH260908   5.977   2.465   2.171
20344TIP3    H160909   5.947   2.548   2.137
20344TIP3    H260910   5.947   2.464   2.262
20345TIP3   OH260911   9.272   5.413   4.141
20345TIP3    H160912   9.196   5.449   4.096
20345TIP3    H260913   9.347   5.458   4.102
20346TIP3   OH260914   3.502   1.482   1.957
20346TIP3    H160915   3.506   1.404   1.901
20346TIP3    H260916   3.409   1.505   1.959
20347TIP3   OH260917   2.591   4.916   3.720
20347TIP3    H160918   2.621   4.835   3.680
20347TIP3    H260919   2.511   4.938   3.671
20348TIP3   OH260920   1.416   5.571   6.498
20348TIP3    H160921   1.432   5.544   6.589
20348TIP3    H260922   1.333   5.528   6.475
20349TIP3   OH260923   6.309   7.964   0.920
20349TIP3    H160924   6.350   7.923   0.996
20349TIP3    H260925   6.324   8.057   0.932
20350TIP3   OH260926   4.594   6.920   5.401
20350TIP3    H160927   4.630   6.847   5.351
20350TIP3    H260928   4.670   6.967   5.434
20351TIP3   OH260929   6.591   3.031   4.839
20351TIP3    H160930   6.681   3.003   4.853
20351TIP3    H260931   6.558   3.049   4.927
20352TIP3   OH260932   8.639   6.978   7.492
20352TIP3    H160933   8.700   6.908   7.471
20352TIP3    H260934   8.678   7.023   7.567
20353TIP3   OH260935   7.857   0.194   0.202
20353TIP3    H160936   7.865   0.161   0.112
20353TIP3    H260937   7.875   0.118   0.257
20354TIP3   OH260938   2.337   2.253   5.674
20354TIP3    H160939   2.350   2.195   5.599
20354TIP3    H260940   2.338   2.194   5.750
20355TIP3   OH260941   6.098   0.485   4.368
20355TIP3    H160942   6.105   0.552   4.299
20355TIP3    H260943   6.160   0.514   4.435
20356TIP3   OH260944   6.594   4.590   7.600
20356TIP3    H160945   6.657   4.661   7.590
20356TIP3    H260946   6.519   4.617   7.547
20357TIP3   OH260947   3.158   5.735   6.588
20357TIP3    H160948   3.135   5.822   6.555
20357TIP3    H260949   3.120   5.731   6.676
20358TIP3   OH260950   8.247   8.979   7.730
20358TIP3    H160951   8.254   8.911   7.662
20358TIP3    H260952   8.222   9.058   7.682
20359TIP3   OH260953   9.182   8.756   5.947
20359TIP3    H160954   9.112   8.729   6.007
20359TIP3    H260955   9.210   8.841   5.980
20360TIP3   OH260956   3.714   7.881   3.501
20360TIP3    H160957   3.637   7.902   3.448
20360TIP3    H260958   3.698   7.792   3.533
20361TIP3   OH260959   2.570   0.942   2.358
20361TIP3    H160960   2.655   0.897   2.357
20361TIP3    H260961   2.523   0.903   2.431
20362TIP3   OH260962   5.352   6.568   7.748
20362TIP3    H160963   5.258   6.589   7.743
20362TIP3    H260964   5.370   6.522   7.666
20363TIP3   OH260965   5.304   7.112   0.625
20363TIP3    H160966   5.400   7.113   0.619
20363TIP3    H260967   5.283   7.021   0.648
20364TIP3   OH260968   5.269   8.218   5.312
20364TIP3    H160969   5.200   8.260   5.362
20364TIP3    H260970   5.224   8.173   5.241
20365TIP3   OH260971   4.552   6.979   1.412
20365TIP3    H160972   4.571   7.055   1.468
20365TIP3    H260973   4.638   6.943   1.391
20366TIP3   OH260974   7.277   4.177   1.706
20366TIP3    H160975   7.216   4.243   1.673
20366TIP3    H260976   7.360   4.197   1.662
20367TIP3   OH260977   9.322   8.939   4.453
20367TIP3    H160978   9.301   8.855   4.411
20367TIP3    H260979   9.249   8.955   4.513
20368TIP3   OH260980   1.884   1.513   6.758
20368TIP3    H160981   1.928   1.555   6.684
20368TIP3    H260982   1.854   1.429   6.725
20369TIP3   OH260983   9.561   4.694   1.984
20369TIP3    H160984   9.638   4.717   1.932
20369TIP3    H260985   9.505   4.645   1.923
20370TIP3   OH260986   8.029   8.797   6.230
20370TIP3    H160987   8.070   8.814   6.145
20370TIP3    H260988   8.094   8.825   6.294
20371TIP3   OH260989   0.010   8.984   4.856
20371TIP3    H160990   0.048   8.953   4.774
20371TIP3    H260991   0.085   9.013   4.908
20372TIP3   OH260992   1.380   5.801   1.082
20372TIP3    H160993   1.363   5.870   1.146
20372TIP3    H260994   1.373   5.843   0.997
20373TIP3   OH260995   8.217   6.694   2.209
20373TIP3    H160996   8.210   6.789   2.216
20373TIP3    H260997   8.287   6.669   2.269
20374TIP3   OH260998   7.553   2.762   4.420
20374TIP3    H160999   7.598   2.785   4.339
20374TIP3    H261000   7.577   2.671   4.437
20375TIP3   OH261001   6.401   0.045   0.855
20375TIP3    H161002   6.349   0.125   0.861
20375TIP3    H261003   6.472   0.066   0.795
20376TIP3   OH261004   5.340   0.153   0.191
20376TIP3    H161005   5.351   0.066   0.229
20376TIP3    H261006   5.427   0.193   0.197
20377TIP3   OH261007   6.885   8.209   7.332
20377TIP3    H161008   6.849   8.220   7.420
20377TIP3    H261009   6.877   8.115   7.315
20378TIP3   OH261010   5.683   3.345   1.292
20378TIP3    H161011   5.715   3.273   1.237
20378TIP3    H261012   5.661   3.414   1.229
20379TIP3   OH261013   5.206   4.105   4.580
20379TIP3    H161014   5.219   4.102   4.486
20379TIP3    H261015   5.294   4.102   4.617
20380TIP3   OH261016   0.657   2.703   4.493
20380TIP3    H161017   0.689   2.622   4.453
20380TIP3    H261018   0.711   2.715   4.570
20381TIP3   OH261019   3.250   7.454   6.033
20381TIP3    H161020   3.192   7.456   6.109
20381TIP3    H261021   3.192   7.443   5.958
20382TIP3   OH261022   4.042   6.711   3.818
20382TIP3    H161023   4.006   6.647   3.756
20382TIP3    H261024   3.997   6.793   3.797
20383TIP3   OH261025   9.348   4.103   0.286
20383TIP3    H161026   9.327   4.029   0.342
20383TIP3    H261027   9.294   4.091   0.208
20384TIP3   OH261028   2.232   8.991   6.623
20384TIP3    H161029   2.202   9.068   6.670
20384TIP3    H261030   2.306   8.959   6.675
20385TIP3   OH261031   1.678   5.707   5.927
20385TIP3    H161032   1.596   5.668   5.957
20385TIP3    H261033   1.653   5.794   5.895
20386TIP3   OH261034   8.461   0.510   5.399
20386TIP3    H161035   8.501   0.597   5.394
20386TIP3    H261036   8.512   0.463   5.465
20387TIP3   OH261037   9.231   8.418   5.351
20387TIP3    H161038   9.280   8.453   5.277
20387TIP3    H261039   9.299   8.400   5.417
20388TIP3   OH261040   1.574   5.656   5.089
20388TIP3    H161041   1.654   5.637   5.039
20388TIP3    H261042   1.562   5.750   5.080
20389TIP3   OH261043   4.948   6.124   1.707
20389TIP3    H161044   4.965   6.216   1.689
20389TIP3    H261045   5.028   6.092   1.747
20390TIP3   OH261046   0.296   7.421   2.157
20390TIP3    H161047   0.326   7.512   2.147
20390TIP3    H261048   0.252   7.401   2.075
20391TIP3   OH261049   2.420   8.128   6.235
20391TIP3    H161050   2.445   8.037   6.249
20391TIP3    H261051   2.425   8.169   6.321
20392TIP3   OH261052   7.631   0.829   2.289
20392TIP3    H161053   7.699   0.769   2.320
20392TIP3    H261054   7.631   0.901   2.353
20393TIP3   OH261055   7.488   2.218   2.529
20393TIP3    H161056   7.472   2.256   2.615
20393TIP3    H261057   7.530   2.288   2.479
20394TIP3   OH261058   1.089   7.656   0.687
20394TIP3    H161059   1.079   7.733   0.744
20394TIP3    H261060   1.068   7.688   0.600
20395TIP3   OH261061   7.233   0.120   2.259
20395TIP3    H161062   7.220   0.107   2.165
20395TIP3    H261063   7.159   0.074   2.299
20396TIP3   OH261064   9.481   4.899   7.209
20396TIP3    H161065   9.549   4.834   7.227
20396TIP3    H261066   9.402   4.863   7.248
20397TIP3   OH261067   6.316   1.473   1.146
20397TIP3    H161068   6.352   1.550   1.102
20397TIP3    H261069   6.262   1.509   1.217
20398TIP3   OH261070   6.963   0.160   7.786
20398TIP3    H161071   7.051   0.193   7.803
20398TIP3    H261072   6.958   0.154   7.691
20399TIP3   OH261073   2.496   8.729   5.455
20399TIP3    H161074   2.432   8.678   5.405
20399TIP3    H261075   2.553   8.767   5.388
20400TIP3   OH261076   8.598   5.290   7.639
20400TIP3    H161077   8.562   5.342   7.568
20400TIP3    H261078   8.653   5.224   7.595
20401TIP3   OH261079   7.472   7.864   7.372
20401TIP3    H161080   7.493   7.897   7.285
20401TIP3    H261081   7.465   7.769   7.360
20402TIP3   OH261082   3.059   8.857   1.376
20402TIP3    H161083   3.072   8.855   1.281
20402TIP3    H261084   2.965   8.843   1.387
20403TIP3   OH261085   9.383   6.235   5.577
20403TIP3    H161086   9.336   6.319   5.586
20403TIP3    H261087   9.316   6.169   5.596
20404TIP3   OH261088   8.077   4.557   7.542
20404TIP3    H161089   8.079   4.555   7.446
20404TIP3    H261090   8.006   4.498   7.566
20405TIP3   OH261091   1.244   7.661   2.470
20405TIP3    H161092   1.264   7.609   2.548
20405TIP3    H261093   1.224   7.748   2.503
20406TIP3   OH261094   8.160   8.839   6.000
20406TIP3    H161095   8.173   8.856   5.906
20406TIP3    H261096   8.217   8.902   6.044
20407TIP3   OH261097   4.055   5.210   0.717
20407TIP3    H161098   4.023   5.142   0.775
20407TIP3    H261099   3.986   5.220   0.651
20408TIP3   OH261100   2.324   3.626   3.833
20408TIP3    H161101   2.410   3.587   3.844
20408TIP3    H261102   2.268   3.553   3.806
20409TIP3   OH261103   7.572   7.324   0.056
20409TIP3    H161104   7.567   7.419   0.044
20409TIP3    H261105   7.485   7.300   0.088
20410TIP3   OH261106   8.610   0.233   7.443
20410TIP3    H161107   8.636   0.153   7.398
20410TIP3    H261108   8.634   0.218   7.535
20411TIP3   OH261109   2.333   3.332   0.621
20411TIP3    H161110   2.399   3.299   0.683
20411TIP3    H261111   2.337   3.427   0.630
20412TIP3   OH261112   2.836   8.172   1.363
20412TIP3    H161113   2.858   8.264   1.379
20412TIP3    H261114   2.912   8.137   1.316
20413TIP3   OH261115   7.296   6.045   5.631
20413TIP3    H161116   7.268   5.956   5.652
20413TIP3    H261117   7.277   6.054   5.537
20414TIP3   OH261118   8.456   4.800   2.959
20414TIP3    H161119   8.504   4.723   2.991
20414TIP3    H261120   8.481   4.806   2.867
20415TIP3   OH261121   8.888   0.432   4.954
20415TIP3    H161122   8.816   0.487   4.984
20415TIP3    H261123   8.866   0.409   4.864
20416TIP3   OH261124   0.141   9.011   0.921
20416TIP3    H161125   0.226   8.992   0.882
20416TIP3    H261126   0.086   8.937   0.896
20417TIP3   OH261127   8.911   0.640   2.478
20417TIP3    H161128   8.948   0.555   2.502
20417TIP3    H261129   8.829   0.619   2.434
20418TIP3   OH261130   0.819   0.571   3.316
20418TIP3    H161131   0.724   0.566   3.314
20418TIP3    H261132   0.848   0.533   3.233
20419TIP3   OH261133   9.142   5.427   6.100
20419TIP3    H161134   9.120   5.348   6.150
20419TIP3    H261135   9.237   5.420   6.084
20420TIP3   OH261136   3.641   4.563   1.867
20420TIP3    H161137   3.628   4.651   1.833
20420TIP3    H261138   3.733   4.544   1.848
20421TIP3   OH261139   4.177   7.430   4.689
20421TIP3    H161140   4.110   7.413   4.755
20421TIP3    H261141   4.180   7.525   4.681
20422TIP3   OH261142   4.971   7.863   1.785
20422TIP3    H161143   4.883   7.896   1.804
20422TIP3    H261144   4.969   7.842   1.692
20423TIP3   OH261145   6.591   4.138   4.730
20423TIP3    H161146   6.586   4.226   4.765
20423TIP3    H261147   6.510   4.095   4.759
20424TIP3   OH261148   8.563   4.401   1.184
20424TIP3    H161149   8.517   4.322   1.155
20424TIP3    H261150   8.575   4.452   1.105
20425TIP3   OH261151   6.926   6.259   4.792
20425TIP3    H161152   6.955   6.220   4.709
20425TIP3    H261153   6.835   6.284   4.776
20426TIP3   OH261154   0.099   8.189   6.706
20426TIP3    H161155   0.027   8.252   6.701
20426TIP3    H261156   0.068   8.113   6.657
20427TIP3   OH261157   8.405   0.809   5.240
20427TIP3    H161158   8.494   0.823   5.272
20427TIP3    H261159   8.385   0.888   5.190
20428TIP3   OH261160   1.106   1.091   7.603
20428TIP3    H161161   1.029   1.040   7.628
20428TIP3    H261162   1.128   1.059   7.515
20429TIP3   OH261163   3.324   8.226   3.351
20429TIP3    H161164   3.351   8.218   3.260
20429TIP3    H261165   3.371   8.303   3.384
20430TIP3   OH261166   7.898   8.848   6.500
20430TIP3    H161167   7.898   8.754   6.484
20430TIP3    H261168   7.973   8.880   6.450
20431TIP3   OH261169   7.728   7.470   0.633
20431TIP3    H161170   7.814   7.430   0.643
20431TIP3    H261171   7.741   7.562   0.654
20432TIP3   OH261172   2.366   3.511   6.823
20432TIP3    H161173   2.326   3.550   6.901
20432TIP3    H261174   2.347   3.417   6.830
20433TIP3   OH261175   6.787   0.935   4.106
20433TIP3    H161176   6.821   0.903   4.023
20433TIP3    H261177   6.864   0.946   4.161
20434TIP3   OH261178   9.294   7.131   0.661
20434TIP3    H161179   9.384   7.149   0.636
20434TIP3    H261180   9.256   7.088   0.585
20435TIP3   OH261181   6.013   0.915   7.497
20435TIP3    H161182   6.009   0.920   7.401
20435TIP3    H261183   6.041   0.825   7.514
20436TIP3   OH261184   8.485   4.833   2.091
20436TIP3    H161185   8.555   4.776   2.059
20436TIP3    H261186   8.497   4.916   2.045
20437TIP3   OH261187   0.917   1.748   1.654
20437TIP3    H161188   0.915   1.722   1.746
20437TIP3    H261189   0.885   1.672   1.606
20438TIP3   OH261190   2.273   4.128   1.124
20438TIP3    H161191   2.319   4.199   1.170
20438TIP3    H261192   2.340   4.060   1.113
20439TIP3   OH261193   0.087   7.727   7.473
20439TIP3    H161194   0.055   7.779   7.547
20439TIP3    H261195   0.144   7.662   7.513
20440TIP3   OH261196   5.830   3.184   7.101
20440TIP3    H161197   5.851   3.117   7.035
20440TIP3    H261198   5.890   3.256   7.082
20441TIP3   OH261199   2.150   2.576   7.345
20441TIP3    H161200   2.132   2.638   7.275
20441TIP3    H261201   2.160   2.629   7.424
20442TIP3   OH261202   4.123   6.690   6.288
20442TIP3    H161203   4.076   6.669   6.208
20442TIP3    H261204   4.054   6.709   6.352
20443TIP3   OH261205   5.569   6.433   5.024
20443TIP3    H161206   5.623   6.502   4.984
20443TIP3    H261207   5.503   6.413   4.958
20444TIP3   OH261208   0.747   3.693   4.567
20444TIP3    H161209   0.710   3.616   4.609
20444TIP3    H261210   0.715   3.767   4.618
20445TIP3   OH261211   1.113   0.904   6.666
20445TIP3    H161212   1.050   0.976   6.659
20445TIP3    H261213   1.093   0.863   6.749
20446TIP3   OH261214   1.846   6.367   0.900
20446TIP3    H161215   1.768   6.398   0.854
20446TIP3    H261216   1.817   6.287   0.944
20447TIP3   OH261217   7.505   1.853   3.890
20447TIP3    H161218   7.450   1.855   3.812
20447TIP3    H261219   7.465   1.787   3.946
20448TIP3   OH261220   6.703   2.308   6.257
20448TIP3    H161221   6.682   2.214   6.253
20448TIP3    H261222   6.675   2.342   6.171
20449TIP3   OH261223   4.264   8.625   7.157
20449TIP3    H161224   4.266   8.573   7.077
20449TIP3    H261225   4.328   8.695   7.142
20450TIP3   OH261226   7.711   4.655   6.519
20450TIP3    H161227   7.777   4.720   6.543
20450TIP3    H261228   7.750   4.571   6.544
20451TIP3   OH261229   0.290   3.037   7.045
20451TIP3    H161230   0.382   3.019   7.064
20451TIP3    H261231   0.268   3.111   7.101
20452TIP3   OH261232   4.026   0.853   2.683
20452TIP3    H161233   4.000   0.905   2.607
20452TIP3    H261234   3.959   0.785   2.690
20453TIP3   OH261235   1.874   8.082   0.232
20453TIP3    H161236   1.954   8.113   0.273
20453TIP3    H261237   1.904   8.014   0.171
20454TIP3   OH261238   4.421   3.076   5.893
20454TIP3    H161239   4.348   3.090   5.833
20454TIP3    H261240   4.384   3.094   5.980
20455TIP3   OH261241   7.862   6.152   5.493
20455TIP3    H161242   7.799   6.177   5.426
20455TIP3    H261243   7.809   6.115   5.564
20456TIP3   OH261244   1.629   8.440   1.001
20456TIP3    H161245   1.596   8.352   1.018
20456TIP3    H261246   1.564   8.478   0.942
20457TIP3   OH261247   1.027   7.215   1.636
20457TIP3    H161248   0.943   7.240   1.596
20457TIP3    H261249   1.029   7.119   1.630
20458TIP3   OH261250   1.260   3.325   7.727
20458TIP3    H161251   1.267   3.239   7.685
20458TIP3    H261252   1.288   3.387   7.659
20459TIP3   OH261253   8.257   3.797   4.127
20459TIP3    H161254   8.297   3.849   4.198
20459TIP3    H261255   8.171   3.773   4.161
20460TIP3   OH261256   3.064   5.475   6.462
20460TIP3    H161257   3.071   5.545   6.527
20460TIP3    H261258   3.140   5.487   6.405
20461TIP3   OH261259   1.922   4.743   3.697
20461TIP3    H161260   1.883   4.829   3.712
20461TIP3    H261261   2.016   4.756   3.711
20462TIP3   OH261262   7.571   0.461   4.623
20462TIP3    H161263   7.524   0.483   4.703
20462TIP3    H261264   7.505   0.469   4.553
20463TIP3   OH261265   6.549   8.818   3.042
20463TIP3    H161266   6.477   8.834   3.102
20463TIP3    H261267   6.522   8.859   2.960
20464TIP3   OH261268   1.351   0.947   3.940
20464TIP3    H161269   1.425   1.003   3.962
20464TIP3    H261270   1.313   0.988   3.861
20465TIP3   OH261271   8.492   8.615   3.456
20465TIP3    H161272   8.509   8.522   3.438
20465TIP3    H261273   8.424   8.614   3.523
20466TIP3   OH261274   0.527   4.210   2.299
20466TIP3    H161275   0.470   4.133   2.305
20466TIP3    H261276   0.616   4.174   2.307
20467TIP3   OH261277   1.064   5.043   3.103
20467TIP3    H161278   1.093   4.975   3.163
20467TIP3    H261279   1.007   4.998   3.041
20468TIP3   OH261280   3.938   8.711   2.646
20468TIP3    H161281   3.874   8.688   2.579
20468TIP3    H261282   3.968   8.627   2.680
20469TIP3   OH261283   8.862   1.525   1.126
20469TIP3    H161284   8.854   1.537   1.032
20469TIP3    H261285   8.955   1.504   1.140
20470TIP3   OH261286   1.046   5.549   0.632
20470TIP3    H161287   1.131   5.587   0.613
20470TIP3    H261288   1.020   5.588   0.716
20471TIP3   OH261289   0.850   2.090   6.730
20471TIP3    H161290   0.777   2.051   6.682
20471TIP3    H261291   0.928   2.052   6.690
20472TIP3   OH261292   1.610   0.309   3.193
20472TIP3    H161293   1.599   0.270   3.107
20472TIP3    H261294   1.677   0.255   3.236
20473TIP3   OH261295   1.392   1.044   6.371
20473TIP3    H161296   1.335   1.106   6.327
20473TIP3    H261297   1.371   0.959   6.332
20474TIP3   OH261298   5.489   6.470   7.016
20474TIP3    H161299   5.493   6.456   7.111
20474TIP3    H261300   5.530   6.556   7.003
20475TIP3   OH261301   1.121   3.715   5.759
20475TIP3    H161302   1.196   3.702   5.700
20475TIP3    H261303   1.147   3.671   5.840
20476TIP3   OH261304   1.751   2.206   6.492
20476TIP3    H161305   1.829   2.225   6.440
20476TIP3    H261306   1.773   2.126   6.540
20477TIP3   OH261307   2.795   3.877   0.935
20477TIP3    H161308   2.751   3.950   0.891
20477TIP3    H261309   2.809   3.812   0.867
20478TIP3   OH261310   4.273   6.432   2.149
20478TIP3    H161311   4.268   6.526   2.161
20478TIP3    H261312   4.224   6.395   2.223
20479TIP3   OH261313   8.245   7.950   2.662
20479TIP3    H161314   8.258   7.916   2.751
20479TIP3    H261315   8.160   7.994   2.665
20480TIP3   OH261316   9.076   3.019   4.556
20480TIP3    H161317   9.149   3.059   4.604
20480TIP3    H261318   9.030   2.966   4.621
20481TIP3   OH261319   1.050   8.990   4.706
20481TIP3    H161320   0.988   8.918   4.722
20481TIP3    H261321   1.107   8.989   4.782
20482TIP3   OH261322   6.212   6.023   5.312
20482TIP3    H161323   6.182   5.995   5.398
20482TIP3    H261324   6.141   6.076   5.277
20483TIP3   OH261325   5.253   7.684   1.440
20483TIP3    H161326   5.243   7.706   1.532
20483TIP3    H261327   5.163   7.681   1.406
20484TIP3   OH261328   4.314   4.097   2.487
20484TIP3    H161329   4.345   4.006   2.490
20484TIP3    H261330   4.386   4.146   2.449
20485TIP3   OH261331   8.315   2.647   6.234
20485TIP3    H161332   8.284   2.615   6.318
20485TIP3    H261333   8.397   2.693   6.254
20486TIP3   OH261334   0.641   4.569   2.335
20486TIP3    H161335   0.566   4.522   2.371
20486TIP3    H261336   0.607   4.611   2.256
20487TIP3   OH261337   3.928   1.584   3.045
20487TIP3    H161338   3.907   1.677   3.036
20487TIP3    H261339   3.991   1.567   2.974
20488TIP3   OH261340   1.227   6.895   2.298
20488TIP3    H161341   1.217   6.869   2.390
20488TIP3    H261342   1.170   6.972   2.289
20489TIP3   OH261343   7.727   3.175   6.040
20489TIP3    H161344   7.641   3.178   6.000
20489TIP3    H261345   7.711   3.150   6.131
20490TIP3   OH261346   0.688   2.277   0.880
20490TIP3    H161347   0.643   2.280   0.964
20490TIP3    H261348   0.737   2.359   0.875
20491TIP3   OH261349   7.848   2.003   0.317
20491TIP3    H161350   7.781   2.070   0.301
20491TIP3    H261351   7.798   1.925   0.339
20492TIP3   OH261352   3.462   3.512   4.149
20492TIP3    H161353   3.375   3.517   4.111
20492TIP3    H261354   3.493   3.424   4.127
20493TIP3   OH261355   0.064   2.328   1.217
20493TIP3    H161356   0.088   2.240   1.247
20493TIP3    H261357   0.047   2.316   1.123
20494TIP3   OH261358   1.647   1.181   3.602
20494TIP3    H161359   1.709   1.246   3.636
20494TIP3    H261360   1.658   1.105   3.659
20495TIP3   OH261361   2.385   7.161   5.501
20495TIP3    H161362   2.479   7.166   5.483
20495TIP3    H261363   2.352   7.249   5.481
20496TIP3   OH261364   5.619   6.260   2.786
20496TIP3    H161365   5.672   6.235   2.710
20496TIP3    H261366   5.545   6.199   2.784
20497TIP3   OH261367   3.532   6.225   6.570
20497TIP3    H161368   3.587   6.169   6.625
20497TIP3    H261369   3.574   6.222   6.484
20498TIP3   OH261370   4.629   6.013   6.517
20498TIP3    H161371   4.711   6.019   6.566
20498TIP3    H261372   4.626   5.923   6.485
20499TIP3   OH261373   8.399   7.643   5.882
20499TIP3    H161374   8.489   7.613   5.894
20499TIP3    H261375   8.404   7.712   5.817
20500TIP3   OH261376   1.578   1.198   4.995
20500TIP3    H161377   1.503   1.201   4.936
20500TIP3    H261378   1.547   1.241   5.075
20501TIP3   OH261379   9.433   7.989   7.652
20501TIP3    H161380   9.469   8.074   7.679
20501TIP3    H261381   9.484   7.925   7.701
20502TIP3   OH261382   7.952   1.481   7.196
20502TIP3    H161383   8.023   1.525   7.244
20502TIP3    H261384   7.921   1.414   7.256
20503TIP3   OH261385   3.692   7.105   7.003
20503TIP3    H161386   3.775   7.091   7.047
20503TIP3    H261387   3.712   7.103   6.910
20504TIP3   OH261388   6.237   1.028   3.380
20504TIP3    H161389   6.189   1.104   3.348
20504TIP3    H261390   6.320   1.065   3.413
20505TIP3   OH261391   8.296   2.510   2.650
20505TIP3    H161392   8.247   2.573   2.598
20505TIP3    H261393   8.317   2.439   2.589
20506TIP3   OH261394   3.791   3.169   2.049
20506TIP3    H161395   3.824   3.194   1.963
20506TIP3    H261396   3.710   3.121   2.030
20507TIP3   OH261397   2.631   7.656   7.245
20507TIP3    H161398   2.543   7.681   7.217
20507TIP3    H261399   2.649   7.715   7.319
20508TIP3   OH261400   0.575   8.054   0.318
20508TIP3    H161401   0.586   8.008   0.402
20508TIP3    H261402   0.535   8.137   0.341
20509TIP3   OH261403   8.427   0.180   6.973
20509TIP3    H161404   8.456   0.107   7.028
20509TIP3    H261405   8.480   0.255   7.002
20510TIP3   OH261406   6.784   2.059   4.668
20510TIP3    H161407   6.847   2.055   4.596
20510TIP3    H261408   6.763   1.968   4.688
20511TIP3   OH261409   0.456   2.575   0.590
20511TIP3    H161410   0.487   2.575   0.499
20511TIP3    H261411   0.405   2.494   0.597
20512TIP3   OH261412   3.508   5.231   3.600
20512TIP3    H161413   3.468   5.183   3.528
20512TIP3    H261414   3.597   5.250   3.570
20513TIP3   OH261415   8.431   1.788   5.670
20513TIP3    H161416   8.367   1.749   5.729
20513TIP3    H261417   8.383   1.853   5.620
20514TIP3   OH261418   0.926   4.303   3.498
20514TIP3    H161419   0.932   4.336   3.587
20514TIP3    H261420   1.015   4.311   3.463
20515TIP3   OH261421   3.130   2.915   3.044
20515TIP3    H161422   3.143   2.898   3.138
20515TIP3    H261423   3.204   2.969   3.019
20516TIP3   OH261424   7.114   4.238   4.279
20516TIP3    H161425   7.045   4.210   4.219
20516TIP3    H261426   7.155   4.157   4.308
20517TIP3   OH261427   5.302   6.053   1.663
20517TIP3    H161428   5.333   5.981   1.719
20517TIP3    H261429   5.257   6.112   1.724
20518TIP3   OH261430   7.067   5.673   6.946
20518TIP3    H161431   7.018   5.718   6.878
20518TIP3    H261432   7.007   5.669   7.020
20519TIP3   OH261433   9.272   3.876   6.921
20519TIP3    H161434   9.264   3.780   6.917
20519TIP3    H261435   9.333   3.892   6.992
20520TIP3   OH261436   5.208   8.276   5.893
20520TIP3    H161437   5.137   8.257   5.954
20520TIP3    H261438   5.286   8.279   5.948
20521TIP3   OH261439   8.414   4.012   1.967
20521TIP3    H161440   8.335   4.061   1.943
20521TIP3    H261441   8.469   4.015   1.889
20522TIP3   OH261442   8.982   1.100   2.260
20522TIP3    H161443   8.951   1.090   2.169
20522TIP3    H261444   9.075   1.078   2.256
20523TIP3   OH261445   6.981   3.159   0.889
20523TIP3    H161446   6.888   3.179   0.883
20523TIP3    H261447   7.020   3.206   0.815
20524TIP3   OH261448   0.049   7.654   2.350
20524TIP3    H161449  -0.018   7.590   2.375
20524TIP3    H261450   0.040   7.662   2.255
20525TIP3   OH261451   6.680   2.437   1.270
20525TIP3    H161452   6.755   2.379   1.265
20525TIP3    H261453   6.620   2.394   1.330
20526TIP3   OH261454   1.525   3.243   4.962
20526TIP3    H161455   1.444   3.245   4.911
20526TIP3    H261456   1.524   3.325   5.011
20527TIP3   OH261457   8.175   7.200   2.839
20527TIP3    H161458   8.219   7.158   2.913
20527TIP3    H261459   8.133   7.128   2.792
20528TIP3   OH261460   6.955   4.584   3.255
20528TIP3    H161461   6.947   4.492   3.228
20528TIP3    H261462   7.014   4.623   3.190
20529TIP3   OH261463   6.701   2.106   0.530
20529TIP3    H161464   6.744   2.040   0.584
20529TIP3    H261465   6.761   2.122   0.457
20530TIP3   OH261466   2.136   0.869   1.110
20530TIP3    H161467   2.114   0.918   1.190
20530TIP3    H261468   2.218   0.825   1.131
20531TIP3   OH261469   7.101   1.184   6.761
20531TIP3    H161470   7.176   1.203   6.705
20531TIP3    H261471   7.125   1.220   6.847
20532TIP3   OH261472   3.974   7.118   3.111
20532TIP3    H161473   3.880   7.107   3.095
20532TIP3    H261474   3.982   7.208   3.142
20533TIP3   OH261475   6.866   1.407   1.698
20533TIP3    H161476   6.953   1.425   1.661
20533TIP3    H261477   6.858   1.468   1.770
20534TIP3   OH261478   2.495   2.172   0.680
20534TIP3    H161479   2.449   2.196   0.760
20534TIP3    H261480   2.494   2.252   0.627
20535TIP3   OH261481   2.922   0.400   0.731
20535TIP3    H161482   2.989   0.334   0.713
20535TIP3    H261483   2.944   0.473   0.673
20536TIP3   OH261484   8.938   1.176   7.625
20536TIP3    H161485   8.962   1.119   7.699
20536TIP3    H261486   8.843   1.168   7.618
20537TIP3   OH261487   9.444   7.934   1.004
20537TIP3    H161488   9.535   7.924   0.978
20537TIP3    H261489   9.447   7.973   1.091
20538TIP3   OH261490   8.844   0.582   1.898
20538TIP3    H161491   8.800   0.590   1.983
20538TIP3    H261492   8.773   0.590   1.834
20539TIP3   OH261493   1.004   1.358   0.730
20539TIP3    H161494   0.973   1.401   0.810
20539TIP3    H261495   0.966   1.410   0.659
20540TIP3   OH261496   3.945   7.688   7.744
20540TIP3    H161497   3.884   7.720   7.677
20540TIP3    H261498   4.026   7.735   7.727
20541TIP3   OH261499   5.902   2.873   3.315
20541TIP3    H161500   5.830   2.907   3.367
20541TIP3    H261501   5.860   2.816   3.250
20542TIP3   OH261502   9.283   5.436   4.776
20542TIP3    H161503   9.375   5.414   4.791
20542TIP3    H261504   9.245   5.356   4.741
20543TIP3   OH261505   4.591   6.088   5.480
20543TIP3    H161506   4.511   6.142   5.477
20543TIP3    H261507   4.652   6.134   5.422
20544TIP3   OH261508   8.884   1.817   5.030
20544TIP3    H161509   8.918   1.804   4.941
20544TIP3    H261510   8.807   1.760   5.035
20545TIP3   OH261511   2.705   1.238   7.397
20545TIP3    H161512   2.685   1.268   7.309
20545TIP3    H261513   2.731   1.147   7.387
20546TIP3   OH261514   6.285   7.689   0.859
20546TIP3    H161515   6.374   7.665   0.884
20546TIP3    H261516   6.285   7.785   0.857
20547TIP3   OH261517   8.742   1.559   0.252
20547TIP3    H161518   8.800   1.625   0.213
20547TIP3    H261519   8.704   1.513   0.178
20548TIP3   OH261520   0.963   2.308   4.819
20548TIP3    H161521   0.951   2.240   4.884
20548TIP3    H261522   0.875   2.340   4.800
20549TIP3   OH261523   5.135   6.978   5.663
20549TIP3    H161524   5.131   7.070   5.636
20549TIP3    H261525   5.053   6.963   5.709
20550TIP3   OH261526   1.159   0.086   1.985
20550TIP3    H161527   1.253   0.100   1.981
20550TIP3    H261528   1.143   0.062   2.077
20551TIP3   OH261529   2.968   8.779   4.253
20551TIP3    H161530   2.993   8.808   4.165
20551TIP3    H261531   2.888   8.728   4.239
20552TIP3   OH261532   1.373   8.303   1.606
20552TIP3    H161533   1.315   8.347   1.544
20552TIP3    H261534   1.386   8.216   1.568
20553TIP3   OH261535   5.557   5.992   3.443
20553TIP3    H161536   5.529   6.052   3.513
20553TIP3    H261537   5.594   6.049   3.376
20554TIP3   OH261538   5.710   0.165   1.269
20554TIP3    H161539   5.638   0.228   1.275
20554TIP3    H261540   5.717   0.147   1.175
20555TIP3   OH261541   2.105   1.129   0.066
20555TIP3    H161542   2.026   1.090   0.103
20555TIP3    H261543   2.157   1.154   0.142
20556TIP3   OH261544   3.208   3.446   4.043
20556TIP3    H161545   3.227   3.359   4.076
20556TIP3    H261546   3.220   3.438   3.948
20557TIP3   OH261547   8.157   7.677   5.429
20557TIP3    H161548   8.129   7.586   5.436
20557TIP3    H261549   8.246   7.677   5.462
20558TIP3   OH261550   0.745   3.299   7.485
20558TIP3    H161551   0.837   3.320   7.499
20558TIP3    H261552   0.719   3.355   7.412
20559TIP3   OH261553   5.786   4.859   0.799
20559TIP3    H161554   5.874   4.894   0.810
20559TIP3    H261555   5.795   4.792   0.731
20560TIP3   OH261556   5.347   8.659   3.667
20560TIP3    H161557   5.438   8.630   3.658
20560TIP3    H261558   5.329   8.654   3.761
20561TIP3   OH261559   4.118   5.057   0.444
20561TIP3    H161560   4.032   5.014   0.444
20561TIP3    H261561   4.099   5.150   0.458
20562TIP3   OH261562   6.303   5.924   7.385
20562TIP3    H161563   6.209   5.940   7.382
20562TIP3    H261564   6.343   6.002   7.345
20563TIP3   OH261565   5.323   8.663   4.306
20563TIP3    H161566   5.297   8.603   4.376
20563TIP3    H261567   5.305   8.750   4.342
20564TIP3   OH261568   3.164   3.644   5.848
20564TIP3    H161569   3.196   3.731   5.827
20564TIP3    H261570   3.122   3.614   5.768
20565TIP3   OH261571   8.956   4.256   1.340
20565TIP3    H161572   9.049   4.246   1.321
20565TIP3    H261573   8.947   4.345   1.374
20566TIP3   OH261574   3.335   4.043   5.540
20566TIP3    H161575   3.428   4.020   5.538
20566TIP3    H261576   3.311   4.056   5.449
20567TIP3   OH261577   8.974   4.216   2.487
20567TIP3    H161578   9.057   4.174   2.510
20567TIP3    H261579   8.969   4.211   2.392
20568TIP3   OH261580   5.548   0.529   1.877
20568TIP3    H161581   5.454   0.532   1.856
20568TIP3    H261582   5.557   0.450   1.931
20569TIP3   OH261583   3.976   4.316   1.407
20569TIP3    H161584   3.915   4.256   1.450
20569TIP3    H261585   3.989   4.387   1.470
20570TIP3   OH261586   4.712   5.291   6.640
20570TIP3    H161587   4.632   5.245   6.615
20570TIP3    H261588   4.769   5.221   6.673
20571TIP3   OH261589   1.072   6.584   3.285
20571TIP3    H161590   1.110   6.535   3.212
20571TIP3    H261591   1.059   6.518   3.354
20572TIP3   OH261592   1.952   2.540   6.769
20572TIP3    H161593   2.003   2.523   6.690
20572TIP3    H261594   1.926   2.454   6.800
20573TIP3   OH261595   4.414   7.997   3.890
20573TIP3    H161596   4.447   8.082   3.919
20573TIP3    H261597   4.348   8.018   3.825
20574TIP3   OH261598   0.725   3.314   1.036
20574TIP3    H161599   0.785   3.319   0.960
20574TIP3    H261600   0.780   3.338   1.111
20575TIP3   OH261601   2.188   8.250   0.094
20575TIP3    H161602   2.110   8.197   0.110
20575TIP3    H261603   2.255   8.187   0.071
20576TIP3   OH261604   1.998   1.642   3.303
20576TIP3    H161605   2.067   1.629   3.239
20576TIP3    H261606   1.929   1.582   3.276
20577TIP3   OH261607   8.927   1.249   6.279
20577TIP3    H161608   8.982   1.172   6.270
20577TIP3    H261609   8.945   1.282   6.367
20578TIP3   OH261610   7.302   4.069   7.088
20578TIP3    H161611   7.292   3.987   7.136
20578TIP3    H261612   7.358   4.123   7.144
20579TIP3   OH261613   8.105   8.761   3.962
20579TIP3    H161614   8.051   8.714   4.026
20579TIP3    H261615   8.055   8.756   3.880
20580TIP3   OH261616   6.996   4.318   3.152
20580TIP3    H161617   6.933   4.249   3.132
20580TIP3    H261618   7.069   4.304   3.092
20581TIP3   OH261619   8.678   2.226   4.783
20581TIP3    H161620   8.626   2.189   4.855
20581TIP3    H261621   8.750   2.163   4.772
20582TIP3   OH261622   5.843   1.787   6.415
20582TIP3    H161623   5.912   1.853   6.418
20582TIP3    H261624   5.889   1.704   6.423
20583TIP3   OH261625   7.729   2.934   0.699
20583TIP3    H161626   7.668   2.904   0.631
20583TIP3    H261627   7.810   2.888   0.681
20584TIP3   OH261628   6.728   5.014   0.848
20584TIP3    H161629   6.685   4.953   0.908
20584TIP3    H261630   6.735   4.966   0.766
20585TIP3   OH261631   1.260   1.484   5.021
20585TIP3    H161632   1.324   1.552   4.998
20585TIP3    H261633   1.296   1.442   5.099
20586TIP3   OH261634   6.764   7.383   2.665
20586TIP3    H161635   6.785   7.476   2.673
20586TIP3    H261636   6.678   7.375   2.708
20587TIP3   OH261637   6.142   4.579   5.989
20587TIP3    H161638   6.167   4.657   5.938
20587TIP3    H261639   6.083   4.613   6.056
20588TIP3   OH261640   7.964   2.103   7.777
20588TIP3    H161641   7.939   2.088   7.868
20588TIP3    H261642   7.941   2.021   7.732
20589TIP3   OH261643   6.419   1.612   4.069
20589TIP3    H161644   6.374   1.541   4.023
20589TIP3    H261645   6.403   1.690   4.015
20590TIP3   OH261646   7.080   3.072   6.736
20590TIP3    H161647   7.004   3.115   6.696
20590TIP3    H261648   7.068   3.085   6.830
20591TIP3   OH261649   7.696   2.554   1.458
20591TIP3    H161650   7.708   2.640   1.418
20591TIP3    H261651   7.722   2.493   1.389
20592TIP3   OH261652   4.605   6.273   4.618
20592TIP3    H161653   4.577   6.246   4.705
20592TIP3    H261654   4.700   6.287   4.626
20593TIP3   OH261655   2.379   2.322   3.435
20593TIP3    H161656   2.452   2.306   3.375
20593TIP3    H261657   2.336   2.400   3.399
20594TIP3   OH261658   7.752   5.980   0.781
20594TIP3    H161659   7.704   6.012   0.858
20594TIP3    H261660   7.688   5.985   0.710
20595TIP3   OH261661   2.000   1.417   0.247
20595TIP3    H161662   1.975   1.441   0.157
20595TIP3    H261663   1.953   1.480   0.302
20596TIP3   OH261664   5.364   5.758   1.018
20596TIP3    H161665   5.339   5.673   1.055
20596TIP3    H261666   5.321   5.759   0.932
20597TIP3   OH261667   5.433   5.951   3.822
20597TIP3    H161668   5.459   5.862   3.797
20597TIP3    H261669   5.480   5.967   3.904
20598TIP3   OH261670   2.539   5.912   4.138
20598TIP3    H161671   2.498   5.840   4.185
20598TIP3    H261672   2.551   5.880   4.048
20599TIP3   OH261673   9.005   8.622   0.890
20599TIP3    H161674   8.973   8.651   0.975
20599TIP3    H261675   9.053   8.542   0.909
20600TIP3   OH261676   0.060   3.351   5.576
20600TIP3    H161677   0.076   3.310   5.661
20600TIP3    H261678  -0.033   3.336   5.559
20601TIP3   OH261679   1.993   7.810   4.721
20601TIP3    H161680   1.919   7.816   4.661
20601TIP3    H261681   2.070   7.825   4.665
20602TIP3   OH261682   2.138   2.165   6.671
20602TIP3    H161683   2.044   2.181   6.679
20602TIP3    H261684   2.163   2.210   6.591
20603TIP3   OH261685   5.670   5.064   4.512
20603TIP3    H161686   5.754   5.030   4.543
20603TIP3    H261687   5.630   4.989   4.469
20604TIP3   OH261688   2.383   7.595   2.986
20604TIP3    H161689   2.313   7.531   3.000
20604TIP3    H261690   2.339   7.673   2.953
20605TIP3   OH261691   9.253   1.937   4.586
20605TIP3    H161692   9.312   1.878   4.538
20605TIP3    H261693   9.290   1.941   4.674
20606TIP3   OH261694   8.328   1.518   2.109
20606TIP3    H161695   8.404   1.560   2.068
20606TIP3    H261696   8.358   1.429   2.129
20607TIP3   OH261697   4.123   1.489   7.361
20607TIP3    H161698   4.103   1.569   7.313
20607TIP3    H261699   4.133   1.422   7.294
20608TIP3   OH261700   0.172   5.803   7.801
20608TIP3    H161701   0.238   5.784   7.868
20608TIP3    H261702   0.222   5.827   7.724
20609TIP3   OH261703   9.106   3.320   4.392
20609TIP3    H161704   9.123   3.320   4.298
20609TIP3    H261705   9.076   3.232   4.412
20610TIP3   OH261706   2.103   7.622   6.667
20610TIP3    H161707   2.160   7.554   6.633
20610TIP3    H261708   2.162   7.684   6.710
20611TIP3   OH261709   1.044   3.644   1.292
20611TIP3    H161710   1.061   3.668   1.383
20611TIP3    H261711   1.092   3.709   1.240
20612TIP3   OH261712   1.375   1.294   4.787
20612TIP3    H161713   1.332   1.369   4.828
20612TIP3    H261714   1.365   1.309   4.693
20613TIP3   OH261715   7.884   0.021   2.147
20613TIP3    H161716   7.975   0.050   2.152
20613TIP3    H261717   7.855   0.049   2.060
20614TIP3   OH261718   3.837   0.252   1.360
20614TIP3    H161719   3.823   0.341   1.390
20614TIP3    H261720   3.819   0.255   1.266
20615TIP3   OH261721   3.267   5.246   2.350
20615TIP3    H161722   3.201   5.220   2.414
20615TIP3    H261723   3.349   5.246   2.399
20616TIP3   OH261724   7.685   4.616   3.706
20616TIP3    H161725   7.776   4.605   3.679
20616TIP3    H261726   7.633   4.599   3.628
20617TIP3   OH261727   2.714   0.407   2.936
20617TIP3    H161728   2.792   0.462   2.936
20617TIP3    H261729   2.745   0.321   2.965
20618TIP3   OH261730   1.084   8.857   2.536
20618TIP3    H161731   1.108   8.950   2.545
20618TIP3    H261732   1.021   8.856   2.465
20619TIP3   OH261733   4.884   8.239   2.574
20619TIP3    H161734   4.833   8.295   2.633
20619TIP3    H261735   4.928   8.177   2.633
20620TIP3   OH261736   5.977   6.055   3.932
20620TIP3    H161737   6.032   6.061   3.854
20620TIP3    H261738   5.934   6.140   3.938
20621TIP3   OH261739   8.689   1.019   3.315
20621TIP3    H161740   8.632   0.942   3.313
20621TIP3    H261741   8.632   1.092   3.289
20622TIP3   OH261742   6.921   2.535   6.010
20622TIP3    H161743   6.835   2.567   5.983
20622TIP3    H261744   6.982   2.578   5.950
20623TIP3   OH261745   8.843   4.232   1.719
20623TIP3    H161746   8.851   4.203   1.810
20623TIP3    H261747   8.770   4.294   1.720
20624TIP3   OH261748   7.742   4.961   1.842
20624TIP3    H161749   7.700   4.900   1.903
20624TIP3    H261750   7.824   4.918   1.818
20625TIP3   OH261751   9.489   3.534   0.555
20625TIP3    H161752   9.434   3.575   0.488
20625TIP3    H261753   9.476   3.440   0.542
20626TIP3   OH261754   8.464   4.208   3.163
20626TIP3    H161755   8.469   4.182   3.071
20626TIP3    H261756   8.505   4.136   3.211
20627TIP3   OH261757   1.032   0.839   7.286
20627TIP3    H161758   0.993   0.795   7.362
20627TIP3    H261759   1.125   0.849   7.310
20628TIP3   OH261760   5.961   3.118   0.186
20628TIP3    H161761   5.946   3.200   0.139
20628TIP3    H261762   6.050   3.092   0.162
20629TIP3   OH261763   8.674   2.206   4.334
20629TIP3    H161764   8.687   2.131   4.392
20629TIP3    H261765   8.583   2.232   4.349
20630TIP3   OH261766   7.336   6.873   5.355
20630TIP3    H161767   7.296   6.838   5.276
20630TIP3    H261768   7.349   6.966   5.337
20631TIP3   OH261769   0.495   5.673   0.397
20631TIP3    H161770   0.530   5.623   0.323
20631TIP3    H261771   0.448   5.746   0.357
20632TIP3   OH261772   9.167   7.946   1.253
20632TIP3    H161773   9.246   7.922   1.302
20632TIP3    H261774   9.095   7.922   1.311
20633TIP3   OH261775   8.954   1.779   4.475
20633TIP3    H161776   9.014   1.806   4.406
20633TIP3    H261777   9.002   1.715   4.527
20634TIP3   OH261778   2.143   2.159   4.396
20634TIP3    H161779   2.070   2.197   4.346
20634TIP3    H261780   2.206   2.133   4.329
20635TIP3   OH261781   5.809   2.925   2.770
20635TIP3    H161782   5.739   2.974   2.728
20635TIP3    H261783   5.795   2.938   2.863
20636TIP3   OH261784   9.170   1.089   0.261
20636TIP3    H161785   9.244   1.033   0.238
20636TIP3    H261786   9.147   1.063   0.350
20637TIP3   OH261787   1.193   5.670   3.102
20637TIP3    H161788   1.223   5.760   3.091
20637TIP3    H261789   1.174   5.662   3.195
20638TIP3   OH261790   1.047   6.945   5.174
20638TIP3    H161791   1.131   6.975   5.139
20638TIP3    H261792   1.016   6.881   5.110
20639TIP3   OH261793   2.812   4.398   0.213
20639TIP3    H161794   2.824   4.465   0.280
20639TIP3    H261795   2.724   4.415   0.177
20640TIP3   OH261796   4.409   4.892   6.309
20640TIP3    H161797   4.332   4.881   6.253
20640TIP3    H261798   4.376   4.939   6.385
20641TIP3   OH261799   3.936   2.711   4.995
20641TIP3    H161800   3.947   2.799   5.031
20641TIP3    H261801   3.956   2.653   5.068
20642TIP3   OH261802   6.370   0.243   5.839
20642TIP3    H161803   6.346   0.173   5.778
20642TIP3    H261804   6.409   0.197   5.914
20643TIP3   OH261805   7.221   0.965   4.904
20643TIP3    H161806   7.202   0.944   4.812
20643TIP3    H261807   7.314   0.985   4.905
20644TIP3   OH261808   5.697   1.925   5.463
20644TIP3    H161809   5.732   1.878   5.388
20644TIP3    H261810   5.728   1.875   5.539
20645TIP3   OH261811   1.471   8.222   6.195
20645TIP3    H161812   1.387   8.259   6.166
20645TIP3    H261813   1.537   8.268   6.143
20646TIP3   OH261814   1.771   2.465   2.423
20646TIP3    H161815   1.797   2.555   2.403
20646TIP3    H261816   1.677   2.463   2.406
20647TIP3   OH261817   2.248   4.873   5.308
20647TIP3    H161818   2.169   4.910   5.347
20647TIP3    H261819   2.242   4.779   5.325
20648TIP3   OH261820   8.330   6.406   4.925
20648TIP3    H161821   8.253   6.350   4.914
20648TIP3    H261822   8.295   6.488   4.960
20649TIP3   OH261823   6.686   3.860   1.925
20649TIP3    H161824   6.708   3.932   1.865
20649TIP3    H261825   6.591   3.866   1.934
20650TIP3   OH261826   2.019   5.661   2.584
20650TIP3    H161827   1.974   5.740   2.614
20650TIP3    H261828   1.967   5.589   2.619
20651TIP3   OH261829   4.246   4.263   5.847
20651TIP3    H161830   4.297   4.266   5.927
20651TIP3    H261831   4.189   4.187   5.858
20652TIP3   OH261832   6.930   5.214   4.753
20652TIP3    H161833   7.002   5.166   4.793
20652TIP3    H261834   6.858   5.151   4.749
20653TIP3   OH261835   0.727   5.993   4.700
20653TIP3    H161836   0.651   6.024   4.749
20653TIP3    H261837   0.802   6.034   4.744
20654TIP3   OH261838   0.133   1.092   0.257
20654TIP3    H161839   0.067   1.110   0.324
20654TIP3    H261840   0.092   1.122   0.175
20655TIP3   OH261841   0.826   8.525   0.899
20655TIP3    H161842   0.742   8.526   0.944
20655TIP3    H261843   0.838   8.434   0.872
20656TIP3   OH261844   5.692   8.429   2.986
20656TIP3    H161845   5.788   8.431   2.993
20656TIP3    H261846   5.661   8.492   3.050
20657TIP3   OH261847   5.025   6.980   4.145
20657TIP3    H161848   4.967   6.909   4.117
20657TIP3    H261849   4.968   7.037   4.198
20658TIP3   OH261850   0.028   6.075   5.729
20658TIP3    H161851  -0.019   5.992   5.721
20658TIP3    H261852  -0.039   6.142   5.717
20659TIP3   OH261853   5.171   3.261   4.653
20659TIP3    H161854   5.205   3.247   4.565
20659TIP3    H261855   5.099   3.323   4.642
20660TIP3   OH261856   0.112   2.736   2.588
20660TIP3    H161857   0.138   2.771   2.674
20660TIP3    H261858   0.154   2.793   2.525
20661TIP3   OH261859   9.431   2.874   7.039
20661TIP3    H161860   9.411   2.808   6.973
20661TIP3    H261861   9.507   2.921   7.004
20662TIP3   OH261862   4.845   1.547   4.939
20662TIP3    H161863   4.881   1.478   4.884
20662TIP3    H261864   4.920   1.580   4.989
20663TIP3   OH261865   7.067   1.160   7.345
20663TIP3    H161866   6.979   1.124   7.354
20663TIP3    H261867   7.109   1.140   7.429
20664TIP3   OH261868   0.105   3.273   5.088
20664TIP3    H161869   0.089   3.337   5.018
20664TIP3    H261870   0.051   3.198   5.064
20665TIP3   OH261871   1.834   6.966   1.996
20665TIP3    H161872   1.826   6.873   2.017
20665TIP3    H261873   1.844   6.969   1.901
20666TIP3   OH261874   7.082   6.115   3.217
20666TIP3    H161875   7.173   6.090   3.197
20666TIP3    H261876   7.065   6.190   3.161
20667TIP3   OH261877   6.468   4.099   5.949
20667TIP3    H161878   6.476   4.026   5.888
20667TIP3    H261879   6.558   4.114   5.980
20668TIP3   OH261880   4.743   0.703   6.159
20668TIP3    H161881   4.670   0.689   6.219
20668TIP3    H261882   4.788   0.781   6.192
20669TIP3   OH261883   9.284   0.698   7.219
20669TIP3    H161884   9.270   0.770   7.281
20669TIP3    H261885   9.373   0.669   7.236
20670TIP3   OH261886   4.357   7.923   0.354
20670TIP3    H161887   4.368   7.987   0.425
20670TIP3    H261888   4.447   7.907   0.324
20671TIP3   OH261889   3.205   4.107   0.138
20671TIP3    H161890   3.209   4.053   0.059
20671TIP3    H261891   3.116   4.142   0.139
20672TIP3   OH261892   2.393   3.998   3.171
20672TIP3    H161893   2.390   3.905   3.191
20672TIP3    H261894   2.346   4.040   3.243
20673TIP3   OH261895   5.131   8.505   2.480
20673TIP3    H161896   5.217   8.500   2.439
20673TIP3    H261897   5.148   8.536   2.569
20674TIP3   OH261898   7.549   3.071   3.345
20674TIP3    H161899   7.541   3.116   3.430
20674TIP3    H261900   7.585   3.137   3.286
20675TIP3   OH261901   3.714   0.049   1.136
20675TIP3    H161902   3.808   0.048   1.120
20675TIP3    H261903   3.690   0.141   1.128
20676TIP3   OH261904   3.969   8.997   3.402
20676TIP3    H161905   3.885   8.956   3.424
20676TIP3    H261906   4.034   8.947   3.452
20677TIP3   OH261907   7.917   1.971   3.383
20677TIP3    H161908   7.967   1.972   3.302
20677TIP3    H261909   7.867   2.052   3.382
20678TIP3   OH261910   8.587   5.793   7.703
20678TIP3    H161911   8.538   5.825   7.779
20678TIP3    H261912   8.573   5.699   7.703
20679TIP3   OH261913   8.292   5.479   0.046
20679TIP3    H161914   8.369   5.526   0.012
20679TIP3    H261915   8.253   5.438  -0.032
20680TIP3   OH261916   5.579   1.202   1.457
20680TIP3    H161917   5.546   1.290   1.473
20680TIP3    H261918   5.531   1.147   1.518
20681TIP3   OH261919   6.909   2.078   3.641
20681TIP3    H161920   6.845   2.039   3.582
20681TIP3    H261921   6.969   2.125   3.584
20682TIP3   OH261922   0.453   3.789   4.495
20682TIP3    H161923   0.433   3.705   4.456
20682TIP3    H261924   0.523   3.826   4.440
20683TIP3   OH261925   8.225   5.451   5.322
20683TIP3    H161926   8.153   5.403   5.280
20683TIP3    H261927   8.182   5.502   5.391
20684TIP3   OH261928   0.595   2.585   5.378
20684TIP3    H161929   0.580   2.570   5.285
20684TIP3    H261930   0.637   2.505   5.409
20685TIP3   OH261931   3.146   8.969   1.658
20685TIP3    H161932   3.238   8.995   1.647
20685TIP3    H261933   3.121   8.930   1.574
20686TIP3   OH261934   5.465   6.038   2.722
20686TIP3    H161935   5.411   6.017   2.646
20686TIP3    H261936   5.418   6.000   2.796
20687TIP3   OH261937   1.732   6.764   1.761
20687TIP3    H161938   1.655   6.785   1.814
20687TIP3    H261939   1.742   6.669   1.768
20688TIP3   OH261940   7.724   4.888   6.177
20688TIP3    H161941   7.684   4.901   6.091
20688TIP3    H261942   7.760   4.973   6.200
20689TIP3   OH261943   6.758   8.278   5.540
20689TIP3    H161944   6.803   8.274   5.624
20689TIP3    H261945   6.752   8.372   5.521
20690TIP3   OH261946   4.855   0.830   5.756
20690TIP3    H161947   4.882   0.903   5.812
20690TIP3    H261948   4.816   0.872   5.680
20691TIP3   OH261949   4.541   2.191   6.453
20691TIP3    H161950   4.611   2.255   6.459
20691TIP3    H261951   4.538   2.149   6.539
20692TIP3   OH261952   1.718   0.231   5.947
20692TIP3    H161953   1.759   0.209   5.864
20692TIP3    H261954   1.699   0.324   5.941
20693TIP3   OH261955   1.085   4.077   5.435
20693TIP3    H161956   1.102   4.143   5.502
20693TIP3    H261957   0.995   4.050   5.451
20694TIP3   OH261958   2.975   5.079   1.339
20694TIP3    H161959   2.992   5.020   1.266
20694TIP3    H261960   2.913   5.032   1.395
20695TIP3   OH261961   1.346   1.804   0.119
20695TIP3    H161962   1.281   1.760   0.064
20695TIP3    H261963   1.424   1.810   0.064
20696TIP3   OH261964   8.411   2.939   4.418
20696TIP3    H161965   8.469   2.989   4.476
20696TIP3    H261966   8.325   2.943   4.461
20697TIP3   OH261967   5.280   2.446   2.648
20697TIP3    H161968   5.334   2.445   2.727
20697TIP3    H261969   5.325   2.388   2.587
20698TIP3   OH261970   5.006   4.765   5.941
20698TIP3    H161971   4.912   4.756   5.957
20698TIP3    H261972   5.045   4.763   6.029
20699TIP3   OH261973   7.461   3.829   4.061
20699TIP3    H161974   7.418   3.840   4.146
20699TIP3    H261975   7.551   3.805   4.082
20700TIP3   OH261976   7.052   4.889   4.435
20700TIP3    H161977   7.146   4.879   4.420
20700TIP3    H261978   7.018   4.917   4.350
20701TIP3   OH261979   9.459   5.792   5.452
20701TIP3    H161980   9.441   5.817   5.543
20701TIP3    H261981   9.430   5.867   5.400
20702TIP3   OH261982   4.943   7.943   2.168
20702TIP3    H161983   4.946   7.850   2.145
20702TIP3    H261984   4.929   7.944   2.263
20703TIP3   OH261985   1.352   1.126   3.284
20703TIP3    H161986   1.282   1.191   3.284
20703TIP3    H261987   1.326   1.062   3.218
20704TIP3   OH261988   1.154   2.944   3.358
20704TIP3    H161989   1.195   3.008   3.416
20704TIP3    H261990   1.200   2.862   3.375
20705TIP3   OH261991   3.368   1.641   7.348
20705TIP3    H161992   3.420   1.695   7.288
20705TIP3    H261993   3.433   1.597   7.403
20706TIP3   OH261994   5.839   6.983   7.767
20706TIP3    H161995   5.852   6.949   7.678
20706TIP3    H261996   5.872   6.914   7.824
20707TIP3   OH261997   6.882   1.605   3.884
20707TIP3    H161998   6.826   1.586   3.808
20707TIP3    H261999   6.968   1.621   3.846
20708TIP3   OH262000   2.880   5.235   4.858
20708TIP3    H162001   2.974   5.224   4.845
20708TIP3    H262002   2.870   5.329   4.873
20709TIP3   OH262003   0.428   6.200   4.676
20709TIP3    H162004   0.354   6.254   4.703
20709TIP3    H262005   0.474   6.179   4.757
20710TIP3   OH262006   0.503   1.115   5.261
20710TIP3    H162007   0.513   1.138   5.354
20710TIP3    H262008   0.494   1.020   5.261
20711TIP3   OH262009   1.810   2.281   0.968
20711TIP3    H162010   1.833   2.367   0.933
20711TIP3    H262011   1.894   2.234   0.975
20712TIP3   OH262012   0.693   2.201   4.587
20712TIP3    H162013   0.779   2.166   4.609
20712TIP3    H262014   0.648   2.209   4.671
20713TIP3   OH262015   4.535   5.435   5.700
20713TIP3    H162016   4.450   5.405   5.669
20713TIP3    H262017   4.518   5.474   5.786
20714TIP3   OH262018   4.093   5.593   6.213
20714TIP3    H162019   4.024   5.637   6.261
20714TIP3    H262020   4.108   5.511   6.261
20715TIP3   OH262021   8.071   0.115   1.852
20715TIP3    H162022   8.113   0.154   1.929
20715TIP3    H262023   7.977   0.124   1.868
20716TIP3   OH262024   8.539   7.054   7.245
20716TIP3    H162025   8.481   7.126   7.267
20716TIP3    H262026   8.580   7.030   7.329
20717TIP3   OH262027   2.048   3.175   4.599
20717TIP3    H162028   2.097   3.164   4.517
20717TIP3    H262029   2.032   3.086   4.630
20718TIP3   OH262030   2.805   6.559   5.508
20718TIP3    H162031   2.739   6.621   5.477
20718TIP3    H262032   2.762   6.473   5.502
20719TIP3   OH262033   8.520   1.219   3.706
20719TIP3    H162034   8.486   1.306   3.686
20719TIP3    H262035   8.612   1.233   3.728
20720TIP3   OH262036   1.395   7.909   1.225
20720TIP3    H162037   1.411   7.961   1.146
20720TIP3    H262038   1.476   7.859   1.238
20721TIP3   OH262039   9.551   2.902   4.372
20721TIP3    H162040   9.491   2.829   4.388
20721TIP3    H262041   9.618   2.866   4.314
20722TIP3   OH262042   3.589   2.646   6.029
20722TIP3    H162043   3.667   2.600   6.058
20722TIP3    H262044   3.622   2.726   5.987
20723TIP3   OH262045   0.464   1.464   5.007
20723TIP3    H162046   0.449   1.443   4.915
20723TIP3    H262047   0.379   1.452   5.049
20724TIP3   OH262048   8.795   1.274   1.797
20724TIP3    H162049   8.708   1.310   1.812
20724TIP3    H262050   8.849   1.350   1.775
20725TIP3   OH262051   7.311   4.771   7.529
20725TIP3    H162052   7.336   4.862   7.539
20725TIP3    H262053   7.360   4.741   7.453
20726TIP3   OH262054   4.480   5.154   1.924
20726TIP3    H162055   4.464   5.190   1.837
20726TIP3    H262056   4.487   5.231   1.981
20727TIP3   OH262057   5.365   4.104   4.936
20727TIP3    H162058   5.411   4.079   4.856
20727TIP3    H262059   5.303   4.033   4.951
20728TIP3   OH262060   1.259   3.595   5.953
20728TIP3    H162061   1.293   3.639   6.031
20728TIP3    H262062   1.307   3.513   5.950
20729TIP3   OH262063   1.248   0.854   7.618
20729TIP3    H162064   1.310   0.900   7.675
20729TIP3    H262065   1.243   0.908   7.539
20730TIP3   OH262066   2.894   7.015   7.054
20730TIP3    H162067   2.958   6.943   7.055
20730TIP3    H262068   2.842   7.002   7.133
20731TIP3   OH262069   0.210   2.097   7.423
20731TIP3    H162070   0.255   2.180   7.402
20731TIP3    H262071   0.278   2.030   7.412
20732TIP3   OH262072   1.129   5.721   1.678
20732TIP3    H162073   1.052   5.777   1.673
20732TIP3    H262074   1.107   5.645   1.624
20733TIP3   OH262075   7.243   8.673   3.266
20733TIP3    H162076   7.275   8.665   3.356
20733TIP3    H262077   7.271   8.761   3.239
20734TIP3   OH262078   7.341   2.911   5.456
20734TIP3    H162079   7.275   2.903   5.525
20734TIP3    H262080   7.294   2.947   5.381
20735TIP3   OH262081   4.366   7.376   7.365
20735TIP3    H162082   4.358   7.384   7.460
20735TIP3    H262083   4.334   7.288   7.346
20736TIP3   OH262084   8.240   6.653   5.017
20736TIP3    H162085   8.298   6.728   5.004
20736TIP3    H262086   8.171   6.665   4.951
20737TIP3   OH262087   0.030   5.703   5.033
20737TIP3    H162088   0.042   5.680   5.125
20737TIP3    H262089   0.010   5.797   5.034
20738TIP3   OH262090   8.212   8.117   5.315
20738TIP3    H162091   8.123   8.108   5.349
20738TIP3    H262092   8.247   8.195   5.359
20739TIP3   OH262093   9.263   5.759   0.038
20739TIP3    H162094   9.268   5.688   0.102
20739TIP3    H262095   9.268   5.839   0.091
20740TIP3   OH262096   1.147   0.853   4.177
20740TIP3    H162097   1.137   0.782   4.114
20740TIP3    H262098   1.103   0.928   4.136
20741TIP3   OH262099   4.793   7.705   6.481
20741TIP3    H162100   4.885   7.702   6.505
20741TIP3    H262101   4.780   7.629   6.423
20742TIP3   OH262102   2.332   1.900   2.515
20742TIP3    H162103   2.404   1.849   2.478
20742TIP3    H262104   2.337   1.884   2.609
20743TIP3   OH262105   7.096   6.393   4.984
20743TIP3    H162106   7.049   6.370   4.904
20743TIP3    H262107   7.189   6.387   4.961
20744TIP3   OH262108   7.724   7.569   5.350
20744TIP3    H162109   7.785   7.633   5.388
20744TIP3    H262110   7.708   7.601   5.261
20745TIP3   OH262111   8.987   8.076   4.755
20745TIP3    H162112   9.077   8.081   4.789
20745TIP3    H262113   8.933   8.064   4.834
20746TIP3   OH262114   4.527   6.767   4.912
20746TIP3    H162115   4.571   6.689   4.878
20746TIP3    H262116   4.593   6.836   4.904
20747TIP3   OH262117   6.971   7.126   2.085
20747TIP3    H162118   7.053   7.174   2.069
20747TIP3    H262119   6.980   7.046   2.034
20748TIP3   OH262120   0.483   2.679   1.230
20748TIP3    H162121   0.403   2.647   1.272
20748TIP3    H262122   0.453   2.714   1.146
20749TIP3   OH262123   6.629   1.022   5.122
20749TIP3    H162124   6.718   0.990   5.132
20749TIP3    H262125   6.640   1.113   5.092
20750TIP3   OH262126   0.545   2.745   7.203
20750TIP3    H162127   0.460   2.758   7.245
20750TIP3    H262128   0.524   2.731   7.111
20751TIP3   OH262129   8.114   7.099   6.567
20751TIP3    H162130   8.193   7.074   6.520
20751TIP3    H262131   8.114   7.195   6.564
20752TIP3   OH262132   3.126   8.876   6.818
20752TIP3    H162133   3.138   8.967   6.847
20752TIP3    H262134   3.199   8.860   6.758
20753TIP3   OH262135   0.277   6.470   3.197
20753TIP3    H162136   0.314   6.392   3.156
20753TIP3    H262137   0.187   6.474   3.163
20754TIP3   OH262138   7.829   6.516   5.754
20754TIP3    H162139   7.764   6.538   5.820
20754TIP3    H262140   7.880   6.445   5.793
20755TIP3   OH262141   1.763   1.587   5.081
20755TIP3    H162142   1.786   1.500   5.049
20755TIP3    H262143   1.699   1.620   5.018
20756TIP3   OH262144   0.666   5.391   2.834
20756TIP3    H162145   0.637   5.349   2.753
20756TIP3    H262146   0.695   5.318   2.890
20757TIP3   OH262147   6.041   5.039   1.984
20757TIP3    H162148   6.115   5.080   2.028
20757TIP3    H262149   6.028   5.092   1.905
20758TIP3   OH262150   6.025   0.261   6.768
20758TIP3    H162151   6.022   0.166   6.778
20758TIP3    H262152   6.114   0.285   6.794
20759TIP3   OH262153   8.090   2.155   2.389
20759TIP3    H162154   8.121   2.083   2.334
20759TIP3    H262155   7.996   2.138   2.400
20760TIP3   OH262156   8.292   0.306   0.758
20760TIP3    H162157   8.278   0.238   0.824
20760TIP3    H262158   8.204   0.342   0.742
20761TIP3   OH262159   9.095   1.931   0.216
20761TIP3    H162160   9.188   1.928   0.236
20761TIP3    H262161   9.060   1.999   0.274
20762TIP3   OH262162   0.895   6.875   1.460
20762TIP3    H162163   0.909   6.808   1.527
20762TIP3    H262164   0.807   6.907   1.476
20763TIP3   OH262165   4.182   8.930   3.783
20763TIP3    H162166   4.088   8.941   3.799
20763TIP3    H262167   4.188   8.908   3.690
20764TIP3   OH262168   2.030   4.343   7.577
20764TIP3    H162169   1.948   4.302   7.604
20764TIP3    H262170   2.060   4.290   7.502
20765TIP3   OH262171   2.702   6.900   5.754
20765TIP3    H162172   2.666   6.813   5.733
20765TIP3    H262173   2.626   6.956   5.764
20766TIP3   OH262174   7.739   1.615   5.241
20766TIP3    H162175   7.786   1.573   5.169
20766TIP3    H262176   7.760   1.562   5.318
20767TIP3   OH262177   4.254   6.299   5.037
20767TIP3    H162178   4.270   6.254   5.120
20767TIP3    H262179   4.287   6.388   5.051
20768TIP3   OH262180   8.496   7.513   3.484
20768TIP3    H162181   8.511   7.455   3.408
20768TIP3    H262182   8.571   7.498   3.541
20769TIP3   OH262183   0.857   2.380   5.764
20769TIP3    H162184   0.844   2.458   5.710
20769TIP3    H262185   0.867   2.413   5.853
20770TIP3   OH262186   2.186   2.885   1.305
20770TIP3    H162187   2.252   2.860   1.241
20770TIP3    H262188   2.216   2.968   1.340
20771TIP3   OH262189   3.586   8.252   0.966
20771TIP3    H162190   3.546   8.250   0.879
20771TIP3    H262191   3.554   8.334   1.005
20772TIP3   OH262192   2.357   0.957   1.683
20772TIP3    H162193   2.376   0.872   1.723
20772TIP3    H262194   2.325   1.011   1.756
20773TIP3   OH262195   4.728   7.368   7.295
20773TIP3    H162196   4.777   7.396   7.372
20773TIP3    H262197   4.637   7.361   7.325
20774TIP3   OH262198   0.567   1.950   6.740
20774TIP3    H162199   0.495   1.896   6.773
20774TIP3    H262200   0.646   1.901   6.762
20775TIP3   OH262201   6.728   8.419   6.914
20775TIP3    H162202   6.750   8.421   7.007
20775TIP3    H262203   6.755   8.505   6.881
20776TIP3   OH262204   1.455   2.601   2.977
20776TIP3    H162205   1.463   2.696   2.991
20776TIP3    H262206   1.402   2.570   3.050
20777TIP3   OH262207   5.636   5.773   3.050
20777TIP3    H162208   5.628   5.775   3.145
20777TIP3    H262209   5.552   5.806   3.018
20778TIP3   OH262210   8.253   0.089   6.256
20778TIP3    H162211   8.189   0.126   6.194
20778TIP3    H262212   8.336   0.093   6.208
20779TIP3   OH262213   3.654   4.750   2.582
20779TIP3    H162214   3.685   4.668   2.620
20779TIP3    H262215   3.586   4.724   2.520
20780TIP3   OH262216   3.043   0.689   5.934
20780TIP3    H162217   2.979   0.741   5.885
20780TIP3    H262218   3.012   0.691   6.025
20781TIP3   OH262219   2.086   6.689   4.751
20781TIP3    H162220   2.139   6.622   4.793
20781TIP3    H262221   2.070   6.754   4.820
20782TIP3   OH262222   8.986   0.758   5.514
20782TIP3    H162223   8.993   0.805   5.597
20782TIP3    H262224   8.905   0.707   5.522
20783TIP3   OH262225   3.533   8.154   4.246
20783TIP3    H162226   3.511   8.062   4.236
20783TIP3    H262227   3.476   8.199   4.184
20784TIP3   OH262228   8.697   2.788   1.292
20784TIP3    H162229   8.753   2.825   1.223
20784TIP3    H262230   8.669   2.865   1.343
20785TIP3   OH262231   9.349   3.607   0.307
20785TIP3    H162232   9.409   3.535   0.290
20785TIP3    H262233   9.269   3.565   0.337
20786TIP3   OH262234   3.823   1.291   7.814
20786TIP3    H162235   3.826   1.267   7.721
20786TIP3    H262236   3.915   1.309   7.837
20787TIP3   OH262237   3.204   3.585   1.125
20787TIP3    H162238   3.133   3.620   1.179
20787TIP3    H262239   3.201   3.636   1.044
20788TIP3   OH262240   1.444   8.646   3.226
20788TIP3    H162241   1.380   8.717   3.213
20788TIP3    H262242   1.398   8.567   3.195
20789TIP3   OH262243   7.732   7.970   1.944
20789TIP3    H162244   7.734   7.990   2.038
20789TIP3    H262245   7.712   8.054   1.902
20790TIP3   OH262246   5.532   4.558   7.324
20790TIP3    H162247   5.465   4.511   7.374
20790TIP3    H262248   5.557   4.498   7.254
20791TIP3   OH262249   2.314   2.788   1.749
20791TIP3    H162250   2.299   2.882   1.737
20791TIP3    H262251   2.402   2.783   1.786
20792TIP3   OH262252   3.047   6.564   5.252
20792TIP3    H162253   3.082   6.575   5.164
20792TIP3    H262254   2.994   6.484   5.247
20793TIP3   OH262255   7.203   4.975   2.608
20793TIP3    H162256   7.154   4.899   2.639
20793TIP3    H262257   7.224   4.955   2.517
20794TIP3   OH262258   8.024   8.077   4.755
20794TIP3    H162259   8.033   8.097   4.849
20794TIP3    H262260   8.100   8.023   4.735
20795TIP3   OH262261   3.117   2.095   4.746
20795TIP3    H162262   3.199   2.068   4.787
20795TIP3    H262263   3.049   2.067   4.808
20796TIP3   OH262264   5.499   3.138   0.688
20796TIP3    H162265   5.575   3.160   0.636
20796TIP3    H262266   5.437   3.209   0.673
20797TIP3   OH262267   1.175   6.946   1.622
20797TIP3    H162268   1.163   6.994   1.540
20797TIP3    H262269   1.190   6.855   1.595
20798TIP3   OH262270   1.164   4.256   4.259
20798TIP3    H162271   1.080   4.267   4.303
20798TIP3    H262272   1.149   4.288   4.170
20799TIP3   OH262273   7.267   4.356   4.956
20799TIP3    H162274   7.270   4.347   5.051
20799TIP3    H262275   7.359   4.352   4.928
20800TIP3   OH262276   7.055   0.174   0.596
20800TIP3    H162277   7.119   0.128   0.543
20800TIP3    H262278   7.023   0.244   0.540
20801TIP3   OH262279   6.158   4.548   0.088
20801TIP3    H162280   6.063   4.538   0.078
20801TIP3    H262281   6.185   4.598   0.011
20802TIP3   OH262282   7.242   0.605   0.998
20802TIP3    H162283   7.309   0.569   0.939
20802TIP3    H262284   7.159   0.586   0.955
20803TIP3   OH262285   5.506   0.617   7.591
20803TIP3    H162286   5.456   0.559   7.535
20803TIP3    H262287   5.544   0.560   7.658
20804TIP3   OH262288   3.486   2.247   0.338
20804TIP3    H162289   3.576   2.220   0.355
20804TIP3    H262290   3.451   2.179   0.280
20805TIP3   OH262291   6.091   3.950   4.697
20805TIP3    H162292   6.157   3.936   4.765
20805TIP3    H262293   6.067   3.861   4.669
20806TIP3   OH262294   1.113   7.747   7.441
20806TIP3    H162295   1.103   7.687   7.367
20806TIP3    H262296   1.207   7.767   7.444
20807TIP3   OH262297   3.455   8.371   0.748
20807TIP3    H162298   3.489   8.318   0.676
20807TIP3    H262299   3.445   8.459   0.712
20808TIP3   OH262300   6.832   8.030   2.883
20808TIP3    H162301   6.842   8.126   2.880
20808TIP3    H262302   6.880   7.999   2.806
20809TIP3   OH262303   5.561   6.921   4.634
20809TIP3    H162304   5.550   6.882   4.721
20809TIP3    H262305   5.505   6.869   4.577
20810TIP3   OH262306   8.240   1.096   4.090
20810TIP3    H162307   8.291   1.030   4.137
20810TIP3    H262308   8.296   1.122   4.017
20811TIP3   OH262309   7.973   2.426   2.010
20811TIP3    H162310   8.006   2.486   1.944
20811TIP3    H262311   7.878   2.435   2.005
20812TIP3   OH262312   1.661   0.298   0.510
20812TIP3    H162313   1.639   0.279   0.419
20812TIP3    H262314   1.679   0.213   0.549
20813TIP3   OH262315   2.370   0.278   2.611
20813TIP3    H162316   2.454   0.266   2.656
20813TIP3    H262317   2.392   0.271   2.518
20814TIP3   OH262318   4.132   1.884   2.616
20814TIP3    H162319   4.076   1.950   2.575
20814TIP3    H262320   4.183   1.848   2.543
20815TIP3   OH262321   6.221   1.057   4.389
20815TIP3    H162322   6.252   0.974   4.425
20815TIP3    H262323   6.146   1.080   4.445
20816TIP3   OH262324   1.283   4.570   2.977
20816TIP3    H162325   1.340   4.498   2.950
20816TIP3    H262326   1.341   4.646   2.982
20817TIP3   OH262327   8.162   4.402   3.054
20817TIP3    H162328   8.196   4.394   3.143
20817TIP3    H262329   8.093   4.336   3.048
20818TIP3   OH262330   3.410   0.348   3.587
20818TIP3    H162331   3.390   0.439   3.567
20818TIP3    H262332   3.381   0.337   3.678
20819TIP3   OH262333   6.552   2.384   1.625
20819TIP3    H162334   6.535   2.308   1.569
20819TIP3    H262335   6.515   2.458   1.577
20820TIP3   OH262336   3.164   5.307   5.875
20820TIP3    H162337   3.093   5.256   5.837
20820TIP3    H262338   3.130   5.339   5.958
20821TIP3   OH262339   1.281   6.010   1.253
20821TIP3    H162340   1.288   6.098   1.218
20821TIP3    H262341   1.306   6.017   1.345
20822TIP3   OH262342   8.317   1.768   4.496
20822TIP3    H162343   8.317   1.750   4.589
20822TIP3    H262344   8.374   1.844   4.486
20823TIP3   OH262345   4.848   2.003   2.158
20823TIP3    H162346   4.912   2.010   2.087
20823TIP3    H262347   4.864   2.081   2.211
20824TIP3   OH262348   6.751   8.897   0.054
20824TIP3    H162349   6.681   8.864   0.111
20824TIP3    H262350   6.722   8.874  -0.034
20825TIP3   OH262351   5.838   3.474   4.790
20825TIP3    H162352   5.869   3.544   4.732
20825TIP3    H262353   5.892   3.482   4.868
20826TIP3   OH262354   5.907   8.710   6.869
20826TIP3    H162355   5.828   8.759   6.891
20826TIP3    H262356   5.886   8.619   6.892
20827TIP3   OH262357   2.130   7.468   3.737
20827TIP3    H162358   2.183   7.424   3.670
20827TIP3    H262359   2.195   7.504   3.798
20828TIP3   OH262360   2.197   5.699   7.387
20828TIP3    H162361   2.193   5.636   7.459
20828TIP3    H262362   2.186   5.784   7.428
20829TIP3   OH262363   2.007   3.485   3.429
20829TIP3    H162364   1.945   3.463   3.359
20829TIP3    H262365   2.068   3.547   3.389
20830TIP3   OH262366   6.487   6.250   2.815
20830TIP3    H162367   6.403   6.269   2.773
20830TIP3    H262368   6.500   6.321   2.878
20831TIP3   OH262369   1.334   5.361   2.773
20831TIP3    H162370   1.302   5.279   2.809
20831TIP3    H262371   1.256   5.405   2.739
20832TIP3   OH262372   4.332   0.207   1.800
20832TIP3    H162373   4.293   0.136   1.851
20832TIP3    H262374   4.407   0.235   1.851
20833TIP3   OH262375   6.281   7.421   1.136
20833TIP3    H162376   6.351   7.367   1.171
20833TIP3    H262377   6.235   7.364   1.074
20834TIP3   OH262378   0.745   6.298   6.765
20834TIP3    H162379   0.762   6.347   6.846
20834TIP3    H262380   0.654   6.317   6.743
20835TIP3   OH262381   7.432   7.167   5.312
20835TIP3    H162382   7.478   7.194   5.392
20835TIP3    H262383   7.387   7.246   5.283
20836TIP3   OH262384   2.618   4.180   2.308
20836TIP3    H162385   2.562   4.172   2.230
20836TIP3    H262386   2.666   4.262   2.294
20837TIP3   OH262387   0.540   3.532   0.479
20837TIP3    H162388   0.483   3.524   0.402
20837TIP3    H262389   0.527   3.623   0.509
20838TIP3   OH262390   5.802   6.970   5.549
20838TIP3    H162391   5.758   6.888   5.570
20838TIP3    H262392   5.743   7.038   5.582
20839TIP3   OH262393   1.114   7.978   5.371
20839TIP3    H162394   1.108   8.056   5.425
20839TIP3    H262395   1.087   7.906   5.429
20840TIP3   OH262396   5.052   4.480   3.673
20840TIP3    H162397   5.113   4.497   3.601
20840TIP3    H262398   5.063   4.386   3.692
20841TIP3   OH262399   1.404   1.763   2.133
20841TIP3    H162400   1.414   1.746   2.226
20841TIP3    H262401   1.415   1.857   2.124
20842TIP3   OH262402   9.370   1.440   3.912
20842TIP3    H162403   9.421   1.509   3.868
20842TIP3    H262404   9.309   1.409   3.845
20843TIP3   OH262405   2.950   1.395   6.586
20843TIP3    H162406   2.888   1.374   6.517
20843TIP3    H262407   3.036   1.378   6.548
20844TIP3   OH262408   9.030   4.147   7.537
20844TIP3    H162409   9.099   4.081   7.549
20844TIP3    H262410   8.964   4.104   7.483
20845TIP3   OH262411   0.582   6.902   3.172
20845TIP3    H162412   0.511   6.919   3.233
20845TIP3    H262413   0.642   6.976   3.184
20846TIP3   OH262414   6.418   3.582   0.055
20846TIP3    H162415   6.398   3.675   0.067
20846TIP3    H262416   6.497   3.568   0.108
20847TIP3   OH262417   5.075   0.222   0.321
20847TIP3    H162418   5.159   0.202   0.280
20847TIP3    H262419   5.062   0.316   0.305
20848TIP3   OH262420   2.720   7.999   7.668
20848TIP3    H162421   2.705   7.980   7.761
20848TIP3    H262422   2.815   7.991   7.656
20849TIP3   OH262423   2.487   3.328   5.646
20849TIP3    H162424   2.422   3.358   5.582
20849TIP3    H262425   2.535   3.407   5.671
20850TIP3   OH262426   7.125   3.272   3.876
20850TIP3    H162427   7.064   3.291   3.948
20850TIP3    H262428   7.195   3.221   3.918
20851TIP3   OH262429   4.957   5.443   5.085
20851TIP3    H162430   4.896   5.473   5.018
20851TIP3    H262431   4.916   5.468   5.168
20852TIP3   OH262432   6.404   5.706   3.588
20852TIP3    H162433   6.431   5.627   3.635
20852TIP3    H262434   6.446   5.699   3.503
20853TIP3   OH262435   1.358   1.457   3.287
20853TIP3    H162436   1.301   1.412   3.226
20853TIP3    H262437   1.446   1.446   3.251
20854TIP3   OH262438   9.258   4.347   2.974
20854TIP3    H162439   9.296   4.290   2.907
20854TIP3    H262440   9.262   4.296   3.055
20855TIP3   OH262441   3.275   1.709   6.216
20855TIP3    H162442   3.230   1.727   6.298
20855TIP3    H262443   3.365   1.689   6.242
20856TIP3   OH262444   9.373   8.225   3.300
20856TIP3    H162445   9.374   8.132   3.278
20856TIP3    H262446   9.432   8.265   3.237
20857TIP3   OH262447   8.640   2.791   7.180
20857TIP3    H162448   8.589   2.711   7.190
20857TIP3    H262449   8.729   2.765   7.204
20858TIP3   OH262450   1.544   6.882   4.706
20858TIP3    H162451   1.589   6.856   4.626
20858TIP3    H262452   1.501   6.965   4.684
20859TIP3   OH262453   4.391   6.293   2.922
20859TIP3    H162454   4.472   6.343   2.927
20859TIP3    H262455   4.403   6.235   2.847
20860TIP3   OH262456   0.516   3.165   5.355
20860TIP3    H162457   0.497   3.081   5.313
20860TIP3    H262458   0.437   3.217   5.339
20861TIP3   OH262459   4.693   0.115   2.447
20861TIP3    H162460   4.774   0.093   2.402
20861TIP3    H262461   4.629   0.129   2.377
20862TIP3   OH262462   4.863   4.131   5.458
20862TIP3    H162463   4.860   4.156   5.550
20862TIP3    H262464   4.932   4.185   5.420
20863TIP3   OH262465   8.158   0.439   7.399
20863TIP3    H162466   8.196   0.376   7.460
20863TIP3    H262467   8.175   0.525   7.438
20864TIP3   OH262468   4.760   0.570   5.741
20864TIP3    H162469   4.814   0.533   5.672
20864TIP3    H262470   4.783   0.662   5.743
20865TIP3   OH262471   9.555   4.264   3.693
20865TIP3    H162472   9.501   4.299   3.764
20865TIP3    H262473   9.644   4.265   3.728
20866TIP3   OH262474   7.130   8.997   4.012
20866TIP3    H162475   7.126   8.911   3.970
20866TIP3    H262476   7.127   9.060   3.939
20867TIP3   OH262477   3.345   6.844   6.237
20867TIP3    H162478   3.330   6.804   6.322
20867TIP3    H262479   3.264   6.831   6.188
20868TIP3   OH262480   5.615   0.835   5.497
20868TIP3    H162481   5.644   0.910   5.549
20868TIP3    H262482   5.584   0.771   5.562
20869TIP3   OH262483   2.244   1.071   6.142
20869TIP3    H162484   2.307   1.027   6.200
20869TIP3    H262485   2.222   1.152   6.188
20870TIP3   OH262486   4.667   2.240   7.638
20870TIP3    H162487   4.732   2.296   7.596
20870TIP3    H262488   4.655   2.278   7.726
20871TIP3   OH262489   4.516   3.003   7.165
20871TIP3    H162490   4.599   2.956   7.158
20871TIP3    H262491   4.459   2.959   7.102
20872TIP3   OH262492   0.774   8.954   4.867
20872TIP3    H162493   0.840   8.925   4.931
20872TIP3    H262494   0.725   8.875   4.845
20873TIP3   OH262495   4.203   3.757   0.063
20873TIP3    H162496   4.183   3.849   0.083
20873TIP3    H262497   4.117   3.717   0.050
20874TIP3   OH262498   6.082   4.926   1.175
20874TIP3    H162499   6.121   4.963   1.097
20874TIP3    H262500   6.049   5.001   1.224
20875TIP3   OH262501   1.659   2.673   4.208
20875TIP3    H162502   1.635   2.643   4.296
20875TIP3    H262503   1.695   2.596   4.165
20876TIP3   OH262504   0.534   5.919   2.140
20876TIP3    H162505   0.544   6.013   2.123
20876TIP3    H262506   0.525   5.879   2.054
20877TIP3   OH262507   4.103   3.790   3.716
20877TIP3    H162508   4.047   3.767   3.642
20877TIP3    H262509   4.041   3.817   3.785
20878TIP3   OH262510   1.519   7.249   0.755
20878TIP3    H162511   1.465   7.292   0.689
20878TIP3    H262512   1.510   7.156   0.738
20879TIP3   OH262513   4.556   4.900   1.879
20879TIP3    H162514   4.652   4.908   1.883
20879TIP3    H262515   4.524   4.987   1.903
20880TIP3   OH262516   5.351   1.131   3.693
20880TIP3    H162517   5.410   1.183   3.638
20880TIP3    H262518   5.409   1.084   3.753
20881TIP3   OH262519   8.359   1.294   0.348
20881TIP3    H162520   8.418   1.235   0.395
20881TIP3    H262521   8.409   1.319   0.270
20882TIP3   OH262522   2.433   0.058   5.292
20882TIP3    H162523   2.514   0.087   5.336
20882TIP3    H262524   2.443   0.087   5.202
20883TIP3   OH262525   4.780   0.297   3.528
20883TIP3    H162526   4.734   0.273   3.447
20883TIP3    H262527   4.804   0.389   3.516
20884TIP3   OH262528   4.969   8.756   5.548
20884TIP3    H162529   4.990   8.672   5.507
20884TIP3    H262530   5.018   8.821   5.497
20885TIP3   OH262531   5.032   3.933   6.012
20885TIP3    H162532   4.995   3.948   5.925
20885TIP3    H262533   5.120   3.901   5.995
20886TIP3   OH262534   8.983   7.494   6.154
20886TIP3    H162535   8.976   7.556   6.081
20886TIP3    H262536   8.973   7.408   6.113
20887TIP3   OH262537   4.875   7.344   6.133
20887TIP3    H162538   4.948   7.314   6.079
20887TIP3    H262539   4.842   7.265   6.175
20888TIP3   OH262540   6.577   0.108   4.282
20888TIP3    H162541   6.649   0.047   4.297
20888TIP3    H262542   6.518   0.062   4.222
20889TIP3   OH262543   0.714   8.229   2.686
20889TIP3    H162544   0.709   8.266   2.598
20889TIP3    H262545   0.779   8.282   2.731
20890TIP3   OH262546   3.412   3.470   3.794
20890TIP3    H162547   3.484   3.498   3.739
20890TIP3    H262548   3.350   3.543   3.791
20891TIP3   OH262549   7.072   0.283   4.893
20891TIP3    H162550   7.033   0.208   4.939
20891TIP3    H262551   7.112   0.245   4.815
20892TIP3   OH262552   8.760   3.195   2.183
20892TIP3    H162553   8.724   3.114   2.218
20892TIP3    H262554   8.805   3.169   2.103
20893TIP3   OH262555   0.305   2.116   6.247
20893TIP3    H162556   0.220   2.122   6.290
20893TIP3    H262557   0.365   2.089   6.316
20894TIP3   OH262558   3.059   8.483   5.870
20894TIP3    H162559   3.140   8.524   5.841
20894TIP3    H262560   3.043   8.412   5.808
20895TIP3   OH262561   6.657   1.188   5.801
20895TIP3    H162562   6.658   1.201   5.707
20895TIP3    H262563   6.736   1.137   5.819
20896TIP3   OH262564   7.402   6.101   5.900
20896TIP3    H162565   7.384   6.097   5.806
20896TIP3    H262566   7.401   6.009   5.929
20897TIP3   OH262567   4.206   4.515   4.223
20897TIP3    H162568   4.122   4.558   4.238
20897TIP3    H262569   4.222   4.526   4.130
20898TIP3   OH262570   8.061   4.081   1.142
20898TIP3    H162571   8.126   4.043   1.084
20898TIP3    H262572   7.979   4.039   1.118
20899TIP3   OH262573   1.957   4.870   5.920
20899TIP3    H162574   1.994   4.847   6.006
20899TIP3    H262575   2.005   4.948   5.893
20900TIP3   OH262576   0.188   0.478   2.290
20900TIP3    H162577   0.184   0.382   2.294
20900TIP3    H262578   0.101   0.503   2.258
20901TIP3   OH262579   1.678   6.264   7.567
20901TIP3    H162580   1.672   6.324   7.642
20901TIP3    H262581   1.714   6.184   7.603
20902TIP3   OH262582   1.372   6.244   5.296
20902TIP3    H162583   1.323   6.278   5.370
20902TIP3    H262584   1.375   6.149   5.310
20903TIP3   OH262585   8.078   0.917   3.854
20903TIP3    H162586   8.087   0.880   3.766
20903TIP3    H262587   8.106   1.008   3.844
20904TIP3   OH262588   1.798   8.464   4.777
20904TIP3    H162589   1.745   8.431   4.705
20904TIP3    H262590   1.772   8.556   4.786
20905TIP3   OH262591   8.910   0.767   1.645
20905TIP3    H162592   8.940   0.704   1.711
20905TIP3    H262593   8.828   0.801   1.681
20906TIP3   OH262594   0.918   4.362   4.970
20906TIP3    H162595   0.995   4.360   4.912
20906TIP3    H262596   0.879   4.275   4.960
20907TIP3   OH262597   0.867   4.960   6.075
20907TIP3    H162598   0.894   4.925   5.990
20907TIP3    H262599   0.865   4.883   6.132
20908TIP3   OH262600   1.223   5.298   5.542
20908TIP3    H162601   1.296   5.358   5.524
20908TIP3    H262602   1.263   5.211   5.544
20909TIP3   OH262603   2.236   2.305   7.607
20909TIP3    H162604   2.145   2.288   7.583
20909TIP3    H262605   2.277   2.339   7.527
20910TIP3   OH262606   0.611   6.922   6.734
20910TIP3    H162607   0.589   6.839   6.692
20910TIP3    H262608   0.595   6.988   6.667
20911TIP3   OH262609   8.136   5.312   4.430
20911TIP3    H162610   8.182   5.343   4.352
20911TIP3    H262611   8.044   5.315   4.407
20912TIP3   OH262612   8.229   8.182   2.408
20912TIP3    H162613   8.174   8.109   2.379
20912TIP3    H262614   8.234   8.239   2.331
20913TIP3   OH262615   3.007   0.337   5.921
20913TIP3    H162616   2.972   0.377   6.000
20913TIP3    H262617   3.096   0.373   5.912
20914TIP3   OH262618   7.973   6.145   0.812
20914TIP3    H162619   7.928   6.072   0.771
20914TIP3    H262620   8.064   6.116   0.821
20915TIP3   OH262621   7.773   0.600   5.306
20915TIP3    H162622   7.820   0.520   5.329
20915TIP3    H262623   7.834   0.671   5.327
20916TIP3   OH262624   4.841   2.293   4.589
20916TIP3    H162625   4.813   2.233   4.658
20916TIP3    H262626   4.824   2.245   4.508
20917TIP3   OH262627   2.024   4.226   1.416
20917TIP3    H162628   2.064   4.309   1.391
20917TIP3    H262629   1.966   4.249   1.489
20918TIP3   OH262630   4.378   8.464   3.240
20918TIP3    H162631   4.443   8.395   3.254
20918TIP3    H262632   4.375   8.475   3.145
20919TIP3   OH262633   5.989   1.781   2.761
20919TIP3    H162634   5.991   1.839   2.685
20919TIP3    H262635   6.043   1.825   2.826
20920TIP3   OH262636   9.462   5.153   5.350
20920TIP3    H162637   9.497   5.242   5.351
20920TIP3    H262638   9.539   5.097   5.362
20921TIP3   OH262639   2.583   4.155   0.176
20921TIP3    H162640   2.641   4.105   0.234
20921TIP3    H262641   2.601   4.121   0.088
20922TIP3   OH262642   6.254   7.624   2.838
20922TIP3    H162643   6.233   7.596   2.749
20922TIP3    H262644   6.298   7.708   2.827
20923TIP3   OH262645   5.990   7.487   4.786
20923TIP3    H162646   5.920   7.492   4.851
20923TIP3    H262647   5.952   7.521   4.706
20924TIP3   OH262648   3.697   2.795   0.935
20924TIP3    H162649   3.730   2.715   0.895
20924TIP3    H262650   3.653   2.765   1.015
20925TIP3   OH262651   6.629   3.095   5.942
20925TIP3    H162652   6.640   3.108   6.036
20925TIP3    H262653   6.556   3.034   5.935
20926TIP3   OH262654   0.825   2.212   2.800
20926TIP3    H162655   0.755   2.236   2.860
20926TIP3    H262656   0.827   2.284   2.736
20927TIP3   OH262657   2.850   6.233   2.095
20927TIP3    H162658   2.802   6.227   2.013
20927TIP3    H262659   2.933   6.190   2.077
20928TIP3   OH262660   1.466   4.521   2.004
20928TIP3    H162661   1.397   4.461   1.977
20928TIP3    H262662   1.483   4.575   1.927
20929TIP3   OH262663   4.973   3.206   0.718
20929TIP3    H162664   4.920   3.266   0.665
20929TIP3    H262665   4.949   3.227   0.808
20930TIP3   OH262666   2.699   5.004   2.814
20930TIP3    H162667   2.737   5.004   2.902
20930TIP3    H262668   2.725   4.920   2.776
20931TIP3   OH262669   2.185   6.830   2.397
20931TIP3    H162670   2.205   6.915   2.357
20931TIP3    H262671   2.173   6.771   2.323
20932TIP3   OH262672   3.038   0.633   4.470
20932TIP3    H162673   3.018   0.568   4.537
20932TIP3    H262674   3.037   0.717   4.515
20933TIP3   OH262675   6.476   1.500   2.137
20933TIP3    H162676   6.443   1.420   2.097
20933TIP3    H262677   6.436   1.503   2.223
20934TIP3   OH262678   5.572   7.565   6.158
20934TIP3    H162679   5.581   7.623   6.234
20934TIP3    H262680   5.597   7.619   6.083
20935TIP3   OH262681   2.926   1.740   1.550
20935TIP3    H162682   2.998   1.781   1.503
20935TIP3    H262683   2.968   1.677   1.609
20936TIP3   OH262684   1.267   1.845   7.335
20936TIP3    H162685   1.263   1.889   7.250
20936TIP3    H262686   1.182   1.801   7.343
20937TIP3   OH262687   3.244   0.424   4.012
20937TIP3    H162688   3.248   0.348   4.070
20937TIP3    H262689   3.322   0.475   4.033
20938TIP3   OH262690   4.376   1.625   5.047
20938TIP3    H162691   4.330   1.629   5.130
20938TIP3    H262692   4.409   1.714   5.034
20939TIP3   OH262693   2.983   6.718   1.473
20939TIP3    H162694   2.916   6.706   1.405
20939TIP3    H262695   2.998   6.630   1.507
20940TIP3   OH262696   9.488   3.938   1.227
20940TIP3    H162697   9.424   3.982   1.282
20940TIP3    H262698   9.471   3.844   1.240
20941TIP3   OH262699   0.841   3.942   5.438
20941TIP3    H162700   0.782   3.867   5.425
20941TIP3    H262701   0.825   3.970   5.528
20942TIP3   OH262702   8.580   4.213   0.783
20942TIP3    H162703   8.506   4.241   0.837
20942TIP3    H262704   8.579   4.117   0.791
20943TIP3   OH262705   7.778   1.685   7.412
20943TIP3    H162706   7.715   1.748   7.375
20943TIP3    H262707   7.756   1.602   7.370
20944TIP3   OH262708   3.002   8.968   5.213
20944TIP3    H162709   3.006   8.934   5.124
20944TIP3    H262710   3.047   9.053   5.208
20945TIP3   OH262711   4.191   2.849   4.794
20945TIP3    H162712   4.179   2.903   4.871
20945TIP3    H262713   4.125   2.780   4.802
20946TIP3   OH262714   6.286   4.839   5.245
20946TIP3    H162715   6.256   4.820   5.156
20946TIP3    H262716   6.280   4.935   5.252
20947TIP3   OH262717   3.144   6.729   1.142
20947TIP3    H162718   3.114   6.819   1.159
20947TIP3    H262719   3.103   6.677   1.210
20948TIP3   OH262720   1.488   4.259   1.779
20948TIP3    H162721   1.396   4.258   1.803
20948TIP3    H262722   1.522   4.342   1.812
20949TIP3   OH262723   0.122   3.979   2.844
20949TIP3    H162724   0.071   3.987   2.925
20949TIP3    H262725   0.120   4.066   2.805
20950TIP3   OH262726   1.445   0.902   5.162
20950TIP3    H162727   1.428   0.845   5.087
20950TIP3    H262728   1.470   0.843   5.233
20951TIP3   OH262729   8.424   3.661   0.944
20951TIP3    H162730   8.351   3.603   0.969
20951TIP3    H262731   8.400   3.693   0.857
20952TIP3   OH262732   4.525   1.771   0.917
20952TIP3    H162733   4.533   1.772   1.012
20952TIP3    H262734   4.612   1.746   0.886
20953TIP3   OH262735   7.070   1.857   7.156
20953TIP3    H162736   7.109   1.877   7.241
20953TIP3    H262737   7.086   1.764   7.144
20954TIP3   OH262738   1.169   0.585   7.700
20954TIP3    H162739   1.224   0.571   7.777
20954TIP3    H262740   1.214   0.654   7.651
20955TIP3   OH262741   2.892   1.427   6.171
20955TIP3    H162742   2.895   1.522   6.157
20955TIP3    H262743   2.980   1.397   6.149
20956TIP3   OH262744   0.914   8.967   5.752
20956TIP3    H162745   0.961   8.886   5.769
20956TIP3    H262746   0.884   8.958   5.661
20957TIP3   OH262747   3.345   4.017   1.425
20957TIP3    H162748   3.435   4.048   1.411
20957TIP3    H262749   3.330   3.953   1.356
20958TIP3   OH262750   5.584   5.562   5.418
20958TIP3    H162751   5.607   5.637   5.473
20958TIP3    H262752   5.519   5.596   5.357
20959TIP3   OH262753   5.039   4.043   7.642
20959TIP3    H162754   5.034   3.948   7.639
20959TIP3    H262755   5.045   4.064   7.735
20960TIP3   OH262756   5.755   7.710   2.690
20960TIP3    H162757   5.827   7.773   2.686
20960TIP3    H262758   5.786   7.643   2.751
20961TIP3   OH262759   8.192   1.637   3.542
20961TIP3    H162760   8.203   1.644   3.447
20961TIP3    H262761   8.122   1.700   3.563
20962TIP3   OH262762   5.812   3.195   3.237
20962TIP3    H162763   5.805   3.245   3.318
20962TIP3    H262764   5.769   3.112   3.256
20963TIP3   OH262765   7.760   3.624   7.799
20963TIP3    H162766   7.714   3.541   7.794
20963TIP3    H262767   7.801   3.635   7.713
20964TIP3   OH262768   3.305   4.922   0.713
20964TIP3    H162769   3.278   5.005   0.752
20964TIP3    H262770   3.309   4.861   0.786
20965TIP3   OH262771   2.833   2.953   5.498
20965TIP3    H162772   2.851   2.967   5.405
20965TIP3    H262773   2.801   3.038   5.529
20966TIP3   OH262774   2.968   5.906   6.119
20966TIP3    H162775   2.981   5.964   6.043
20966TIP3    H262776   3.037   5.932   6.180
20967TIP3   OH262777   3.071   0.198   4.780
20967TIP3    H162778   3.152   0.243   4.756
20967TIP3    H262779   3.094   0.105   4.779
20968TIP3   OH262780   5.448   0.636   5.251
20968TIP3    H162781   5.438   0.731   5.246
20968TIP3    H262782   5.439   0.606   5.160
20969TIP3   OH262783   7.100   7.074   3.750
20969TIP3    H162784   7.066   7.025   3.826
20969TIP3    H262785   7.177   7.024   3.723
20970TIP3   OH262786   9.527   2.011   6.610
20970TIP3    H162787   9.577   1.933   6.634
20970TIP3    H262788   9.481   2.036   6.690
20971TIP3   OH262789   2.252   0.779   5.977
20971TIP3    H162790   2.197   0.711   5.939
20971TIP3    H262791   2.281   0.831   5.901
20972TIP3   OH262792   7.973   1.996   0.860
20972TIP3    H162793   7.939   2.063   0.919
20972TIP3    H262794   7.938   2.020   0.774
20973TIP3   OH262795   1.295   0.294   3.730
20973TIP3    H162796   1.361   0.282   3.662
20973TIP3    H262797   1.258   0.206   3.742
20974TIP3   OH262798   9.439   7.574   0.654
20974TIP3    H162799   9.463   7.550   0.564
20974TIP3    H262800   9.343   7.566   0.655
20975TIP3   OH262801   1.735   8.538   7.653
20975TIP3    H162802   1.738   8.455   7.605
20975TIP3    H262803   1.695   8.516   7.737
20976TIP3   OH262804   8.389   4.414   7.490
20976TIP3    H162805   8.302   4.454   7.487
20976TIP3    H262806   8.450   4.484   7.468
20977TIP3   OH262807   6.855   7.284   0.803
20977TIP3    H162808   6.869   7.190   0.794
20977TIP3    H262809   6.797   7.293   0.878
20978TIP3   OH262810   5.600   1.368   6.814
20978TIP3    H162811   5.543   1.437   6.848
20978TIP3    H262812   5.548   1.288   6.824
20979TIP3   OH262813   6.740   1.541   2.190
20979TIP3    H162814   6.751   1.457   2.234
20979TIP3    H262815   6.646   1.547   2.173
20980TIP3   OH262816   0.516   6.619   3.783
20980TIP3    H162817   0.527   6.626   3.878
20980TIP3    H262818   0.600   6.647   3.747
20981TIP3   OH262819   1.559   2.498   6.863
20981TIP3    H162820   1.610   2.443   6.804
20981TIP3    H262821   1.476   2.512   6.818
20982TIP3   OH262822   4.633   8.770   1.983
20982TIP3    H162823   4.678   8.781   2.068
20982TIP3    H262824   4.548   8.734   2.006
20983TIP3   OH262825   3.380   8.856   7.036
20983TIP3    H162826   3.303   8.908   7.015
20983TIP3    H262827   3.451   8.898   6.987
20984TIP3   OH262828   8.544   5.792   0.335
20984TIP3    H162829   8.603   5.798   0.260
20984TIP3    H262830   8.481   5.724   0.311
20985TIP3   OH262831   2.093   0.546   6.151
20985TIP3    H162832   2.016   0.577   6.199
20985TIP3    H262833   2.167   0.571   6.206
20986TIP3   OH262834   0.760   3.080   5.791
20986TIP3    H162835   0.746   3.170   5.820
20986TIP3    H262836   0.803   3.038   5.865
20987TIP3   OH262837   1.165   1.839   6.186
20987TIP3    H162838   1.163   1.932   6.163
20987TIP3    H262839   1.252   1.825   6.224
20988TIP3   OH262840   8.369   2.604   1.660
20988TIP3    H162841   8.291   2.659   1.646
20988TIP3    H262842   8.413   2.643   1.735
20989TIP3   OH262843   5.241   0.969   6.853
20989TIP3    H162844   5.214   0.902   6.790
20989TIP3    H262845   5.230   0.927   6.938
20990TIP3   OH262846   7.392   3.021   1.137
20990TIP3    H162847   7.369   3.108   1.106
20990TIP3    H262848   7.446   2.983   1.067
20991TIP3   OH262849   8.845   2.077   1.308
20991TIP3    H162850   8.915   2.127   1.350
20991TIP3    H262851   8.880   1.988   1.302
20992TIP3   OH262852   7.279   9.013   6.003
20992TIP3    H162853   7.362   9.036   6.045
20992TIP3    H262854   7.253   9.091   5.955
20993TIP3   OH262855   9.178   1.635   7.061
20993TIP3    H162856   9.113   1.704   7.045
20993TIP3    H262857   9.228   1.630   6.980
20994TIP3   OH262858   2.986   3.331   3.582
20994TIP3    H162859   2.997   3.236   3.589
20994TIP3    H262860   3.004   3.351   3.490
20995TIP3   OH262861   7.271   2.237   5.508
20995TIP3    H162862   7.189   2.259   5.462
20995TIP3    H262863   7.243   2.211   5.595
20996TIP3   OH262864   3.393   2.933   6.901
20996TIP3    H162865   3.339   2.993   6.952
20996TIP3    H262866   3.364   2.946   6.810
20997TIP3   OH262867   5.107   7.485   5.945
20997TIP3    H162868   5.188   7.508   5.899
20997TIP3    H262869   5.119   7.521   6.033
20998TIP3   OH262870   6.316   6.232   2.590
20998TIP3    H162871   6.405   6.209   2.564
20998TIP3    H262872   6.267   6.234   2.508
20999TIP3   OH262873   1.326   2.578   0.389
20999TIP3    H162874   1.232   2.582   0.371
20999TIP3    H262875   1.366   2.630   0.319
21000TIP3   OH262876   3.312   6.697   2.290
21000TIP3    H162877   3.326   6.631   2.222
21000TIP3    H262878   3.399   6.733   2.307
21001TIP3   OH262879   7.281   2.001   5.347
21001TIP3    H162880   7.297   2.095   5.338
21001TIP3    H262881   7.235   1.992   5.430
21002TIP3   OH262882   6.180   7.553   5.541
21002TIP3    H162883   6.149   7.483   5.484
21002TIP3    H262884   6.232   7.609   5.483
21003TIP3   OH262885   5.235   8.591   5.050
21003TIP3    H162886   5.179   8.523   5.015
21003TIP3    H262887   5.262   8.642   4.973
21004TIP3   OH262888   3.829   7.488   2.475
21004TIP3    H162889   3.894   7.464   2.408
21004TIP3    H262890   3.854   7.576   2.503
21005TIP3   OH262891   8.040   7.603   7.810
21005TIP3    H162892   7.966   7.559   7.768
21005TIP3    H262893   8.002   7.650   7.884
21006TIP3   OH262894   0.694   3.798   4.948
21006TIP3    H162895   0.655   3.854   4.881
21006TIP3    H262896   0.697   3.711   4.908
21007TIP3   OH262897   6.916   0.255   2.655
21007TIP3    H162898   6.987   0.319   2.665
21007TIP3    H262899   6.838   0.309   2.643
21008TIP3   OH262900   9.246   3.663   2.404
21008TIP3    H162901   9.326   3.715   2.408
21008TIP3    H262902   9.255   3.611   2.324
21009TIP3   OH262903   1.032   8.815   0.550
21009TIP3    H162904   0.941   8.822   0.519
21009TIP3    H262905   1.025   8.764   0.631
21010TIP3   OH262906   4.517   1.972   1.364
21010TIP3    H162907   4.427   1.951   1.385
21010TIP3    H262908   4.524   2.066   1.378
21011TIP3   OH262909   5.042   2.271   5.247
21011TIP3    H162910   4.993   2.352   5.232
21011TIP3    H262911   5.132   2.293   5.220
21012TIP3   OH262912   3.516   3.471   6.192
21012TIP3    H162913   3.518   3.545   6.132
21012TIP3    H262914   3.590   3.485   6.251
21013TIP3   OH262915   0.928   0.462   3.917
21013TIP3    H162916   0.880   0.507   3.848
21013TIP3    H262917   0.923   0.521   3.993
21014TIP3   OH262918   5.262   7.825   1.708
21014TIP3    H162919   5.197   7.849   1.773
21014TIP3    H262920   5.304   7.746   1.742
21015TIP3   OH262921   6.542   2.806   1.001
21015TIP3    H162922   6.543   2.711   1.014
21015TIP3    H262923   6.634   2.830   0.999
21016TIP3   OH262924   1.122   7.929   3.646
21016TIP3    H162925   1.113   7.841   3.610
21016TIP3    H262926   1.052   7.936   3.710
21017TIP3   OH262927   0.621   0.360   5.161
21017TIP3    H162928   0.641   0.322   5.076
21017TIP3    H262929   0.704   0.396   5.192
21018TIP3   OH262930   4.920   5.149   0.625
21018TIP3    H162931   4.982   5.170   0.694
21018TIP3    H262932   4.873   5.231   0.609
21019TIP3   OH262933   3.716   3.181   2.957
21019TIP3    H162934   3.760   3.218   3.034
21019TIP3    H262935   3.656   3.116   2.993
21020TIP3   OH262936   0.618   6.698   0.579
21020TIP3    H162937   0.661   6.701   0.494
21020TIP3    H262938   0.535   6.653   0.562
21021TIP3   OH262939   5.322   0.101   7.311
21021TIP3    H162940   5.234   0.085   7.346
21021TIP3    H262941   5.309   0.113   7.217
21022TIP3   OH262942   0.051   8.575   4.844
21022TIP3    H162943  -0.014   8.576   4.915
21022TIP3    H262944   0.133   8.599   4.886
21023TIP3   OH262945   1.193   7.223   2.645
21023TIP3    H162946   1.178   7.129   2.638
21023TIP3    H262947   1.117   7.256   2.693
21024TIP3   OH262948   8.721   3.423   3.541
21024TIP3    H162949   8.807   3.412   3.581
21024TIP3    H262950   8.695   3.336   3.513
21025TIP3   OH262951   1.772   4.903   1.503
21025TIP3    H162952   1.866   4.921   1.503
21025TIP3    H262953   1.732   4.986   1.476
21026TIP3   OH262954   3.494   4.711   2.336
21026TIP3    H162955   3.463   4.627   2.303
21026TIP3    H262956   3.472   4.774   2.268
21027TIP3   OH262957   2.181   1.563   2.037
21027TIP3    H162958   2.207   1.572   1.945
21027TIP3    H262959   2.253   1.603   2.086
21028TIP3   OH262960   0.919   4.398   3.757
21028TIP3    H162961   0.837   4.365   3.794
21028TIP3    H262962   0.974   4.417   3.833
21029TIP3   OH262963   2.459   2.836   5.620
21029TIP3    H162964   2.383   2.829   5.562
21029TIP3    H262965   2.420   2.840   5.708
21030TIP3   OH262966   0.338   2.388   6.228
21030TIP3    H162967   0.329   2.294   6.212
21030TIP3    H262968   0.416   2.413   6.179
21031TIP3   OH262969   1.269   6.873   1.122
21031TIP3    H162970   1.248   6.913   1.206
21031TIP3    H262971   1.332   6.933   1.082
21032TIP3   OH262972   2.227   4.711   5.628
21032TIP3    H162973   2.263   4.623   5.627
21032TIP3    H262974   2.177   4.718   5.546
21033TIP3   OH262975   4.307   5.251   1.294
21033TIP3    H162976   4.249   5.193   1.343
21033TIP3    H262977   4.251   5.292   1.229
21034TIP3   OH262978   3.875   6.467   2.855
21034TIP3    H162979   3.909   6.556   2.856
21034TIP3    H262980   3.859   6.447   2.763
21035TIP3   OH262981   1.646   6.226   2.653
21035TIP3    H162982   1.726   6.272   2.630
21035TIP3    H262983   1.648   6.220   2.749
21036TIP3   OH262984   2.204   1.740   0.556
21036TIP3    H162985   2.182   1.656   0.596
21036TIP3    H262986   2.157   1.741   0.473
21037TIP3   OH262987   7.913   6.312   4.462
21037TIP3    H162988   7.991   6.279   4.418
21037TIP3    H262989   7.859   6.349   4.391
21038TIP3   OH262990   6.145   1.243   6.792
21038TIP3    H162991   6.202   1.225   6.867
21038TIP3    H262992   6.151   1.164   6.738
21039TIP3   OH262993   2.909   8.933   3.807
21039TIP3    H162994   2.924   9.020   3.770
21039TIP3    H262995   2.832   8.944   3.864
21040TIP3   OH262996   8.669   5.443   6.311
21040TIP3    H162997   8.618   5.523   6.320
21040TIP3    H262998   8.624   5.380   6.367
21041TIP3   OH262999   9.231   3.493   2.170
21041TIP3    H163000   9.257   3.504   2.079
21041TIP3    H263001   9.136   3.509   2.171
21042TIP3   OH263002   2.268   4.827   1.845
21042TIP3    H163003   2.334   4.847   1.778
21042TIP3    H263004   2.319   4.817   1.925
21043TIP3   OH263005   2.116   7.286   5.825
21043TIP3    H163006   2.190   7.273   5.883
21043TIP3    H263007   2.103   7.201   5.783
21044TIP3   OH263008   4.641   3.569   2.517
21044TIP3    H163009   4.701   3.499   2.542
21044TIP3    H263010   4.676   3.647   2.560
21045TIP3   OH263011   5.577   4.304   7.054
21045TIP3    H163012   5.514   4.376   7.044
21045TIP3    H263013   5.528   4.236   7.101
21046TIP3   OH263014   5.553   5.547   3.958
21046TIP3    H163015   5.574   5.638   3.982
21046TIP3    H263016   5.627   5.521   3.902
21047TIP3   OH263017   4.872   8.932   6.760
21047TIP3    H163018   4.908   8.945   6.673
21047TIP3    H263019   4.887   9.015   6.805
21048TIP3   OH263020   9.387   1.947   0.242
21048TIP3    H163021   9.395   1.991   0.326
21048TIP3    H263022   9.381   1.854   0.264
21049TIP3   OH263023   8.969   7.656   3.855
21049TIP3    H163024   9.006   7.705   3.928
21049TIP3    H263025   8.874   7.665   3.866
21050TIP3   OH263026   1.577   8.142   3.908
21050TIP3    H163027   1.659   8.185   3.885
21050TIP3    H263028   1.600   8.080   3.977
21051TIP3   OH263029   7.561   0.309   5.606
21051TIP3    H163030   7.554   0.337   5.698
21051TIP3    H263031   7.485   0.252   5.593
21052TIP3   OH263032   6.094   2.290   4.859
21052TIP3    H163033   6.137   2.289   4.945
21052TIP3    H263034   6.007   2.327   4.877
21053TIP3   OH263035   0.162   4.624   3.266
21053TIP3    H163036   0.152   4.671   3.183
21053TIP3    H263037   0.225   4.676   3.316
21054TIP3   OH263038   9.551   0.741   7.539
21054TIP3    H163039   9.520   0.665   7.491
21054TIP3    H263040   9.482   0.760   7.602
21055TIP3   OH263041   2.632   7.325   0.476
21055TIP3    H163042   2.542   7.336   0.446
21055TIP3    H263043   2.684   7.380   0.417
21056TIP3   OH263044   4.478   5.700   4.544
21056TIP3    H163045   4.460   5.731   4.455
21056TIP3    H263046   4.497   5.607   4.534
21057TIP3   OH263047   7.881   5.828   3.758
21057TIP3    H163048   7.786   5.842   3.754
21057TIP3    H263049   7.915   5.877   3.683
21058TIP3   OH263050   0.492   4.060   6.051
21058TIP3    H163051   0.397   4.067   6.057
21058TIP3    H263052   0.513   3.973   6.086
21059TIP3   OH263053   0.945   4.943   0.852
21059TIP3    H163054   1.024   4.939   0.797
21059TIP3    H263055   0.877   4.978   0.794
21060TIP3   OH263056   3.662   2.471   5.737
21060TIP3    H163057   3.704   2.551   5.706
21060TIP3    H263058   3.686   2.466   5.830
21061TIP3   OH263059   0.879   2.817   4.972
21061TIP3    H163060   0.852   2.815   5.064
21061TIP3    H263061   0.952   2.879   4.970
21062TIP3   OH263062   2.133   5.120   7.172
21062TIP3    H163063   2.039   5.110   7.157
21062TIP3    H263064   2.141   5.128   7.267
21063TIP3   OH263065   5.516   3.730   3.957
21063TIP3    H163066   5.512   3.823   3.977
21063TIP3    H263067   5.563   3.726   3.873
21064TIP3   OH263068   9.128   8.817   1.419
21064TIP3    H163069   9.081   8.827   1.336
21064TIP3    H263070   9.202   8.760   1.398
21065TIP3   OH263071   6.310   3.636   7.577
21065TIP3    H163072   6.403   3.656   7.584
21065TIP3    H263073   6.290   3.587   7.657
21066TIP3   OH263074   7.584   6.572   0.853
21066TIP3    H163075   7.629   6.629   0.915
21066TIP3    H263076   7.570   6.491   0.902
21067TIP3   OH263077   2.469   0.106   7.053
21067TIP3    H163078   2.404   0.073   6.991
21067TIP3    H263079   2.517   0.029   7.082
21068TIP3   OH263080   9.054   6.623   4.967
21068TIP3    H163081   9.140   6.612   4.927
21068TIP3    H263082   9.014   6.537   4.962
21069TIP3   OH263083   6.095   1.934   2.552
21069TIP3    H163084   6.141   2.017   2.537
21069TIP3    H263085   6.161   1.867   2.534
21070TIP3   OH263086   8.209   5.969   0.470
21070TIP3    H163087   8.250   5.935   0.549
21070TIP3    H263088   8.241   6.059   0.463
21071TIP3   OH263089   0.304   3.780   0.771
21071TIP3    H163090   0.245   3.708   0.747
21071TIP3    H263091   0.377   3.772   0.710
21072TIP3   OH263092   4.487   0.672   1.509
21072TIP3    H163093   4.461   0.722   1.586
21072TIP3    H263094   4.576   0.703   1.490
21073TIP3   OH263095   0.225   5.250   6.274
21073TIP3    H163096   0.145   5.229   6.322
21073TIP3    H263097   0.239   5.344   6.291
21074TIP3   OH263098   5.367   3.100   1.396
21074TIP3    H163099   5.331   3.074   1.312
21074TIP3    H263100   5.460   3.076   1.391
21075TIP3   OH263101   2.075   8.606   5.605
21075TIP3    H163102   2.052   8.694   5.573
21075TIP3    H263103   2.098   8.618   5.697
21076TIP3   OH263104   4.456   7.539   4.890
21076TIP3    H163105   4.503   7.619   4.865
21076TIP3    H263106   4.519   7.469   4.875
21077TIP3   OH263107   6.952   3.415   5.681
21077TIP3    H163108   6.868   3.368   5.681
21077TIP3    H263109   6.991   3.393   5.766
21078TIP3   OH263110   7.118   2.794   6.711
21078TIP3    H163111   7.138   2.886   6.730
21078TIP3    H263112   7.023   2.792   6.698
21079TIP3   OH263113   8.157   6.313   1.226
21079TIP3    H163114   8.240   6.321   1.273
21079TIP3    H263115   8.160   6.225   1.187
21080TIP3   OH263116   5.955   8.556   1.642
21080TIP3    H163117   5.877   8.610   1.646
21080TIP3    H263118   6.008   8.585   1.716
21081TIP3   OH263119   5.717   5.090   4.840
21081TIP3    H163120   5.629   5.100   4.804
21081TIP3    H263121   5.748   5.007   4.805
21082TIP3   OH263122   3.392   0.252   3.130
21082TIP3    H163123   3.369   0.227   3.219
21082TIP3    H263124   3.348   0.336   3.116
21083TIP3   OH263125   8.983   7.334   1.394
21083TIP3    H163126   8.997   7.425   1.418
21083TIP3    H263127   8.951   7.337   1.304
21084TIP3   OH263128   3.058   4.184   4.237
21084TIP3    H163129   3.072   4.189   4.332
21084TIP3    H263130   2.985   4.243   4.220
21085TIP3   OH263131   2.462   5.443   7.178
21085TIP3    H163132   2.384   5.450   7.232
21085TIP3    H263133   2.447   5.367   7.122
21086TIP3   OH263134   3.798   6.057   7.560
21086TIP3    H163135   3.822   6.143   7.524
21086TIP3    H263136   3.755   6.012   7.488
21087TIP3   OH263137   2.094   0.502   0.751
21087TIP3    H163138   2.019   0.561   0.761
21087TIP3    H263139   2.083   0.438   0.821
21088TIP3   OH263140   0.382   2.817   0.687
21088TIP3    H163141   0.414   2.729   0.669
21088TIP3    H263142   0.411   2.869   0.612
21089TIP3   OH263143   6.156   4.123   2.849
21089TIP3    H163144   6.225   4.165   2.797
21089TIP3    H263145   6.081   4.117   2.789
21090TIP3   OH263146   4.040   1.640   5.676
21090TIP3    H163147   4.014   1.656   5.585
21090TIP3    H263148   4.044   1.545   5.684
21091TIP3   OH263149   7.418   6.530   3.482
21091TIP3    H163150   7.428   6.592   3.410
21091TIP3    H263151   7.345   6.474   3.455
21092TIP3   OH263152   8.730   7.394   4.848
21092TIP3    H163153   8.720   7.396   4.752
21092TIP3    H263154   8.790   7.322   4.864
21093TIP3   OH263155   9.200   6.440   5.666
21093TIP3    H163156   9.204   6.527   5.706
21093TIP3    H263157   9.106   6.419   5.664
21094TIP3   OH263158   4.453   1.089   1.964
21094TIP3    H163159   4.510   1.013   1.971
21094TIP3    H263160   4.471   1.126   1.878
21095TIP3   OH263161   0.133   7.134   5.473
21095TIP3    H163162   0.176   7.050   5.456
21095TIP3    H263163   0.205   7.197   5.476
21096TIP3   OH263164   6.716   4.036   1.192
21096TIP3    H163165   6.772   4.039   1.114
21096TIP3    H263166   6.628   4.049   1.158
21097TIP3   OH263167   1.028   1.776   0.570
21097TIP3    H163168   1.047   1.738   0.485
21097TIP3    H263169   1.113   1.783   0.613
21098TIP3   OH263170   7.419   3.491   4.234
21098TIP3    H163171   7.343   3.437   4.255
21098TIP3    H263172   7.421   3.496   4.139
21099TIP3   OH263173   2.914   0.533   3.408
21099TIP3    H163174   2.977   0.605   3.413
21099TIP3    H263175   2.913   0.508   3.316
21100TIP3   OH263176   1.682   3.582   4.801
21100TIP3    H163177   1.587   3.595   4.803
21100TIP3    H263178   1.716   3.665   4.767
21101TIP3   OH263179   5.195   8.028   5.128
21101TIP3    H163180   5.243   8.034   5.046
21101TIP3    H263181   5.223   7.945   5.167
21102TIP3   OH263182   2.956   7.356   0.336
21102TIP3    H163183   2.896   7.430   0.348
21102TIP3    H263184   2.988   7.337   0.423
21103TIP3   OH263185   7.450   2.073   1.688
21103TIP3    H163186   7.369   2.080   1.739
21103TIP3    H263187   7.520   2.085   1.752
21104TIP3   OH263188   2.473   4.145   2.078
21104TIP3    H163189   2.482   4.113   1.988
21104TIP3    H263190   2.392   4.195   2.078
21105TIP3   OH263191   4.700   8.388   2.675
21105TIP3    H163192   4.669   8.373   2.764
21105TIP3    H263193   4.622   8.418   2.627
21106TIP3   OH263194   7.983   8.541   0.138
21106TIP3    H163195   7.972   8.529   0.044
21106TIP3    H263196   8.078   8.542   0.151
21107TIP3   OH263197   2.014   7.271   3.896
21107TIP3    H163198   2.030   7.352   3.848
21107TIP3    H263199   2.078   7.209   3.861
21108TIP3   OH263200   9.415   3.358   3.993
21108TIP3    H163201   9.479   3.426   4.015
21108TIP3    H263202   9.395   3.373   3.901
21109TIP3   OH263203   0.395   6.508   1.407
21109TIP3    H163204   0.312   6.469   1.433
21109TIP3    H263205   0.451   6.500   1.484
21110TIP3   OH263206   1.132   1.682   0.008
21110TIP3    H163207   1.110   1.591   0.028
21110TIP3    H263208   1.090   1.699  -0.076
21111TIP3   OH263209   2.053   8.238   5.986
21111TIP3    H163210   2.084   8.272   6.070
21111TIP3    H263211   2.016   8.313   5.941
21112TIP3   OH263212   0.366   8.110   1.558
21112TIP3    H163213   0.373   8.205   1.561
21112TIP3    H263214   0.354   8.089   1.466
21113TIP3   OH263215   9.190   0.097   7.724
21113TIP3    H163216   9.107   0.084   7.770
21113TIP3    H263217   9.171   0.168   7.662
21114TIP3   OH263218   3.410   8.718   1.215
21114TIP3    H163219   3.357   8.702   1.293
21114TIP3    H263220   3.414   8.814   1.208
21115TIP3   OH263221   6.045   1.000   5.099
21115TIP3    H163222   6.124   1.048   5.073
21115TIP3    H263223   6.040   1.011   5.194
21116TIP3   OH263224   2.644   7.279   1.788
21116TIP3    H163225   2.641   7.366   1.748
21116TIP3    H263226   2.671   7.220   1.717
21117TIP3   OH263227   4.010   5.881   6.818
21117TIP3    H163228   4.091   5.849   6.858
21117TIP3    H263229   4.016   5.976   6.828
21118TIP3   OH263230   6.175   0.548   7.031
21118TIP3    H163231   6.101   0.604   7.010
21118TIP3    H263232   6.146   0.496   7.106
21119TIP3   OH263233   7.101   5.268   6.820
21119TIP3    H163234   7.155   5.319   6.760
21119TIP3    H263235   7.143   5.182   6.822
21120TIP3   OH263236   9.019   8.337   1.253
21120TIP3    H163237   8.962   8.286   1.310
21120TIP3    H263238   9.033   8.280   1.177
21121TIP3   OH263239   4.092   3.189   6.158
21121TIP3    H163240   4.031   3.199   6.231
21121TIP3    H263241   4.050   3.235   6.085
21122TIP3   OH263242   1.769   2.513   3.240
21122TIP3    H163243   1.758   2.607   3.255
21122TIP3    H263244   1.761   2.503   3.145
21123TIP3   OH263245   6.380   8.371   1.996
21123TIP3    H163246   6.392   8.370   1.901
21123TIP3    H263247   6.430   8.296   2.028
21124TIP3   OH263248   4.466   0.415   6.940
21124TIP3    H163249   4.487   0.455   6.855
21124TIP3    H263250   4.552   0.402   6.981
21125TIP3   OH263251   7.834   0.316   7.428
21125TIP3    H163252   7.809   0.388   7.370
21125TIP3    H263253   7.901   0.268   7.379
21126TIP3   OH263254   0.320   2.506   3.712
21126TIP3    H163255   0.406   2.537   3.682
21126TIP3    H263256   0.315   2.416   3.682
21127TIP3   OH263257   5.688   0.422   0.629
21127TIP3    H163258   5.737   0.440   0.549
21127TIP3    H263259   5.649   0.506   0.653
21128TIP3   OH263260   4.376   0.809   2.091
21128TIP3    H163261   4.350   0.853   2.173
21128TIP3    H263262   4.296   0.764   2.063
21129TIP3   OH263263   1.065   3.464   2.429
21129TIP3    H163264   0.982   3.499   2.396
21129TIP3    H263265   1.120   3.452   2.352
21130TIP3   OH263266   0.135   8.419   7.054
21130TIP3    H163267   0.230   8.416   7.055
21130TIP3    H263268   0.109   8.349   6.994
21131TIP3   OH263269   0.958   4.230   5.886
21131TIP3    H163270   1.019   4.160   5.905
21131TIP3    H263271   0.968   4.246   5.792
21132TIP3   OH263272   0.849   2.938   0.492
21132TIP3    H163273   0.777   2.886   0.528
21132TIP3    H263274   0.856   2.909   0.401
21133TIP3   OH263275   2.378   1.151   5.925
21133TIP3    H163276   2.337   1.109   6.000
21133TIP3    H263277   2.311   1.209   5.890
21134TIP3   OH263278   2.451   8.262   2.312
21134TIP3    H163279   2.382   8.201   2.336
21134TIP3    H263280   2.419   8.305   2.234
21135TIP3   OH263281   6.986   1.074   0.701
21135TIP3    H163282   6.985   1.003   0.765
21135TIP3    H263283   7.073   1.069   0.661
21136TIP3   OH263284   0.313   3.652   3.442
21136TIP3    H163285   0.340   3.565   3.471
21136TIP3    H263286   0.221   3.641   3.415
21137TIP3   OH263287   3.998   0.199   0.649
21137TIP3    H163288   4.089   0.220   0.667
21137TIP3    H263289   3.995   0.181   0.555
21138TIP3   OH263290   7.501   6.468   0.365
21138TIP3    H163291   7.458   6.389   0.332
21138TIP3    H263292   7.447   6.495   0.439
21139TIP3   OH263293   6.433   8.451   2.662
21139TIP3    H163294   6.401   8.417   2.746
21139TIP3    H263295   6.415   8.545   2.665
21140TIP3   OH263296   3.637   0.807   6.030
21140TIP3    H163297   3.709   0.854   5.989
21140TIP3    H263298   3.678   0.752   6.097
21141TIP3   OH263299   3.994   4.351   4.291
21141TIP3    H163300   4.022   4.372   4.201
21141TIP3    H263301   3.964   4.435   4.326
21142TIP3   OH263302   6.889   6.949   2.397
21142TIP3    H163303   6.842   6.894   2.335
21142TIP3    H263304   6.837   7.029   2.403
21143TIP3   OH263305   0.207   4.686   0.775
21143TIP3    H163306   0.210   4.718   0.865
21143TIP3    H263307   0.268   4.742   0.728
21144TIP3   OH263308   2.325   6.171   5.064
21144TIP3    H163309   2.368   6.252   5.037
21144TIP3    H263310   2.241   6.173   5.019
21145TIP3   OH263311   1.660   1.179   7.151
21145TIP3    H163312   1.753   1.177   7.172
21145TIP3    H263313   1.654   1.227   7.069
21146TIP3   OH263314   0.097   3.044   6.566
21146TIP3    H163315   0.175   2.990   6.555
21146TIP3    H263316   0.076   3.073   6.478
21147TIP3   OH263317   6.769   6.083   6.917
21147TIP3    H163318   6.731   6.057   7.000
21147TIP3    H263319   6.710   6.046   6.851
21148TIP3   OH263320   0.801   6.428   7.017
21148TIP3    H163321   0.816   6.409   7.110
21148TIP3    H263322   0.743   6.504   7.018
21149TIP3   OH263323   2.670   0.020   5.683
21149TIP3    H163324   2.732  -0.040   5.723
21149TIP3    H263325   2.714   0.052   5.604
21150TIP3   OH263326   2.037   0.736   4.168
21150TIP3    H163327   2.048   0.770   4.257
21150TIP3    H263328   2.003   0.810   4.117
21151TIP3   OH263329   3.305   3.491   4.465
21151TIP3    H163330   3.275   3.417   4.518
21151TIP3    H263331   3.376   3.455   4.412
21152TIP3   OH263332   4.555   8.932   3.539
21152TIP3    H163333   4.588   8.915   3.451
21152TIP3    H263334   4.544   8.845   3.578
21153TIP3   OH263335   2.385   0.956   3.481
21153TIP3    H163336   2.379   1.020   3.410
21153TIP3    H263337   2.304   0.906   3.476
21154TIP3   OH263338   5.961   0.258   4.599
21154TIP3    H163339   6.030   0.262   4.533
21154TIP3    H263340   5.909   0.336   4.584
21155TIP3   OH263341   7.291   4.096   4.026
21155TIP3    H163342   7.288   4.017   3.973
21155TIP3    H263343   7.200   4.126   4.029
21156TIP3   OH263344   0.842   8.704   0.338
21156TIP3    H163345   0.767   8.715   0.396
21156TIP3    H263346   0.849   8.787   0.291
21157TIP3   OH263347   4.787   6.998   0.476
21157TIP3    H163348   4.749   6.921   0.434
21157TIP3    H263349   4.742   7.003   0.561
21158TIP3   OH263350   0.944   8.727   4.687
21158TIP3    H163351   1.036   8.735   4.662
21158TIP3    H263352   0.945   8.670   4.764
21159TIP3   OH263353   4.661   5.850   5.205
21159TIP3    H163354   4.614   5.931   5.185
21159TIP3    H263355   4.598   5.781   5.186
21160TIP3   OH263356   3.526   8.651   3.049
21160TIP3    H163357   3.591   8.695   3.104
21160TIP3    H263358   3.455   8.628   3.109
21161TIP3   OH263359   8.627   0.135   2.453
21161TIP3    H163360   8.616   0.041   2.443
21161TIP3    H263361   8.668   0.164   2.372
21162TIP3   OH263362   9.448   3.951   5.755
21162TIP3    H163363   9.527   3.906   5.784
21162TIP3    H263364   9.412   3.894   5.687
21163TIP3   OH263365   3.908   6.448   0.839
21163TIP3    H163366   3.933   6.517   0.777
21163TIP3    H263367   3.886   6.495   0.919
21164TIP3   OH263368   5.288   7.863   2.315
21164TIP3    H163369   5.381   7.849   2.331
21164TIP3    H263370   5.245   7.788   2.358
21165TIP3   OH263371   3.490   8.077   3.858
21165TIP3    H163372   3.443   8.139   3.802
21165TIP3    H263373   3.574   8.121   3.876
21166TIP3   OH263374   6.971   8.779   1.949
21166TIP3    H163375   7.055   8.806   1.986
21166TIP3    H263376   6.993   8.707   1.890
21167TIP3   OH263377   3.917   4.429   6.096
21167TIP3    H163378   3.960   4.409   6.013
21167TIP3    H263379   3.915   4.525   6.099
21168TIP3   OH263380   0.950   5.778   3.615
21168TIP3    H163381   0.956   5.713   3.685
21168TIP3    H263382   0.997   5.854   3.649
21169TIP3   OH263383   0.687   4.651   5.268
21169TIP3    H163384   0.635   4.701   5.205
21169TIP3    H263385   0.650   4.674   5.353
21170TIP3   OH263386   0.074   8.847   0.513
21170TIP3    H163387   0.110   8.799   0.438
21170TIP3    H263388   0.143   8.846   0.579
21171TIP3   OH263389   3.711   0.004   4.145
21171TIP3    H163390   3.693   0.098   4.155
21171TIP3    H263391   3.626  -0.038   4.162
21172TIP3   OH263392   0.669   1.571   4.166
21172TIP3    H163393   0.646   1.542   4.254
21172TIP3    H263394   0.673   1.490   4.115
21173TIP3   OH263395   4.568   5.417   5.095
21173TIP3    H163396   4.608   5.361   5.162
21173TIP3    H263397   4.641   5.469   5.062
21174TIP3   OH263398   0.000   3.136   3.725
21174TIP3    H163399   0.031   3.226   3.727
21174TIP3    H263400  -0.022   3.120   3.633
21175TIP3   OH263401   3.339   3.916   3.058
21175TIP3    H163402   3.357   3.907   3.151
21175TIP3    H263403   3.424   3.904   3.015
21176TIP3   OH263404   4.145   6.586   4.799
21176TIP3    H163405   4.201   6.511   4.781
21176TIP3    H263406   4.089   6.593   4.722
21177TIP3   OH263407   5.925   4.439   1.837
21177TIP3    H163408   5.863   4.421   1.908
21177TIP3    H263409   5.930   4.534   1.833
21178TIP3   OH263410   6.230   6.755   4.678
21178TIP3    H163411   6.216   6.722   4.589
21178TIP3    H263412   6.219   6.850   4.670
21179TIP3   OH263413   0.288   5.103   0.666
21179TIP3    H163414   0.327   5.080   0.581
21179TIP3    H263415   0.205   5.055   0.668
21180TIP3   OH263416   8.368   8.127   0.496
21180TIP3    H163417   8.326   8.178   0.565
21180TIP3    H263418   8.319   8.147   0.417
21181TIP3   OH263419   3.384   8.411   3.814
21181TIP3    H163420   3.465   8.456   3.790
21181TIP3    H263421   3.316   8.453   3.761
21182TIP3   OH263422   4.211   1.891   7.592
21182TIP3    H163423   4.198   1.896   7.497
21182TIP3    H263424   4.127   1.918   7.629
21183TIP3   OH263425   0.556   6.908   0.275
21183TIP3    H163426   0.604   6.980   0.316
21183TIP3    H263427   0.571   6.920   0.181
21184TIP3   OH263428   8.216   5.858   3.573
21184TIP3    H163429   8.137   5.896   3.535
21184TIP3    H263430   8.263   5.820   3.498
21185TIP3   OH263431   4.538   0.858   5.289
21185TIP3    H163432   4.611   0.796   5.289
21185TIP3    H263433   4.512   0.865   5.197
21186TIP3   OH263434   0.920   6.779   6.465
21186TIP3    H163435   0.880   6.695   6.486
21186TIP3    H263436   0.901   6.792   6.372
21187TIP3   OH263437   2.003   3.928   1.441
21187TIP3    H163438   2.024   4.021   1.432
21187TIP3    H263439   2.073   3.883   1.394
21188TIP3   OH263440   4.190   5.428   1.865
21188TIP3    H163441   4.112   5.431   1.811
21188TIP3    H263442   4.157   5.420   1.955
21189TIP3   OH263443   6.648   3.186   0.508
21189TIP3    H163444   6.713   3.121   0.482
21189TIP3    H263445   6.589   3.139   0.566
21190TIP3   OH263446   4.364   0.863   6.508
21190TIP3    H163447   4.313   0.783   6.503
21190TIP3    H263448   4.330   0.908   6.586
21191TIP3   OH263449   7.080   2.077   2.618
21191TIP3    H163450   7.029   2.053   2.695
21191TIP3    H263451   7.068   2.172   2.610
21192TIP3   OH263452   7.804   5.427   3.991
21192TIP3    H163453   7.877   5.378   4.030
21192TIP3    H263454   7.725   5.383   4.024
21193TIP3   OH263455   9.293   5.621   5.108
21193TIP3    H163456   9.275   5.716   5.106
21193TIP3    H263457   9.268   5.594   5.196
21194TIP3   OH263458   0.183   5.031   4.716
21194TIP3    H163459   0.153   4.997   4.800
21194TIP3    H263460   0.167   5.125   4.721
21195TIP3   OH263461   1.969   5.958   1.343
21195TIP3    H163462   2.002   5.920   1.425
21195TIP3    H263463   1.966   5.884   1.282
21196TIP3   OH263464   7.971   2.016   4.103
21196TIP3    H163465   7.914   2.024   4.179
21196TIP3    H263466   7.924   1.956   4.045
21197TIP3   OH263467   7.892   7.146   4.762
21197TIP3    H163468   7.972   7.113   4.803
21197TIP3    H263469   7.895   7.241   4.777
21198TIP3   OH263470   2.648   5.544   5.307
21198TIP3    H163471   2.652   5.588   5.393
21198TIP3    H263472   2.559   5.508   5.304
21199TIP3   OH263473   5.005   1.009   2.292
21199TIP3    H163474   4.946   1.055   2.232
21199TIP3    H263475   4.947   0.966   2.354
21200TIP3   OH263476   6.844   2.198   3.108
21200TIP3    H163477   6.838   2.126   3.170
21200TIP3    H263478   6.938   2.218   3.103
21201TIP3   OH263479   9.092   6.795   0.067
21201TIP3    H163480   9.054   6.716   0.028
21201TIP3    H263481   9.020   6.833   0.118
21202TIP3   OH263482   4.735   1.466   1.493
21202TIP3    H163483   4.683   1.396   1.453
21202TIP3    H263484   4.684   1.493   1.570
21203TIP3   OH263485   2.957   2.327   1.269
21203TIP3    H163486   2.936   2.385   1.196
21203TIP3    H263487   2.873   2.305   1.308
21204TIP3   OH263488   3.850   4.553   3.163
21204TIP3    H163489   3.843   4.636   3.116
21204TIP3    H263490   3.944   4.533   3.164
21205TIP3   OH263491   4.980   3.853   6.400
21205TIP3    H163492   4.917   3.783   6.382
21205TIP3    H263493   4.954   3.887   6.485
21206TIP3   OH263494   0.630   3.971   0.789
21206TIP3    H163495   0.668   3.911   0.853
21206TIP3    H263496   0.577   4.032   0.841
21207TIP3   OH263497   3.709   2.382   7.748
21207TIP3    H163498   3.714   2.292   7.717
21207TIP3    H263499   3.736   2.434   7.672
21208TIP3   OH263500   0.653   5.894   7.501
21208TIP3    H163501   0.591   5.841   7.450
21208TIP3    H263502   0.739   5.868   7.469
21209TIP3   OH263503   2.494   7.908   0.047
21209TIP3    H163504   2.496   7.862  -0.036
21209TIP3    H263505   2.548   7.986   0.033
21210TIP3   OH263506   6.150   5.401   2.327
21210TIP3    H163507   6.114   5.367   2.409
21210TIP3    H263508   6.086   5.466   2.298
21211TIP3   OH263509   0.432   4.730   6.672
21211TIP3    H163510   0.355   4.727   6.615
21211TIP3    H263511   0.399   4.707   6.759
21212TIP3   OH263512   0.464   4.592   7.333
21212TIP3    H163513   0.502   4.636   7.257
21212TIP3    H263514   0.511   4.508   7.338
21213TIP3   OH263515   7.566   4.549   0.174
21213TIP3    H163516   7.647   4.565   0.125
21213TIP3    H263517   7.537   4.636   0.200
21214TIP3   OH263518   8.120   0.998   6.126
21214TIP3    H163519   8.061   0.929   6.096
21214TIP3    H263520   8.163   1.030   6.046
21215TIP3   OH263521   9.324   0.326   1.324
21215TIP3    H163522   9.413   0.344   1.293
21215TIP3    H263523   9.276   0.300   1.245
21216TIP3   OH263524   2.531   8.340   7.704
21216TIP3    H163525   2.617   8.369   7.672
21216TIP3    H263526   2.497   8.286   7.633
21217TIP3   OH263527   8.187   2.573   4.477
21217TIP3    H163528   8.275   2.556   4.445
21217TIP3    H263529   8.184   2.532   4.563
21218TIP3   OH263530   1.742   4.177   0.063
21218TIP3    H163531   1.831   4.164   0.029
21218TIP3    H263532   1.697   4.095   0.044
21219TIP3   OH263533   7.458   4.461   0.868
21219TIP3    H163534   7.486   4.545   0.832
21219TIP3    H263535   7.439   4.407   0.791
21220TIP3   OH263536   3.654   0.589   1.124
21220TIP3    H163537   3.685   0.668   1.080
21220TIP3    H263538   3.640   0.616   1.215
21221TIP3   OH263539   1.788   4.256   0.574
21221TIP3    H163540   1.864   4.202   0.598
21221TIP3    H263541   1.759   4.221   0.490
21222TIP3   OH263542   8.815   5.819   6.147
21222TIP3    H163543   8.809   5.883   6.076
21222TIP3    H263544   8.898   5.773   6.132
21223TIP3   OH263545   2.518   1.766   4.818
21223TIP3    H163546   2.521   1.698   4.885
21223TIP3    H263547   2.590   1.744   4.758
21224TIP3   OH263548   1.307   5.420   0.776
21224TIP3    H163549   1.359   5.500   0.778
21224TIP3    H263550   1.357   5.360   0.721
21225TIP3   OH263551   3.447   3.731   1.028
21225TIP3    H163552   3.385   3.802   1.044
21225TIP3    H263553   3.528   3.774   1.000
21226TIP3   OH263554   0.837   3.951   1.255
21226TIP3    H163555   0.810   3.880   1.197
21226TIP3    H263556   0.792   4.028   1.220
21227TIP3   OH263557   9.291   8.029   5.127
21227TIP3    H163558   9.361   7.984   5.175
21227TIP3    H263559   9.338   8.089   5.069
21228TIP3   OH263560   9.415   8.966   0.367
21228TIP3    H163561   9.502   8.931   0.387
21228TIP3    H263562   9.376   8.902   0.308
21229TIP3   OH263563   0.965   8.057   4.133
21229TIP3    H163564   0.889   8.081   4.187
21229TIP3    H263565   0.974   7.962   4.147
21230TIP3   OH263566   1.593   3.175   2.852
21230TIP3    H163567   1.517   3.166   2.909
21230TIP3    H263568   1.570   3.128   2.773
21231TIP3   OH263569   1.078   4.400   0.864
21231TIP3    H163570   1.161   4.353   0.857
21231TIP3    H263571   1.098   4.489   0.835
21232TIP3   OH263572   5.215   4.902   6.766
21232TIP3    H163573   5.310   4.919   6.767
21232TIP3    H263574   5.181   4.955   6.838
21233TIP3   OH263575   7.551   1.591   5.630
21233TIP3    H163576   7.514   1.612   5.544
21233TIP3    H263577   7.593   1.672   5.658
21234TIP3   OH263578   6.978   0.756   0.374
21234TIP3    H163579   7.018   0.788   0.454
21234TIP3    H263580   6.927   0.680   0.402
21235TIP3   OH263581   5.341   2.285   4.875
21235TIP3    H163582   5.344   2.276   4.780
21235TIP3    H263583   5.262   2.238   4.901
21236TIP3   OH263584   2.084   3.098   1.572
21236TIP3    H163585   2.168   3.101   1.528
21236TIP3    H263586   2.054   3.189   1.573
21237TIP3   OH263587   3.183   1.056   4.919
21237TIP3    H163588   3.101   1.025   4.956
21237TIP3    H263589   3.165   1.068   4.826
21238TIP3   OH263590   2.499   0.465   4.553
21238TIP3    H163591   2.572   0.479   4.612
21238TIP3    H263592   2.515   0.525   4.480
21239TIP3   OH263593   1.106   3.691   3.120
21239TIP3    H163594   1.090   3.646   3.203
21239TIP3    H263595   1.054   3.641   3.056
21240TIP3   OH263596   2.040   7.968   1.385
21240TIP3    H163597   1.972   8.030   1.410
21240TIP3    H263598   2.023   7.950   1.292
21241TIP3   OH263599   3.259   2.394   3.911
21241TIP3    H163600   3.313   2.467   3.942
21241TIP3    H263601   3.282   2.321   3.968
21242TIP3   OH263602   6.785   1.509   4.613
21242TIP3    H163603   6.791   1.585   4.556
21242TIP3    H263604   6.781   1.434   4.554
21243TIP3   OH263605   6.522   2.257   5.379
21243TIP3    H163606   6.433   2.240   5.349
21243TIP3    H263607   6.576   2.255   5.300
21244TIP3   OH263608   2.746   1.393   1.378
21244TIP3    H163609   2.669   1.418   1.430
21244TIP3    H263610   2.820   1.434   1.423
21245TIP3   OH263611   1.150   0.083   2.271
21245TIP3    H163612   1.123   0.165   2.313
21245TIP3    H263613   1.219   0.049   2.327
21246TIP3   OH263614   0.133   8.462   6.536
21246TIP3    H163615   0.177   8.546   6.549
21246TIP3    H263616   0.202   8.397   6.545
21247TIP3   OH263617   6.299   4.974   0.981
21247TIP3    H163618   6.327   4.991   1.071
21247TIP3    H263619   6.370   4.925   0.942
21248TIP3   OH263620   7.616   7.883   7.584
21248TIP3    H163621   7.591   7.960   7.635
21248TIP3    H263622   7.561   7.886   7.506
21249TIP3   OH263623   4.812   3.368   0.562
21249TIP3    H163624   4.723   3.346   0.531
21249TIP3    H263625   4.824   3.460   0.535
21250TIP3   OH263626   4.230   2.880   2.773
21250TIP3    H163627   4.213   2.974   2.779
21250TIP3    H263628   4.150   2.844   2.735
21251TIP3   OH263629   4.470   6.078   1.547
21251TIP3    H163630   4.412   6.018   1.499
21251TIP3    H263631   4.554   6.072   1.501
21252TIP3   OH263632   0.161   3.031   4.050
21252TIP3    H163633   0.150   3.076   4.134
21252TIP3    H263634   0.142   3.098   3.984
21253TIP3   OH263635   3.551   7.771   2.937
21253TIP3    H163636   3.597   7.753   3.019
21253TIP3    H263637   3.489   7.699   2.927
21254TIP3   OH263638   8.692   2.330   6.086
21254TIP3    H163639   8.676   2.273   6.010
21254TIP3    H263640   8.629   2.302   6.152
21255TIP3   OH263641   7.389   1.744   2.696
21255TIP3    H163642   7.377   1.827   2.649
21255TIP3    H263643   7.345   1.679   2.642
21256TIP3   OH263644   7.261   2.714   0.144
21256TIP3    H163645   7.309   2.704   0.226
21256TIP3    H263646   7.264   2.807   0.124
21257TIP3   OH263647   5.422   6.277   4.404
21257TIP3    H163648   5.451   6.235   4.485
21257TIP3    H263649   5.453   6.220   4.334
21258TIP3   OH263650   9.181   3.575   0.601
21258TIP3    H163651   9.128   3.531   0.535
21258TIP3    H263652   9.218   3.503   0.653
21259TIP3   OH263653   1.420   6.349   0.739
21259TIP3    H163654   1.483   6.419   0.757
21259TIP3    H263655   1.429   6.332   0.646
21260TIP3   OH263656   9.103   7.031   6.082
21260TIP3    H163657   9.184   6.993   6.047
21260TIP3    H263658   9.035   6.967   6.059
21261TIP3   OH263659   0.133   3.412   7.148
21261TIP3    H163660   0.129   3.368   7.063
21261TIP3    H263661   0.170   3.347   7.207
21262TIP3   OH263662   2.853   7.683   4.737
21262TIP3    H163663   2.765   7.662   4.771
21262TIP3    H263664   2.886   7.599   4.705
21263TIP3   OH263665   5.641   2.439   4.537
21263TIP3    H163666   5.706   2.509   4.531
21263TIP3    H263667   5.682   2.373   4.593
21264TIP3   OH263668   7.620   6.892   0.637
21264TIP3    H163669   7.591   6.878   0.547
21264TIP3    H263670   7.692   6.830   0.648
21265TIP3   OH263671   2.348   1.696   2.217
21265TIP3    H163672   2.344   1.647   2.298
21265TIP3    H263673   2.441   1.717   2.206
21266TIP3   OH263674   8.507   6.516   4.397
21266TIP3    H163675   8.514   6.491   4.306
21266TIP3    H263676   8.477   6.607   4.395
21267TIP3   OH263677   5.057   3.915   1.308
21267TIP3    H163678   4.968   3.947   1.292
21267TIP3    H263679   5.071   3.847   1.243
21268TIP3   OH263680   6.333   1.481   5.020
21268TIP3    H163681   6.291   1.553   4.972
21268TIP3    H263682   6.296   1.402   4.982
21269TIP3   OH263683   1.632   2.671   2.108
21269TIP3    H163684   1.708   2.705   2.155
21269TIP3    H263685   1.670   2.621   2.035
21270TIP3   OH263686   7.673   6.162   5.990
21270TIP3    H163687   7.644   6.147   6.080
21270TIP3    H263688   7.597   6.142   5.936
21271TIP3   OH263689   4.150   0.201   2.664
21271TIP3    H163690   4.091   0.186   2.737
21271TIP3    H263691   4.226   0.145   2.682
21272TIP3   OH263692   1.049   7.812   3.131
21272TIP3    H163693   1.132   7.858   3.141
21272TIP3    H263694   0.996   7.843   3.204
21273TIP3   OH263695   4.862   5.424   5.984
21273TIP3    H163696   4.840   5.515   6.006
21273TIP3    H263697   4.783   5.389   5.945
21274TIP3   OH263698   7.320   1.259   6.554
21274TIP3    H163699   7.297   1.349   6.530
21274TIP3    H263700   7.335   1.214   6.471
21275TIP3   OH263701   6.349   2.929   5.123
21275TIP3    H163702   6.431   2.973   5.145
21275TIP3    H263703   6.320   2.971   5.041
21276TIP3   OH263704   3.954   3.239   1.187
21276TIP3    H163705   3.978   3.175   1.120
21276TIP3    H263706   3.996   3.320   1.160
21277TIP3   OH263707   7.815   0.828   0.271
21277TIP3    H163708   7.793   0.918   0.292
21277TIP3    H263709   7.792   0.817   0.179
21278TIP3   OH263710   7.991   8.178   7.230
21278TIP3    H163711   8.041   8.182   7.148
21278TIP3    H263712   7.943   8.261   7.232
21279TIP3   OH263713   4.336   3.146   4.872
21279TIP3    H163714   4.348   3.166   4.965
21279TIP3    H263715   4.403   3.198   4.828
21280TIP3   OH263716   9.273   6.647   7.023
21280TIP3    H163717   9.366   6.627   7.015
21280TIP3    H263718   9.251   6.625   7.113
21281TIP3   OH263719   2.548   3.146   5.849
21281TIP3    H163720   2.534   3.223   5.904
21281TIP3    H263721   2.507   3.168   5.766
21282TIP3   OH263722   3.602   7.963   7.077
21282TIP3    H163723   3.588   7.958   6.983
21282TIP3    H263724   3.646   7.881   7.100
21283TIP3   OH263725   5.619   4.484   5.981
21283TIP3    H163726   5.669   4.564   5.966
21283TIP3    H263727   5.527   4.510   5.967
21284TIP3   OH263728   2.669   0.905   3.059
21284TIP3    H163729   2.599   0.870   3.113
21284TIP3    H263730   2.698   0.830   3.007
21285TIP3   OH263731   7.520   6.390   6.291
21285TIP3    H163732   7.482   6.337   6.221
21285TIP3    H263733   7.485   6.478   6.277
21286TIP3   OH263734   2.756   3.728   1.151
21286TIP3    H163735   2.758   3.789   1.078
21286TIP3    H263736   2.666   3.697   1.155
21287TIP3   OH263737   1.226   8.725   4.734
21287TIP3    H163738   1.297   8.775   4.774
21287TIP3    H263739   1.268   8.670   4.669
21288TIP3   OH263740   8.089   4.900   4.631
21288TIP3    H163741   8.169   4.879   4.680
21288TIP3    H263742   8.121   4.935   4.547
21289TIP3   OH263743   4.252   7.131   7.309
21289TIP3    H163744   4.229   7.040   7.289
21289TIP3    H263745   4.220   7.181   7.234
21290TIP3   OH263746   9.300   5.853   0.738
21290TIP3    H163747   9.217   5.898   0.754
21290TIP3    H263748   9.275   5.770   0.698
21291TIP3   OH263749   3.841   1.741   4.909
21291TIP3    H163750   3.850   1.723   4.815
21291TIP3    H263751   3.872   1.661   4.952
21292TIP3   OH263752   7.345   6.359   4.796
21292TIP3    H163753   7.403   6.290   4.764
21292TIP3    H263754   7.344   6.425   4.727
21293TIP3   OH263755   6.590   3.826   4.915
21293TIP3    H163756   6.543   3.849   4.834
21293TIP3    H263757   6.668   3.780   4.885
21294TIP3   OH263758   6.019   1.150   3.010
21294TIP3    H163759   6.023   1.069   2.959
21294TIP3    H263760   6.048   1.218   2.949
21295TIP3   OH263761   3.543   2.122   1.707
21295TIP3    H163762   3.453   2.117   1.738
21295TIP3    H263763   3.568   2.213   1.720
21296TIP3   OH263764   8.073   2.045   3.153
21296TIP3    H163765   8.024   2.110   3.103
21296TIP3    H263766   8.164   2.071   3.143
21297TIP3   OH263767   3.298   4.567   5.732
21297TIP3    H163768   3.334   4.562   5.644
21297TIP3    H263769   3.203   4.566   5.719
21298TIP3   OH263770   0.071   2.407   6.030
21298TIP3    H163771   0.037   2.326   5.992
21298TIP3    H263772   0.149   2.427   5.980
21299TIP3   OH263773   0.468   0.631   2.440
21299TIP3    H163774   0.496   0.591   2.358
21299TIP3    H263775   0.534   0.606   2.503
21300TIP3   OH263776   9.086   5.328   6.862
21300TIP3    H163777   9.160   5.268   6.855
21300TIP3    H263778   9.009   5.272   6.853
21301TIP3   OH263779   7.734   3.824   2.722
21301TIP3    H163780   7.811   3.847   2.773
21301TIP3    H263781   7.674   3.898   2.732
21302TIP3   OH263782   8.010   8.337   1.115
21302TIP3    H163783   8.001   8.412   1.173
21302TIP3    H263784   7.987   8.370   1.028
21303TIP3   OH263785   3.624   8.282   5.992
21303TIP3    H163786   3.607   8.374   6.012
21303TIP3    H263787   3.636   8.241   6.077
21304TIP3   OH263788   7.142   5.035   0.746
21304TIP3    H163789   7.117   4.943   0.739
21304TIP3    H263790   7.093   5.067   0.823
21305TIP3   OH263791   2.082   3.454   1.268
21305TIP3    H163792   2.138   3.423   1.196
21305TIP3    H263793   2.028   3.379   1.290
21306TIP3   OH263794   4.724   6.045   1.498
21306TIP3    H163795   4.766   6.045   1.584
21306TIP3    H263796   4.727   6.136   1.469
21307TIP3   OH263797   2.479   5.127   2.168
21307TIP3    H163798   2.420   5.133   2.243
21307TIP3    H263799   2.454   5.202   2.113
21308TIP3   OH263800   8.664   8.927   2.495
21308TIP3    H163801   8.600   8.987   2.457
21308TIP3    H263802   8.630   8.840   2.475
21309TIP3   OH263803   4.590   6.723   5.851
21309TIP3    H163804   4.604   6.800   5.906
21309TIP3    H263805   4.500   6.729   5.822
21310TIP3   OH263806   0.419   2.770   0.196
21310TIP3    H163807   0.330   2.798   0.217
21310TIP3    H263808   0.469   2.851   0.185
21311TIP3   OH263809   3.842   4.762   7.006
21311TIP3    H163810   3.814   4.797   7.091
21311TIP3    H263811   3.788   4.808   6.942
21312TIP3   OH263812   7.974   7.667   1.222
21312TIP3    H163813   8.063   7.686   1.193
21312TIP3    H263814   7.949   7.589   1.173
21313TIP3   OH263815   0.677   2.562   7.511
21313TIP3    H163816   0.761   2.586   7.473
21313TIP3    H263817   0.660   2.629   7.577
21314TIP3   OH263818   0.419   5.823   4.144
21314TIP3    H163819   0.404   5.825   4.050
21314TIP3    H263820   0.382   5.906   4.175
21315TIP3   OH263821   6.063   1.154   7.068
21315TIP3    H163822   6.142   1.102   7.056
21315TIP3    H263823   6.041   1.184   6.979
21316TIP3   OH263824   7.039   7.819   5.824
21316TIP3    H163825   7.093   7.870   5.763
21316TIP3    H263826   6.955   7.809   5.779
21317TIP3   OH263827   3.413   2.326   2.666
21317TIP3    H163828   3.339   2.350   2.610
21317TIP3    H263829   3.420   2.397   2.729
21318TIP3   OH263830   0.983   8.334   5.678
21318TIP3    H163831   0.978   8.356   5.585
21318TIP3    H263832   0.915   8.386   5.719
21319TIP3   OH263833   8.479   5.851   6.083
21319TIP3    H163834   8.411   5.870   6.018
21319TIP3    H263835   8.520   5.770   6.051
21320TIP3   OH263836   4.122   7.010   0.369
21320TIP3    H163837   4.094   6.984   0.281
21320TIP3    H263838   4.146   7.102   0.360
21321TIP3   OH263839   7.132   1.595   7.080
21321TIP3    H163840   7.142   1.501   7.066
21321TIP3    H263841   7.190   1.636   7.016
21322TIP3   OH263842   2.637   1.495   4.182
21322TIP3    H163843   2.577   1.514   4.110
21322TIP3    H263844   2.662   1.403   4.169
21323TIP3   OH263845   0.940   2.109   1.305
21323TIP3    H163846   0.901   2.030   1.269
21323TIP3    H263847   0.881   2.180   1.278
21324TIP3   OH263848   5.074   6.191   2.791
21324TIP3    H163849   4.992   6.212   2.746
21324TIP3    H263850   5.140   6.246   2.748
21325TIP3   OH263851   4.661   3.405   6.407
21325TIP3    H163852   4.603   3.391   6.482
21325TIP3    H263853   4.617   3.473   6.356
21326TIP3   OH263854   6.844   4.886   6.994
21326TIP3    H163855   6.784   4.928   6.932
21326TIP3    H263856   6.866   4.802   6.953
21327TIP3   OH263857   2.529   7.786   5.817
21327TIP3    H163858   2.435   7.793   5.831
21327TIP3    H263859   2.559   7.877   5.814
21328TIP3   OH263860   0.335   6.835   6.563
21328TIP3    H163861   0.357   6.751   6.602
21328TIP3    H263862   0.273   6.815   6.493
21329TIP3   OH263863   3.996   0.895   5.243
21329TIP3    H163864   4.074   0.859   5.201
21329TIP3    H263865   4.017   0.987   5.258
21330TIP3   OH263866   1.747   8.008   5.297
21330TIP3    H163867   1.687   8.072   5.259
21330TIP3    H263868   1.765   7.947   5.225
21331TIP3   OH263869   4.767   4.221   1.650
21331TIP3    H163870   4.725   4.278   1.586
21331TIP3    H263871   4.833   4.277   1.692
21332TIP3   OH263872   4.087   0.774   5.944
21332TIP3    H163873   4.104   0.754   5.852
21332TIP3    H263874   4.137   0.709   5.993
21333TIP3   OH263875   4.803   7.298   1.761
21333TIP3    H163876   4.797   7.386   1.723
21333TIP3    H263877   4.830   7.243   1.688
21334TIP3   OH263878   2.695   6.885   7.600
21334TIP3    H163879   2.618   6.942   7.599
21334TIP3    H263880   2.664   6.802   7.565
21335TIP3   OH263881   5.028   0.308   5.939
21335TIP3    H163882   4.977   0.240   5.895
21335TIP3    H263883   5.008   0.388   5.892
21336TIP3   OH263884   4.258   8.223   3.092
21336TIP3    H163885   4.222   8.312   3.091
21336TIP3    H263886   4.242   8.191   3.181
21337TIP3   OH263887   1.805   4.952   1.815
21337TIP3    H163888   1.849   4.931   1.898
21337TIP3    H263889   1.875   4.983   1.758
21338TIP3   OH263890   6.416   7.644   2.613
21338TIP3    H163891   6.392   7.555   2.588
21338TIP3    H263892   6.434   7.688   2.529
21339TIP3   OH263893   2.682   1.051   0.454
21339TIP3    H163894   2.590   1.067   0.433
21339TIP3    H263895   2.714   1.136   0.486
21340TIP3   OH263896   2.896   1.849   6.710
21340TIP3    H163897   2.976   1.850   6.658
21340TIP3    H263898   2.887   1.758   6.737
21341TIP3   OH263899   8.880   4.807   2.176
21341TIP3    H163900   8.902   4.842   2.089
21341TIP3    H263901   8.867   4.713   2.161
21342TIP3   OH263902   9.509   7.737   7.238
21342TIP3    H163903   9.561   7.727   7.318
21342TIP3    H263904   9.457   7.657   7.232
21343TIP3   OH263905   3.053   6.422   4.092
21343TIP3    H163906   3.070   6.516   4.080
21343TIP3    H263907   3.068   6.407   4.185
21344TIP3   OH263908   5.682   7.399   5.856
21344TIP3    H163909   5.667   7.404   5.950
21344TIP3    H263910   5.777   7.401   5.846
21345TIP3   OH263911   6.064   7.654   2.213
21345TIP3    H163912   5.986   7.640   2.266
21345TIP3    H263913   6.128   7.592   2.248
21346TIP3   OH263914   2.629   6.529   0.589
21346TIP3    H163915   2.704   6.480   0.555
21346TIP3    H263916   2.556   6.505   0.530
21347TIP3   OH263917   6.960   4.579   2.938
21347TIP3    H163918   6.995   4.580   2.849
21347TIP3    H263919   6.874   4.539   2.930
21348TIP3   OH263920   4.114   0.491   4.545
21348TIP3    H163921   4.208   0.512   4.552
21348TIP3    H263922   4.106   0.405   4.586
21349TIP3   OH263923   1.534   4.319   3.803
21349TIP3    H163924   1.526   4.338   3.709
21349TIP3    H263925   1.456   4.356   3.842
21350TIP3   OH263926   6.650   3.455   4.314
21350TIP3    H163927   6.586   3.419   4.375
21350TIP3    H263928   6.732   3.454   4.363
21351TIP3   OH263929   0.654   2.247   3.823
21351TIP3    H163930   0.737   2.234   3.779
21351TIP3    H263931   0.663   2.331   3.868
21352TIP3   OH263932   8.518   3.705   2.262
21352TIP3    H163933   8.456   3.773   2.290
21352TIP3    H263934   8.500   3.631   2.320
21353TIP3   OH263935   7.330   0.824   6.637
21353TIP3    H163936   7.352   0.742   6.681
21353TIP3    H263937   7.386   0.890   6.679
21354TIP3   OH263938   9.190   4.059   5.772
21354TIP3    H163939   9.274   4.015   5.777
21354TIP3    H263940   9.199   4.120   5.699
21355TIP3   OH263941   5.713   8.798   4.323
21355TIP3    H163942   5.633   8.794   4.376
21355TIP3    H263943   5.688   8.851   4.247
21356TIP3   OH263944   6.390   7.370   7.287
21356TIP3    H163945   6.357   7.460   7.281
21356TIP3    H263946   6.326   7.317   7.239
21357TIP3   OH263947   7.834   2.573   0.141
21357TIP3    H163948   7.890   2.506   0.102
21357TIP3    H263949   7.801   2.533   0.222
21358TIP3   OH263950   8.385   7.669   0.323
21358TIP3    H163951   8.322   7.618   0.374
21358TIP3    H263952   8.467   7.663   0.374
21359TIP3   OH263953   3.464   5.996   4.454
21359TIP3    H163954   3.412   5.956   4.384
21359TIP3    H263955   3.413   6.072   4.481
21360TIP3   OH263956   2.818   2.812   1.546
21360TIP3    H163957   2.907   2.787   1.572
21360TIP3    H263958   2.805   2.772   1.460
21361TIP3   OH263959   7.458   3.974   5.467
21361TIP3    H163960   7.553   3.978   5.478
21361TIP3    H263961   7.445   3.944   5.377
21362TIP3   OH263962   5.264   4.703   3.282
21362TIP3    H163963   5.181   4.700   3.329
21362TIP3    H263964   5.242   4.735   3.194
21363TIP3   OH263965   0.748   7.145   3.026
21363TIP3    H163966   0.732   7.098   2.944
21363TIP3    H263967   0.688   7.220   3.022
21364TIP3   OH263968   0.549   7.579   1.228
21364TIP3    H163969   0.600   7.648   1.184
21364TIP3    H263970   0.460   7.590   1.195
21365TIP3   OH263971   1.975   8.671   6.233
21365TIP3    H163972   2.032   8.626   6.295
21365TIP3    H263973   1.953   8.754   6.276
21366TIP3   OH263974   1.445   3.388   0.448
21366TIP3    H163975   1.499   3.390   0.369
21366TIP3    H263976   1.430   3.295   0.465
21367TIP3   OH263977   4.549   8.046   4.789
21367TIP3    H163978   4.497   8.071   4.865
21367TIP3    H263979   4.584   8.128   4.755
21368TIP3   OH263980   6.089   6.680   7.769
21368TIP3    H163981   6.147   6.756   7.764
21368TIP3    H263982   6.131   6.614   7.715
21369TIP3   OH263983   6.828   2.943   4.698
21369TIP3    H163984   6.903   2.928   4.641
21369TIP3    H263985   6.752   2.934   4.641
21370TIP3   OH263986   0.502   1.626   0.485
21370TIP3    H163987   0.516   1.719   0.501
21370TIP3    H263988   0.473   1.622   0.394
21371TIP3   OH263989   6.701   4.469   0.841
21371TIP3    H163990   6.691   4.436   0.930
21371TIP3    H263991   6.730   4.559   0.852
21372TIP3   OH263992   3.015   6.156   5.061
21372TIP3    H163993   3.030   6.080   5.117
21372TIP3    H263994   3.078   6.147   4.990
21373TIP3   OH263995   8.153   8.263   4.434
21373TIP3    H163996   8.173   8.223   4.518
21373TIP3    H263997   8.068   8.305   4.446
21374TIP3   OH263998   3.818   5.273   1.737
21374TIP3    H163999   3.855   5.360   1.722
21374TIP3    H264000   3.825   5.260   1.831
21375TIP3   OH264001   4.772   6.165   7.237
21375TIP3    H164002   4.746   6.101   7.171
21375TIP3    H264003   4.719   6.243   7.218
21376TIP3   OH264004   3.673   3.636   2.321
21376TIP3    H164005   3.612   3.612   2.390
21376TIP3    H264006   3.722   3.555   2.303
21377TIP3   OH264007   9.526   0.276   7.598
21377TIP3    H164008   9.466   0.223   7.545
21377TIP3    H264009   9.485   0.281   7.684
21378TIP3   OH264010   2.419   0.736   3.952
21378TIP3    H164011   2.512   0.717   3.953
21378TIP3    H264012   2.403   0.775   3.866
21379TIP3   OH264013   5.087   0.436   3.112
21379TIP3    H164014   5.100   0.510   3.053
21379TIP3    H264015   5.103   0.472   3.199
21380TIP3   OH264016   1.876   6.807   3.157
21380TIP3    H164017   1.937   6.751   3.110
21380TIP3    H264018   1.829   6.748   3.216
21381TIP3   OH264019   5.727   7.080   3.785
21381TIP3    H164020   5.822   7.080   3.785
21381TIP3    H264021   5.702   7.122   3.703
21382TIP3   OH264022   6.539   3.991   3.898
21382TIP3    H164023   6.583   4.037   3.827
21382TIP3    H264024   6.455   4.034   3.907
21383TIP3   OH264025   9.116   8.060   0.574
21383TIP3    H164026   9.170   8.041   0.651
21383TIP3    H264027   9.086   7.975   0.544
21384TIP3   OH264028   8.004   5.297   6.240
21384TIP3    H164029   7.954   5.307   6.321
21384TIP3    H264030   7.969   5.365   6.182
21385TIP3   OH264031   7.495   3.666   2.029
21385TIP3    H164032   7.433   3.593   2.037
21385TIP3    H264033   7.497   3.706   2.116
21386TIP3   OH264034   5.869   4.699   1.190
21386TIP3    H164035   5.802   4.764   1.168
21386TIP3    H264036   5.948   4.751   1.204
21387TIP3   OH264037   8.018   8.323   2.836
21387TIP3    H164038   8.107   8.305   2.869
21387TIP3    H264039   8.021   8.299   2.744
21388TIP3   OH264040   1.027   6.405   0.955
21388TIP3    H164041   1.047   6.357   0.875
21388TIP3    H264042   1.111   6.414   1.000
21389TIP3   OH264043   5.071   4.203   5.292
21389TIP3    H164044   5.121   4.229   5.214
21389TIP3    H264045   5.100   4.114   5.311
21390TIP3   OH264046   6.459   7.545   4.028
21390TIP3    H164047   6.452   7.494   4.109
21390TIP3    H264048   6.391   7.611   4.036
21391TIP3   OH264049   4.604   6.838   4.604
21391TIP3    H164050   4.673   6.773   4.599
21391TIP3    H264051   4.536   6.797   4.657
21392TIP3   OH264052   3.373   3.227   4.523
21392TIP3    H164053   3.432   3.165   4.479
21392TIP3    H264054   3.291   3.178   4.535
21393TIP3   OH264055   5.286   0.488   7.395
21393TIP3    H164056   5.195   0.514   7.408
21393TIP3    H264057   5.293   0.403   7.437
21394TIP3   OH264058   7.054   7.931   7.005
21394TIP3    H164059   7.011   7.857   7.049
21394TIP3    H264060   7.147   7.909   7.005
21395TIP3   OH264061   3.650   1.370   1.465
21395TIP3    H164062   3.632   1.278   1.450
21395TIP3    H264063   3.690   1.401   1.384
21396TIP3   OH264064   5.928   1.860   6.053
21396TIP3    H164065   5.983   1.920   6.103
21396TIP3    H264066   5.990   1.813   5.996
21397TIP3   OH264067   7.999   1.399   6.943
21397TIP3    H164068   8.057   1.323   6.951
21397TIP3    H264069   7.977   1.422   7.034
21398TIP3   OH264070   8.764   0.340   6.261
21398TIP3    H164071   8.705   0.405   6.298
21398TIP3    H264072   8.761   0.355   6.167
21399TIP3   OH264073   9.345   7.181   6.967
21399TIP3    H164074   9.433   7.174   7.003
21399TIP3    H264075   9.293   7.115   7.013
21400TIP3   OH264076   2.084   4.298   3.549
21400TIP3    H164077   2.009   4.358   3.552
21400TIP3    H264078   2.050   4.216   3.586
21401TIP3   OH264079   7.677   1.557   0.145
21401TIP3    H164080   7.605   1.518   0.193
21401TIP3    H264081   7.737   1.588   0.213
21402TIP3   OH264082   2.867   7.010   7.345
21402TIP3    H164083   2.816   6.982   7.422
21402TIP3    H264084   2.947   7.046   7.382
21403TIP3   OH264085   0.207   1.394   0.226
21403TIP3    H164086   0.194   1.367   0.317
21403TIP3    H264087   0.168   1.481   0.221
21404TIP3   OH264088   2.376   2.155   2.773
21404TIP3    H164089   2.438   2.092   2.810
21404TIP3    H264090   2.396   2.155   2.679
21405TIP3   OH264091   4.135   4.042   0.040
21405TIP3    H164092   4.168   4.117  -0.009
21405TIP3    H264093   4.057   4.074   0.084
21406TIP3   OH264094   9.328   1.323   0.754
21406TIP3    H164095   9.288   1.239   0.730
21406TIP3    H264096   9.416   1.301   0.784
21407TIP3   OH264097   1.022   6.194   5.998
21407TIP3    H164098   1.051   6.213   6.088
21407TIP3    H264099   1.100   6.160   5.954
21408TIP3   OH264100   7.952   4.022   4.346
21408TIP3    H164101   7.871   4.052   4.305
21408TIP3    H264102   7.928   3.941   4.392
21409TIP3   OH264103   9.266   8.591   4.680
21409TIP3    H164104   9.304   8.668   4.723
21409TIP3    H264105   9.258   8.526   4.750
21410TIP3   OH264106   4.049   1.334   2.850
21410TIP3    H164107   4.100   1.356   2.927
21410TIP3    H264108   4.111   1.338   2.777
21411TIP3   OH264109   6.419   0.940   7.595
21411TIP3    H164110   6.346   0.998   7.617
21411TIP3    H264111   6.386   0.852   7.615
21412TIP3   OH264112   9.362   6.734   2.113
21412TIP3    H164113   9.290   6.682   2.148
21412TIP3    H264114   9.392   6.787   2.187
21413TIP3   OH264115   2.138   1.610   1.194
21413TIP3    H164116   2.148   1.704   1.178
21413TIP3    H264117   2.205   1.590   1.259
21414TIP3   OH264118   4.732   5.781   6.376
21414TIP3    H164119   4.681   5.792   6.296
21414TIP3    H264120   4.744   5.687   6.385
21415TIP3   OH264121   3.392   4.307   4.530
21415TIP3    H164122   3.463   4.334   4.472
21415TIP3    H264123   3.386   4.377   4.595
21416TIP3   OH264124   2.648   7.438   2.942
21416TIP3    H164125   2.674   7.497   2.872
21416TIP3    H264126   2.581   7.487   2.991
21417TIP3   OH264127   4.679   4.757   3.773
21417TIP3    H164128   4.701   4.796   3.858
21417TIP3    H264129   4.594   4.794   3.750
21418TIP3   OH264130   3.650   3.294   0.113
21418TIP3    H164131   3.733   3.285   0.066
21418TIP3    H264132   3.673   3.290   0.205
21419TIP3   OH264133   3.303   8.525   5.015
21419TIP3    H164134   3.361   8.491   4.947
21419TIP3    H264135   3.304   8.620   5.002
21420TIP3   OH264136   7.241   6.802   6.896
21420TIP3    H164137   7.326   6.846   6.891
21420TIP3    H264138   7.179   6.866   6.862
21421TIP3   OH264139   7.287   3.335   2.528
21421TIP3    H164140   7.212   3.283   2.498
21421TIP3    H264141   7.297   3.403   2.461
21422TIP3   OH264142   7.784   5.619   1.541
21422TIP3    H164143   7.819   5.537   1.505
21422TIP3    H264144   7.745   5.663   1.465
21423TIP3   OH264145   3.155   6.514   0.740
21423TIP3    H164146   3.247   6.528   0.717
21423TIP3    H264147   3.112   6.598   0.722
21424TIP3   OH264148   0.942   8.730   1.778
21424TIP3    H164149   1.015   8.786   1.803
21424TIP3    H264150   0.875   8.746   1.845
21425TIP3   OH264151   3.755   5.248   3.983
21425TIP3    H164152   3.752   5.224   4.076
21425TIP3    H264153   3.672   5.216   3.948
21426TIP3   OH264154   5.739   1.205   4.137
21426TIP3    H164155   5.822   1.250   4.153
21426TIP3    H264156   5.683   1.270   4.096
21427TIP3   OH264157   3.617   2.327   4.063
21427TIP3    H164158   3.625   2.398   4.127
21427TIP3    H264159   3.706   2.293   4.053
21428TIP3   OH264160   7.536   2.725   1.967
21428TIP3    H164161   7.569   2.794   2.024
21428TIP3    H264162   7.459   2.691   2.013
21429TIP3   OH264163   2.775   2.094   0.478
21429TIP3    H164164   2.734   2.131   0.399
21429TIP3    H264165   2.737   2.145   0.550
21430TIP3   OH264166   8.809   6.085   2.144
21430TIP3    H164167   8.759   6.071   2.063
21430TIP3    H264168   8.744   6.116   2.207
21431TIP3   OH264169   1.018   7.520   1.404
21431TIP3    H164170   1.011   7.582   1.477
21431TIP3    H264171   1.058   7.570   1.333
21432TIP3   OH264172   8.183   8.818   1.891
21432TIP3    H164173   8.184   8.760   1.816
21432TIP3    H264174   8.218   8.765   1.963
21433TIP3   OH264175   2.070   6.533   0.971
21433TIP3    H164176   1.989   6.482   0.972
21433TIP3    H264177   2.045   6.615   0.927
21434TIP3   OH264178   0.827   6.615   3.110
21434TIP3    H164179   0.856   6.702   3.084
21434TIP3    H264180   0.894   6.584   3.171
21435TIP3   OH264181   3.257   0.568   6.529
21435TIP3    H164182   3.348   0.556   6.503
21435TIP3    H264183   3.232   0.484   6.568
21436TIP3   OH264184   3.703   5.667   6.277
21436TIP3    H164185   3.743   5.724   6.211
21436TIP3    H264186   3.653   5.727   6.333
21437TIP3   OH264187   8.259   3.297   0.640
21437TIP3    H164188   8.206   3.221   0.664
21437TIP3    H264189   8.245   3.307   0.546
21438TIP3   OH264190   2.360   2.605   5.989
21438TIP3    H164191   2.290   2.539   5.987
21438TIP3    H264192   2.340   2.663   5.915
21439TIP3   OH264193   3.255   2.971   1.943
21439TIP3    H164194   3.174   2.942   1.987
21439TIP3    H264195   3.315   2.897   1.952
21440TIP3   OH264196   2.600   8.601   3.075
21440TIP3    H164197   2.560   8.654   3.006
21440TIP3    H264198   2.551   8.519   3.075
21441TIP3   OH264199   4.668   3.672   7.553
21441TIP3    H164200   4.720   3.721   7.490
21441TIP3    H264201   4.697   3.705   7.638
21442TIP3   OH264202   9.411   1.801   7.246
21442TIP3    H164203   9.457   1.775   7.166
21442TIP3    H264204   9.443   1.890   7.264
21443TIP3   OH264205   0.630   3.489   6.549
21443TIP3    H164206   0.548   3.442   6.537
21443TIP3    H264207   0.657   3.467   6.639
21444TIP3   OH264208   3.452   8.390   2.580
21444TIP3    H164209   3.420   8.359   2.495
21444TIP3    H264210   3.391   8.353   2.643
21445TIP3   OH264211   0.227   0.846   3.711
21445TIP3    H164212   0.163   0.908   3.675
21445TIP3    H264213   0.173   0.773   3.742
21446TIP3   OH264214   4.300   0.922   3.853
21446TIP3    H164215   4.392   0.922   3.880
21446TIP3    H264216   4.279   0.829   3.842
21447TIP3   OH264217   9.073   8.271   3.843
21447TIP3    H164218   9.081   8.353   3.892
21447TIP3    H264219   9.116   8.206   3.897
21448TIP3   OH264220   7.949   8.331   4.697
21448TIP3    H164221   7.976   8.240   4.705
21448TIP3    H264222   7.907   8.336   4.611
21449TIP3   OH264223   3.540   1.158   1.343
21449TIP3    H164224   3.575   1.164   1.254
21449TIP3    H264225   3.445   1.162   1.331
21450TIP3   OH264226   9.322   8.887   4.047
21450TIP3    H164227   9.264   8.813   4.029
21450TIP3    H264228   9.410   8.850   4.043
21451TIP3   OH264229   4.117   1.455   0.084
21451TIP3    H164230   4.087   1.369   0.114
21451TIP3    H264231   4.108   1.451  -0.011
21452TIP3   OH264232   6.640   5.579   7.276
21452TIP3    H164233   6.665   5.648   7.338
21452TIP3    H264234   6.716   5.521   7.273
21453TIP3   OH264235   4.904   0.776   7.361
21453TIP3    H164236   4.990   0.766   7.402
21453TIP3    H264237   4.862   0.847   7.410
21454TIP3   OH264238   3.454   4.592   2.738
21454TIP3    H164239   3.496   4.619   2.820
21454TIP3    H264240   3.518   4.534   2.697
21455TIP3   OH264241   9.083   6.911   4.781
21455TIP3    H164242   8.990   6.907   4.799
21455TIP3    H264243   9.101   6.832   4.730
21456TIP3   OH264244   1.545   5.815   1.516
21456TIP3    H164245   1.534   5.742   1.456
21456TIP3    H264246   1.570   5.889   1.460
21457TIP3   OH264247   3.469   1.285   0.447
21457TIP3    H164248   3.552   1.261   0.407
21457TIP3    H264249   3.478   1.378   0.469
21458TIP3   OH264250   7.897   1.053   0.483
21458TIP3    H164251   7.962   0.984   0.495
21458TIP3    H264252   7.949   1.130   0.459
21459TIP3   OH264253   8.624   0.288   4.895
21459TIP3    H164254   8.537   0.307   4.930
21459TIP3    H264255   8.608   0.262   4.804
21460TIP3   OH264256   2.362   3.394   2.055
21460TIP3    H164257   2.290   3.379   2.117
21460TIP3    H264258   2.397   3.479   2.079
21461TIP3   OH264259   0.168   7.678   0.460
21461TIP3    H164260   0.118   7.730   0.523
21461TIP3    H264261   0.227   7.741   0.418
21462TIP3   OH264262   3.320   8.785   0.111
21462TIP3    H164263   3.403   8.745   0.086
21462TIP3    H264264   3.313   8.862   0.056
21463TIP3   OH264265   4.637   5.342   2.550
21463TIP3    H164266   4.714   5.304   2.508
21463TIP3    H264267   4.584   5.375   2.478
21464TIP3   OH264268   2.048   2.022   2.122
21464TIP3    H164269   2.049   1.927   2.135
21464TIP3    H264270   2.034   2.058   2.210
21465TIP3   OH264271   5.800   8.972   5.407
21465TIP3    H164272   5.821   8.966   5.501
21465TIP3    H264273   5.713   9.011   5.404
21466TIP3   OH264274   5.593   3.325   6.162
21466TIP3    H164275   5.520   3.363   6.114
21466TIP3    H264276   5.670   3.371   6.128
21467TIP3   OH264277   3.909   5.211   1.987
21467TIP3    H164278   3.913   5.124   1.949
21467TIP3    H264279   3.950   5.201   2.073
21468TIP3   OH264280   6.541   5.664   2.477
21468TIP3    H164281   6.528   5.754   2.446
21468TIP3    H264282   6.610   5.671   2.542
21469TIP3   OH264283   7.267   8.464   1.976
21469TIP3    H164284   7.286   8.453   2.070
21469TIP3    H264285   7.207   8.393   1.955
21470TIP3   OH264286   6.894   3.775   2.084
21470TIP3    H164287   6.829   3.796   2.016
21470TIP3    H264288   6.976   3.810   2.049
21471TIP3   OH264289   4.908   0.128   6.572
21471TIP3    H164290   4.907   0.036   6.599
21471TIP3    H264291   4.936   0.175   6.650
21472TIP3   OH264292   1.218   7.570   7.005
21472TIP3    H164293   1.297   7.612   7.040
21472TIP3    H264294   1.187   7.630   6.937
21473TIP3   OH264295   0.646   8.664   4.911
21473TIP3    H164296   0.664   8.649   5.004
21473TIP3    H264297   0.671   8.582   4.868
21474TIP3   OH264298   1.395   6.362   2.004
21474TIP3    H164299   1.379   6.392   2.093
21474TIP3    H264300   1.367   6.270   2.003
21475TIP3   OH264301   9.117   9.019   2.244
21475TIP3    H164302   9.129   9.028   2.150
21475TIP3    H264303   9.027   8.987   2.254
21476TIP3   OH264304   6.114   1.281   0.380
21476TIP3    H164305   6.081   1.242   0.299
21476TIP3    H264306   6.207   1.255   0.383
21477TIP3   OH264307   3.202   5.740   4.189
21477TIP3    H164308   3.232   5.668   4.245
21477TIP3    H264309   3.257   5.734   4.111
21478TIP3   OH264310   4.516   4.092   2.755
21478TIP3    H164311   4.445   4.149   2.784
21478TIP3    H264312   4.561   4.142   2.687
21479TIP3   OH264313   3.116   2.166   5.075
21479TIP3    H164314   3.070   2.124   5.002
21479TIP3    H264315   3.125   2.097   5.140
21480TIP3   OH264316   3.399   6.935   1.217
21480TIP3    H164317   3.313   6.897   1.233
21480TIP3    H264318   3.390   7.027   1.241
21481TIP3   OH264319   2.154   3.385   2.761
21481TIP3    H164320   2.164   3.465   2.812
21481TIP3    H264321   2.166   3.412   2.670
21482TIP3   OH264322   6.163   3.584   2.662
21482TIP3    H164323   6.194   3.583   2.752
21482TIP3    H264324   6.239   3.610   2.610
21483TIP3   OH264325   4.360   0.293   1.536
21483TIP3    H164326   4.378   0.274   1.628
21483TIP3    H264327   4.338   0.208   1.498
21484TIP3   OH264328   4.740   5.390   3.645
21484TIP3    H164329   4.806   5.321   3.651
21484TIP3    H264330   4.661   5.345   3.615
21485TIP3   OH264331   6.342   7.356   0.314
21485TIP3    H164332   6.432   7.328   0.325
21485TIP3    H264333   6.300   7.287   0.262
21486TIP3   OH264334   4.204   4.909   2.984
21486TIP3    H164335   4.223   4.888   3.075
21486TIP3    H264336   4.224   5.002   2.975
21487TIP3   OH264337   2.611   5.284   6.534
21487TIP3    H164338   2.521   5.257   6.520
21487TIP3    H264339   2.612   5.323   6.621
21488TIP3   OH264340   0.812   0.882   2.980
21488TIP3    H164341   0.787   0.865   2.889
21488TIP3    H264342   0.820   0.977   2.986
21489TIP3   OH264343   1.213   3.986   2.829
21489TIP3    H164344   1.250   4.035   2.756
21489TIP3    H264345   1.156   3.921   2.787
21490TIP3   OH264346   9.519   4.561   5.091
21490TIP3    H164347   9.435   4.519   5.073
21490TIP3    H264348   9.503   4.654   5.079
21491TIP3   OH264349   3.247   1.174   6.314
21491TIP3    H164350   3.341   1.196   6.312
21491TIP3    H264351   3.217   1.189   6.225
21492TIP3   OH264352   4.582   1.253   0.154
21492TIP3    H164353   4.659   1.199   0.174
21492TIP3    H264354   4.513   1.216   0.210
21493TIP3   OH264355   4.936   0.078   2.333
21493TIP3    H164356   4.996   0.145   2.365
21493TIP3    H264357   4.992   0.009   2.299
21494TIP3   OH264358   6.127   0.695   3.797
21494TIP3    H164359   6.054   0.660   3.746
21494TIP3    H264360   6.169   0.758   3.739
21495TIP3   OH264361   2.115   5.579   1.010
21495TIP3    H164362   2.102   5.493   0.970
21495TIP3    H264363   2.141   5.636   0.937
21496TIP3   OH264364   0.571   7.506   4.597
21496TIP3    H164365   0.586   7.418   4.562
21496TIP3    H264366   0.569   7.493   4.692
21497TIP3   OH264367   5.011   3.826   2.781
21497TIP3    H164368   4.932   3.879   2.781
21497TIP3    H264369   5.082   3.888   2.767
21498TIP3   OH264370   2.060   3.074   1.122
21498TIP3    H164371   1.992   3.087   1.188
21498TIP3    H264372   2.079   2.980   1.124
21499TIP3   OH264373   0.997   2.990   3.151
21499TIP3    H164374   1.055   3.033   3.088
21499TIP3    H264375   1.054   2.966   3.224
21500TIP3   OH264376   1.104   6.011   3.097
21500TIP3    H164377   1.014   5.977   3.106
21500TIP3    H264378   1.141   5.959   3.026
21501TIP3   OH264379   2.914   6.378   6.833
21501TIP3    H164380   2.993   6.324   6.844
21501TIP3    H264381   2.914   6.400   6.740
21502TIP3   OH264382   3.614   2.051   2.474
21502TIP3    H164383   3.635   2.063   2.567
21502TIP3    H264384   3.603   1.956   2.464
21503TIP3   OH264385   4.475   5.911   3.643
21503TIP3    H164386   4.469   5.821   3.611
21503TIP3    H264387   4.385   5.934   3.666
21504TIP3   OH264388   9.357   2.899   7.427
21504TIP3    H164389   9.318   2.984   7.445
21504TIP3    H264390   9.392   2.870   7.511
21505TIP3   OH264391   7.956   8.674   5.030
21505TIP3    H164392   8.020   8.740   5.058
21505TIP3    H264393   7.872   8.705   5.063
21506TIP3   OH264394   2.962   7.745   2.954
21506TIP3    H164395   2.902   7.784   3.017
21506TIP3    H264396   3.048   7.749   2.997
21507TIP3   OH264397   2.341   8.577   3.737
21507TIP3    H164398   2.353   8.672   3.745
21507TIP3    H264399   2.376   8.556   3.651
21508TIP3   OH264400   5.897   3.108   5.098
21508TIP3    H164401   5.889   3.133   5.190
21508TIP3    H264402   5.846   3.027   5.091
21509TIP3   OH264403   5.547   2.004   4.073
21509TIP3    H164404   5.577   2.090   4.043
21509TIP3    H264405   5.607   1.982   4.144
21510TIP3   OH264406   8.831   6.776   1.472
21510TIP3    H164407   8.828   6.743   1.383
21510TIP3    H264408   8.750   6.827   1.481
21511TIP3   OH264409   2.365   1.906   5.298
21511TIP3    H164410   2.387   1.931   5.209
21511TIP3    H264411   2.416   1.826   5.314
21512TIP3   OH264412   4.005   7.643   4.118
21512TIP3    H164413   4.020   7.554   4.086
21512TIP3    H264414   3.998   7.697   4.039
21513TIP3   OH264415   4.540   8.673   3.647
21513TIP3    H164416   4.548   8.650   3.740
21513TIP3    H264417   4.567   8.594   3.600
21514TIP3   OH264418   9.208   3.372   5.908
21514TIP3    H164419   9.125   3.420   5.901
21514TIP3    H264420   9.206   3.311   5.834
21515TIP3   OH264421   8.113   0.636   2.560
21515TIP3    H164422   8.041   0.651   2.499
21515TIP3    H264423   8.076   0.581   2.629
21516TIP3   OH264424   7.498   7.438   5.238
21516TIP3    H164425   7.436   7.494   5.284
21516TIP3    H264426   7.582   7.453   5.283
21517TIP3   OH264427   6.060   2.535   5.895
21517TIP3    H164428   6.003   2.467   5.860
21517TIP3    H264429   6.052   2.607   5.832
21518TIP3   OH264430   5.695   2.665   7.311
21518TIP3    H164431   5.603   2.690   7.300
21518TIP3    H264432   5.692   2.586   7.364
21519TIP3   OH264433   5.146   4.423   6.034
21519TIP3    H164434   5.177   4.470   5.956
21519TIP3    H264435   5.173   4.332   6.019
21520TIP3   OH264436   6.516   5.529   2.040
21520TIP3    H164437   6.596   5.580   2.027
21520TIP3    H264438   6.494   5.540   2.132
21521TIP3   OH264439   6.821   0.528   6.395
21521TIP3    H164440   6.737   0.575   6.400
21521TIP3    H264441   6.887   0.595   6.411
21522TIP3   OH264442   7.276   2.301   6.477
21522TIP3    H164443   7.230   2.376   6.439
21522TIP3    H264444   7.220   2.226   6.456
21523TIP3   OH264445   5.119   4.696   5.124
21523TIP3    H164446   5.121   4.714   5.217
21523TIP3    H264447   5.175   4.619   5.113
21524TIP3   OH264448   3.499   3.265   6.649
21524TIP3    H164449   3.536   3.299   6.568
21524TIP3    H264450   3.405   3.283   6.643
21525TIP3   OH264451   4.272   4.034   0.593
21525TIP3    H164452   4.205   4.102   0.600
21525TIP3    H264453   4.322   4.058   0.516
21526TIP3   OH264454   7.697   5.731   6.020
21526TIP3    H164455   7.736   5.758   6.103
21526TIP3    H264456   7.626   5.793   6.006
21527TIP3   OH264457   7.002   3.448   4.882
21527TIP3    H164458   7.011   3.358   4.850
21527TIP3    H264459   7.027   3.442   4.975
21528TIP3   OH264460   5.253   8.509   0.729
21528TIP3    H164461   5.206   8.482   0.650
21528TIP3    H264462   5.306   8.434   0.753
21529TIP3   OH264463   4.837   5.382   2.338
21529TIP3    H164464   4.872   5.397   2.250
21529TIP3    H264465   4.751   5.422   2.337
21530TIP3   OH264466   6.967   2.963   3.731
21530TIP3    H164467   7.032   3.032   3.724
21530TIP3    H264468   6.893   2.994   3.678
21531TIP3   OH264469   3.696   4.663   6.727
21531TIP3    H164470   3.661   4.619   6.805
21531TIP3    H264471   3.619   4.677   6.671
21532TIP3   OH264472   0.460   7.628   0.504
21532TIP3    H164473   0.438   7.592   0.418
21532TIP3    H264474   0.386   7.684   0.526
21533TIP3   OH264475   9.501   6.489   1.791
21533TIP3    H164476   9.576   6.432   1.774
21533TIP3    H264477   9.429   6.449   1.742
21534TIP3   OH264478   1.565   4.967   4.226
21534TIP3    H164479   1.505   5.006   4.163
21534TIP3    H264480   1.637   4.931   4.174
21535TIP3   OH264481   4.511   7.977   6.574
21535TIP3    H164482   4.519   8.064   6.612
21535TIP3    H264483   4.593   7.964   6.525
21536TIP3   OH264484   1.055   0.474   5.518
21536TIP3    H164485   0.985   0.473   5.584
21536TIP3    H264486   1.064   0.566   5.495
21537TIP3   OH264487   7.141   2.183   1.507
21537TIP3    H164488   7.174   2.211   1.592
21537TIP3    H264489   7.155   2.259   1.450
21538TIP3   OH264490   4.716   6.136   3.234
21538TIP3    H164491   4.635   6.126   3.183
21538TIP3    H264492   4.699   6.090   3.316
21539TIP3   OH264493   4.223   6.122   3.445
21539TIP3    H164494   4.169   6.055   3.403
21539TIP3    H264495   4.178   6.204   3.426
21540TIP3   OH264496   6.684   3.320   5.668
21540TIP3    H164497   6.597   3.352   5.644
21540TIP3    H264498   6.684   3.228   5.642
21541TIP3   OH264499   2.874   1.144   2.968
21541TIP3    H164500   2.878   1.234   2.936
21541TIP3    H264501   2.781   1.125   2.975
21542TIP3   OH264502   9.431   0.419   0.596
21542TIP3    H164503   9.414   0.328   0.573
21542TIP3    H264504   9.457   0.416   0.688
21543TIP3   OH264505   4.012   4.585   5.018
21543TIP3    H164506   4.095   4.621   4.988
21543TIP3    H264507   3.948   4.613   4.952
21544TIP3   OH264508   0.641   5.088   6.212
21544TIP3    H164509   0.609   5.039   6.288
21544TIP3    H264510   0.720   5.040   6.184
21545TIP3   OH264511   5.328   4.119   1.858
21545TIP3    H164512   5.321   4.198   1.912
21545TIP3    H264513   5.337   4.048   1.921
21546TIP3   OH264514   4.933   3.626   1.707
21546TIP3    H164515   4.965   3.714   1.689
21546TIP3    H264516   5.011   3.570   1.698
21547TIP3   OH264517   3.426   7.990   1.446
21547TIP3    H164518   3.445   8.055   1.379
21547TIP3    H264519   3.484   8.013   1.519
21548TIP3   OH264520   0.104   7.395   0.779
21548TIP3    H164521   0.156   7.410   0.699
21548TIP3    H264522   0.018   7.432   0.759
21549TIP3   OH264523   6.305   4.968   4.879
21549TIP3    H164524   6.248   5.015   4.940
21549TIP3    H264525   6.380   5.026   4.869
21550TIP3   OH264526   7.354   2.317   3.063
21550TIP3    H164527   7.387   2.307   3.152
21550TIP3    H264528   7.327   2.409   3.058
21551TIP3   OH264529   8.089   8.171   3.134
21551TIP3    H164530   8.023   8.123   3.085
21551TIP3    H264531   8.140   8.217   3.067
21552TIP3   OH264532   4.682   2.480   6.543
21552TIP3    H164533   4.611   2.503   6.603
21552TIP3    H264534   4.757   2.462   6.601
21553TIP3   OH264535   1.119   7.608   1.909
21553TIP3    H164536   1.092   7.518   1.927
21553TIP3    H264537   1.215   7.606   1.915
21554TIP3   OH264538   7.205   2.027   6.240
21554TIP3    H164539   7.130   2.072   6.201
21554TIP3    H264540   7.247   1.982   6.167
21555TIP3   OH264541   6.977   3.670   3.984
21555TIP3    H164542   6.917   3.745   3.975
21555TIP3    H264543   6.979   3.631   3.896
21556TIP3   OH264544   8.628   2.766   4.781
21556TIP3    H164545   8.547   2.745   4.734
21556TIP3    H264546   8.691   2.702   4.750
21557TIP3   OH264547   2.068   5.089   2.171
21557TIP3    H164548   2.101   5.175   2.197
21557TIP3    H264549   2.137   5.028   2.197
21558TIP3   OH264550   3.658   4.770   7.216
21558TIP3    H164551   3.580   4.714   7.214
21558TIP3    H264552   3.724   4.716   7.259
21559TIP3   OH264553   8.352   7.127   6.790
21559TIP3    H164554   8.269   7.088   6.816
21559TIP3    H264555   8.358   7.111   6.696
21560TIP3   OH264556   0.363   7.005   1.716
21560TIP3    H164557   0.272   6.995   1.744
21560TIP3    H264558   0.366   7.090   1.673
21561TIP3   OH264559   7.716   2.878   4.213
21561TIP3    H164560   7.641   2.864   4.155
21561TIP3    H264561   7.787   2.904   4.154
21562TIP3   OH264562   2.385   4.830   6.323
21562TIP3    H164563   2.459   4.770   6.334
21562TIP3    H264564   2.389   4.857   6.231
21563TIP3   OH264565   7.079   6.160   3.912
21563TIP3    H164566   6.992   6.134   3.942
21563TIP3    H264567   7.122   6.079   3.887
21564TIP3   OH264568   0.215   7.720   1.924
21564TIP3    H164569   0.288   7.696   1.981
21564TIP3    H264570   0.255   7.767   1.852
21565TIP3   OH264571   8.127   2.411   1.764
21565TIP3    H164572   8.073   2.439   1.690
21565TIP3    H264573   8.118   2.482   1.828
21566TIP3   OH264574   7.803   6.539   0.213
21566TIP3    H164575   7.729   6.540   0.274
21566TIP3    H264576   7.767   6.571   0.130
21567TIP3   OH264577   6.033   2.636   2.726
21567TIP3    H164578   6.084   2.675   2.655
21567TIP3    H264579   5.976   2.573   2.682
21568TIP3   OH264580   2.108   8.705   3.563
21568TIP3    H164581   2.119   8.757   3.642
21568TIP3    H264582   2.013   8.702   3.549
21569TIP3   OH264583   5.640   1.174   0.590
21569TIP3    H164584   5.572   1.219   0.640
21569TIP3    H264585   5.709   1.157   0.654
21570TIP3   OH264586   2.970   7.989   2.403
21570TIP3    H164587   2.939   8.054   2.340
21570TIP3    H264588   3.060   7.971   2.377
21571TIP3   OH264589   6.360   5.138   1.206
21571TIP3    H164590   6.455   5.145   1.194
21571TIP3    H264591   6.327   5.227   1.188
21572TIP3   OH264592   7.473   6.795   3.362
21572TIP3    H164593   7.391   6.817   3.407
21572TIP3    H264594   7.453   6.804   3.269
21573TIP3   OH264595   5.695   7.845   3.856
21573TIP3    H164596   5.639   7.909   3.811
21573TIP3    H264597   5.640   7.808   3.925
21574TIP3   OH264598   1.493   2.195   6.911
21574TIP3    H164599   1.530   2.114   6.875
21574TIP3    H264600   1.540   2.209   6.993
21575TIP3   OH264601   5.946   5.695   1.314
21575TIP3    H164602   5.861   5.720   1.349
21575TIP3    H264603   6.007   5.710   1.386
21576TIP3   OH264604   7.872   6.570   1.863
21576TIP3    H164605   7.853   6.548   1.772
21576TIP3    H264606   7.967   6.576   1.867
21577TIP3   OH264607   1.705   0.508   0.043
21577TIP3    H164608   1.617   0.479   0.069
21577TIP3    H264609   1.697   0.531  -0.049
21578TIP3   OH264610   7.549   4.385   3.815
21578TIP3    H164611   7.585   4.474   3.820
21578TIP3    H264612   7.620   4.332   3.779
21579TIP3   OH264613   3.609   7.743   5.866
21579TIP3    H164614   3.588   7.832   5.841
21579TIP3    H264615   3.701   7.746   5.893
21580TIP3   OH264616   7.442   3.436   1.804
21580TIP3    H164617   7.369   3.494   1.780
21580TIP3    H264618   7.465   3.392   1.722
21581TIP3   OH264619   9.444   3.060   5.483
21581TIP3    H164620   9.360   3.022   5.457
21581TIP3    H264621   9.491   3.073   5.400
21582TIP3   OH264622   5.526   2.285   3.296
21582TIP3    H164623   5.544   2.224   3.367
21582TIP3    H264624   5.534   2.371   3.336
21583TIP3   OH264625   3.691   2.468   4.735
21583TIP3    H164626   3.698   2.397   4.799
21583TIP3    H264627   3.598   2.472   4.713
21584TIP3   OH264628   7.819   8.704   2.090
21584TIP3    H164629   7.822   8.798   2.075
21584TIP3    H264630   7.772   8.694   2.173
21585TIP3   OH264631   5.923   0.132   5.148
21585TIP3    H164632   5.835   0.167   5.160
21585TIP3    H264633   5.974   0.204   5.112
21586TIP3   OH264634   3.396   5.806   6.195
21586TIP3    H164635   3.411   5.798   6.289
21586TIP3    H264636   3.309   5.845   6.188
21587TIP3   OH264637   0.467   4.106   4.906
21587TIP3    H164638   0.410   4.040   4.866
21587TIP3    H264639   0.450   4.186   4.857
21588TIP3   OH264640   1.555   8.670   1.921
21588TIP3    H164641   1.580   8.642   1.834
21588TIP3    H264642   1.530   8.589   1.967
21589TIP3   OH264643   1.647   4.986   3.248
21589TIP3    H164644   1.633   4.938   3.166
21589TIP3    H264645   1.728   5.035   3.233
21590TIP3   OH264646   0.834   3.037   4.773
21590TIP3    H164647   0.792   3.078   4.849
21590TIP3    H264648   0.761   2.997   4.725
21591TIP3   OH264649   0.343   0.211   0.193
21591TIP3    H164650   0.312   0.216   0.103
21591TIP3    H264651   0.437   0.195   0.185
21592TIP3   OH264652   2.489   3.226   6.737
21592TIP3    H164653   2.400   3.245   6.706
21592TIP3    H264654   2.503   3.134   6.715
21593TIP3   OH264655   1.598   8.245   2.006
21593TIP3    H164656   1.678   8.270   1.960
21593TIP3    H264657   1.559   8.328   2.033
21594TIP3   OH264658   3.341   8.569   3.241
21594TIP3    H164659   3.305   8.486   3.209
21594TIP3    H264660   3.388   8.545   3.321
21595TIP3   OH264661   9.242   4.436   3.232
21595TIP3    H164662   9.287   4.367   3.280
21595TIP3    H264663   9.149   4.410   3.234
21596TIP3   OH264664   5.341   2.859   7.761
21596TIP3    H164665   5.294   2.849   7.678
21596TIP3    H264666   5.414   2.918   7.740
21597TIP3   OH264667   1.435   8.060   2.160
21597TIP3    H164668   1.465   8.107   2.082
21597TIP3    H264669   1.445   7.967   2.137
21598TIP3   OH264670   0.274   7.120   7.367
21598TIP3    H164671   0.269   7.187   7.300
21598TIP3    H264672   0.368   7.103   7.377
21599TIP3   OH264673   9.574   4.714   7.399
21599TIP3    H164674   9.515   4.740   7.470
21599TIP3    H264675   9.604   4.626   7.424
21600TIP3   OH264676   5.357   0.930   1.880
21600TIP3    H164677   5.293   0.860   1.885
21600TIP3    H264678   5.400   0.929   1.966
21601TIP3   OH264679   8.567   8.279   1.278
21601TIP3    H164680   8.615   8.201   1.250
21601TIP3    H264681   8.521   8.308   1.200
21602TIP3   OH264682   3.406   1.598   2.831
21602TIP3    H164683   3.400   1.506   2.859
21602TIP3    H264684   3.349   1.645   2.892
21603TIP3   OH264685   5.908   8.383   2.382
21603TIP3    H164686   5.903   8.349   2.471
21603TIP3    H264687   5.939   8.473   2.392
21604TIP3   OH264688   3.536   0.187   0.593
21604TIP3    H164689   3.578   0.239   0.661
21604TIP3    H264690   3.558   0.232   0.511
21605TIP3   OH264691   3.832   4.038   4.435
21605TIP3    H164692   3.764   4.023   4.500
21605TIP3    H264693   3.914   4.039   4.486
21606TIP3   OH264694   7.741   4.374   4.506
21606TIP3    H164695   7.808   4.315   4.472
21606TIP3    H264696   7.713   4.426   4.431
21607TIP3   OH264697   5.012   0.722   2.922
21607TIP3    H164698   4.988   0.690   2.835
21607TIP3    H264699   4.948   0.683   2.980
21608TIP3   OH264700   4.561   5.978   2.867
21608TIP3    H164701   4.623   5.905   2.859
21608TIP3    H264702   4.486   5.941   2.913
21609TIP3   OH264703   6.429   2.328   6.637
21609TIP3    H164704   6.483   2.363   6.566
21609TIP3    H264705   6.381   2.255   6.597
21610TIP3   OH264706   4.668   1.501   4.028
21610TIP3    H164707   4.714   1.486   3.946
21610TIP3    H264708   4.579   1.470   4.012
21611TIP3   OH264709   7.436   5.104   1.468
21611TIP3    H164710   7.506   5.048   1.503
21611TIP3    H264711   7.459   5.115   1.376
21612TIP3   OH264712   1.158   2.397   2.616
21612TIP3    H164713   1.068   2.412   2.589
21612TIP3    H264714   1.201   2.361   2.538
21613TIP3   OH264715   7.714   0.806   0.013
21613TIP3    H164716   7.672   0.741   0.069
21613TIP3    H264717   7.764   0.755  -0.050
21614TIP3   OH264718   5.765   0.076   6.537
21614TIP3    H164719   5.704   0.140   6.500
21614TIP3    H264720   5.850   0.098   6.499
21615TIP3   OH264721   8.231   7.890   0.359
21615TIP3    H164722   8.298   7.841   0.311
21615TIP3    H264723   8.251   7.872   0.452
21616TIP3   OH264724   6.035   7.849   0.502
21616TIP3    H164725   6.090   7.785   0.548
21616TIP3    H264726   5.994   7.798   0.432
21617TIP3   OH264727   0.353   4.022   7.515
21617TIP3    H164728   0.425   3.983   7.565
21617TIP3    H264729   0.365   3.990   7.426
21618TIP3   OH264730   7.382   6.452   1.441
21618TIP3    H164731   7.298   6.451   1.488
21618TIP3    H264732   7.386   6.540   1.402
21619TIP3   OH264733   3.531   5.595   5.649
21619TIP3    H164734   3.502   5.642   5.727
21619TIP3    H264735   3.456   5.540   5.626
21620TIP3   OH264736   0.585   1.886   7.579
21620TIP3    H164737   0.492   1.871   7.565
21620TIP3    H264738   0.609   1.954   7.516
21621TIP3   OH264739   3.127   6.178   0.633
21621TIP3    H164740   3.063   6.231   0.585
21621TIP3    H264741   3.078   6.100   0.659
21622TIP3   OH264742   2.591   5.307   2.890
21622TIP3    H164743   2.520   5.361   2.854
21622TIP3    H264744   2.557   5.277   2.974
21623TIP3   OH264745   3.927   3.386   5.059
21623TIP3    H164746   3.894   3.324   5.125
21623TIP3    H264747   4.014   3.353   5.037
21624TIP3   OH264748   3.871   0.240   4.381
21624TIP3    H164749   3.810   0.291   4.434
21624TIP3    H264750   3.839   0.250   4.291
21625TIP3   OH264751   4.293   0.215   7.637
21625TIP3    H164752   4.327   0.128   7.656
21625TIP3    H264753   4.352   0.250   7.570
21626TIP3   OH264754   8.759   7.537   2.464
21626TIP3    H164755   8.678   7.536   2.412
21626TIP3    H264756   8.819   7.482   2.414
21627TIP3   OH264757   1.079   5.577   4.939
21627TIP3    H164758   1.082   5.645   4.872
21627TIP3    H264759   1.167   5.576   4.977
21628TIP3   OH264760   1.136   5.704   5.210
21628TIP3    H164761   1.125   5.610   5.227
21628TIP3    H264762   1.085   5.746   5.280
21629TIP3   OH264763   0.118   7.108   1.535
21629TIP3    H164764   0.180   7.176   1.563
21629TIP3    H264765   0.091   7.066   1.616
21630TIP3   OH264766   4.919   4.057   0.371
21630TIP3    H164767   4.833   4.022   0.348
21630TIP3    H264768   4.977   3.981   0.366
21631TIP3   OH264769   9.334   7.519   4.430
21631TIP3    H164770   9.399   7.551   4.492
21631TIP3    H264771   9.325   7.590   4.366
21632TIP3   OH264772   8.587   3.419   5.078
21632TIP3    H164773   8.676   3.393   5.099
21632TIP3    H264774   8.542   3.420   5.162
21633TIP3   OH264775   5.566   7.226   0.118
21633TIP3    H164776   5.567   7.132   0.099
21633TIP3    H264777   5.564   7.231   0.214
21634TIP3   OH264778   5.860   5.580   2.422
21634TIP3    H164779   5.940   5.630   2.439
21634TIP3    H264780   5.880   5.530   2.342
21635TIP3   OH264781   4.883   7.641   5.880
21635TIP3    H164782   4.959   7.614   5.931
21635TIP3    H264783   4.853   7.721   5.921
21636TIP3   OH264784   1.576   6.088   3.714
21636TIP3    H164785   1.495   6.125   3.750
21636TIP3    H264786   1.641   6.157   3.724
21637TIP3   OH264787   1.317   4.056   4.374
21637TIP3    H164788   1.260   4.133   4.375
21637TIP3    H264789   1.265   3.989   4.328
21638TIP3   OH264790   4.478   7.684   5.293
21638TIP3    H164791   4.564   7.696   5.252
21638TIP3    H264792   4.431   7.765   5.273
21639TIP3   OH264793   6.907   5.377   6.479
21639TIP3    H164794   6.889   5.376   6.573
21639TIP3    H264795   6.985   5.431   6.470
21640TIP3   OH264796   5.845   6.284   6.809
21640TIP3    H164797   5.777   6.324   6.864
21640TIP3    H264798   5.816   6.193   6.798
21641TIP3   OH264799   3.226   8.316   5.163
21641TIP3    H164800   3.131   8.319   5.167
21641TIP3    H264801   3.250   8.396   5.117
21642TIP3   OH264802   9.538   6.624   4.649
21642TIP3    H164803   9.583   6.607   4.732
21642TIP3    H264804   9.472   6.690   4.671
21643TIP3   OH264805   9.322   7.744   4.242
21643TIP3    H164806   9.233   7.763   4.271
21643TIP3    H264807   9.378   7.786   4.307
21644TIP3   OH264808   1.947   7.405   3.307
21644TIP3    H164809   1.891   7.482   3.302
21644TIP3    H264810   1.938   7.363   3.222
21645TIP3   OH264811   4.049   1.045   6.012
21645TIP3    H164812   4.027   0.956   5.987
21645TIP3    H264813   3.985   1.068   6.080
21646TIP3   OH264814   4.257   6.811   2.662
21646TIP3    H164815   4.258   6.760   2.743
21646TIP3    H264816   4.194   6.766   2.606
21647TIP3   OH264817   7.786   1.755   0.844
21647TIP3    H164818   7.726   1.687   0.876
21647TIP3    H264819   7.860   1.752   0.905
21648TIP3   OH264820   8.693   3.260   4.105
21648TIP3    H164821   8.729   3.327   4.164
21648TIP3    H264822   8.769   3.208   4.080
21649TIP3   OH264823   3.943   4.814   6.710
21649TIP3    H164824   3.866   4.760   6.729
21649TIP3    H264825   3.988   4.768   6.640
21650TIP3   OH264826   1.413   5.173   3.266
21650TIP3    H164827   1.404   5.243   3.331
21650TIP3    H264828   1.475   5.112   3.305
21651TIP3   OH264829   1.023   5.602   3.829
21651TIP3    H164830   0.978   5.669   3.881
21651TIP3    H264831   1.090   5.567   3.887
21652TIP3   OH264832   6.796   5.902   5.206
21652TIP3    H164833   6.767   5.844   5.135
21652TIP3    H264834   6.773   5.990   5.176
21653TIP3   OH264835   5.898   1.837   7.369
21653TIP3    H164836   5.872   1.917   7.415
21653TIP3    H264837   5.836   1.770   7.400
21654TIP3   OH264838   8.870   6.899   2.093
21654TIP3    H164839   8.792   6.844   2.088
21654TIP3    H264840   8.851   6.973   2.035
21655TIP3   OH264841   1.366   7.503   7.548
21655TIP3    H164842   1.369   7.416   7.508
21655TIP3    H264843   1.274   7.515   7.571
21656TIP3   OH264844   6.862   3.502   2.128
21656TIP3    H164845   6.875   3.597   2.135
21656TIP3    H264846   6.850   3.487   2.034
21657TIP3   OH264847   5.244   7.925   0.438
21657TIP3    H164848   5.154   7.895   0.444
21657TIP3    H264849   5.246   7.984   0.363
21658TIP3   OH264850   3.632   6.351   1.012
21658TIP3    H164851   3.642   6.444   1.032
21658TIP3    H264852   3.582   6.350   0.930
21659TIP3   OH264853   7.891   4.164   4.068
21659TIP3    H164854   7.914   4.073   4.087
21659TIP3    H264855   7.801   4.160   4.035
21660TIP3   OH264856   0.161   0.822   2.599
21660TIP3    H164857   0.177   0.873   2.679
21660TIP3    H264858   0.107   0.879   2.545
21661TIP3   OH264859   4.685   5.976   6.991
21661TIP3    H164860   4.726   6.040   6.933
21661TIP3    H264861   4.708   5.891   6.954
21662TIP3   OH264862   2.576   7.525   1.414
21662TIP3    H164863   2.630   7.603   1.399
21662TIP3    H264864   2.487   7.553   1.393
21663TIP3   OH264865   2.819   4.952   3.077
21663TIP3    H164866   2.812   4.951   3.172
21663TIP3    H264867   2.894   5.008   3.058
21664TIP3   OH264868   2.944   6.150   3.193
21664TIP3    H164869   2.991   6.162   3.111
21664TIP3    H264870   2.875   6.217   3.191
21665TIP3   OH264871   3.127   5.242   6.814
21665TIP3    H164872   3.121   5.262   6.907
21665TIP3    H264873   3.190   5.170   6.809
21666TIP3   OH264874   2.346   7.848   1.211
21666TIP3    H164875   2.420   7.836   1.152
21666TIP3    H264876   2.345   7.942   1.230
21667TIP3   OH264877   4.087   4.134   6.939
21667TIP3    H164878   4.052   4.187   6.867
21667TIP3    H264879   4.145   4.071   6.896
21668TIP3   OH264880   6.555   5.991   6.378
21668TIP3    H164881   6.483   5.954   6.327
21668TIP3    H264882   6.630   5.992   6.318
21669TIP3   OH264883   0.253   1.074   3.912
21669TIP3    H164884   0.268   1.004   3.849
21669TIP3    H264885   0.175   1.046   3.961
21670TIP3   OH264886   4.179   0.104   3.601
21670TIP3    H164887   4.114   0.071   3.539
21670TIP3    H264888   4.257   0.049   3.587
21671TIP3   OH264889   2.189   1.912   6.255
21671TIP3    H164890   2.135   1.951   6.186
21671TIP3    H264891   2.167   1.962   6.334
21672TIP3   OH264892   5.131   0.549   5.642
21672TIP3    H164893   5.197   0.617   5.625
21672TIP3    H264894   5.182   0.469   5.656
21673TIP3   OH264895   1.230   4.985   5.786
21673TIP3    H164896   1.282   5.035   5.723
21673TIP3    H264897   1.275   4.996   5.869
21674TIP3   OH264898   7.428   5.300   1.718
21674TIP3    H164899   7.487   5.376   1.724
21674TIP3    H264900   7.468   5.244   1.652
21675TIP3   OH264901   3.544   3.747   6.675
21675TIP3    H164902   3.478   3.745   6.606
21675TIP3    H264903   3.514   3.815   6.735
21676TIP3   OH264904   3.722   0.146   1.751
21676TIP3    H164905   3.669   0.226   1.753
21676TIP3    H264906   3.752   0.135   1.841
21677TIP3   OH264907   3.737   3.539   6.645
21677TIP3    H164908   3.704   3.626   6.667
21677TIP3    H264909   3.723   3.487   6.724
21678TIP3   OH264910   4.063   4.698   5.260
21678TIP3    H164911   4.017   4.664   5.184
21678TIP3    H264912   4.110   4.775   5.228
21679TIP3   OH264913   2.744   4.272   7.342
21679TIP3    H164914   2.757   4.244   7.433
21679TIP3    H264915   2.827   4.314   7.318
21680TIP3   OH264916   3.348   7.210   7.374
21680TIP3    H164917   3.435   7.173   7.358
21680TIP3    H264918   3.312   7.225   7.287
21681TIP3   OH264919   5.987   8.956   0.953
21681TIP3    H164920   6.067   8.907   0.934
21681TIP3    H264921   5.939   8.958   0.870
21682TIP3   OH264922   4.207   0.186   5.827
21682TIP3    H164923   4.187   0.241   5.751
21682TIP3    H264924   4.165   0.102   5.806
21683TIP3   OH264925   1.517   1.455   2.276
21683TIP3    H164926   1.460   1.475   2.201
21683TIP3    H264927   1.525   1.359   2.274
21684TIP3   OH264928   4.362   1.144   6.449
21684TIP3    H164929   4.300   1.102   6.389
21684TIP3    H264930   4.334   1.116   6.536
21685TIP3   OH264931   8.740   1.827   0.427
21685TIP3    H164932   8.735   1.732   0.441
21685TIP3    H264933   8.753   1.835   0.332
21686TIP3   OH264934   9.440   8.038   4.033
21686TIP3    H164935   9.427   8.051   4.127
21686TIP3    H264936   9.394   8.111   3.992
21687TIP3   OH264937   2.364   7.970   0.306
21687TIP3    H164938   2.385   7.957   0.214
21687TIP3    H264939   2.448   7.959   0.351
21688TIP3   OH264940   8.859   6.629   2.370
21688TIP3    H164941   8.852   6.704   2.429
21688TIP3    H264942   8.809   6.560   2.412
21689TIP3   OH264943   2.108   7.895   1.741
21689TIP3    H164944   2.138   7.825   1.799
21689TIP3    H264945   2.162   7.884   1.662
21690TIP3   OH264946   5.845   2.579   0.137
21690TIP3    H164947   5.898   2.505   0.108
21690TIP3    H264948   5.856   2.581   0.233
21691TIP3   OH264949   5.566   2.243   7.387
21691TIP3    H164950   5.567   2.336   7.411
21691TIP3    H264951   5.504   2.203   7.448
21692TIP3   OH264952   5.262   0.915   5.424
21692TIP3    H164953   5.237   0.869   5.504
21692TIP3    H264954   5.181   0.920   5.373
21693TIP3   OH264955   5.619   3.019   1.426
21693TIP3    H164956   5.670   3.088   1.384
21693TIP3    H264957   5.626   2.945   1.366
21694TIP3   OH264958   9.247   6.655   0.678
21694TIP3    H164959   9.301   6.729   0.650
21694TIP3    H264960   9.221   6.676   0.767
21695TIP3   OH264961   6.283   5.218   2.773
21695TIP3    H164962   6.330   5.176   2.845
21695TIP3    H264963   6.217   5.273   2.816
21696TIP3   OH264964   9.237   4.328   6.196
21696TIP3    H164965   9.176   4.398   6.173
21696TIP3    H264966   9.214   4.256   6.137
21697TIP3   OH264967   7.150   7.915   4.779
21697TIP3    H164968   7.236   7.944   4.748
21697TIP3    H264969   7.130   7.973   4.853
21698TIP3   OH264970   5.563   6.796   6.906
21698TIP3    H164971   5.574   6.891   6.897
21698TIP3    H264972   5.481   6.777   6.860
21699TIP3   OH264973   0.312   2.832   6.521
21699TIP3    H164974   0.306   2.748   6.477
21699TIP3    H264975   0.318   2.896   6.449
21700TIP3   OH264976   1.147   1.104   2.682
21700TIP3    H164977   1.096   1.184   2.675
21700TIP3    H264978   1.133   1.060   2.598
21701TIP3   OH264979   9.549   7.052   3.221
21701TIP3    H164980   9.626   7.044   3.165
21701TIP3    H264981   9.545   6.969   3.268
21702TIP3   OH264982   8.500   1.325   0.113
21702TIP3    H164983   8.579   1.360   0.070
21702TIP3    H264984   8.489   1.238   0.075
21703TIP3   OH264985   5.574   8.141   2.421
21703TIP3    H164986   5.592   8.060   2.373
21703TIP3    H264987   5.617   8.128   2.506
21704TIP3   OH264988   4.428   4.333   5.406
21704TIP3    H164989   4.469   4.377   5.332
21704TIP3    H264990   4.486   4.352   5.480
21705TIP3   OH264991   2.301   6.299   5.347
21705TIP3    H164992   2.349   6.380   5.329
21705TIP3    H264993   2.282   6.303   5.441
21706TIP3   OH264994   4.685   1.359   0.711
21706TIP3    H164995   4.702   1.453   0.706
21706TIP3    H264996   4.647   1.337   0.626
21707TIP3   OH264997   4.178   0.084   4.156
21707TIP3    H164998   4.126   0.107   4.079
21707TIP3    H264999   4.268   0.079   4.125
21708TIP3   OH265000   9.337   6.148   3.930
21708TIP3    H165001   9.410   6.116   3.982
21708TIP3    H265002   9.361   6.239   3.908
21709TIP3   OH265003   9.257   0.555   3.902
21709TIP3    H165004   9.202   0.486   3.864
21709TIP3    H265005   9.264   0.533   3.994
21710TIP3   OH265006   7.518   4.401   2.624
21710TIP3    H165007   7.455   4.366   2.686
21710TIP3    H265008   7.599   4.409   2.674
21711TIP3   OH265009   6.140   8.773   5.336
21711TIP3    H165010   6.218   8.734   5.296
21711TIP3    H265011   6.173   8.810   5.419
21712TIP3   OH265012   7.698   4.828   0.312
21712TIP3    H165013   7.622   4.849   0.259
21712TIP3    H265014   7.661   4.790   0.392
21713TIP3   OH265015   2.740   0.137   4.613
21713TIP3    H165016   2.799   0.208   4.589
21713TIP3    H265017   2.653   0.177   4.617
21714TIP3   OH265018   2.022   4.773   7.080
21714TIP3    H165019   2.102   4.722   7.088
21714TIP3    H265020   1.953   4.716   7.115
21715TIP3   OH265021   4.224   0.194   0.336
21715TIP3    H165022   4.233   0.188   0.431
21715TIP3    H265023   4.300   0.245   0.308
21716TIP3   OH265024   3.511   6.834   7.308
21716TIP3    H165025   3.417   6.832   7.325
21716TIP3    H265026   3.539   6.743   7.319
21717TIP3   OH265027   0.331   6.083   7.755
21717TIP3    H165028   0.368   6.086   7.667
21717TIP3    H265029   0.292   6.170   7.767
21718TIP3   OH265030   4.968   0.726   6.375
21718TIP3    H165031   5.052   0.681   6.377
21718TIP3    H265032   4.923   0.697   6.455
21719TIP3   OH265033   6.695   5.916   4.775
21719TIP3    H165034   6.635   5.882   4.841
21719TIP3    H265035   6.782   5.893   4.807
21720TIP3   OH265036   0.617   8.816   3.415
21720TIP3    H165037   0.546   8.795   3.476
21720TIP3    H265038   0.606   8.755   3.343
21721TIP3   OH265039   9.459   3.676   1.192
21721TIP3    H165040   9.489   3.633   1.112
21721TIP3    H265041   9.465   3.607   1.259
21722TIP3   OH265042   9.148   0.349   0.340
21722TIP3    H165043   9.062   0.384   0.316
21722TIP3    H265044   9.156   0.365   0.434
21723TIP3   OH265045   0.450   1.723   5.463
21723TIP3    H165046   0.500   1.711   5.382
21723TIP3    H265047   0.511   1.699   5.533
21724TIP3   OH265048   3.803   3.538   2.835
21724TIP3    H165049   3.862   3.550   2.761
21724TIP3    H265050   3.860   3.525   2.911
21725TIP3   OH265051   5.782   4.305   6.848
21725TIP3    H165052   5.734   4.288   6.930
21725TIP3    H265053   5.730   4.371   6.803
21726TIP3   OH265054   2.954   6.635   0.359
21726TIP3    H165055   2.917   6.722   0.378
21726TIP3    H265056   3.011   6.650   0.283
21727TIP3   OH265057   4.667   2.384   5.342
21727TIP3    H165058   4.665   2.447   5.270
21727TIP3    H265059   4.715   2.309   5.307
21728TIP3   OH265060   2.271   6.462   1.885
21728TIP3    H165061   2.186   6.505   1.891
21728TIP3    H265062   2.263   6.384   1.939
21729TIP3   OH265063   4.610   0.934   2.359
21729TIP3    H165064   4.549   0.895   2.421
21729TIP3    H265065   4.663   0.860   2.327
21730TIP3   OH265066   6.234   4.256   0.784
21730TIP3    H165067   6.164   4.289   0.841
21730TIP3    H265068   6.190   4.201   0.720
21731TIP3   OH265069   0.180   2.183   3.811
21731TIP3    H165070   0.272   2.155   3.812
21731TIP3    H265071   0.175   2.252   3.877
21732TIP3   OH265072   3.501   0.378   5.154
21732TIP3    H165073   3.584   0.418   5.128
21732TIP3    H265074   3.490   0.402   5.246
21733TIP3   OH265075   6.724   6.146   1.158
21733TIP3    H165076   6.704   6.208   1.088
21733TIP3    H265077   6.785   6.193   1.215
21734TIP3   OH265078   0.673   6.172   4.460
21734TIP3    H165079   0.586   6.206   4.484
21734TIP3    H265080   0.691   6.104   4.526
21735TIP3   OH265081   3.234   3.744   2.365
21735TIP3    H165082   3.202   3.655   2.382
21735TIP3    H265083   3.305   3.733   2.302
21736TIP3   OH265084   8.196   3.893   6.037
21736TIP3    H165085   8.218   3.961   5.973
21736TIP3    H265086   8.277   3.842   6.046
21737TIP3   OH265087   7.900   6.672   4.619
21737TIP3    H165088   7.870   6.763   4.614
21737TIP3    H265089   7.930   6.652   4.530
21738TIP3   OH265090   8.259   1.093   5.384
21738TIP3    H165091   8.347   1.125   5.401
21738TIP3    H265092   8.243   1.029   5.453
21739TIP3   OH265093   0.003   0.228   6.387
21739TIP3    H165094   0.022   0.321   6.396
21739TIP3    H265095   0.046   0.187   6.462
21740TIP3   OH265096   3.837   7.925   7.290
21740TIP3    H165097   3.856   7.834   7.266
21740TIP3    H265098   3.869   7.977   7.216
21741TIP3   OH265099   3.127   1.704   5.172
21741TIP3    H165100   3.113   1.612   5.150
21741TIP3    H265101   3.045   1.747   5.149
21742TIP3   OH265102   5.501   8.657   1.900
21742TIP3    H165103   5.576   8.615   1.859
21742TIP3    H265104   5.538   8.729   1.952
21743TIP3   OH265105   1.518   5.030   0.597
21743TIP3    H165106   1.505   4.955   0.539
21743TIP3    H265107   1.536   4.991   0.683
21744TIP3   OH265108   3.485   4.593   3.184
21744TIP3    H165109   3.481   4.497   3.185
21744TIP3    H265110   3.397   4.620   3.159
21745TIP3   OH265111   4.599   0.234   3.317
21745TIP3    H165112   4.540   0.170   3.355
21745TIP3    H265113   4.664   0.182   3.269
21746TIP3   OH265114   5.417   8.776   3.946
21746TIP3    H165115   5.427   8.824   4.028
21746TIP3    H265116   5.480   8.817   3.887
21747TIP3   OH265117   7.347   0.027   6.414
21747TIP3    H165118   7.251   0.027   6.419
21747TIP3    H265119   7.369   0.110   6.371
21748TIP3   OH265120   8.418   3.387   3.048
21748TIP3    H165121   8.485   3.412   2.984
21748TIP3    H265122   8.460   3.403   3.133
21749TIP3   OH265123   1.738   0.659   5.869
21749TIP3    H165124   1.649   0.679   5.842
21749TIP3    H265125   1.744   0.691   5.959
21750TIP3   OH265126   6.056   7.587   1.348
21750TIP3    H165127   6.015   7.512   1.304
21750TIP3    H265128   6.015   7.590   1.434
21751TIP3   OH265129   4.567   4.742   1.207
21751TIP3    H165130   4.656   4.722   1.178
21751TIP3    H265131   4.574   4.829   1.248
21752TIP3   OH265132   2.008   0.886   6.126
21752TIP3    H165133   2.092   0.904   6.084
21752TIP3    H265134   2.019   0.917   6.216
21753TIP3   OH265135   8.935   6.372   4.987
21753TIP3    H165136   8.891   6.333   5.062
21753TIP3    H265137   8.898   6.325   4.911
21754TIP3   OH265138   6.449   7.634   7.712
21754TIP3    H165139   6.449   7.725   7.681
21754TIP3    H265140   6.539   7.604   7.699
21755TIP3   OH265141   4.002   2.220   7.561
21755TIP3    H165142   3.965   2.309   7.563
21755TIP3    H265143   4.094   2.234   7.540
21756TIP3   OH265144   4.989   2.525   5.105
21756TIP3    H165145   5.040   2.606   5.097
21756TIP3    H265146   4.940   2.520   5.023
21757TIP3   OH265147   9.193   0.783   4.734
21757TIP3    H165148   9.257   0.723   4.772
21757TIP3    H265149   9.147   0.820   4.810
21758TIP3   OH265150   0.851   0.940   1.323
21758TIP3    H165151   0.803   0.884   1.262
21758TIP3    H265152   0.812   1.026   1.313
21759TIP3   OH265153   7.124   8.682   6.911
21759TIP3    H165154   7.210   8.673   6.870
21759TIP3    H265155   7.064   8.695   6.838
21760TIP3   OH265156   1.581   6.668   3.820
21760TIP3    H165157   1.526   6.747   3.826
21760TIP3    H265158   1.665   6.700   3.788
21761TIP3   OH265159   3.546   1.499   3.145
21761TIP3    H165160   3.585   1.420   3.181
21761TIP3    H265161   3.620   1.559   3.134
21762TIP3   OH265162   4.481   1.893   7.267
21762TIP3    H165163   4.443   1.938   7.191
21762TIP3    H265164   4.470   1.955   7.339
21763TIP3   OH265165   7.017   1.703   7.616
21763TIP3    H165166   7.040   1.665   7.700
21763TIP3    H265167   6.921   1.708   7.617
21764TIP3   OH265168   7.393   6.854   0.805
21764TIP3    H165169   7.472   6.857   0.750
21764TIP3    H265170   7.426   6.836   0.893
21765TIP3   OH265171   4.404   2.781   6.050
21765TIP3    H165172   4.498   2.800   6.050
21765TIP3    H265173   4.396   2.699   6.098
21766TIP3   OH265174   6.770   8.391   7.169
21766TIP3    H165175   6.816   8.338   7.233
21766TIP3    H265176   6.805   8.479   7.182
21767TIP3   OH265177   8.465   7.200   3.495
21767TIP3    H165178   8.484   7.243   3.412
21767TIP3    H265179   8.546   7.153   3.517
21768TIP3   OH265180   8.844   4.060   3.194
21768TIP3    H165181   8.792   4.128   3.236
21768TIP3    H265182   8.833   3.983   3.250
21769TIP3   OH265183   1.771   5.339   6.563
21769TIP3    H165184   1.704   5.279   6.529
21769TIP3    H265185   1.777   5.317   6.656
21770TIP3   OH265186   4.834   6.352   6.636
21770TIP3    H165187   4.928   6.365   6.619
21770TIP3    H265188   4.793   6.360   6.550
21771TIP3   OH265189   6.998   7.368   1.814
21771TIP3    H165190   7.052   7.402   1.742
21771TIP3    H265191   7.060   7.351   1.885
21772TIP3   OH265192   1.872   8.160   6.857
21772TIP3    H165193   1.790   8.112   6.846
21772TIP3    H265194   1.864   8.235   6.799
21773TIP3   OH265195   5.920   7.385   5.712
21773TIP3    H165196   5.981   7.458   5.709
21773TIP3    H265197   5.976   7.308   5.724
21774TIP3   OH265198   4.879   1.998   7.088
21774TIP3    H165199   4.816   1.934   7.123
21774TIP3    H265200   4.892   2.060   7.160
21775TIP3   OH265201   5.257   2.849   5.426
21775TIP3    H165202   5.348   2.878   5.432
21775TIP3    H265203   5.223   2.860   5.515
21776TIP3   OH265204   7.450   0.317   3.169
21776TIP3    H165205   7.532   0.323   3.120
21776TIP3    H265206   7.384   0.299   3.102
21777TIP3   OH265207   4.120   3.169   4.012
21777TIP3    H165208   4.062   3.165   4.088
21777TIP3    H265209   4.154   3.259   4.013
21778TIP3   OH265210   6.983   5.246   1.510
21778TIP3    H165211   7.065   5.278   1.474
21778TIP3    H265212   6.998   5.152   1.526
21779TIP3   OH265213   2.768   3.845   7.327
21779TIP3    H165214   2.701   3.793   7.283
21779TIP3    H265215   2.784   3.799   7.409
21780TIP3   OH265216   0.672   8.321   6.004
21780TIP3    H165217   0.589   8.298   6.045
21780TIP3    H265218   0.660   8.410   5.973
21781TIP3   OH265219   1.555   3.053   3.171
21781TIP3    H165220   1.495   3.055   3.245
21781TIP3    H265221   1.579   3.145   3.157
21782TIP3   OH265222   2.471   7.061   3.530
21782TIP3    H165223   2.465   7.085   3.623
21782TIP3    H265224   2.398   7.000   3.517
21783TIP3   OH265225   7.439   8.406   7.585
21783TIP3    H165226   7.385   8.398   7.664
21783TIP3    H265227   7.389   8.361   7.517
21784TIP3   OH265228   4.752   4.413   7.740
21784TIP3    H165229   4.787   4.420   7.829
21784TIP3    H265230   4.816   4.359   7.693
21785TIP3   OH265231   6.322   4.634   3.358
21785TIP3    H165232   6.285   4.580   3.288
21785TIP3    H265233   6.388   4.688   3.315
21786TIP3   OH265234   9.325   3.835   6.272
21786TIP3    H165235   9.258   3.901   6.260
21786TIP3    H265236   9.345   3.805   6.183
21787TIP3   OH265237   8.306   4.236   0.051
21787TIP3    H165238   8.251   4.286  -0.010
21787TIP3    H265239   8.281   4.270   0.137
21788TIP3   OH265240   7.370   1.272   2.169
21788TIP3    H165241   7.448   1.227   2.137
21788TIP3    H265242   7.314   1.280   2.092
21789TIP3   OH265243   7.011   1.611   3.544
21789TIP3    H165244   7.029   1.578   3.632
21789TIP3    H265245   7.046   1.544   3.486
21790TIP3   OH265246   1.187   3.141   3.020
21790TIP3    H165247   1.175   3.220   3.072
21790TIP3    H265248   1.200   3.173   2.931
21791TIP3   OH265249   6.960   2.232   4.312
21791TIP3    H165250   6.911   2.173   4.255
21791TIP3    H265251   6.899   2.303   4.330
21792TIP3   OH265252   3.894   6.936   7.122
21792TIP3    H165253   3.970   6.923   7.179
21792TIP3    H265254   3.912   6.882   7.045
21793TIP3   OH265255   7.365   8.297   4.204
21793TIP3    H165256   7.278   8.336   4.194
21793TIP3    H265257   7.347   8.207   4.232
21794TIP3   OH265258   1.709   2.322   6.743
21794TIP3    H165259   1.711   2.238   6.789
21794TIP3    H265260   1.719   2.299   6.651
21795TIP3   OH265261   2.238   8.244   4.160
21795TIP3    H165262   2.275   8.297   4.089
21795TIP3    H265263   2.297   8.169   4.167
21796TIP3   OH265264   0.974   0.172   1.109
21796TIP3    H165265   1.019   0.112   1.049
21796TIP3    H265266   0.886   0.136   1.119
21797TIP3   OH265267   0.927   0.614   4.330
21797TIP3    H165268   0.919   0.630   4.236
21797TIP3    H265269   0.965   0.694   4.366
21798TIP3   OH265270   4.193   3.696   0.511
21798TIP3    H165271   4.164   3.660   0.427
21798TIP3    H265272   4.215   3.788   0.492
21799TIP3   OH265273   3.556   7.548   2.268
21799TIP3    H165274   3.625   7.566   2.332
21799TIP3    H265275   3.560   7.623   2.208
21800TIP3   OH265276   1.628   0.256   3.771
21800TIP3    H165277   1.545   0.286   3.807
21800TIP3    H265278   1.612   0.166   3.744
21801TIP3   OH265279   6.187   5.305   7.404
21801TIP3    H165280   6.233   5.378   7.363
21801TIP3    H265281   6.159   5.339   7.489
21802TIP3   OH265282   0.115   2.876   6.092
21802TIP3    H165283   0.075   2.869   6.006
21802TIP3    H265284   0.153   2.790   6.108
21803TIP3   OH265285   1.257   4.642   3.903
21803TIP3    H165286   1.207   4.675   3.977
21803TIP3    H265287   1.288   4.556   3.932
21804TIP3   OH265288   8.041   8.076   6.855
21804TIP3    H165289   8.060   8.122   6.774
21804TIP3    H265290   7.989   8.000   6.829
21805TIP3   OH265291   2.285   7.587   6.084
21805TIP3    H165292   2.240   7.634   6.014
21805TIP3    H265293   2.350   7.533   6.039
21806TIP3   OH265294   9.501   4.217   7.325
21806TIP3    H165295   9.490   4.142   7.383
21806TIP3    H265296   9.412   4.248   7.307
21807TIP3   OH265297   2.425   5.048   6.818
21807TIP3    H165298   2.435   5.022   6.727
21807TIP3    H265299   2.340   5.013   6.844
21808TIP3   OH265300   6.478   7.769   5.895
21808TIP3    H165301   6.551   7.805   5.946
21808TIP3    H265302   6.437   7.846   5.856
21809TIP3   OH265303   8.654   8.608   5.926
21809TIP3    H165304   8.584   8.633   5.866
21809TIP3    H265305   8.632   8.651   6.008
21810TIP3   OH265306   0.510   0.292   3.851
21810TIP3    H165307   0.536   0.310   3.941
21810TIP3    H265308   0.440   0.354   3.834
21811TIP3   OH265309   4.361   7.913   1.083
21811TIP3    H165310   4.387   7.905   0.992
21811TIP3    H265311   4.271   7.946   1.080
21812TIP3   OH265312   3.969   2.905   6.137
21812TIP3    H165313   4.035   2.891   6.205
21812TIP3    H265314   3.887   2.876   6.177
21813TIP3   OH265315   3.133   3.696   1.989
21813TIP3    H165316   3.170   3.785   1.988
21813TIP3    H265317   3.198   3.642   1.946
21814TIP3   OH265318   3.925   7.388   1.712
21814TIP3    H165319   3.911   7.296   1.734
21814TIP3    H265320   3.840   7.418   1.681
21815TIP3   OH265321   8.789   8.098   7.027
21815TIP3    H165322   8.752   8.103   6.939
21815TIP3    H265323   8.874   8.055   7.016
21816TIP3   OH265324   0.663   1.148   6.675
21816TIP3    H165325   0.599   1.155   6.603
21816TIP3    H265326   0.684   1.239   6.696
21817TIP3   OH265327   2.681   3.318   4.184
21817TIP3    H165328   2.624   3.392   4.163
21817TIP3    H265329   2.769   3.346   4.160
21818TIP3   OH265330   7.959   3.686   0.335
21818TIP3    H165331   7.913   3.744   0.396
21818TIP3    H265332   7.891   3.626   0.304
21819TIP3   OH265333   3.416   3.890   5.041
21819TIP3    H165334   3.425   3.796   5.060
21819TIP3    H265335   3.330   3.897   4.999
21820TIP3   OH265336   2.702   0.562   6.866
21820TIP3    H165337   2.788   0.604   6.864
21820TIP3    H265338   2.720   0.469   6.883
21821TIP3   OH265339   4.102   5.982   2.727
21821TIP3    H165340   4.030   5.942   2.679
21821TIP3    H265341   4.158   6.021   2.660
21822TIP3   OH265342   1.411   0.883   6.010
21822TIP3    H165343   1.393   0.970   5.977
21822TIP3    H265344   1.498   0.890   6.050
21823TIP3   OH265345   4.203   2.476   0.703
21823TIP3    H165346   4.172   2.548   0.649
21823TIP3    H265347   4.198   2.399   0.646
21824TIP3   OH265348   7.182   7.297   3.549
21824TIP3    H165349   7.140   7.286   3.634
21824TIP3    H265350   7.144   7.228   3.494
21825TIP3   OH265351   3.726   0.482   7.738
21825TIP3    H165352   3.684   0.489   7.653
21825TIP3    H265353   3.686   0.405   7.779
21826TIP3   OH265354   5.012   7.429   3.332
21826TIP3    H165355   5.074   7.445   3.261
21826TIP3    H265356   4.975   7.343   3.313
21827TIP3   OH265357   5.359   7.402   4.097
21827TIP3    H165358   5.413   7.352   4.158
21827TIP3    H265359   5.401   7.488   4.094
21828TIP3   OH265360   3.890   4.602   1.566
21828TIP3    H165361   3.945   4.674   1.534
21828TIP3    H265362   3.910   4.597   1.660
21829TIP3   OH265363   2.425   3.437   7.162
21829TIP3    H165364   2.411   3.346   7.135
21829TIP3    H265365   2.452   3.431   7.254
21830TIP3   OH265366   3.722   0.336   4.806
21830TIP3    H165367   3.662   0.348   4.879
21830TIP3    H265368   3.665   0.327   4.729
21831TIP3   OH265369   5.457   3.935   7.803
21831TIP3    H165370   5.389   3.895   7.856
21831TIP3    H265371   5.423   3.931   7.713
21832TIP3   OH265372   6.525   6.847   6.641
21832TIP3    H165373   6.541   6.889   6.725
21832TIP3    H265374   6.436   6.873   6.617
21833TIP3   OH265375   6.540   5.651   7.534
21833TIP3    H165376   6.464   5.649   7.592
21833TIP3    H265377   6.569   5.742   7.535
21834TIP3   OH265378   7.721   3.714   2.455
21834TIP3    H165379   7.719   3.783   2.522
21834TIP3    H265380   7.705   3.633   2.503
21835TIP3   OH265381   4.525   3.785   7.255
21835TIP3    H165382   4.545   3.696   7.284
21835TIP3    H265383   4.432   3.783   7.234
21836TIP3   OH265384   7.592   5.738   1.770
21836TIP3    H165385   7.686   5.743   1.788
21836TIP3    H265386   7.584   5.668   1.706
21837TIP3   OH265387   7.888   1.630   2.309
21837TIP3    H165388   7.945   1.583   2.371
21837TIP3    H265389   7.938   1.631   2.228
21838TIP3   OH265390   3.967   4.118   5.497
21838TIP3    H165391   3.954   4.024   5.503
21838TIP3    H265392   4.057   4.128   5.467
21839TIP3   OH265393   7.430   2.860   2.978
21839TIP3    H165394   7.383   2.906   3.048
21839TIP3    H265395   7.507   2.823   3.021
21840TIP3   OH265396   0.520   3.115   4.225
21840TIP3    H165397   0.565   3.042   4.266
21840TIP3    H265398   0.503   3.086   4.135
21841TIP3   OH265399   0.947   2.094   7.654
21841TIP3    H165400   0.863   2.049   7.666
21841TIP3    H265401   0.924   2.187   7.647
21842TIP3   OH265402   6.907   0.030   3.673
21842TIP3    H165403   6.826   0.024   3.725
21842TIP3    H265404   6.880   0.006   3.585
21843TIP3   OH265405   9.572   4.958   6.515
21843TIP3    H165406   9.492   4.905   6.508
21843TIP3    H265407   9.572   5.011   6.435
21844TIP3   OH265408   0.944   3.638   5.576
21844TIP3    H165409   0.867   3.693   5.594
21844TIP3    H265410   1.004   3.657   5.648
21845TIP3   OH265411   2.038   0.978   6.389
21845TIP3    H165412   2.084   0.896   6.406
21845TIP3    H265413   2.015   1.011   6.475
21846TIP3   OH265414   1.844   5.461   2.730
21846TIP3    H165415   1.817   5.501   2.812
21846TIP3    H265416   1.763   5.451   2.680
21847TIP3   OH265417   5.495   8.006   6.108
21847TIP3    H165418   5.419   8.036   6.157
21847TIP3    H265419   5.556   7.975   6.176
21848TIP3   OH265420   0.102   8.131   1.810
21848TIP3    H165421   0.066   8.204   1.860
21848TIP3    H265422   0.165   8.172   1.751
21849TIP3   OH265423   4.303   7.786   5.059
21849TIP3    H165424   4.323   7.694   5.080
21849TIP3    H265425   4.216   7.783   5.019
21850TIP3   OH265426   7.239   0.613   6.829
21850TIP3    H165427   7.231   0.698   6.873
21850TIP3    H265428   7.227   0.549   6.899
21851TIP3   OH265429   7.932   1.609   5.665
21851TIP3    H165430   7.949   1.546   5.595
21851TIP3    H265431   7.957   1.563   5.745
21852TIP3   OH265432   1.696   0.434   7.324
21852TIP3    H165433   1.751   0.356   7.315
21852TIP3    H265434   1.719   0.469   7.411
21853TIP3   OH265435   7.633   8.998   3.765
21853TIP3    H165436   7.554   8.946   3.747
21853TIP3    H265437   7.608   9.055   3.838
21854TIP3   OH265438   6.545   3.472   1.715
21854TIP3    H165439   6.632   3.499   1.683
21854TIP3    H265440   6.531   3.386   1.674
21855TIP3   OH265441   1.996   7.814   4.991
21855TIP3    H165442   1.994   7.830   4.897
21855TIP3    H265443   1.967   7.723   5.000
21856TIP3   OH265444   9.507   8.323   2.605
21856TIP3    H165445   9.509   8.330   2.701
21856TIP3    H265446   9.497   8.230   2.588
21857TIP3   OH265447   3.154   2.607   0.544
21857TIP3    H165448   3.060   2.607   0.565
21857TIP3    H265449   3.170   2.520   0.507
21858TIP3   OH265450   8.627   1.508   7.107
21858TIP3    H165451   8.622   1.433   7.167
21858TIP3    H265452   8.600   1.472   7.022
21859TIP3   OH265453   8.622   1.740   5.025
21859TIP3    H165454   8.653   1.787   4.948
21859TIP3    H265455   8.585   1.659   4.991
21860TIP3   OH265456   1.901   0.816   3.175
21860TIP3    H165457   1.815   0.838   3.211
21860TIP3    H265458   1.890   0.728   3.138
21861TIP3   OH265459   3.584   4.618   0.559
21861TIP3    H165460   3.574   4.712   0.569
21861TIP3    H265461   3.644   4.607   0.485
21862TIP3   OH265462   3.075   6.920   4.828
21862TIP3    H165463   3.015   6.890   4.896
21862TIP3    H265464   3.091   6.843   4.774
21863TIP3   OH265465   4.407   3.276   6.373
21863TIP3    H165466   4.323   3.315   6.396
21863TIP3    H265467   4.437   3.325   6.297
21864TIP3   OH265468   8.195   8.770   2.307
21864TIP3    H165469   8.146   8.850   2.327
21864TIP3    H265470   8.188   8.717   2.387
21865TIP3   OH265471   3.931   8.808   4.887
21865TIP3    H165472   3.916   8.713   4.887
21865TIP3    H265473   4.025   8.817   4.871
21866TIP3   OH265474   6.256   2.313   2.674
21866TIP3    H165475   6.343   2.289   2.643
21866TIP3    H265476   6.206   2.329   2.594
21867TIP3   OH265477   1.707   0.757   0.713
21867TIP3    H165478   1.793   0.796   0.726
21867TIP3    H265479   1.645   0.826   0.736
21868TIP3   OH265480   2.791   2.763   2.084
21868TIP3    H165481   2.798   2.858   2.080
21868TIP3    H265482   2.701   2.744   2.060
21869TIP3   OH265483   8.791   7.956   3.508
21869TIP3    H165484   8.732   7.911   3.569
21869TIP3    H265485   8.863   7.895   3.495
21870TIP3   OH265486   1.834   8.341   1.908
21870TIP3    H165487   1.867   8.417   1.956
21870TIP3    H265488   1.883   8.341   1.826
21871TIP3   OH265489   5.746   1.955   0.635
21871TIP3    H165490   5.809   2.011   0.680
21871TIP3    H265491   5.660   1.988   0.663
21872TIP3   OH265492   1.316   5.659   7.152
21872TIP3    H165493   1.411   5.673   7.158
21872TIP3    H265494   1.299   5.586   7.211
21873TIP3   OH265495   2.306   1.867   0.241
21873TIP3    H165496   2.385   1.855   0.188
21873TIP3    H265497   2.272   1.778   0.254
21874TIP3   OH265498   0.423   1.180   2.342
21874TIP3    H165499   0.416   1.087   2.363
21874TIP3    H265500   0.348   1.198   2.285
21875TIP3   OH265501   9.495   4.278   0.452
21875TIP3    H165502   9.521   4.226   0.528
21875TIP3    H265503   9.426   4.226   0.410
21876TIP3   OH265504   8.520   6.560   5.681
21876TIP3    H165505   8.437   6.514   5.671
21876TIP3    H265506   8.554   6.568   5.592
21877TIP3   OH265507   2.465   2.730   4.720
21877TIP3    H165508   2.489   2.662   4.783
21877TIP3    H265509   2.431   2.682   4.644
21878TIP3   OH265510   4.516   8.631   3.923
21878TIP3    H165511   4.436   8.583   3.941
21878TIP3    H265512   4.491   8.724   3.931
21879TIP3   OH265513   7.344   6.731   3.113
21879TIP3    H165514   7.377   6.668   3.048
21879TIP3    H265515   7.255   6.750   3.084
21880TIP3   OH265516   2.578   0.619   4.346
21880TIP3    H165517   2.525   0.698   4.335
21880TIP3    H265518   2.663   0.642   4.308
21881TIP3   OH265519   5.532   7.010   0.753
21881TIP3    H165520   5.543   6.927   0.706
21881TIP3    H265521   5.486   6.985   0.833
21882TIP3   OH265522   5.002   7.413   1.558
21882TIP3    H165523   5.002   7.471   1.635
21882TIP3    H265524   4.926   7.441   1.508
21883TIP3   OH265525   6.162   4.692   2.037
21883TIP3    H165526   6.089   4.713   1.979
21883TIP3    H265527   6.215   4.629   1.988
21884TIP3   OH265528   3.737   7.553   6.039
21884TIP3    H165529   3.792   7.476   6.052
21884TIP3    H265530   3.648   7.522   6.057
21885TIP3   OH265531   5.572   1.254   5.775
21885TIP3    H165532   5.632   1.328   5.770
21885TIP3    H265533   5.501   1.285   5.831
21886TIP3   OH265534   7.623   5.600   1.303
21886TIP3    H165535   7.605   5.531   1.239
21886TIP3    H265536   7.644   5.677   1.250
21887TIP3   OH265537   2.423   8.792   1.595
21887TIP3    H165538   2.346   8.849   1.585
21887TIP3    H265539   2.498   8.851   1.592
21888TIP3   OH265540   5.155   4.731   4.810
21888TIP3    H165541   5.083   4.677   4.777
21888TIP3    H265542   5.123   4.821   4.801
21889TIP3   OH265543   0.645   8.165   3.647
21889TIP3    H165544   0.632   8.258   3.630
21889TIP3    H265545   0.726   8.143   3.601
21890TIP3   OH265546   1.613   7.970   6.880
21890TIP3    H165547   1.642   7.951   6.790
21890TIP3    H265548   1.636   7.892   6.929
21891TIP3   OH265549   4.648   5.761   1.083
21891TIP3    H165550   4.678   5.728   1.168
21891TIP3    H265551   4.695   5.708   1.019
21892TIP3   OH265552   7.607   8.987   7.121
21892TIP3    H165553   7.540   8.964   7.185
21892TIP3    H265554   7.674   9.033   7.171
21893TIP3   OH265555   7.979   2.519   6.345
21893TIP3    H165556   8.059   2.529   6.397
21893TIP3    H265557   7.976   2.425   6.324
21894TIP3   OH265558   7.264   2.760   2.786
21894TIP3    H165559   7.348   2.784   2.826
21894TIP3    H265560   7.198   2.803   2.840
21895TIP3   OH265561   0.097   3.590   2.211
21895TIP3    H165562   0.063   3.551   2.292
21895TIP3    H265563   0.172   3.535   2.188
21896TIP3   OH265564   8.475   0.804   3.564
21896TIP3    H165565   8.449   0.895   3.546
21896TIP3    H265566   8.502   0.804   3.655
21897TIP3   OH265567   7.278   6.092   7.380
21897TIP3    H165568   7.363   6.055   7.355
21897TIP3    H265569   7.277   6.178   7.338
21898TIP3   OH265570   2.196   0.294   3.182
21898TIP3    H165571   2.279   0.310   3.137
21898TIP3    H265572   2.129   0.316   3.117
21899TIP3   OH265573   9.179   3.443   1.784
21899TIP3    H165574   9.207   3.365   1.830
21899TIP3    H265575   9.239   3.512   1.813
21900TIP3   OH265576   9.524   6.591   5.607
21900TIP3    H165577   9.530   6.658   5.539
21900TIP3    H265578   9.455   6.621   5.665
21901TIP3   OH265579   5.211   0.695   1.919
21901TIP3    H165580   5.222   0.695   2.014
21901TIP3    H265581   5.244   0.609   1.891
21902TIP3   OH265582   1.747   2.024   2.976
21902TIP3    H165583   1.702   2.109   2.979
21902TIP3    H265584   1.821   2.039   2.916
21903TIP3   OH265585   5.545   0.884   1.495
21903TIP3    H165586   5.559   0.805   1.547
21903TIP3    H265587   5.632   0.904   1.459
21904TIP3   OH265588   7.310   7.645   6.621
21904TIP3    H165589   7.333   7.697   6.544
21904TIP3    H265590   7.254   7.575   6.587
21905TIP3   OH265591   9.234   0.132   3.640
21905TIP3    H165592   9.322   0.170   3.633
21905TIP3    H265593   9.234   0.087   3.724
21906TIP3   OH265594   2.636   3.353   1.658
21906TIP3    H165595   2.650   3.359   1.563
21906TIP3    H265596   2.590   3.433   1.680
21907TIP3   OH265597   4.697   2.750   4.410
21907TIP3    H165598   4.621   2.799   4.442
21907TIP3    H265599   4.720   2.692   4.482
21908TIP3   OH265600   2.286   1.138   0.662
21908TIP3    H165601   2.291   1.105   0.751
21908TIP3    H265602   2.211   1.093   0.623
21909TIP3   OH265603   2.943   3.689   2.280
21909TIP3    H165604   3.027   3.674   2.322
21909TIP3    H265605   2.922   3.606   2.236
21910TIP3   OH265606   1.715   8.521   6.544
21910TIP3    H165607   1.682   8.449   6.598
21910TIP3    H265608   1.725   8.482   6.457
21911TIP3   OH265609   6.580   4.670   1.173
21911TIP3    H165610   6.496   4.716   1.174
21911TIP3    H265611   6.645   4.739   1.158
21912TIP3   OH265612   6.405   2.122   0.005
21912TIP3    H165613   6.381   2.139   0.096
21912TIP3    H265614   6.356   2.044  -0.019
21913TIP3   OH265615   7.454   5.323   7.148
21913TIP3    H165616   7.367   5.313   7.110
21913TIP3    H265617   7.462   5.248   7.207
21914TIP3   OH265618   5.284   6.427   3.617
21914TIP3    H165619   5.251   6.465   3.698
21914TIP3    H265620   5.255   6.488   3.549
21915TIP3   OH265621   6.558   8.982   0.704
21915TIP3    H165622   6.637   9.014   0.749
21915TIP3    H265623   6.527   9.057   0.655
21916TIP3   OH265624   8.921   2.076   4.766
21916TIP3    H165625   8.982   2.094   4.694
21916TIP3    H265626   8.957   1.999   4.809
21917TIP3   OH265627   7.971   6.236   0.202
21917TIP3    H165628   8.012   6.316   0.235
21917TIP3    H265629   8.038   6.168   0.213
21918TIP3   OH265630   9.065   2.264   5.615
21918TIP3    H165631   9.028   2.324   5.680
21918TIP3    H265632   9.044   2.177   5.647
21919TIP3   OH265633   5.834   0.488   4.482
21919TIP3    H165634   5.798   0.576   4.494
21919TIP3    H265635   5.912   0.501   4.429
21920TIP3   OH265636   8.639   5.099   5.411
21920TIP3    H165637   8.625   5.156   5.487
21920TIP3    H265638   8.671   5.158   5.342
21921TIP3   OH265639   8.149   3.235   6.726
21921TIP3    H165640   8.227   3.179   6.728
21921TIP3    H265641   8.148   3.270   6.637
21922TIP3   OH265642   9.521   0.598   1.520
21922TIP3    H165643   9.527   0.652   1.441
21922TIP3    H265644   9.587   0.531   1.508
21923TIP3   OH265645   5.161   4.072   1.643
21923TIP3    H165646   5.226   4.074   1.713
21923TIP3    H265647   5.214   4.069   1.563
21924TIP3   OH265648   1.548   4.953   7.463
21924TIP3    H165649   1.498   4.872   7.451
21924TIP3    H265650   1.562   4.985   7.374
21925TIP3   OH265651   7.633   7.135   7.062
21925TIP3    H165652   7.569   7.179   7.118
21925TIP3    H265653   7.582   7.070   7.013
21926TIP3   OH265654   6.889   8.193   4.768
21926TIP3    H165655   6.831   8.202   4.844
21926TIP3    H265656   6.967   8.245   4.791
21927TIP3   OH265657   4.204   7.014   4.341
21927TIP3    H165658   4.209   7.082   4.409
21927TIP3    H265659   4.112   6.988   4.339
21928TIP3   OH265660   5.450   2.856   4.953
21928TIP3    H165661   5.456   2.837   4.859
21928TIP3    H265662   5.532   2.901   4.973
21929TIP3   OH265663   7.357   3.432   3.937
21929TIP3    H165664   7.277   3.389   3.906
21929TIP3    H265665   7.428   3.375   3.905
21930TIP3   OH265666   7.434   8.851   7.370
21930TIP3    H165667   7.431   8.917   7.440
21930TIP3    H265668   7.356   8.798   7.385
21931TIP3   OH265669   5.181   3.483   0.999
21931TIP3    H165670   5.215   3.401   0.962
21931TIP3    H265671   5.198   3.474   1.093
21932TIP3   OH265672   8.790   8.030   6.572
21932TIP3    H165673   8.844   8.109   6.574
21932TIP3    H265674   8.757   8.026   6.482
21933TIP3   OH265675   1.247   2.201   3.545
21933TIP3    H165676   1.161   2.206   3.586
21933TIP3    H265677   1.309   2.219   3.616
21934TIP3   OH265678   3.220   4.550   4.677
21934TIP3    H165679   3.143   4.495   4.689
21934TIP3    H265680   3.238   4.586   4.763
21935TIP3   OH265681   7.821   7.658   3.637
21935TIP3    H165682   7.734   7.637   3.603
21935TIP3    H265683   7.817   7.751   3.659
21936TIP3   OH265684   9.332   5.334   6.634
21936TIP3    H165685   9.300   5.270   6.570
21936TIP3    H265686   9.327   5.289   6.718
21937TIP3   OH265687   6.536   1.747   3.554
21937TIP3    H165688   6.441   1.746   3.568
21937TIP3    H265689   6.563   1.835   3.578
21938TIP3   OH265690   0.310   4.970   1.164
21938TIP3    H165691   0.353   4.958   1.079
21938TIP3    H265692   0.308   5.065   1.176
21939TIP3   OH265693   3.451   3.840   4.241
21939TIP3    H165694   3.375   3.817   4.188
21939TIP3    H265695   3.458   3.935   4.233
21940TIP3   OH265696   8.009   1.017   1.106
21940TIP3    H165697   8.074   1.035   1.038
21940TIP3    H265698   8.036   1.072   1.180
21941TIP3   OH265699   1.999   4.753   3.166
21941TIP3    H165700   1.964   4.785   3.249
21941TIP3    H265701   1.935   4.688   3.137
21942TIP3   OH265702   4.739   4.683   5.729
21942TIP3    H165703   4.750   4.740   5.805
21942TIP3    H265704   4.685   4.734   5.668
21943TIP3   OH265705   4.815   5.510   7.444
21943TIP3    H165706   4.773   5.497   7.529
21943TIP3    H265707   4.878   5.581   7.459
21944TIP3   OH265708   8.267   7.417   2.671
21944TIP3    H165709   8.216   7.497   2.687
21944TIP3    H265710   8.251   7.363   2.748
21945TIP3   OH265711   7.672   1.776   2.628
21945TIP3    H165712   7.586   1.734   2.638
21945TIP3    H265713   7.681   1.830   2.707
21946TIP3   OH265714   1.932   1.344   5.607
21946TIP3    H165715   1.972   1.259   5.623
21946TIP3    H265716   1.981   1.381   5.534
21947TIP3   OH265717   2.200   8.294   2.892
21947TIP3    H165718   2.149   8.372   2.871
21947TIP3    H265719   2.238   8.266   2.809
21948TIP3   OH265720   4.044   3.816   1.931
21948TIP3    H165721   4.068   3.872   2.004
21948TIP3    H265722   4.013   3.876   1.863
21949TIP3   OH265723   9.137   6.175   6.835
21949TIP3    H165724   9.078   6.232   6.786
21949TIP3    H265725   9.078   6.115   6.883
21950TIP3   OH265726   2.401   8.794   7.754
21950TIP3    H165727   2.319   8.801   7.705
21950TIP3    H265728   2.391   8.715   7.807
21951TIP3   OH265729   6.128   8.213   4.951
21951TIP3    H165730   6.049   8.159   4.957
21951TIP3    H265731   6.122   8.253   4.864
21952TIP3   OH265732   8.119   9.027   4.076
21952TIP3    H165733   8.206   9.063   4.064
21952TIP3    H265734   8.124   8.939   4.037
21953TIP3   OH265735   1.764   3.249   7.713
21953TIP3    H165736   1.815   3.168   7.706
21953TIP3    H265737   1.780   3.295   7.631
21954TIP3   OH265738   3.907   1.897   7.059
21954TIP3    H165739   3.855   1.851   6.993
21954TIP3    H265740   3.873   1.986   7.058
21955TIP3   OH265741   5.087   2.720   2.931
21955TIP3    H165742   4.993   2.716   2.952
21955TIP3    H265743   5.122   2.639   2.968
21956TIP3   OH265744   2.218   7.697   7.751
21956TIP3    H165745   2.187   7.688   7.661
21956TIP3    H265746   2.173   7.774   7.785
21957TIP3   OH265747   6.050   4.752   4.443
21957TIP3    H165748   6.143   4.763   4.424
21957TIP3    H265749   6.041   4.659   4.465
21958TIP3   OH265750   8.451   1.695   4.125
21958TIP3    H165751   8.544   1.694   4.104
21958TIP3    H265752   8.421   1.781   4.099
21959TIP3   OH265753   4.187   4.739   2.776
21959TIP3    H165754   4.195   4.792   2.855
21959TIP3    H265755   4.270   4.752   2.730
21960TIP3   OH265756   7.913   1.315   3.502
21960TIP3    H165757   7.918   1.229   3.459
21960TIP3    H265758   7.917   1.378   3.430
21961TIP3   OH265759   2.364   0.578   0.904
21961TIP3    H165760   2.392   0.505   0.958
21961TIP3    H265761   2.283   0.547   0.862
21962TIP3   OH265762   2.946   7.127   2.578
21962TIP3    H165763   3.007   7.056   2.556
21962TIP3    H265764   2.962   7.194   2.512
21963TIP3   OH265765   7.197   2.089   3.083
21963TIP3    H165766   7.267   2.030   3.054
21963TIP3    H265767   7.243   2.162   3.124
21964TIP3   OH265768   7.928   0.366   7.099
21964TIP3    H165769   7.932   0.457   7.126
21964TIP3    H265770   7.970   0.317   7.170
21965TIP3   OH265771   2.129   5.327   1.747
21965TIP3    H165772   2.036   5.332   1.723
21965TIP3    H265773   2.132   5.259   1.814
21966TIP3   OH265774   5.676   6.840   7.411
21966TIP3    H165775   5.638   6.899   7.476
21966TIP3    H265776   5.756   6.808   7.452
21967TIP3   OH265777   1.245   8.860   0.187
21967TIP3    H165778   1.283   8.868   0.275
21967TIP3    H265779   1.173   8.923   0.186
21968TIP3   OH265780   3.780   0.964   0.064
21968TIP3    H165781   3.803   0.872   0.049
21968TIP3    H265782   3.687   0.969   0.039
21969TIP3   OH265783   6.128   0.379   0.458
21969TIP3    H165784   6.175   0.462   0.460
21969TIP3    H265785   6.049   0.394   0.509
21970TIP3   OH265786   8.661   2.844   3.962
21970TIP3    H165787   8.644   2.781   3.892
21970TIP3    H265788   8.717   2.911   3.921
21971TIP3   OH265789   5.625   7.425   0.965
21971TIP3    H165790   5.596   7.345   1.010
21971TIP3    H265791   5.720   7.415   0.959
21972TIP3   OH265792   8.455   3.208   4.936
21972TIP3    H165793   8.389   3.241   4.998
21972TIP3    H265794   8.536   3.250   4.962
21973TIP3   OH265795   3.476   7.962   5.386
21973TIP3    H165796   3.414   7.981   5.457
21973TIP3    H265797   3.514   7.877   5.410
21974TIP3   OH265798   7.888   3.777   0.633
21974TIP3    H165799   7.956   3.738   0.689
21974TIP3    H265800   7.875   3.864   0.670
21975TIP3   OH265801   7.879   0.715   2.331
21975TIP3    H165802   7.902   0.773   2.404
21975TIP3    H265803   7.931   0.636   2.346
21976TIP3   OH265804   4.121   3.744   4.252
21976TIP3    H165805   4.172   3.761   4.173
21976TIP3    H265806   4.148   3.812   4.314
21977TIP3   OH265807   0.902   2.804   3.423
21977TIP3    H165808   0.894   2.728   3.367
21977TIP3    H265809   0.945   2.870   3.368
21978TIP3   OH265810   1.640   1.925   6.472
21978TIP3    H165811   1.656   1.833   6.495
21978TIP3    H265812   1.714   1.949   6.417
21979TIP3   OH265813   2.567   2.891   1.868
21979TIP3    H165814   2.504   2.930   1.929
21979TIP3    H265815   2.646   2.944   1.877
21980TIP3   OH265816   5.333   4.846   5.022
21980TIP3    H165817   5.375   4.762   5.042
21980TIP3    H265818   5.240   4.826   5.019
21981TIP3   OH265819   6.255   2.442   4.466
21981TIP3    H165820   6.236   2.384   4.392
21981TIP3    H265821   6.229   2.529   4.435
21982TIP3   OH265822   5.639   7.424   0.671
21982TIP3    H165823   5.597   7.467   0.745
21982TIP3    H265824   5.641   7.492   0.603
21983TIP3   OH265825   1.706   5.129   0.130
21983TIP3    H165826   1.613   5.135   0.150
21983TIP3    H265827   1.709   5.098   0.039
21984TIP3   OH265828   0.574   6.148   7.536
21984TIP3    H165829   0.602   6.167   7.446
21984TIP3    H265830   0.589   6.054   7.546
21985TIP3   OH265831   7.360   3.271   4.481
21985TIP3    H165832   7.297   3.252   4.411
21985TIP3    H265833   7.441   3.229   4.452
21986TIP3   OH265834   3.313   8.631   4.107
21986TIP3    H165835   3.367   8.637   4.028
21986TIP3    H265836   3.224   8.621   4.073
21987TIP3   OH265837   1.712   0.990   4.470
21987TIP3    H165838   1.654   0.915   4.457
21987TIP3    H265839   1.698   1.015   4.562
21988TIP3   OH265840   1.985   9.022   2.993
21988TIP3    H165841   1.921   8.953   2.975
21988TIP3    H265842   2.069   8.976   2.996
21989TIP3   OH265843   5.948   0.485   5.922
21989TIP3    H165844   5.958   0.562   5.867
21989TIP3    H265845   5.975   0.412   5.867
21990TIP3   OH265846   5.325   5.537   2.899
21990TIP3    H165847   5.372   5.507   2.976
21990TIP3    H265848   5.393   5.570   2.840
21991TIP3   OH265849   8.628   7.636   7.051
21991TIP3    H165850   8.701   7.674   7.100
21991TIP3    H265851   8.589   7.572   7.110
21992TIP3   OH265852   9.363   2.723   1.505
21992TIP3    H165853   9.308   2.746   1.580
21992TIP3    H265854   9.441   2.683   1.544
21993TIP3   OH265855   6.136   6.842   3.458
21993TIP3    H165856   6.123   6.870   3.368
21993TIP3    H265857   6.063   6.782   3.475
21994TIP3   OH265858   9.323   4.898   6.356
21994TIP3    H165859   9.235   4.861   6.347
21994TIP3    H265860   9.360   4.894   6.268
21995TIP3   OH265861   2.381   6.304   3.866
21995TIP3    H165862   2.368   6.225   3.919
21995TIP3    H265863   2.293   6.336   3.848
21996TIP3   OH265864   3.055   3.056   0.472
21996TIP3    H165865   2.997   3.014   0.535
21996TIP3    H265866   3.139   3.010   0.481
21997TIP3   OH265867   8.018   0.452   6.422
21997TIP3    H165868   8.035   0.488   6.509
21997TIP3    H265869   7.937   0.493   6.394
21998TIP3   OH265870   0.234   8.162   0.004
21998TIP3    H165871   0.252   8.239   0.059
21998TIP3    H265872   0.183   8.197  -0.070
21999TIP3   OH265873   7.497   7.474   0.413
21999TIP3    H165874   7.553   7.546   0.443
21999TIP3    H265875   7.445   7.512   0.343
22000TIP3   OH265876   2.794   8.802   1.649
22000TIP3    H165877   2.740   8.792   1.727
22000TIP3    H265878   2.741   8.857   1.591
22001TIP3   OH265879   8.051   5.808   0.820
22001TIP3    H165880   8.095   5.724   0.837
22001TIP3    H265881   8.122   5.871   0.812
22002TIP3   OH265882   7.093   4.719   5.304
22002TIP3    H165883   7.007   4.737   5.342
22002TIP3    H265884   7.152   4.715   5.380
22003TIP3   OH265885   3.564   5.165   4.892
22003TIP3    H165886   3.648   5.141   4.853
22003TIP3    H265887   3.544   5.093   4.951
22004TIP3   OH265888   1.107   3.348   0.058
22004TIP3    H165889   1.144   3.259   0.061
22004TIP3    H265890   1.045   3.345  -0.014
22005TIP3   OH265891   6.854   1.534   6.495
22005TIP3    H165892   6.870   1.540   6.401
22005TIP3    H265893   6.863   1.440   6.515
22006TIP3   OH265894   1.741   4.742   5.358
22006TIP3    H165895   1.652   4.707   5.357
22006TIP3    H265896   1.755   4.777   5.270
22007TIP3   OH265897   4.130   2.809   4.074
22007TIP3    H165898   4.174   2.738   4.120
22007TIP3    H265899   4.143   2.885   4.130
22008TIP3   OH265900   0.757   3.236   0.312
22008TIP3    H165901   0.675   3.204   0.348
22008TIP3    H265902   0.734   3.318   0.268
22009TIP3   OH265903   8.234   5.198   1.998
22009TIP3    H165904   8.185   5.224   2.077
22009TIP3    H265905   8.192   5.247   1.927
22010TIP3   OH265906   2.377   2.842   5.147
22010TIP3    H165907   2.288   2.871   5.130
22010TIP3    H265908   2.370   2.784   5.223
22011TIP3   OH265909   1.389   6.591   2.324
22011TIP3    H165910   1.434   6.536   2.388
22011TIP3    H265911   1.321   6.535   2.287
22012TIP3   OH265912   9.040   1.516   6.661
22012TIP3    H165913   9.055   1.484   6.572
22012TIP3    H265914   9.078   1.448   6.717
22013TIP3   OH265915   1.278   0.761   1.394
22013TIP3    H165916   1.279   0.823   1.466
22013TIP3    H265917   1.189   0.765   1.360
22014TIP3   OH265918   3.043   6.434   4.380
22014TIP3    H165919   2.996   6.352   4.370
22014TIP3    H265920   3.000   6.478   4.453
22015TIP3   OH265921   8.172   5.447   4.197
22015TIP3    H165922   8.151   5.539   4.178
22015TIP3    H265923   8.119   5.397   4.135
22016TIP3   OH265924   4.234   3.011   1.776
22016TIP3    H165925   4.285   3.020   1.857
22016TIP3    H265926   4.273   3.075   1.716
22017TIP3   OH265927   9.432   8.136   6.213
22017TIP3    H165928   9.526   8.153   6.217
22017TIP3    H265929   9.424   8.044   6.187
22018TIP3   OH265930   7.179   3.702   2.213
22018TIP3    H165931   7.098   3.661   2.184
22018TIP3    H265932   7.204   3.760   2.141
22019TIP3   OH265933   7.616   6.106   6.292
22019TIP3    H165934   7.618   6.188   6.341
22019TIP3    H265935   7.534   6.064   6.318
22020TIP3   OH265936   3.024   1.115   5.301
22020TIP3    H165937   2.992   1.051   5.238
22020TIP3    H265938   3.090   1.165   5.254
22021TIP3   OH265939   5.968   2.431   3.469
22021TIP3    H165940   6.010   2.493   3.530
22021TIP3    H265941   5.878   2.423   3.501
22022TIP3   OH265942   2.264   7.438   1.842
22022TIP3    H165943   2.279   7.410   1.752
22022TIP3    H265944   2.350   7.432   1.884
22023TIP3   OH265945   1.660   4.565   5.065
22023TIP3    H165946   1.642   4.573   5.159
22023TIP3    H265947   1.683   4.654   5.037
22024TIP3   OH265948   4.180   4.696   1.532
22024TIP3    H165949   4.192   4.755   1.607
22024TIP3    H265950   4.183   4.754   1.456
22025TIP3   OH265951   1.662   4.481   2.495
22025TIP3    H165952   1.675   4.401   2.444
22025TIP3    H265953   1.572   4.508   2.476
22026TIP3   OH265954   5.388   0.524   2.748
22026TIP3    H165955   5.368   0.480   2.830
22026TIP3    H265956   5.482   0.508   2.734
22027TIP3   OH265957   5.213   0.529   4.768
22027TIP3    H165958   5.144   0.515   4.833
22027TIP3    H265959   5.230   0.624   4.773
22028TIP3   OH265960   2.495   5.924   3.080
22028TIP3    H165961   2.405   5.929   3.111
22028TIP3    H265962   2.515   5.831   3.078
22029TIP3   OH265963   2.753   2.663   5.226
22029TIP3    H165964   2.704   2.674   5.307
22029TIP3    H265965   2.838   2.702   5.243
22030TIP3   OH265966   4.880   6.072   6.049
22030TIP3    H165967   4.924   6.043   5.969
22030TIP3    H265968   4.787   6.070   6.027
22031TIP3   OH265969   2.583   8.220   1.295
22031TIP3    H165970   2.578   8.301   1.347
22031TIP3    H265971   2.677   8.201   1.291
22032TIP3   OH265972   9.339   2.968   5.094
22032TIP3    H165973   9.288   2.977   5.013
22032TIP3    H265974   9.423   3.009   5.074
22033TIP3   OH265975   1.464   6.270   5.633
22033TIP3    H165976   1.473   6.270   5.729
22033TIP3    H265977   1.498   6.355   5.606
22034TIP3   OH265978   3.642   1.469   2.399
22034TIP3    H165979   3.647   1.438   2.308
22034TIP3    H265980   3.699   1.409   2.448
22035TIP3   OH265981   2.937   2.177   7.455
22035TIP3    H165982   2.957   2.259   7.410
22035TIP3    H265983   2.849   2.190   7.490
22036TIP3   OH265984   8.983   7.560   1.022
22036TIP3    H165985   9.060   7.545   1.078
22036TIP3    H265986   9.005   7.517   0.939
22037TIP3   OH265987   5.145   1.114   4.545
22037TIP3    H165988   5.181   1.193   4.586
22037TIP3    H265989   5.076   1.085   4.604
22038TIP3   OH265990   6.385   4.726   6.446
22038TIP3    H165991   6.369   4.815   6.415
22038TIP3    H265992   6.454   4.693   6.389
22039TIP3   OH265993   1.491   1.146   5.686
22039TIP3    H165994   1.559   1.106   5.632
22039TIP3    H265995   1.538   1.183   5.761
22040TIP3   OH265996   0.722   4.251   4.748
22040TIP3    H165997   0.635   4.256   4.708
22040TIP3    H265998   0.705   4.241   4.841
22041TIP3   OH265999   6.946   7.455   4.097
22041TIP3    H166000   7.034   7.492   4.107
22041TIP3    H266001   6.887   7.526   4.120
22042TIP3   OH266002   6.045   5.588   0.722
22042TIP3    H166003   6.075   5.512   0.772
22042TIP3    H266004   5.957   5.564   0.693
22043TIP3   OH266005   1.360   6.866   6.679
22043TIP3    H166006   1.291   6.826   6.626
22043TIP3    H266007   1.411   6.918   6.617
22044TIP3   OH266008   8.118   6.191   2.732
22044TIP3    H166009   8.187   6.187   2.798
22044TIP3    H266010   8.131   6.112   2.679
22045TIP3   OH266011   1.308   8.328   0.162
22045TIP3    H166012   1.288   8.407   0.112
22045TIP3    H266013   1.334   8.264   0.096
22046TIP3   OH266014   2.302   0.888   5.737
22046TIP3    H166015   2.374   0.950   5.740
22046TIP3    H266016   2.295   0.865   5.644
22047TIP3   OH266017   5.014   7.781   0.445
22047TIP3    H166018   5.048   7.692   0.458
22047TIP3    H266019   4.935   7.769   0.391
22048TIP3   OH266020   1.496   8.616   3.556
22048TIP3    H166021   1.561   8.577   3.498
22048TIP3    H266022   1.466   8.544   3.610
22049TIP3   OH266023   6.689   7.965   7.490
22049TIP3    H166024   6.764   7.920   7.530
22049TIP3    H266025   6.709   8.058   7.498
22050TIP3   OH266026   7.783   7.908   1.004
22050TIP3    H166027   7.806   7.995   0.973
22050TIP3    H266028   7.689   7.900   0.986
22051TIP3   OH266029   9.019   3.261   4.872
22051TIP3    H166030   9.022   3.356   4.860
22051TIP3    H266031   8.940   3.233   4.825
22052TIP3   OH266032   0.778   7.010   4.616
22052TIP3    H166033   0.854   7.045   4.568
22052TIP3    H266034   0.813   6.989   4.702
22053TIP3   OH266035   2.772   1.310   0.466
22053TIP3    H166036   2.722   1.352   0.536
22053TIP3    H266037   2.826   1.380   0.429
22054TIP3   OH266038   3.614   4.930   4.487
22054TIP3    H166039   3.687   4.893   4.536
22054TIP3    H266040   3.561   4.975   4.552
22055TIP3   OH266041   4.063   2.543   1.546
22055TIP3    H166042   3.972   2.572   1.538
22055TIP3    H266043   4.058   2.458   1.591
22056TIP3   OH266044   1.764   4.605   3.118
22056TIP3    H166045   1.704   4.668   3.078
22056TIP3    H266046   1.726   4.588   3.205
22057TIP3   OH266047   1.029   2.898   2.465
22057TIP3    H166048   0.960   2.926   2.405
22057TIP3    H266049   1.097   2.965   2.456
22058TIP3   OH266050   5.389   7.100   4.926
22058TIP3    H166051   5.442   7.022   4.942
22058TIP3    H266052   5.342   7.081   4.845
22059TIP3   OH266053   5.056   1.302   6.333
22059TIP3    H166054   5.010   1.348   6.264
22059TIP3    H266055   5.148   1.325   6.320
22060TIP3   OH266056   2.649   3.923   7.709
22060TIP3    H166057   2.666   3.848   7.766
22060TIP3    H266058   2.663   4.000   7.764
22061TIP3   OH266059   2.591   3.070   7.038
22061TIP3    H166060   2.574   3.021   6.958
22061TIP3    H266061   2.512   3.124   7.050
22062TIP3   OH266062   4.876   2.633   0.145
22062TIP3    H166063   4.880   2.585   0.228
22062TIP3    H266064   4.964   2.624   0.109
22063TIP3   OH266065   6.346   0.023   3.256
22063TIP3    H166066   6.257   0.036   3.288
22063TIP3    H266067   6.400   0.028   3.335
22064TIP3   OH266068   5.674   2.452   2.572
22064TIP3    H166069   5.668   2.512   2.647
22064TIP3    H266070   5.684   2.365   2.611
22065TIP3   OH266071   7.397   5.129   2.720
22065TIP3    H166072   7.334   5.068   2.681
22065TIP3    H266073   7.475   5.077   2.736
22066TIP3   OH266074   1.803   5.396   5.261
22066TIP3    H166075   1.758   5.405   5.177
22066TIP3    H266076   1.805   5.301   5.277
22067TIP3   OH266077   1.778   2.777   5.917
22067TIP3    H166078   1.714   2.796   5.986
22067TIP3    H266079   1.825   2.859   5.905
22068TIP3   OH266080   5.327   4.669   1.697
22068TIP3    H166081   5.284   4.685   1.782
22068TIP3    H266082   5.311   4.576   1.679
22069TIP3   OH266083   7.075   0.044   6.391
22069TIP3    H166084   7.021   0.107   6.343
22069TIP3    H266085   7.027  -0.038   6.386
22070TIP3   OH266086   2.780   1.607   6.391
22070TIP3    H166087   2.733   1.534   6.431
22070TIP3    H266088   2.721   1.682   6.403
22071TIP3   OH266089   6.176   3.339   4.591
22071TIP3    H166090   6.081   3.324   4.587
22071TIP3    H266091   6.214   3.252   4.592
22072TIP3   OH266092   4.447   1.608   1.335
22072TIP3    H166093   4.530   1.643   1.367
22072TIP3    H266094   4.466   1.572   1.249
22073TIP3   OH266095   0.139   8.717   6.066
22073TIP3    H166096   0.129   8.691   6.158
22073TIP3    H266097   0.182   8.802   6.070
22074TIP3   OH266098   7.176   4.034   6.519
22074TIP3    H166099   7.253   4.090   6.532
22074TIP3    H266100   7.101   4.094   6.526
22075TIP3   OH266101   6.497   2.389   4.306
22075TIP3    H166102   6.451   2.405   4.389
22075TIP3    H266103   6.590   2.390   4.329
22076TIP3   OH266104   3.411   5.012   4.648
22076TIP3    H166105   3.412   5.103   4.618
22076TIP3    H266106   3.334   5.007   4.705
22077TIP3   OH266107   1.161   5.533   5.775
22077TIP3    H166108   1.086   5.482   5.744
22077TIP3    H266109   1.124   5.592   5.841
22078TIP3   OH266110   0.410   5.450   2.997
22078TIP3    H166111   0.387   5.436   3.089
22078TIP3    H266112   0.474   5.522   2.999
22079TIP3   OH266113   4.008   0.451   7.722
22079TIP3    H166114   3.998   0.361   7.692
22079TIP3    H266115   3.918   0.483   7.730
22080TIP3   OH266116   1.953   7.010   0.721
22080TIP3    H166117   1.941   7.027   0.627
22080TIP3    H266118   1.932   7.093   0.764
22081TIP3   OH266119   5.946   6.088   1.551
22081TIP3    H166120   5.903   6.164   1.512
22081TIP3    H266121   6.039   6.100   1.533
22082TIP3   OH266122   5.148   6.235   3.048
22082TIP3    H166123   5.103   6.237   3.133
22082TIP3    H266124   5.079   6.220   2.984
22083TIP3   OH266125   3.996   7.118   5.281
22083TIP3    H166126   3.992   7.153   5.192
22083TIP3    H266127   4.082   7.145   5.314
22084TIP3   OH266128   2.977   2.072   2.453
22084TIP3    H166129   3.065   2.110   2.460
22084TIP3    H266130   2.967   2.020   2.533
22085TIP3   OH266131   9.115   0.670   3.308
22085TIP3    H166132   9.052   0.684   3.238
22085TIP3    H266133   9.189   0.727   3.285
22086TIP3   OH266134   5.488   4.607   7.729
22086TIP3    H166135   5.432   4.671   7.685
22086TIP3    H266136   5.536   4.564   7.658
22087TIP3   OH266137   5.637   0.089   1.555
22087TIP3    H166138   5.653   0.093   1.460
22087TIP3    H266139   5.542   0.090   1.563
22088TIP3   OH266140   1.788   2.204   5.027
22088TIP3    H166141   1.721   2.263   5.060
22088TIP3    H266142   1.745   2.119   5.023
22089TIP3   OH266143   7.368   4.510   1.118
22089TIP3    H166144   7.395   4.501   1.026
22089TIP3    H266145   7.429   4.454   1.166
22090TIP3   OH266146   1.311   4.131   1.492
22090TIP3    H166147   1.251   4.090   1.431
22090TIP3    H266148   1.257   4.155   1.568
22091TIP3   OH266149   4.730   8.877   2.520
22091TIP3    H166150   4.635   8.871   2.524
22091TIP3    H266151   4.750   8.968   2.541
22092TIP3   OH266152   0.387   5.270   1.095
22092TIP3    H166153   0.318   5.318   1.140
22092TIP3    H266154   0.465   5.326   1.104
22093TIP3   OH266155   6.007   8.628   7.164
22093TIP3    H166156   6.000   8.640   7.069
22093TIP3    H266157   6.044   8.541   7.174
22094TIP3   OH266158   4.019   7.347   0.497
22094TIP3    H166159   3.998   7.398   0.419
22094TIP3    H266160   4.106   7.312   0.481
22095TIP3   OH266161   0.479   1.619   7.425
22095TIP3    H166162   0.557   1.647   7.472
22095TIP3    H266163   0.411   1.680   7.455
22096TIP3   OH266164   1.787   8.543   4.118
22096TIP3    H166165   1.741   8.567   4.037
22096TIP3    H266166   1.818   8.454   4.102
22097TIP3   OH266167   0.395   0.425   0.509
22097TIP3    H166168   0.391   0.520   0.502
22097TIP3    H266169   0.314   0.393   0.469
22098TIP3   OH266170   5.230   6.276   7.028
22098TIP3    H166171   5.270   6.351   7.072
22098TIP3    H266172   5.137   6.298   7.024
22099TIP3   OH266173   6.611   0.834   4.339
22099TIP3    H166174   6.669   0.851   4.265
22099TIP3    H266175   6.629   0.905   4.401
22100TIP3   OH266176   6.587   0.006   7.645
22100TIP3    H166177   6.656   0.001   7.579
22100TIP3    H266178   6.616  -0.055   7.714
22101TIP3   OH266179   2.910   7.060   1.265
22101TIP3    H166180   3.002   7.033   1.260
22101TIP3    H266181   2.864   6.980   1.293
22102TIP3   OH266182   8.951   0.890   0.005
22102TIP3    H166183   9.008   0.831   0.055
22102TIP3    H266184   8.863   0.871   0.037
22103TIP3   OH266185   3.621   5.204   6.071
22103TIP3    H166186   3.604   5.239   5.984
22103TIP3    H266187   3.534   5.187   6.107
22104TIP3   OH266188   5.246   7.452   4.752
22104TIP3    H166189   5.259   7.533   4.704
22104TIP3    H266190   5.279   7.384   4.693
22105TIP3   OH266191   2.045   2.755   4.429
22105TIP3    H166192   2.096   2.722   4.503
22105TIP3    H266193   1.956   2.767   4.464
22106TIP3   OH266194   0.109   0.910   6.090
22106TIP3    H166195   0.179   0.845   6.097
22106TIP3    H266196   0.064   0.888   6.009
22107TIP3   OH266197   0.074   5.254   2.510
22107TIP3    H166198   0.139   5.258   2.579
22107TIP3    H266199   0.008   5.319   2.535
22108TIP3   OH266200   1.356   8.884   2.939
22108TIP3    H166201   1.347   8.795   2.905
22108TIP3    H266202   1.445   8.910   2.913
22109TIP3   OH266203   8.039   6.750   7.146
22109TIP3    H166204   8.094   6.713   7.215
22109TIP3    H266205   7.964   6.788   7.193
22110TIP3   OH266206   0.270   1.966   4.957
22110TIP3    H166207   0.247   1.880   4.993
22110TIP3    H266208   0.195   2.022   4.979
22111TIP3   OH266209   8.475   8.971   4.173
22111TIP3    H166210   8.502   8.971   4.265
22111TIP3    H266211   8.448   9.061   4.156
22112TIP3   OH266212   3.698   2.378   6.199
22112TIP3    H166213   3.630   2.369   6.265
22112TIP3    H266214   3.655   2.351   6.117
22113TIP3   OH266215   7.809   7.231   2.557
22113TIP3    H166216   7.753   7.154   2.560
22113TIP3    H266217   7.866   7.217   2.481
22114TIP3   OH266218   6.428   0.584   4.579
22114TIP3    H166219   6.522   0.578   4.596
22114TIP3    H266220   6.391   0.510   4.627
22115TIP3   OH266221   7.101   1.503   4.492
22115TIP3    H166222   7.060   1.491   4.578
22115TIP3    H266223   7.036   1.550   4.441
22116TIP3   OH266224   2.135   2.045   1.529
22116TIP3    H166225   2.152   2.133   1.563
22116TIP3    H266226   2.068   2.058   1.462
22117TIP3   OH266227   7.742   2.521   3.237
22117TIP3    H166228   7.824   2.566   3.215
22117TIP3    H266229   7.677   2.557   3.177
22118TIP3   OH266230   2.536   6.666   7.779
22118TIP3    H166231   2.541   6.736   7.844
22118TIP3    H266232   2.450   6.678   7.738
22119TIP3   OH266233   7.474   7.398   6.294
22119TIP3    H166234   7.533   7.433   6.360
22119TIP3    H266235   7.387   7.407   6.332
22120TIP3   OH266236   5.843   9.024   2.086
22120TIP3    H166237   5.852   8.943   2.036
22120TIP3    H266238   5.894   9.089   2.037
22121TIP3   OH266239   4.408   1.656   3.861
22121TIP3    H166240   4.472   1.725   3.842
22121TIP3    H266241   4.347   1.695   3.923
22122TIP3   OH266242   2.401   1.934   2.992
22122TIP3    H166243   2.444   1.902   3.072
22122TIP3    H266244   2.308   1.920   3.008
22123TIP3   OH266245   3.386   4.786   0.049
22123TIP3    H166246   3.378   4.866  -0.005
22123TIP3    H266247   3.365   4.715  -0.011
22124TIP3   OH266248   7.950   4.560   4.120
22124TIP3    H166249   7.985   4.623   4.182
22124TIP3    H266250   7.919   4.613   4.047
22125TIP3   OH266251   8.262   0.987   3.172
22125TIP3    H166252   8.217   0.955   3.094
22125TIP3    H266253   8.285   1.077   3.152
22126TIP3   OH266254   8.095   3.685   3.389
22126TIP3    H166255   8.149   3.629   3.334
22126TIP3    H266256   8.099   3.771   3.347
22127TIP3   OH266257   7.999   3.269   7.333
22127TIP3    H166258   7.978   3.267   7.240
22127TIP3    H266259   8.095   3.274   7.336
22128TIP3   OH266260   9.097   8.335   6.916
22128TIP3    H166261   9.122   8.417   6.958
22128TIP3    H266262   9.063   8.281   6.988
22129TIP3   OH266263   0.283   6.020   1.098
22129TIP3    H166264   0.260   6.008   1.006
22129TIP3    H266265   0.350   6.088   1.097
22130TIP3   OH266266   2.672   3.232   1.040
22130TIP3    H166267   2.700   3.316   1.076
22130TIP3    H266268   2.743   3.172   1.061
22131TIP3   OH266269   2.076   4.044   6.903
22131TIP3    H166270   1.983   4.069   6.906
22131TIP3    H266271   2.076   3.949   6.917
22132TIP3   OH266272   6.879   3.841   5.762
22132TIP3    H166273   6.961   3.799   5.789
22132TIP3    H266274   6.815   3.770   5.761
22133TIP3   OH266275   0.361   4.172   1.142
22133TIP3    H166276   0.421   4.098   1.145
22133TIP3    H266277   0.276   4.134   1.120
22134TIP3   OH266278   2.934   2.564   2.570
22134TIP3    H166279   2.950   2.534   2.481
22134TIP3    H266280   2.940   2.659   2.565
22135TIP3   OH266281   3.603   7.156   6.480
22135TIP3    H166282   3.516   7.165   6.519
22135TIP3    H266283   3.586   7.122   6.392
22136TIP3   OH266284   8.804   1.058   2.023
22136TIP3    H166285   8.797   1.147   1.989
22136TIP3    H266286   8.752   1.005   1.964
22137TIP3   OH266287   0.643   7.186   5.621
22137TIP3    H166288   0.724   7.151   5.660
22137TIP3    H266289   0.620   7.260   5.676
22138TIP3   OH266290   6.900   2.321   2.645
22138TIP3    H166291   6.870   2.343   2.733
22138TIP3    H266292   6.821   2.314   2.593
22139TIP3   OH266293   7.237   5.114   0.153
22139TIP3    H166294   7.231   5.210   0.146
22139TIP3    H266295   7.271   5.086   0.068
22140TIP3   OH266296   8.007   3.901   5.831
22140TIP3    H166297   8.057   3.896   5.913
22140TIP3    H266298   7.921   3.933   5.858
22141TIP3   OH266299   1.764   0.946   3.698
22141TIP3    H166300   1.768   0.853   3.678
22141TIP3    H266301   1.841   0.962   3.754
22142TIP3   OH266302   0.096   7.013   0.571
22142TIP3    H166303   0.154   7.006   0.495
22142TIP3    H266304   0.153   7.004   0.646
22143TIP3   OH266305   8.683   7.368   0.463
22143TIP3    H166306   8.621   7.312   0.510
22143TIP3    H266307   8.666   7.351   0.371
22144TIP3   OH266308   0.410   4.320   3.581
22144TIP3    H166309   0.498   4.327   3.542
22144TIP3    H266310   0.356   4.283   3.511
22145TIP3   OH266311   0.984   5.991   6.263
22145TIP3    H166312   1.078   5.999   6.246
22145TIP3    H266313   0.977   5.988   6.359
22146TIP3   OH266314   4.915   2.952   3.171
22146TIP3    H166315   4.854   2.926   3.102
22146TIP3    H266316   4.868   3.021   3.218
22147TIP3   OH266317   4.076   4.105   1.268
22147TIP3    H166318   4.066   4.011   1.260
22147TIP3    H266319   4.051   4.124   1.359
22148TIP3   OH266320   0.918   1.912   3.520
22148TIP3    H166321   0.848   1.878   3.575
22148TIP3    H266322   0.936   2.000   3.556
22149TIP3   OH266323   4.026   3.124   4.857
22149TIP3    H166324   4.065   3.200   4.816
22149TIP3    H266325   4.049   3.131   4.949
22150TIP3   OH266326   2.387   0.136   1.082
22150TIP3    H166327   2.426   0.053   1.113
22150TIP3    H266328   2.347   0.114   0.998
22151TIP3   OH266329   1.269   6.305   1.144
22151TIP3    H166330   1.341   6.279   1.087
22151TIP3    H266331   1.288   6.397   1.166
22152TIP3   OH266332   2.203   0.082   7.243
22152TIP3    H166333   2.141   0.017   7.276
22152TIP3    H266334   2.230   0.130   7.321
22153TIP3   OH266335   4.767   0.762   1.430
22153TIP3    H166336   4.822   0.690   1.461
22153TIP3    H266337   4.829   0.831   1.409
22154TIP3   OH266338   0.237   8.224   5.727
22154TIP3    H166339   0.169   8.158   5.734
22154TIP3    H266340   0.284   8.219   5.810
22155TIP3   OH266341   3.393   4.665   7.708
22155TIP3    H166342   3.387   4.714   7.626
22155TIP3    H266343   3.385   4.573   7.681
22156TIP3   OH266344   2.550   4.533   1.784
22156TIP3    H166345   2.457   4.521   1.806
22156TIP3    H266346   2.593   4.455   1.821
22157TIP3   OH266347   4.693   0.797   2.812
22157TIP3    H166348   4.690   0.744   2.732
22157TIP3    H266349   4.681   0.734   2.883
22158TIP3   OH266350   5.861   1.151   0.764
22158TIP3    H166351   5.895   1.239   0.781
22158TIP3    H266352   5.918   1.116   0.696
22159TIP3   OH266353   7.078   4.898   5.862
22159TIP3    H166354   7.061   4.898   5.768
22159TIP3    H266355   7.077   4.990   5.887
22160TIP3   OH266356   7.968   7.614   2.467
22160TIP3    H166357   7.906   7.650   2.531
22160TIP3    H266358   7.949   7.662   2.387
22161TIP3   OH266359   8.396   8.273   1.500
22161TIP3    H166360   8.387   8.347   1.559
22161TIP3    H266361   8.453   8.304   1.430
22162TIP3   OH266362   5.688   2.702   3.223
22162TIP3    H166363   5.609   2.651   3.241
22162TIP3    H266364   5.754   2.636   3.200
22163TIP3   OH266365   1.539   1.310   0.151
22163TIP3    H166366   1.554   1.381   0.214
22163TIP3    H266367   1.444   1.306   0.143
22164TIP3   OH266368   8.710   2.932   7.804
22164TIP3    H166369   8.640   2.936   7.739
22164TIP3    H266370   8.709   3.019   7.845
22165TIP3   OH266371   4.870   0.505   3.868
22165TIP3    H166372   4.780   0.514   3.838
22165TIP3    H266373   4.863   0.466   3.955
22166TIP3   OH266374   7.048   3.532   6.726
22166TIP3    H166375   7.100   3.469   6.676
22166TIP3    H266376   7.075   3.617   6.692
22167TIP3   OH266377   9.274   4.326   4.398
22167TIP3    H166378   9.327   4.327   4.319
22167TIP3    H266379   9.325   4.374   4.463
22168TIP3   OH266380   4.705   8.777   1.725
22168TIP3    H166381   4.701   8.862   1.681
22168TIP3    H266382   4.666   8.794   1.811
22169TIP3   OH266383   7.755   3.836   3.788
22169TIP3    H166384   7.814   3.842   3.713
22169TIP3    H266385   7.680   3.890   3.764
22170TIP3   OH266386   7.362   1.475   6.243
22170TIP3    H166387   7.296   1.479   6.312
22170TIP3    H266388   7.428   1.414   6.277
22171TIP3   OH266389   9.523   7.771   0.166
22171TIP3    H166390   9.476   7.815   0.095
22171TIP3    H266391   9.525   7.679   0.139
22172TIP3   OH266392   7.573   2.493   6.717
22172TIP3    H166393   7.645   2.467   6.773
22172TIP3    H266394   7.506   2.426   6.731
22173TIP3   OH266395   6.106   0.209   1.833
22173TIP3    H166396   6.026   0.260   1.843
22173TIP3    H266397   6.101   0.174   1.744
22174TIP3   OH266398   9.416   5.278   2.287
22174TIP3    H166399   9.446   5.345   2.349
22174TIP3    H266400   9.425   5.196   2.335
22175TIP3   OH266401   3.130   4.085   4.784
22175TIP3    H166402   3.136   4.137   4.864
22175TIP3    H266403   3.160   3.998   4.810
22176TIP3   OH266404   3.119   3.707   6.754
22176TIP3    H166405   3.093   3.794   6.723
22176TIP3    H266406   3.051   3.648   6.719
22177TIP3   OH266407   0.980   1.001   2.316
22177TIP3    H166408   0.956   1.089   2.345
22177TIP3    H266409   0.902   0.969   2.271
22178TIP3   OH266410   2.890   5.459   0.870
22178TIP3    H166411   2.863   5.389   0.930
22178TIP3    H266412   2.986   5.459   0.876
22179TIP3   OH266413   7.772   7.393   5.778
22179TIP3    H166414   7.713   7.455   5.734
22179TIP3    H266415   7.854   7.400   5.729
22180TIP3   OH266416   5.757   5.234   2.083
22180TIP3    H166417   5.815   5.299   2.122
22180TIP3    H266418   5.689   5.286   2.039
22181TIP3   OH266419   7.916   3.800   7.568
22181TIP3    H166420   7.981   3.847   7.517
22181TIP3    H266421   7.885   3.731   7.509
22182TIP3   OH266422   9.514   0.988   6.309
22182TIP3    H166423   9.607   1.009   6.305
22182TIP3    H266424   9.477   1.025   6.229
22183TIP3   OH266425   3.398   1.913   6.022
22183TIP3    H166426   3.407   1.971   5.946
22183TIP3    H266427   3.314   1.870   6.009
22184TIP3   OH266428   8.552   2.575   0.005
22184TIP3    H166429   8.521   2.595   0.094
22184TIP3    H266430   8.472   2.568  -0.047
22185TIP3   OH266431   4.935   3.927   3.406
22185TIP3    H166432   4.998   3.866   3.366
22185TIP3    H266433   4.934   3.902   3.498
22186TIP3   OH266434   7.242   0.638   3.610
22186TIP3    H166435   7.291   0.719   3.598
22186TIP3    H266436   7.299   0.583   3.663
22187TIP3   OH266437   9.461   5.267   3.496
22187TIP3    H166438   9.442   5.341   3.554
22187TIP3    H266439   9.556   5.261   3.495
22188TIP3   OH266440   2.886   6.901   5.084
22188TIP3    H166441   2.855   6.830   5.028
22188TIP3    H266442   2.872   6.870   5.173
22189TIP3   OH266443   1.040   0.706   2.364
22189TIP3    H166444   1.102   0.711   2.437
22189TIP3    H266445   1.024   0.798   2.341
22190TIP3   OH266446   5.606   3.423   3.034
22190TIP3    H166447   5.560   3.504   3.057
22190TIP3    H266448   5.547   3.379   2.973
22191TIP3   OH266449   0.803   5.967   0.716
22191TIP3    H166450   0.806   5.888   0.663
22191TIP3    H266451   0.876   6.020   0.683
22192TIP3   OH266452   8.349   7.777   7.743
22192TIP3    H166453   8.267   7.799   7.786
22192TIP3    H266454   8.363   7.847   7.679
22193TIP3   OH266455   2.620   5.609   5.667
22193TIP3    H166456   2.675   5.565   5.731
22193TIP3    H266457   2.549   5.648   5.720
22194TIP3   OH266458   6.742   3.289   2.240
22194TIP3    H166459   6.758   3.376   2.204
22194TIP3    H266460   6.731   3.304   2.334
22195TIP3   OH266461   4.347   8.221   6.750
22195TIP3    H166462   4.412   8.229   6.820
22195TIP3    H266463   4.394   8.249   6.671
22196TIP3   OH266464   6.027   6.275   6.464
22196TIP3    H166465   5.995   6.354   6.508
22196TIP3    H266466   6.109   6.255   6.508
22197TIP3   OH266467   6.743   4.371   6.896
22197TIP3    H166468   6.694   4.423   6.833
22197TIP3    H266469   6.677   4.336   6.956
22198TIP3   OH266470   4.308   4.328   2.983
22198TIP3    H166471   4.273   4.372   2.905
22198TIP3    H266472   4.282   4.385   3.056
22199TIP3   OH266473   8.166   1.894   2.201
22199TIP3    H166474   8.253   1.857   2.186
22199TIP3    H266475   8.115   1.866   2.125
22200TIP3   OH266476   4.063   2.041   5.529
22200TIP3    H166477   4.126   1.998   5.586
22200TIP3    H266478   4.085   2.134   5.534
22201TIP3   OH266479   2.595   1.577   6.795
22201TIP3    H166480   2.575   1.505   6.736
22201TIP3    H266481   2.691   1.586   6.791
22202TIP3   OH266482   5.032   1.737   7.190
22202TIP3    H166483   5.056   1.768   7.103
22202TIP3    H266484   4.950   1.783   7.210
22203TIP3   OH266485   2.167   2.988   4.398
22203TIP3    H166486   2.262   2.977   4.407
22203TIP3    H266487   2.132   2.899   4.405
22204TIP3   OH266488   1.049   7.531   2.299
22204TIP3    H166489   1.120   7.577   2.344
22204TIP3    H266490   1.090   7.494   2.221
22205TIP3   OH266491   8.606   2.522   7.139
22205TIP3    H166492   8.683   2.538   7.086
22205TIP3    H266493   8.543   2.482   7.079
22206TIP3   OH266494   6.578   0.037   2.042
22206TIP3    H166495   6.576  -0.059   2.044
22206TIP3    H266496   6.487   0.063   2.033
22207TIP3   OH266497   7.637   7.403   6.042
22207TIP3    H166498   7.563   7.451   6.004
22207TIP3    H266499   7.687   7.372   5.966
22208TIP3   OH266500   8.292   7.728   4.887
22208TIP3    H166501   8.255   7.643   4.862
22208TIP3    H266502   8.232   7.761   4.954
22209TIP3   OH266503   8.487   0.105   5.526
22209TIP3    H166504   8.456   0.174   5.584
22209TIP3    H266505   8.420   0.038   5.529
22210TIP3   OH266506   1.247   0.055   3.204
22210TIP3    H166507   1.229  -0.004   3.130
22210TIP3    H266508   1.307   0.006   3.259
22211TIP3   OH266509   2.125   1.278   2.003
22211TIP3    H166510   2.102   1.328   2.081
22211TIP3    H266511   2.203   1.323   1.969
22212TIP3   OH266512   9.520   5.312   7.294
22212TIP3    H166513   9.602   5.296   7.246
22212TIP3    H266514   9.520   5.406   7.311
22213TIP3   OH266515   4.266   2.281   7.502
22213TIP3    H166516   4.277   2.347   7.433
22213TIP3    H266517   4.322   2.311   7.574
22214TIP3   OH266518   7.929   5.139   1.117
22214TIP3    H166519   8.010   5.114   1.162
22214TIP3    H266520   7.859   5.110   1.177
22215TIP3   OH266521   5.636   2.751   2.471
22215TIP3    H166522   5.584   2.790   2.400
22215TIP3    H266523   5.583   2.677   2.500
22216TIP3   OH266524   8.224   7.040   1.878
22216TIP3    H166525   8.202   7.133   1.880
22216TIP3    H266526   8.310   7.037   1.835
22217TIP3   OH266527   6.512   6.638   4.732
22217TIP3    H166528   6.579   6.608   4.794
22217TIP3    H266529   6.464   6.559   4.708
22218TIP3   OH266530   5.704   1.497   5.805
22218TIP3    H166531   5.799   1.503   5.797
22218TIP3    H266532   5.686   1.516   5.897
22219TIP3   OH266533   2.026   6.321   4.649
22219TIP3    H166534   2.021   6.344   4.741
22219TIP3    H266535   2.039   6.226   4.648
22220TIP3   OH266536   6.538   0.304   2.067
22220TIP3    H166537   6.485   0.326   1.990
22220TIP3    H266538   6.580   0.221   2.044
22221TIP3   OH266539   1.648   7.508   3.039
22221TIP3    H166540   1.561   7.480   3.066
22221TIP3    H266541   1.674   7.444   2.973
22222TIP3   OH266542   3.794   8.776   6.774
22222TIP3    H166543   3.870   8.830   6.753
22222TIP3    H266544   3.825   8.686   6.767
22223TIP3   OH266545   7.029   7.611   5.257
22223TIP3    H166546   7.062   7.524   5.278
22223TIP3    H266547   7.060   7.628   5.167
22224TIP3   OH266548   2.244   1.387   6.158
22224TIP3    H166549   2.168   1.435   6.191
22224TIP3    H266550   2.244   1.404   6.064
22225TIP3   OH266551   3.691   0.406   0.710
22225TIP3    H166552   3.771   0.405   0.657
22225TIP3    H266553   3.626   0.451   0.656
22226TIP3   OH266554   6.177   8.134   5.661
22226TIP3    H166555   6.143   8.045   5.675
22226TIP3    H266556   6.136   8.162   5.580
22227TIP3   OH266557   7.879   5.513   3.327
22227TIP3    H166558   7.934   5.476   3.396
22227TIP3    H266559   7.876   5.446   3.259
22228TIP3   OH266560   1.733   6.689   1.472
22228TIP3    H166561   1.825   6.706   1.450
22228TIP3    H266562   1.729   6.701   1.567
22229TIP3   OH266563   5.499   8.926   4.173
22229TIP3    H166564   5.423   8.939   4.230
22229TIP3    H266565   5.535   9.014   4.160
22230TIP3   OH266566   8.437   7.738   6.670
22230TIP3    H166567   8.495   7.790   6.725
22230TIP3    H266568   8.476   7.651   6.670
22231TIP3   OH266569   5.178   3.953   0.109
22231TIP3    H166570   5.100   3.949   0.055
22231TIP3    H266571   5.195   4.047   0.121
22232TIP3   OH266572   3.365   5.663   3.985
22232TIP3    H166573   3.406   5.601   3.925
22232TIP3    H266574   3.422   5.739   3.983
22233TIP3   OH266575   1.552   1.092   1.964
22233TIP3    H166576   1.607   1.167   1.942
22233TIP3    H266577   1.485   1.090   1.896
22234TIP3   OH266578   6.411   6.658   7.540
22234TIP3    H166579   6.369   6.743   7.530
22234TIP3    H266580   6.453   6.661   7.626
22235TIP3   OH266581   1.513   7.639   0.021
22235TIP3    H166582   1.584   7.700   0.038
22235TIP3    H266583   1.468   7.630   0.106
22236TIP3   OH266584   9.285   6.926   4.503
22236TIP3    H166585   9.275   7.020   4.486
22236TIP3    H266586   9.322   6.891   4.422
22237TIP3   OH266587   4.035   0.997   6.957
22237TIP3    H166588   4.068   1.079   6.995
22237TIP3    H266589   4.102   0.932   6.980
22238TIP3   OH266590   0.423   6.746   1.714
22238TIP3    H166591   0.334   6.715   1.697
22238TIP3    H266592   0.421   6.839   1.693
22239TIP3   OH266593   5.750   3.610   5.762
22239TIP3    H166594   5.822   3.567   5.808
22239TIP3    H266595   5.752   3.700   5.793
22240TIP3   OH266596   3.338   5.552   2.470
22240TIP3    H166597   3.345   5.525   2.378
22240TIP3    H266598   3.421   5.596   2.488
22241TIP3   OH266599   2.890   8.154   4.136
22241TIP3    H166600   2.821   8.195   4.085
22241TIP3    H266601   2.844   8.108   4.207
22242TIP3   OH266602   6.890   3.641   7.235
22242TIP3    H166603   6.819   3.701   7.210
22242TIP3    H266604   6.969   3.680   7.199
22243TIP3   OH266605   3.304   7.709   5.933
22243TIP3    H166606   3.308   7.712   5.838
22243TIP3    H266607   3.306   7.615   5.954
22244TIP3   OH266608   2.259   1.296   0.882
22244TIP3    H166609   2.287   1.240   0.810
22244TIP3    H266610   2.177   1.256   0.913
22245TIP3   OH266611   8.786   0.125   2.160
22245TIP3    H166612   8.868   0.084   2.135
22245TIP3    H266613   8.775   0.198   2.098
22246TIP3   OH266614   4.662   1.047   1.548
22246TIP3    H166615   4.702   1.022   1.465
22246TIP3    H266616   4.735   1.075   1.602
22247TIP3   OH266617   9.448   5.828   5.719
22247TIP3    H166618   9.382   5.896   5.705
22247TIP3    H266619   9.429   5.795   5.807
22248TIP3   OH266620   9.243   6.404   0.566
22248TIP3    H166621   9.314   6.414   0.502
22248TIP3    H266622   9.221   6.494   0.590
22249TIP3   OH266623   8.204   7.867   4.386
22249TIP3    H166624   8.282   7.921   4.378
22249TIP3    H266625   8.223   7.789   4.334
22250TIP3   OH266626   1.743   6.458   5.874
22250TIP3    H166627   1.654   6.468   5.839
22250TIP3    H266628   1.736   6.384   5.935
22251TIP3   OH266629   9.016   5.826   1.357
22251TIP3    H166630   9.062   5.743   1.370
22251TIP3    H266631   9.079   5.892   1.387
22252TIP3   OH266632   7.845   8.332   4.437
22252TIP3    H166633   7.809   8.245   4.419
22252TIP3    H266634   7.776   8.393   4.409
22253TIP3   OH266635   1.797   8.837   2.169
22253TIP3    H166636   1.810   8.893   2.092
22253TIP3    H266637   1.702   8.833   2.180
22254TIP3   OH266638   7.671   2.496   5.524
22254TIP3    H166639   7.629   2.575   5.490
22254TIP3    H266640   7.710   2.524   5.606
22255TIP3   OH266641   5.279   5.753   5.055
22255TIP3    H166642   5.304   5.811   4.983
22255TIP3    H266643   5.219   5.690   5.016
22256TIP3   OH266644   5.608   8.369   3.552
22256TIP3    H166645   5.553   8.374   3.630
22256TIP3    H266646   5.607   8.458   3.516
22257TIP3   OH266647   8.574   0.673   3.341
22257TIP3    H166648   8.547   0.726   3.416
22257TIP3    H266649   8.529   0.712   3.266
22258TIP3   OH266650   6.991   0.220   3.041
22258TIP3    H166651   6.975   0.127   3.025
22258TIP3    H266652   6.909   0.263   3.016
22259TIP3   OH266653   1.017   8.445   2.537
22259TIP3    H166654   0.942   8.409   2.490
22259TIP3    H266655   1.055   8.369   2.582
22260TIP3   OH266656   4.744   0.947   4.077
22260TIP3    H166657   4.814   1.012   4.076
22260TIP3    H266658   4.713   0.947   4.167
22261TIP3   OH266659   1.300   8.861   0.441
22261TIP3    H166660   1.219   8.830   0.480
22261TIP3    H266661   1.328   8.934   0.496
22262TIP3   OH266662   9.253   0.219   3.365
22262TIP3    H166663   9.334   0.174   3.340
22262TIP3    H266664   9.253   0.214   3.461
22263TIP3   OH266665   8.198   2.971   0.449
22263TIP3    H166666   8.283   3.006   0.476
22263TIP3    H266667   8.138   2.997   0.519
22264TIP3   OH266668   4.244   3.166   2.830
22264TIP3    H166669   4.288   3.231   2.774
22264TIP3    H266670   4.268   3.191   2.919
22265TIP3   OH266671   8.956   0.363   3.576
22265TIP3    H166672   8.991   0.352   3.488
22265TIP3    H266673   9.013   0.428   3.617
22266TIP3   OH266674   5.737   0.738   4.370
22266TIP3    H166675   5.819   0.785   4.385
22266TIP3    H266676   5.686   0.797   4.314
22267TIP3   OH266677   0.044   4.615   5.347
22267TIP3    H166678  -0.002   4.570   5.276
22267TIP3    H266679  -0.004   4.696   5.359
22268TIP3   OH266680   1.511   1.328   5.208
22268TIP3    H166681   1.453   1.259   5.238
22268TIP3    H266682   1.571   1.343   5.281
22269TIP3   OH266683   7.454   3.085   3.665
22269TIP3    H166684   7.426   3.030   3.738
22269TIP3    H266685   7.383   3.079   3.601
22270TIP3   OH266686   9.510   4.315   7.050
22270TIP3    H166687   9.576   4.268   6.999
22270TIP3    H266688   9.509   4.271   7.135
22271TIP3   OH266689   3.665   6.699   5.825
22271TIP3    H166690   3.628   6.715   5.912
22271TIP3    H266691   3.603   6.739   5.765
22272TIP3   OH266692   8.487   0.883   2.578
22272TIP3    H166693   8.555   0.833   2.534
22272TIP3    H266694   8.481   0.965   2.529
22273TIP3   OH266695   4.493   5.600   3.143
22273TIP3    H166696   4.581   5.601   3.179
22273TIP3    H266697   4.438   5.567   3.214
22274TIP3   OH266698   5.555   7.161   7.803
22274TIP3    H166699   5.637   7.210   7.803
22274TIP3    H266700   5.558   7.108   7.882
22275TIP3   OH266701   6.749   7.504   6.352
22275TIP3    H166702   6.835   7.540   6.329
22275TIP3    H266703   6.737   7.431   6.292
22276TIP3   OH266704   6.772   3.874   3.021
22276TIP3    H166705   6.706   3.824   3.067
22276TIP3    H266706   6.754   3.859   2.928
22277TIP3   OH266707   8.140   1.775   0.225
22277TIP3    H166708   8.169   1.822   0.304
22277TIP3    H266709   8.063   1.823   0.196
22278TIP3   OH266710   8.531   7.519   2.903
22278TIP3    H166711   8.538   7.549   2.812
22278TIP3    H266712   8.446   7.475   2.906
22279TIP3   OH266713   9.489   7.888   3.531
22279TIP3    H166714   9.430   7.937   3.474
22279TIP3    H266715   9.441   7.878   3.613
22280TIP3   OH266716   4.255   8.885   0.594
22280TIP3    H166717   4.201   8.806   0.604
22280TIP3    H266718   4.229   8.920   0.508
22281TIP3   OH266719   4.721   4.372   4.758
22281TIP3    H166720   4.777   4.341   4.687
22281TIP3    H266721   4.782   4.400   4.826
22282TIP3   OH266722   6.296   0.346   1.445
22282TIP3    H166723   6.306   0.437   1.476
22282TIP3    H266724   6.386   0.315   1.434
22283TIP3   OH266725   8.068   4.217   5.208
22283TIP3    H166726   8.130   4.288   5.197
22283TIP3    H266727   8.084   4.184   5.297
22284TIP3   OH266728   8.589   8.494   7.242
22284TIP3    H166729   8.587   8.584   7.274
22284TIP3    H266730   8.497   8.468   7.237
22285TIP3   OH266731   2.142   3.941   5.930
22285TIP3    H166732   2.215   3.985   5.973
22285TIP3    H266733   2.174   3.853   5.912
22286TIP3   OH266734   8.283   6.083   1.658
22286TIP3    H166735   8.332   6.072   1.739
22286TIP3    H266736   8.326   6.024   1.596
22287TIP3   OH266737   6.286   3.572   2.285
22287TIP3    H166738   6.209   3.529   2.249
22287TIP3    H266739   6.345   3.500   2.309
22288TIP3   OH266740   0.750   1.361   1.099
22288TIP3    H166741   0.708   1.315   1.026
22288TIP3    H266742   0.771   1.448   1.064
22289TIP3   OH266743   0.333   7.544   7.530
22289TIP3    H166744   0.388   7.621   7.512
22289TIP3    H266745   0.389   7.485   7.580
22290TIP3   OH266746   3.469   7.205   0.357
22290TIP3    H166747   3.417   7.278   0.323
22290TIP3    H266748   3.521   7.243   0.427
22291TIP3   OH266749   9.533   4.748   3.429
22291TIP3    H166750   9.574   4.707   3.505
22291TIP3    H266751   9.592   4.727   3.356
22292TIP3   OH266752   5.885   7.652   4.191
22292TIP3    H166753   5.840   7.723   4.236
22292TIP3    H266754   5.926   7.601   4.261
22293TIP3   OH266755   5.892   3.275   6.800
22293TIP3    H166756   5.802   3.267   6.830
22293TIP3    H266757   5.907   3.196   6.747
22294TIP3   OH266758   1.548   6.547   7.718
22294TIP3    H166759   1.568   6.562   7.810
22294TIP3    H266760   1.472   6.489   7.720
22295TIP3   OH266761   1.479   0.176   0.290
22295TIP3    H166762   1.426   0.123   0.230
22295TIP3    H266763   1.457   0.144   0.377
22296TIP3   OH266764   6.042   7.168   1.496
22296TIP3    H166765   6.124   7.207   1.527
22296TIP3    H266766   5.979   7.186   1.566
22297TIP3   OH266767   1.913   0.281   0.064
22297TIP3    H166768   1.907   0.374   0.084
22297TIP3    H266769   1.873   0.272  -0.022
22298TIP3   OH266770   6.778   0.532   4.012
22298TIP3    H166771   6.862   0.559   4.051
22298TIP3    H266772   6.749   0.459   4.067
22299TIP3   OH266773   8.330   8.266   1.919
22299TIP3    H166774   8.374   8.185   1.943
22299TIP3    H266775   8.401   8.329   1.908
22300TIP3   OH266776   7.408   0.770   5.302
22300TIP3    H166777   7.471   0.704   5.332
22300TIP3    H266778   7.322   0.734   5.326
22301TIP3   OH266779   8.040   0.212   7.281
22301TIP3    H166780   8.031   0.124   7.319
22301TIP3    H266781   8.129   0.239   7.306
22302TIP3   OH266782   4.076   2.523   5.476
22302TIP3    H166783   4.054   2.468   5.401
22302TIP3    H266784   3.992   2.537   5.521
22303TIP3   OH266785   0.009   2.015   3.438
22303TIP3    H166786   0.028   2.053   3.353
22303TIP3    H266787  -0.075   1.971   3.426
22304TIP3   OH266788   8.190   2.163   3.993
22304TIP3    H166789   8.129   2.201   3.930
22304TIP3    H266790   8.137   2.100   4.043
22305TIP3   OH266791   1.253   5.570   7.755
22305TIP3    H166792   1.172   5.576   7.805
22305TIP3    H266793   1.299   5.495   7.792
22306TIP3   OH266794   5.968   4.930   3.731
22306TIP3    H166795   6.022   4.935   3.651
22306TIP3    H266796   5.888   4.886   3.703
22307TIP3   OH266797   8.254   3.513   2.579
22307TIP3    H166798   8.195   3.585   2.602
22307TIP3    H266799   8.272   3.469   2.662
22308TIP3   OH266800   6.627   7.395   0.331
22308TIP3    H166801   6.668   7.379   0.415
22308TIP3    H266802   6.673   7.338   0.270
22309TIP3   OH266803   1.774   3.581   0.917
22309TIP3    H166804   1.793   3.643   0.987
22309TIP3    H266805   1.860   3.555   0.884
22310TIP3   OH266806   1.865   7.590   1.309
22310TIP3    H166807   1.785   7.550   1.277
22310TIP3    H266808   1.919   7.602   1.231
22311TIP3   OH266809   4.330   0.403   7.184
22311TIP3    H166810   4.350   0.489   7.220
22311TIP3    H266811   4.381   0.399   7.103
22312TIP3   OH266812   7.857   4.725   3.408
22312TIP3    H166813   7.874   4.817   3.428
22312TIP3    H266814   7.861   4.719   3.313
22313TIP3   OH266815   2.185   3.079   5.851
22313TIP3    H166816   2.094   3.049   5.854
22313TIP3    H266817   2.204   3.108   5.940
22314TIP3   OH266818   1.934   0.405   2.652
22314TIP3    H166819   2.004   0.340   2.648
22314TIP3    H266820   1.935   0.448   2.566
22315TIP3   OH266821   8.469   6.592   0.843
22315TIP3    H166822   8.531   6.551   0.904
22315TIP3    H266823   8.484   6.548   0.760
22316TIP3   OH266824   3.828   3.662   3.169
22316TIP3    H166825   3.889   3.611   3.116
22316TIP3    H266826   3.883   3.723   3.218
22317TIP3   OH266827   4.195   0.770   7.070
22317TIP3    H166828   4.204   0.695   7.011
22317TIP3    H266829   4.268   0.761   7.131
22318TIP3   OH266830   5.104   2.369   6.162
22318TIP3    H166831   5.066   2.281   6.166
22318TIP3    H266832   5.146   2.380   6.247
22319TIP3   OH266833   5.718   8.733   5.460
22319TIP3    H166834   5.786   8.719   5.526
22319TIP3    H266835   5.756   8.798   5.401
22320TIP3   OH266836   3.534   6.596   1.591
22320TIP3    H166837   3.503   6.586   1.681
22320TIP3    H266838   3.455   6.605   1.539
22321TIP3   OH266839   0.469   5.080   1.547
22321TIP3    H166840   0.535   5.065   1.480
22321TIP3    H266841   0.494   5.022   1.619
22322TIP3   OH266842   4.010   2.279   2.300
22322TIP3    H166843   4.076   2.342   2.329
22322TIP3    H266844   3.927   2.323   2.313
22323TIP3   OH266845   4.988   8.107   5.766
22323TIP3    H166846   5.040   8.036   5.802
22323TIP3    H266847   5.041   8.142   5.695
22324TIP3   OH266848   9.148   7.747   0.768
22324TIP3    H166849   9.186   7.835   0.763
22324TIP3    H266850   9.158   7.722   0.860
22325TIP3   OH266851   8.380   8.926   2.123
22325TIP3    H166852   8.346   8.997   2.069
22325TIP3    H266853   8.343   8.942   2.210
22326TIP3   OH266854   1.754   7.432   6.627
22326TIP3    H166855   1.721   7.345   6.650
22326TIP3    H266856   1.761   7.479   6.710
22327TIP3   OH266857   3.344   2.309   0.702
22327TIP3    H166858   3.379   2.364   0.632
22327TIP3    H266859   3.281   2.366   0.747
22328TIP3   OH266860   3.318   6.751   7.743
22328TIP3    H166861   3.411   6.744   7.721
22328TIP3    H266862   3.316   6.793   7.829
22329TIP3   OH266863   8.762   5.111   4.315
22329TIP3    H166864   8.800   5.099   4.228
22329TIP3    H266865   8.719   5.028   4.334
22330TIP3   OH266866   7.008   8.909   5.443
22330TIP3    H166867   7.053   8.835   5.485
22330TIP3    H266868   7.072   8.945   5.382
22331TIP3   OH266869   8.236   8.743   4.761
22331TIP3    H166870   8.227   8.652   4.733
22331TIP3    H266871   8.328   8.764   4.748
22332TIP3   OH266872   9.219   7.083   0.945
22332TIP3    H166873   9.137   7.131   0.936
22332TIP3    H266874   9.248   7.070   0.855
22333TIP3   OH266875   5.904   3.585   0.473
22333TIP3    H166876   5.910   3.630   0.557
22333TIP3    H266877   5.868   3.498   0.494
22334TIP3   OH266878   2.071   5.895   4.966
22334TIP3    H166879   2.070   5.934   5.053
22334TIP3    H266880   2.163   5.893   4.940
22335TIP3   OH266881   6.372   2.060   0.287
22335TIP3    H166882   6.373   1.976   0.331
22335TIP3    H266883   6.457   2.099   0.306
22336TIP3   OH266884   8.692   2.384   6.703
22336TIP3    H166885   8.726   2.474   6.707
22336TIP3    H266886   8.645   2.381   6.620
22337TIP3   OH266887   2.330   6.042   3.735
22337TIP3    H166888   2.301   6.029   3.825
22337TIP3    H266889   2.410   6.094   3.743
22338TIP3   OH266890   2.680   0.129   3.053
22338TIP3    H166891   2.607   0.100   3.107
22338TIP3    H266892   2.722   0.048   3.024
22339TIP3   OH266893   4.977   2.932   6.098
22339TIP3    H166894   5.040   2.859   6.097
22339TIP3    H266895   4.933   2.925   6.182
22340TIP3   OH266896   0.508   3.794   0.583
22340TIP3    H166897   0.516   3.864   0.519
22340TIP3    H266898   0.578   3.811   0.647
22341TIP3   OH266899   2.287   8.541   5.448
22341TIP3    H166900   2.192   8.538   5.461
22341TIP3    H266901   2.322   8.571   5.532
22342TIP3   OH266902   0.801   6.313   0.151
22342TIP3    H166903   0.777   6.226   0.119
22342TIP3    H266904   0.729   6.370   0.123
22343TIP3   OH266905   9.090   4.677   7.021
22343TIP3    H166906   9.175   4.658   6.982
22343TIP3    H266907   9.057   4.752   6.971
22344TIP3   OH266908   6.794   2.098   4.147
22344TIP3    H166909   6.817   2.006   4.133
22344TIP3    H266910   6.699   2.100   4.143
22345TIP3   OH266911   8.742   2.808   3.653
22345TIP3    H166912   8.647   2.813   3.644
22345TIP3    H266913   8.776   2.821   3.565
22346TIP3   OH266914   6.996   8.631   4.383
22346TIP3    H166915   6.999   8.722   4.354
22346TIP3    H266916   7.070   8.623   4.444
22347TIP3   OH266917   2.866   0.819   5.809
22347TIP3    H166918   2.852   0.897   5.864
22347TIP3    H266919   2.788   0.815   5.753
22348TIP3   OH266920   0.418   1.664   0.753
22348TIP3    H166921   0.459   1.665   0.667
22348TIP3    H266922   0.356   1.738   0.750
22349TIP3   OH266923   6.118   5.859   7.026
22349TIP3    H166924   6.040   5.911   7.005
22349TIP3    H266925   6.183   5.886   6.961
22350TIP3   OH266926   4.896   1.038   5.932
22350TIP3    H166927   4.951   0.992   5.995
22350TIP3    H266928   4.832   1.085   5.985
22351TIP3   OH266929   5.281   6.639   3.398
22351TIP3    H166930   5.267   6.711   3.337
22351TIP3    H266931   5.341   6.580   3.351
22352TIP3   OH266932   7.582   3.722   4.475
22352TIP3    H166933   7.572   3.792   4.538
22352TIP3    H266934   7.536   3.647   4.514
22353TIP3   OH266935   8.935   6.109   4.196
22353TIP3    H166936   8.896   6.072   4.116
22353TIP3    H266937   9.029   6.104   4.181
22354TIP3   OH266938   8.167   2.360   5.983
22354TIP3    H166939   8.181   2.291   6.048
22354TIP3    H266940   8.112   2.320   5.916
22355TIP3   OH266941   4.003   4.915   4.271
22355TIP3    H166942   4.026   4.994   4.223
22355TIP3    H266943   3.908   4.907   4.259
22356TIP3   OH266944   0.263   4.342   7.012
22356TIP3    H166945   0.203   4.366   6.941
22356TIP3    H266946   0.332   4.408   7.009
22357TIP3   OH266947   5.483   8.287   3.315
22357TIP3    H166948   5.493   8.380   3.292
22357TIP3    H266949   5.506   8.283   3.408
22358TIP3   OH266950   8.177   2.166   5.442
22358TIP3    H166951   8.098   2.123   5.410
22358TIP3    H266952   8.190   2.131   5.530
22359TIP3   OH266953   2.608   1.008   7.596
22359TIP3    H166954   2.538   0.970   7.650
22359TIP3    H266955   2.573   1.006   7.507
22360TIP3   OH266956   2.412   0.342   5.969
22360TIP3    H166957   2.471   0.315   5.898
22360TIP3    H266958   2.436   0.433   5.987
22361TIP3   OH266959   3.870   3.256   3.639
22361TIP3    H166960   3.829   3.282   3.722
22361TIP3    H266961   3.924   3.331   3.615
22362TIP3   OH266962   2.632   3.010   0.233
22362TIP3    H166963   2.549   2.963   0.221
22362TIP3    H266964   2.699   2.942   0.234
22363TIP3   OH266965   3.390   5.999   0.953
22363TIP3    H166966   3.310   6.018   1.002
22363TIP3    H266967   3.390   6.063   0.882
22364TIP3   OH266968   7.407   1.580   3.466
22364TIP3    H166969   7.340   1.567   3.398
22364TIP3    H266970   7.399   1.672   3.490
22365TIP3   OH266971   2.471   8.994   5.977
22365TIP3    H166972   2.386   9.028   5.948
22365TIP3    H266973   2.469   8.901   5.954
22366TIP3   OH266974   5.308   0.251   6.450
22366TIP3    H166975   5.231   0.283   6.402
22366TIP3    H266976   5.336   0.325   6.503
22367TIP3   OH266977   2.597   7.140   6.926
22367TIP3    H166978   2.510   7.110   6.898
22367TIP3    H266979   2.651   7.061   6.926
22368TIP3   OH266980   0.665   8.731   0.570
22368TIP3    H166981   0.627   8.807   0.613
22368TIP3    H266982   0.611   8.657   0.598
22369TIP3   OH266983   7.552   3.958   3.639
22369TIP3    H166984   7.465   3.999   3.636
22369TIP3    H266985   7.544   3.881   3.583
22370TIP3   OH266986   7.833   1.581   1.366
22370TIP3    H166987   7.888   1.533   1.304
22370TIP3    H266988   7.825   1.523   1.441
22371TIP3   OH266989   2.357   4.455   0.544
22371TIP3    H166990   2.311   4.522   0.494
22371TIP3    H266991   2.433   4.432   0.490
22372TIP3   OH266992   6.103   0.259   7.779
22372TIP3    H166993   6.049   0.215   7.845
22372TIP3    H266994   6.044   0.271   7.704
22373TIP3   OH266995   1.082   3.012   3.854
22373TIP3    H166996   1.152   2.949   3.872
22373TIP3    H266997   1.004   2.958   3.842
22374TIP3   OH266998   5.524   2.908   7.187
22374TIP3    H166999   5.599   2.918   7.246
22374TIP3    H267000   5.488   2.997   7.179
22375TIP3   OH267001   0.478   8.018   1.253
22375TIP3    H167002   0.479   8.015   1.158
22375TIP3    H267003   0.494   8.110   1.275
22376TIP3   OH267004   3.638   2.331   2.138
22376TIP3    H167005   3.657   2.239   2.117
22376TIP3    H267006   3.705   2.381   2.090
22377TIP3   OH267007   5.894   2.161   5.225
22377TIP3    H167008   5.985   2.137   5.208
22377TIP3    H267009   5.893   2.187   5.318
22378TIP3   OH267010   4.812   4.682   0.329
22378TIP3    H167011   4.869   4.752   0.297
22378TIP3    H267012   4.735   4.727   0.364
22379TIP3   OH267013   3.015   7.218   4.127
22379TIP3    H167014   3.101   7.260   4.132
22379TIP3    H267015   2.981   7.243   4.041
22380TIP3   OH267016   4.553   2.364   6.895
22380TIP3    H167017   4.638   2.400   6.918
22380TIP3    H267018   4.515   2.429   6.835
22381TIP3   OH267019   7.350   4.909   0.516
22381TIP3    H167020   7.402   4.964   0.458
22381TIP3    H267021   7.319   4.968   0.585
22382TIP3   OH267022   9.492   3.324   3.356
22382TIP3    H167023   9.473   3.230   3.363
22382TIP3    H267024   9.509   3.338   3.263
22383TIP3   OH267025   9.026   5.124   4.464
22383TIP3    H167026   8.965   5.199   4.461
22383TIP3    H267027   8.970   5.049   4.484
22384TIP3   OH267028   5.627   3.978   6.989
22384TIP3    H167029   5.707   3.992   7.039
22384TIP3    H267030   5.654   3.990   6.898
22385TIP3   OH267031   5.451   0.494   6.337
22385TIP3    H167032   5.443   0.414   6.284
22385TIP3    H267033   5.526   0.477   6.394
22386TIP3   OH267034   8.062   0.005   1.069
22386TIP3    H167035   8.056   0.009   1.165
22386TIP3    H267036   8.106   0.086   1.045
22387TIP3   OH267037   1.720   0.189   5.671
22387TIP3    H167038   1.648   0.128   5.656
22387TIP3    H267039   1.743   0.221   5.584
22388TIP3   OH267040   6.669   2.601   2.340
22388TIP3    H167041   6.717   2.518   2.343
22388TIP3    H267042   6.679   2.637   2.428
22389TIP3   OH267043   6.891   2.953   0.646
22389TIP3    H167044   6.916   2.951   0.554
22389TIP3    H267045   6.953   2.894   0.689
22390TIP3   OH267046   6.734   0.986   3.323
22390TIP3    H167047   6.721   1.002   3.416
22390TIP3    H267048   6.779   0.901   3.319
22391TIP3   OH267049   0.361   8.043   3.643
22391TIP3    H167050   0.295   8.043   3.574
22391TIP3    H267051   0.434   8.094   3.605
22392TIP3   OH267052   3.408   5.563   2.885
22392TIP3    H167053   3.328   5.595   2.927
22392TIP3    H267054   3.377   5.497   2.824
22393TIP3   OH267055   4.892   7.522   4.824
22393TIP3    H167056   4.946   7.596   4.797
22393TIP3    H267057   4.953   7.449   4.834
22394TIP3   OH267058   4.685   0.664   2.574
22394TIP3    H167059   4.710   0.580   2.537
22394TIP3    H267060   4.602   0.686   2.531
22395TIP3   OH267061   3.513   6.546   1.286
22395TIP3    H167062   3.459   6.617   1.321
22395TIP3    H267063   3.576   6.590   1.228
22396TIP3   OH267064   6.734   4.400   1.827
22396TIP3    H167065   6.726   4.390   1.732
22396TIP3    H267066   6.683   4.327   1.863
22397TIP3   OH267067   1.938   7.329   1.032
22397TIP3    H167068   1.887   7.251   1.013
22397TIP3    H267069   1.874   7.394   1.059
22398TIP3   OH267070   0.577   4.703   5.627
22398TIP3    H167071   0.613   4.631   5.679
22398TIP3    H267072   0.600   4.782   5.674
22399TIP3   OH267073   5.335   8.120   4.275
22399TIP3    H167074   5.426   8.090   4.273
22399TIP3    H267075   5.297   8.076   4.351
22400TIP3   OH267076   7.138   5.325   3.574
22400TIP3    H167077   7.094   5.286   3.649
22400TIP3    H267078   7.219   5.276   3.565
22401TIP3   OH267079   4.982   4.585   6.699
22401TIP3    H167080   4.969   4.586   6.604
22401TIP3    H267081   5.072   4.555   6.710
22402TIP3   OH267082   2.659   3.834   6.003
22402TIP3    H167083   2.654   3.904   5.938
22402TIP3    H267084   2.735   3.782   5.976
22403TIP3   OH267085   3.694   4.274   7.039
22403TIP3    H167086   3.619   4.327   7.009
22403TIP3    H267087   3.745   4.259   6.960
22404TIP3   OH267088   7.273   6.864   3.631
22404TIP3    H167089   7.324   6.793   3.671
22404TIP3    H267090   7.221   6.821   3.564
22405TIP3   OH267091   5.313   6.035   4.198
22405TIP3    H167092   5.373   5.988   4.255
22405TIP3    H267093   5.315   5.987   4.115
22406TIP3   OH267094   3.065   4.714   1.638
22406TIP3    H167095   2.988   4.660   1.619
22406TIP3    H267096   3.089   4.691   1.727
22407TIP3   OH267097   5.380   6.446   1.053
22407TIP3    H167098   5.350   6.408   1.136
22407TIP3    H267099   5.378   6.541   1.068
22408TIP3   OH267100   0.362   0.992   1.469
22408TIP3    H167101   0.440   0.952   1.508
22408TIP3    H267102   0.295   0.986   1.536
22409TIP3   OH267103   2.210   6.631   0.560
22409TIP3    H167104   2.214   6.716   0.604
22409TIP3    H267105   2.211   6.567   0.632
22410TIP3   OH267106   4.129   6.987   1.361
22410TIP3    H167107   4.178   6.957   1.285
22410TIP3    H267108   4.070   6.915   1.382
22411TIP3   OH267109   1.879   7.037   5.227
22411TIP3    H167110   1.810   6.977   5.199
22411TIP3    H267111   1.961   6.993   5.204
22412TIP3   OH267112   5.738   3.131   1.140
22412TIP3    H167113   5.792   3.083   1.076
22412TIP3    H267114   5.675   3.179   1.087
22413TIP3   OH267115   4.465   6.103   0.256
22413TIP3    H167116   4.546   6.054   0.273
22413TIP3    H267117   4.437   6.133   0.342
22414TIP3   OH267118   8.729   0.985   4.947
22414TIP3    H167119   8.740   0.992   5.042
22414TIP3    H267120   8.641   1.020   4.930
22415TIP3   OH267121   3.476   8.754   3.415
22415TIP3    H167122   3.414   8.704   3.467
22415TIP3    H267123   3.562   8.724   3.445
22416TIP3   OH267124   4.284   3.259   0.262
22416TIP3    H167125   4.243   3.173   0.250
22416TIP3    H267126   4.267   3.281   0.353
22417TIP3   OH267127   9.407   0.181   1.028
22417TIP3    H167128   9.312   0.175   1.033
22417TIP3    H267129   9.433   0.113   0.966
22418TIP3   OH267130   4.536   7.388   3.075
22418TIP3    H167131   4.511   7.383   3.167
22418TIP3    H267132   4.496   7.312   3.034
22419TIP3   OH267133   1.688   7.997   0.545
22419TIP3    H167134   1.664   7.934   0.477
22419TIP3    H267135   1.721   7.944   0.617
22420TIP3   OH267136   8.317   3.957   0.156
22420TIP3    H167137   8.298   4.035   0.105
22420TIP3    H267138   8.375   3.905   0.100
22421TIP3   OH267139   6.235   1.283   4.876
22421TIP3    H167140   6.224   1.225   4.952
22421TIP3    H267141   6.307   1.245   4.827
22422TIP3   OH267142   3.977   2.822   2.670
22422TIP3    H167143   3.968   2.904   2.718
22422TIP3    H267144   3.923   2.760   2.720
22423TIP3   OH267145   3.797   3.181   2.513
22423TIP3    H167146   3.837   3.172   2.600
22423TIP3    H267147   3.704   3.193   2.531
22424TIP3   OH267148   3.768   5.771   2.328
22424TIP3    H167149   3.743   5.679   2.332
22424TIP3    H267150   3.852   5.771   2.282
22425TIP3   OH267151   6.562   2.449   6.432
22425TIP3    H167152   6.649   2.471   6.465
22425TIP3    H267153   6.579   2.385   6.362
22426TIP3   OH267154   1.216   6.104   3.934
22426TIP3    H167155   1.264   6.164   3.878
22426TIP3    H267156   1.250   6.120   4.022
22427TIP3   OH267157   6.266   1.799   5.707
22427TIP3    H167158   6.190   1.819   5.653
22427TIP3    H267159   6.341   1.831   5.657
22428TIP3   OH267160   7.898   2.138   5.363
22428TIP3    H167161   7.878   2.156   5.271
22428TIP3    H267162   7.884   2.044   5.372
22429TIP3   OH267163   5.588   5.634   7.086
22429TIP3    H167164   5.607   5.583   7.007
22429TIP3    H267165   5.672   5.673   7.110
22430TIP3   OH267166   2.900   3.749   5.906
22430TIP3    H167167   2.976   3.694   5.886
22430TIP3    H267168   2.932   3.815   5.968
22431TIP3   OH267169   8.434   8.154   3.787
22431TIP3    H167170   8.378   8.112   3.852
22431TIP3    H267171   8.407   8.245   3.787
22432TIP3   OH267172   1.229   5.391   3.959
22432TIP3    H167173   1.322   5.412   3.947
22432TIP3    H267174   1.212   5.323   3.894
22433TIP3   OH267175   3.911   3.900   6.787
22433TIP3    H167176   3.989   3.932   6.741
22433TIP3    H267177   3.945   3.839   6.853
22434TIP3   OH267178   6.384   5.115   7.599
22434TIP3    H167179   6.426   5.171   7.533
22434TIP3    H267180   6.310   5.166   7.631
22435TIP3   OH267181   6.266   7.450   3.045
22435TIP3    H167182   6.291   7.518   2.983
22435TIP3    H267183   6.213   7.495   3.111
22436TIP3   OH267184   8.120   4.308   0.244
22436TIP3    H167185   8.029   4.330   0.266
22436TIP3    H267186   8.151   4.255   0.317
22437TIP3   OH267187   3.804   1.582   5.935
22437TIP3    H167188   3.829   1.673   5.922
22437TIP3    H267189   3.738   1.565   5.867
22438TIP3   OH267190   6.951   4.842   3.055
22438TIP3    H167191   6.952   4.750   3.029
22438TIP3    H267192   6.927   4.841   3.147
22439TIP3   OH267193   5.489   3.999   5.780
22439TIP3    H167194   5.495   3.906   5.805
22439TIP3    H267195   5.563   4.040   5.825
22440TIP3   OH267196   9.090   2.249   1.260
22440TIP3    H167197   9.098   2.330   1.210
22440TIP3    H267198   9.083   2.180   1.193
22441TIP3   OH267199   6.129   1.244   3.239
22441TIP3    H167200   6.202   1.306   3.227
22441TIP3    H267201   6.093   1.231   3.151
22442TIP3   OH267202   0.389   6.364   1.718
22442TIP3    H167203   0.468   6.414   1.697
22442TIP3    H267204   0.362   6.397   1.804
22443TIP3   OH267205   9.126   4.014   6.293
22443TIP3    H167206   9.151   4.098   6.332
22443TIP3    H267207   9.097   4.037   6.204
22444TIP3   OH267208   1.509   6.441   2.519
22444TIP3    H167209   1.478   6.472   2.604
22444TIP3    H267210   1.589   6.392   2.539
22445TIP3   OH267211   4.632   0.170   4.282
22445TIP3    H167212   4.688   0.212   4.217
22445TIP3    H267213   4.693   0.136   4.348
22446TIP3   OH267214   8.514   0.646   4.053
22446TIP3    H167215   8.441   0.651   3.991
22446TIP3    H267216   8.549   0.558   4.041
22447TIP3   OH267217   5.820   7.394   5.433
22447TIP3    H167218   5.781   7.481   5.444
22447TIP3    H267219   5.867   7.379   5.515
22448TIP3   OH267220   3.142   7.873   0.896
22448TIP3    H167221   3.070   7.809   0.898
22448TIP3    H267222   3.214   7.830   0.941
22449TIP3   OH267223   7.621   5.210   3.769
22449TIP3    H167224   7.689   5.185   3.832
22449TIP3    H267225   7.542   5.166   3.800
22450TIP3   OH267226   5.937   7.009   0.836
22450TIP3    H167227   6.024   7.008   0.795
22450TIP3    H267228   5.914   7.102   0.841
22451TIP3   OH267229   4.455   2.792   7.399
22451TIP3    H167230   4.500   2.801   7.483
22451TIP3    H267231   4.515   2.833   7.336
22452TIP3   OH267232   2.408   6.957   2.080
22452TIP3    H167233   2.403   7.048   2.053
22452TIP3    H267234   2.325   6.918   2.053
22453TIP3   OH267235   3.669   4.463   6.242
22453TIP3    H167236   3.763   4.466   6.221
22453TIP3    H267237   3.658   4.527   6.312
22454TIP3   OH267238   5.838   5.716   7.187
22454TIP3    H167239   5.859   5.698   7.279
22454TIP3    H267240   5.903   5.665   7.138
22455TIP3   OH267241   2.977   5.873   0.551
22455TIP3    H167242   3.002   5.899   0.640
22455TIP3    H267243   2.937   5.787   0.561
22456TIP3   OH267244   5.040   2.278   0.755
22456TIP3    H167245   5.060   2.297   0.663
22456TIP3    H267246   5.087   2.196   0.773
22457TIP3   OH267247   8.258   1.103   5.916
22457TIP3    H167248   8.303   1.095   5.832
22457TIP3    H267249   8.311   1.165   5.966
22458TIP3   OH267250   4.856   5.463   7.170
22458TIP3    H167251   4.887   5.488   7.257
22458TIP3    H267252   4.769   5.427   7.186
22459TIP3   OH267253   9.395   2.563   3.787
22459TIP3    H167254   9.311   2.517   3.782
22459TIP3    H267255   9.388   2.634   3.724
22460TIP3   OH267256   1.258   8.427   3.160
22460TIP3    H167257   1.300   8.364   3.101
22460TIP3    H267258   1.182   8.458   3.110
22461TIP3   OH267259   6.071   3.665   5.178
22461TIP3    H167260   6.015   3.706   5.113
22461TIP3    H267261   6.122   3.737   5.215
22462TIP3   OH267262   8.677   8.804   5.262
22462TIP3    H167263   8.761   8.822   5.220
22462TIP3    H267264   8.693   8.815   5.355
22463TIP3   OH267265   4.320   6.385   4.723
22463TIP3    H167266   4.288   6.322   4.659
22463TIP3    H267267   4.345   6.332   4.798
22464TIP3   OH267268   6.974   1.220   3.990
22464TIP3    H167269   7.002   1.270   4.067
22464TIP3    H267270   7.054   1.178   3.959
22465TIP3   OH267271   1.444   2.996   3.741
22465TIP3    H167272   1.443   3.044   3.824
22465TIP3    H267273   1.427   2.905   3.766
22466TIP3   OH267274   8.573   8.546   5.304
22466TIP3    H167275   8.626   8.624   5.289
22466TIP3    H267276   8.562   8.542   5.399
22467TIP3   OH267277   0.007   4.017   5.472
22467TIP3    H167278   0.078   3.956   5.491
22467TIP3    H267279   0.006   4.076   5.548
22468TIP3   OH267280   7.863   1.883   5.450
22468TIP3    H167281   7.854   1.869   5.356
22468TIP3    H267282   7.790   1.835   5.489
22469TIP3   OH267283   2.846   1.792   1.957
22469TIP3    H167284   2.783   1.855   1.920
22469TIP3    H267285   2.905   1.845   2.010
22470TIP3   OH267286   7.700   8.072   4.785
22470TIP3    H167287   7.678   8.109   4.700
22470TIP3    H267288   7.771   8.010   4.766
22471TIP3   OH267289   5.142   4.518   7.781
22471TIP3    H167290   5.147   4.588   7.846
22471TIP3    H267291   5.065   4.467   7.806
22472TIP3   OH267292   2.197   0.844   6.783
22472TIP3    H167293   2.154   0.896   6.851
22472TIP3    H267294   2.125   0.807   6.732
22473TIP3   OH267295   4.555   8.942   6.411
22473TIP3    H167296   4.569   9.032   6.382
22473TIP3    H267297   4.626   8.893   6.371
22474TIP3   OH267298   4.812   2.529   4.896
22474TIP3    H167299   4.733   2.577   4.869
22474TIP3    H267300   4.779   2.449   4.936
22475TIP3   OH267301   3.430   7.418   6.502
22475TIP3    H167302   3.445   7.447   6.591
22475TIP3    H267303   3.412   7.324   6.509
22476TIP3   OH267304   9.358   7.494   0.995
22476TIP3    H167305   9.367   7.588   1.010
22476TIP3    H267306   9.327   7.487   0.904
22477TIP3   OH267307   7.639   4.749   2.361
22477TIP3    H167308   7.575   4.679   2.352
22477TIP3    H267309   7.613   4.814   2.297
22478TIP3   OH267310   8.870   3.901   3.899
22478TIP3    H167311   8.826   3.843   3.961
22478TIP3    H267312   8.954   3.921   3.941
22479TIP3   OH267313   2.210   4.516   0.823
22479TIP3    H167314   2.300   4.488   0.811
22479TIP3    H267315   2.158   4.436   0.811
22480TIP3   OH267316   1.522   6.608   7.282
22480TIP3    H167317   1.581   6.535   7.303
22480TIP3    H267318   1.505   6.649   7.366
22481TIP3   OH267319   2.014   4.579   3.905
22481TIP3    H167320   2.080   4.649   3.902
22481TIP3    H267321   1.952   4.602   3.836
22482TIP3   OH267322   0.483   6.796   5.056
22482TIP3    H167323   0.504   6.842   4.975
22482TIP3    H267324   0.554   6.732   5.066
22483TIP3   OH267325   0.827   5.597   3.166
22483TIP3    H167326   0.851   5.508   3.142
22483TIP3    H267327   0.756   5.587   3.228
22484TIP3   OH267328   4.238   1.209   5.918
22484TIP3    H167329   4.315   1.153   5.915
22484TIP3    H267330   4.164   1.147   5.921
22485TIP3   OH267331   8.919   3.335   2.356
22485TIP3    H167332   8.863   3.284   2.297
22485TIP3    H267333   8.951   3.407   2.301
22486TIP3   OH267334   4.896   7.817   1.529
22486TIP3    H167335   4.815   7.811   1.479
22486TIP3    H267336   4.966   7.811   1.464
22487TIP3   OH267337   2.446   4.340   7.401
22487TIP3    H167338   2.486   4.391   7.472
22487TIP3    H267339   2.375   4.291   7.444
22488TIP3   OH267340   6.959   3.430   7.623
22488TIP3    H167341   6.984   3.450   7.713
22488TIP3    H267342   6.929   3.339   7.626
22489TIP3   OH267343   0.605   7.714   6.292
22489TIP3    H167344   0.648   7.666   6.363
22489TIP3    H267345   0.511   7.703   6.310
22490TIP3   OH267346   4.297   6.845   0.112
22490TIP3    H167347   4.317   6.752   0.118
22490TIP3    H267348   4.201   6.849   0.104
22491TIP3   OH267349   6.521   7.696   7.359
22491TIP3    H167350   6.547   7.605   7.366
22491TIP3    H267351   6.503   7.723   7.449
22492TIP3   OH267352   6.257   0.716   4.283
22492TIP3    H167353   6.281   0.773   4.210
22492TIP3    H267354   6.297   0.757   4.360
22493TIP3   OH267355   5.468   1.109   4.403
22493TIP3    H167356   5.397   1.059   4.443
22493TIP3    H267357   5.425   1.187   4.367
22494TIP3   OH267358   4.576   0.679   3.416
22494TIP3    H167359   4.585   0.721   3.330
22494TIP3    H267360   4.556   0.751   3.476
22495TIP3   OH267361   3.280   5.887   7.053
22495TIP3    H167362   3.213   5.849   6.995
22495TIP3    H267363   3.316   5.960   7.002
22496TIP3   OH267364   2.539   8.076   5.663
22496TIP3    H167365   2.499   8.149   5.616
22496TIP3    H267366   2.593   8.118   5.730
22497TIP3   OH267367   4.502   7.227   2.842
22497TIP3    H167368   4.433   7.160   2.840
22497TIP3    H267369   4.523   7.243   2.750
22498TIP3   OH267370   6.259   7.213   6.320
22498TIP3    H167371   6.312   7.253   6.250
22498TIP3    H267372   6.169   7.221   6.289
22499TIP3   OH267373   5.492   0.060   7.690
22499TIP3    H167374   5.484  -0.035   7.701
22499TIP3    H267375   5.560   0.085   7.752
22500TIP3   OH267376   5.345   0.735   0.644
22500TIP3    H167377   5.270   0.694   0.687
22500TIP3    H267378   5.417   0.674   0.657
22501TIP3   OH267379   0.570   3.348   3.030
22501TIP3    H167380   0.525   3.363   3.113
22501TIP3    H267381   0.592   3.254   3.031
22502TIP3   OH267382   7.675   7.576   0.980
22502TIP3    H167383   7.669   7.512   0.908
22502TIP3    H267384   7.723   7.650   0.942
22503TIP3   OH267385   1.504   1.355   6.649
22503TIP3    H167386   1.412   1.382   6.650
22503TIP3    H267387   1.514   1.300   6.727
22504TIP3   OH267388   4.017   1.650   6.328
22504TIP3    H167389   4.049   1.718   6.268
22504TIP3    H267390   3.949   1.604   6.278
22505TIP3   OH267391   6.034   1.175   6.444
22505TIP3    H167392   6.059   1.127   6.523
22505TIP3    H267393   6.001   1.258   6.476
22506TIP3   OH267394   1.526   7.297   7.814
22506TIP3    H167395   1.444   7.298   7.764
22506TIP3    H267396   1.510   7.234   7.885
22507TIP3   OH267397   2.631   5.895   2.153
22507TIP3    H167398   2.539   5.876   2.175
22507TIP3    H267399   2.641   5.859   2.065
22508TIP3   OH267400   2.151   2.737   1.529
22508TIP3    H167401   2.225   2.755   1.586
22508TIP3    H267402   2.159   2.800   1.458
22509TIP3   OH267403   5.398   3.222   5.956
22509TIP3    H167404   5.341   3.298   5.943
22509TIP3    H267405   5.422   3.195   5.867
22510TIP3   OH267406   1.336   2.075   2.587
22510TIP3    H167407   1.330   2.081   2.492
22510TIP3    H267408   1.341   2.166   2.616
22511TIP3   OH267409   3.114   7.140   3.461
22511TIP3    H167410   3.170   7.140   3.384
22511TIP3    H267411   3.149   7.070   3.517
22512TIP3   OH267412   3.138   4.415   6.107
22512TIP3    H167413   3.156   4.367   6.027
22512TIP3    H267414   3.092   4.352   6.163
22513TIP3   OH267415   6.187   7.289   2.847
22513TIP3    H167416   6.146   7.209   2.879
22513TIP3    H267417   6.204   7.340   2.927
22514TIP3   OH267418   7.162   7.438   5.832
22514TIP3    H167419   7.187   7.442   5.739
22514TIP3    H267420   7.067   7.426   5.830
22515TIP3   OH267421   4.448   3.128   4.279
22515TIP3    H167422   4.401   3.201   4.318
22515TIP3    H267423   4.492   3.085   4.352
22516TIP3   OH267424   1.479   8.746   2.571
22516TIP3    H167425   1.446   8.692   2.643
22516TIP3    H267426   1.533   8.813   2.614
22517TIP3   OH267427   7.013   5.252   7.085
22517TIP3    H167428   7.035   5.225   6.996
22517TIP3    H267429   7.063   5.332   7.098
22518TIP3   OH267430   8.554   8.733   7.362
22518TIP3    H167431   8.480   8.791   7.380
22518TIP3    H267432   8.614   8.747   7.435
22519TIP3   OH267433   3.980   3.454   6.979
22519TIP3    H167434   3.902   3.473   7.032
22519TIP3    H267435   3.972   3.360   6.958
22520TIP3   OH267436   3.012   6.397   0.506
22520TIP3    H167437   2.993   6.459   0.437
22520TIP3    H267438   3.032   6.451   0.583
22521TIP3   OH267439   0.330   1.862   5.944
22521TIP3    H167440   0.328   1.767   5.950
22521TIP3    H267441   0.348   1.880   5.852
22522TIP3   OH267442   1.784   1.622   6.323
22522TIP3    H167443   1.777   1.614   6.418
22522TIP3    H267444   1.694   1.623   6.292
22523TIP3   OH267445   6.528   3.528   2.831
22523TIP3    H167446   6.502   3.509   2.922
22523TIP3    H267447   6.457   3.582   2.797
22524TIP3   OH267448   2.520   4.760   4.603
22524TIP3    H167449   2.524   4.817   4.679
22524TIP3    H267450   2.533   4.818   4.528
22525TIP3   OH267451   9.399   4.443   7.635
22525TIP3    H167452   9.488   4.461   7.604
22525TIP3    H267453   9.411   4.388   7.712
22526TIP3   OH267454   3.806   5.219   0.565
22526TIP3    H167455   3.775   5.308   0.549
22526TIP3    H267456   3.754   5.164   0.506
22527TIP3   OH267457   8.965   8.717   6.107
22527TIP3    H167458   8.887   8.769   6.123
22527TIP3    H267459   9.005   8.707   6.194
22528TIP3   OH267460   6.192   7.819   7.411
22528TIP3    H167461   6.207   7.878   7.485
22528TIP3    H267462   6.103   7.786   7.425
22529TIP3   OH267463   3.036   0.766   1.653
22529TIP3    H167464   2.977   0.711   1.704
22529TIP3    H267465   3.122   0.756   1.696
22530TIP3   OH267466   1.135   4.400   6.642
22530TIP3    H167467   1.154   4.398   6.549
22530TIP3    H267468   1.096   4.486   6.657
22531TIP3   OH267469   5.876   6.125   6.277
22531TIP3    H167470   5.808   6.104   6.341
22531TIP3    H267471   5.931   6.191   6.320
22532TIP3   OH267472   1.101   8.350   2.244
22532TIP3    H167473   1.152   8.401   2.306
22532TIP3    H267474   1.129   8.259   2.257
22533TIP3   OH267475   5.055   1.459   1.562
22533TIP3    H167476   5.090   1.382   1.516
22533TIP3    H267477   4.960   1.452   1.552
22534TIP3   OH267478   0.444   7.882   4.432
22534TIP3    H167479   0.385   7.891   4.358
22534TIP3    H267480   0.421   7.798   4.471
22535TIP3   OH267481   4.428   2.711   1.402
22535TIP3    H167482   4.477   2.793   1.406
22535TIP3    H267483   4.339   2.735   1.430
22536TIP3   OH267484   7.537   6.062   7.265
22536TIP3    H167485   7.465   6.044   7.205
22536TIP3    H267486   7.608   6.005   7.237
22537TIP3   OH267487   0.787   4.671   2.762
22537TIP3    H167488   0.732   4.648   2.837
22537TIP3    H267489   0.776   4.599   2.701
22538TIP3   OH267490   7.142   5.881   4.701
22538TIP3    H167491   7.064   5.826   4.692
22538TIP3    H267492   7.113   5.956   4.753
22539TIP3   OH267493   0.073   7.215   3.914
22539TIP3    H167494   0.148   7.209   3.854
22539TIP3    H267495   0.099   7.164   3.991
22540TIP3   OH267496   9.230   8.430   2.914
22540TIP3    H167497   9.162   8.434   2.981
22540TIP3    H267498   9.308   8.466   2.957
22541TIP3   OH267499   3.459   5.512   2.206
22541TIP3    H167500   3.530   5.509   2.271
22541TIP3    H267501   3.500   5.550   2.128
22542TIP3   OH267502   9.013   2.026   1.641
22542TIP3    H167503   8.925   2.065   1.644
22542TIP3    H267504   9.040   2.021   1.733
22543TIP3   OH267505   1.617   5.021   4.528
22543TIP3    H167506   1.594   4.986   4.442
22543TIP3    H267507   1.710   5.044   4.520
22544TIP3   OH267508   9.522   0.388   4.300
22544TIP3    H167509   9.528   0.388   4.204
22544TIP3    H267510   9.548   0.300   4.326
22545TIP3   OH267511   6.333   3.498   6.449
22545TIP3    H167512   6.407   3.497   6.509
22545TIP3    H267513   6.367   3.460   6.368
22546TIP3   OH267514   2.888   5.016   0.020
22546TIP3    H167515   2.800   5.046   0.042
22546TIP3    H267516   2.895   4.929   0.061
22547TIP3   OH267517   2.429   0.836   7.762
22547TIP3    H167518   2.411   0.867   7.851
22547TIP3    H267519   2.521   0.809   7.764
22548TIP3   OH267520   0.906   0.161   5.434
22548TIP3    H167521   0.955   0.162   5.517
22548TIP3    H267522   0.931   0.078   5.394
22549TIP3   OH267523   4.791   0.118   3.731
22549TIP3    H167524   4.779   0.182   3.661
22549TIP3    H267525   4.727   0.050   3.712
22550TIP3   OH267526   7.122   3.773   1.047
22550TIP3    H167527   7.042   3.785   1.097
22550TIP3    H267528   7.147   3.861   1.020
22551TIP3   OH267529   1.480   4.215   4.213
22551TIP3    H167530   1.419   4.141   4.219
22551TIP3    H267531   1.535   4.207   4.291
22552TIP3   OH267532   6.475   1.136   6.719
22552TIP3    H167533   6.436   1.103   6.800
22552TIP3    H267534   6.461   1.230   6.723
22553TIP3   OH267535   5.863   7.339   2.251
22553TIP3    H167536   5.835   7.305   2.336
22553TIP3    H267537   5.957   7.322   2.248
22554TIP3   OH267538   3.289   3.428   0.018
22554TIP3    H167539   3.243   3.502   0.057
22554TIP3    H267540   3.332   3.385   0.092
22555TIP3   OH267541   1.673   7.082   5.681
22555TIP3    H167542   1.768   7.090   5.691
22555TIP3    H267543   1.654   7.119   5.595
22556TIP3   OH267544   4.704   7.447   5.616
22556TIP3    H167545   4.758   7.416   5.689
22556TIP3    H267546   4.747   7.527   5.586
22557TIP3   OH267547   1.559   4.718   7.084
22557TIP3    H167548   1.604   4.667   7.152
22557TIP3    H267549   1.501   4.777   7.132
22558TIP3   OH267550   4.222   5.743   0.166
22558TIP3    H167551   4.305   5.729   0.212
22558TIP3    H267552   4.159   5.691   0.215
22559TIP3   OH267553   2.118   0.998   4.895
22559TIP3    H167554   2.075   1.075   4.931
22559TIP3    H267555   2.193   0.982   4.952
22560TIP3   OH267556   7.559   1.297   3.227
22560TIP3    H167557   7.566   1.391   3.216
22560TIP3    H267558   7.513   1.267   3.149
22561TIP3   OH267559   8.315   5.391   3.944
22561TIP3    H167560   8.315   5.372   4.038
22561TIP3    H267561   8.397   5.439   3.929
22562TIP3   OH267562   3.771   8.371   2.088
22562TIP3    H167563   3.692   8.423   2.073
22562TIP3    H267564   3.741   8.281   2.087
22563TIP3   OH267565   6.034   6.238   5.267
22563TIP3    H167566   5.974   6.247   5.193
22563TIP3    H267567   5.977   6.222   5.342
22564TIP3   OH267568   7.677   6.271   6.605
22564TIP3    H167569   7.628   6.345   6.642
22564TIP3    H267570   7.752   6.260   6.664
22565TIP3   OH267571   0.440   6.861   2.580
22565TIP3    H167572   0.359   6.906   2.557
22565TIP3    H267573   0.505   6.932   2.587
22566TIP3   OH267574   9.015   7.742   2.274
22566TIP3    H167575   9.067   7.766   2.197
22566TIP3    H267576   9.052   7.795   2.345
22567TIP3   OH267577   0.812   7.290   3.750
22567TIP3    H167578   0.879   7.319   3.689
22567TIP3    H267579   0.750   7.241   3.697
22568TIP3   OH267580   4.502   6.502   4.244
22568TIP3    H167581   4.445   6.515   4.169
22568TIP3    H267582   4.455   6.540   4.318
22569TIP3   OH267583   5.273   8.328   6.895
22569TIP3    H167584   5.230   8.384   6.830
22569TIP3    H267585   5.358   8.370   6.911
22570TIP3   OH267586   3.714   8.406   1.213
22570TIP3    H167587   3.806   8.389   1.193
22570TIP3    H267588   3.693   8.484   1.162
22571TIP3   OH267589   4.706   2.607   5.526
22571TIP3    H167590   4.687   2.531   5.471
22571TIP3    H267591   4.678   2.683   5.474
22572TIP3   OH267592   6.866   5.275   4.002
22572TIP3    H167593   6.824   5.213   4.062
22572TIP3    H267594   6.822   5.359   4.019
22573TIP3   OH267595   5.121   1.611   0.661
22573TIP3    H167596   5.113   1.677   0.729
22573TIP3    H267597   5.050   1.549   0.679
22574TIP3   OH267598   7.681   0.180   4.585
22574TIP3    H167599   7.648   0.235   4.656
22574TIP3    H267600   7.754   0.132   4.624
22575TIP3   OH267601   5.126   7.616   7.487
22575TIP3    H167602   5.175   7.694   7.514
22575TIP3    H267603   5.058   7.649   7.428
22576TIP3   OH267604   6.471   6.726   3.019
22576TIP3    H167605   6.455   6.719   3.113
22576TIP3    H267606   6.395   6.774   2.986
22577TIP3   OH267607   0.315   6.912   0.423
22577TIP3    H167608   0.353   6.873   0.344
22577TIP3    H267609   0.288   6.838   0.477
22578TIP3   OH267610   0.706   3.271   3.831
22578TIP3    H167611   0.661   3.208   3.775
22578TIP3    H267612   0.656   3.352   3.821
22579TIP3   OH267613   8.347   5.683   2.712
22579TIP3    H167614   8.403   5.743   2.762
22579TIP3    H267615   8.401   5.657   2.637
22580TIP3   OH267616   3.217   7.330   0.462
22580TIP3    H167617   3.216   7.314   0.368
22580TIP3    H267618   3.213   7.425   0.470
22581TIP3   OH267619   9.571   1.323   5.373
22581TIP3    H167620   9.489   1.274   5.369
22581TIP3    H267621   9.640   1.256   5.372
22582TIP3   OH267622   9.464   7.250   0.962
22582TIP3    H167623   9.397   7.192   0.926
22582TIP3    H267624   9.417   7.329   0.988
22583TIP3   OH267625   0.129   6.358   5.051
22583TIP3    H167626   0.171   6.298   5.113
22583TIP3    H267627   0.201   6.392   4.998
22584TIP3   OH267628   5.308   0.423   0.660
22584TIP3    H167629   5.308   0.376   0.744
22584TIP3    H267630   5.397   0.412   0.627
22585TIP3   OH267631   8.297   1.875   4.786
22585TIP3    H167632   8.276   1.954   4.736
22585TIP3    H267633   8.262   1.891   4.873
22586TIP3   OH267634   4.616   2.551   5.788
22586TIP3    H167635   4.634   2.592   5.703
22586TIP3    H267636   4.702   2.525   5.821
22587TIP3   OH267637   8.947   5.914   0.166
22587TIP3    H167638   8.979   5.873   0.246
22587TIP3    H267639   8.857   5.882   0.157
22588TIP3   OH267640   1.702   6.461   1.323
22588TIP3    H167641   1.722   6.533   1.383
22588TIP3    H267642   1.749   6.386   1.360
22589TIP3   OH267643   8.511   6.279   6.280
22589TIP3    H167644   8.421   6.308   6.295
22589TIP3    H267645   8.564   6.346   6.322
22590TIP3   OH267646   8.464   0.992   0.183
22590TIP3    H167647   8.372   0.976   0.165
22590TIP3    H267648   8.468   1.017   0.275
22591TIP3   OH267649   7.447   8.546   6.476
22591TIP3    H167650   7.474   8.619   6.531
22591TIP3    H267651   7.491   8.562   6.392
22592TIP3   OH267652   1.881   0.963   7.204
22592TIP3    H167653   1.942   0.917   7.261
22592TIP3    H267654   1.804   0.905   7.200
22593TIP3   OH267655   0.217   1.632   7.733
22593TIP3    H167656   0.216   1.660   7.641
22593TIP3    H267657   0.223   1.537   7.729
22594TIP3   OH267658   0.653   8.838   6.042
22594TIP3    H167659   0.669   8.906   5.977
22594TIP3    H267660   0.600   8.881   6.109
22595TIP3   OH267661   5.147   6.048   4.839
22595TIP3    H167662   5.232   6.020   4.872
22595TIP3    H267663   5.088   5.976   4.860
22596TIP3   OH267664   0.881   5.193   1.043
22596TIP3    H167665   0.801   5.142   1.057
22596TIP3    H267666   0.895   5.190   0.948
22597TIP3   OH267667   4.079   5.318   0.403
22597TIP3    H167668   4.011   5.327   0.335
22597TIP3    H267669   4.150   5.376   0.373
22598TIP3   OH267670   5.492   1.398   0.716
22598TIP3    H167671   5.455   1.341   0.784
22598TIP3    H267672   5.418   1.421   0.661
22599TIP3   OH267673   3.799   2.669   1.509
22599TIP3    H167674   3.796   2.760   1.478
22599TIP3    H267675   3.811   2.676   1.604
22600TIP3   OH267676   0.428   7.840   2.639
22600TIP3    H167677   0.444   7.924   2.597
22600TIP3    H267678   0.457   7.775   2.575
22601TIP3   OH267679   8.884   5.800   3.303
22601TIP3    H167680   8.930   5.812   3.386
22601TIP3    H267681   8.801   5.759   3.328
22602TIP3   OH267682   7.245   8.042   2.644
22602TIP3    H167683   7.271   8.028   2.735
22602TIP3    H267684   7.211   8.131   2.642
22603TIP3   OH267685   5.906   3.697   1.540
22603TIP3    H167686   5.971   3.762   1.513
22603TIP3    H267687   5.937   3.667   1.625
22604TIP3   OH267688   0.190   6.296   7.293
22604TIP3    H167689   0.212   6.384   7.324
22604TIP3    H267690   0.108   6.307   7.245
22605TIP3   OH267691   2.358   2.805   6.181
22605TIP3    H167692   2.322   2.724   6.145
22605TIP3    H267693   2.431   2.827   6.124
22606TIP3   OH267694   7.416   1.766   0.583
22606TIP3    H167695   7.391   1.853   0.615
22606TIP3    H267696   7.335   1.730   0.546
22607TIP3   OH267697   4.580   8.342   1.469
22607TIP3    H167698   4.583   8.437   1.480
22607TIP3    H267699   4.592   8.307   1.557
22608TIP3   OH267700   4.679   7.450   0.052
22608TIP3    H167701   4.590   7.484   0.040
22608TIP3    H267702   4.668   7.370   0.103
22609TIP3   OH267703   6.254   0.900   0.639
22609TIP3    H167704   6.250   0.805   0.653
22609TIP3    H267705   6.325   0.911   0.575
22610TIP3   OH267706   5.709   2.394   2.919
22610TIP3    H167707   5.619   2.394   2.887
22610TIP3    H267708   5.745   2.478   2.891
22611TIP3   OH267709   4.728   6.582   4.533
22611TIP3    H167710   4.783   6.503   4.531
22611TIP3    H267711   4.729   6.614   4.443
22612TIP3   OH267712   2.454   4.969   7.373
22612TIP3    H167713   2.494   4.882   7.379
22612TIP3    H267714   2.446   4.985   7.279
22613TIP3   OH267715   6.935   1.757   0.113
22613TIP3    H167716   6.971   1.691   0.055
22613TIP3    H267717   6.958   1.840   0.072
22614TIP3   OH267718   8.130   6.831   1.533
22614TIP3    H167719   8.055   6.884   1.508
22614TIP3    H267720   8.095   6.744   1.547
22615TIP3   OH267721   3.613   1.067   4.626
22615TIP3    H167722   3.564   1.148   4.612
22615TIP3    H267723   3.650   1.046   4.540
22616TIP3   OH267724   8.732   2.004   0.827
22616TIP3    H167725   8.774   2.068   0.885
22616TIP3    H267726   8.739   2.043   0.740
22617TIP3   OH267727   9.097   3.602   6.576
22617TIP3    H167728   9.101   3.595   6.671
22617TIP3    H267729   9.188   3.617   6.549
22618TIP3   OH267730   1.406   2.372   7.566
22618TIP3    H167731   1.336   2.307   7.570
22618TIP3    H267732   1.361   2.456   7.566
22619TIP3   OH267733   3.326   2.234   3.005
22619TIP3    H167734   3.284   2.153   3.033
22619TIP3    H267735   3.289   2.301   3.064
22620TIP3   OH267736   1.054   8.999   4.439
22620TIP3    H167737   1.081   9.086   4.409
22620TIP3    H267738   1.073   9.000   4.533
22621TIP3   OH267739   2.706   7.757   0.210
22621TIP3    H167740   2.762   7.720   0.141
22621TIP3    H267741   2.634   7.799   0.162
22622TIP3   OH267742   1.653   4.183   4.435
22622TIP3    H167743   1.676   4.108   4.490
22622TIP3    H267744   1.603   4.241   4.493
22623TIP3   OH267745   4.663   0.026   5.630
22623TIP3    H167746   4.702   0.036   5.543
22623TIP3    H267747   4.590   0.087   5.630
22624TIP3   OH267748   6.670   7.936   0.846
22624TIP3    H167749   6.743   7.969   0.898
22624TIP3    H267750   6.643   8.010   0.791
22625TIP3   OH267751   4.182   4.722   7.336
22625TIP3    H167752   4.208   4.685   7.252
22625TIP3    H267753   4.232   4.671   7.401
22626TIP3   OH267754   3.487   4.104   4.902
22626TIP3    H167755   3.486   4.032   4.964
22626TIP3    H267756   3.483   4.062   4.816
22627TIP3   OH267757   0.673   1.803   2.853
22627TIP3    H167758   0.609   1.869   2.880
22627TIP3    H267759   0.619   1.732   2.817
22628TIP3   OH267760   4.221   7.015   3.892
22628TIP3    H167761   4.254   7.105   3.892
22628TIP3    H267762   4.138   7.020   3.939
22629TIP3   OH267763   2.089   0.635   5.826
22629TIP3    H167764   2.169   0.608   5.780
22629TIP3    H267765   2.061   0.558   5.874
22630TIP3   OH267766   8.887   8.589   0.621
22630TIP3    H167767   8.959   8.612   0.562
22630TIP3    H267768   8.917   8.616   0.708
22631TIP3   OH267769   1.908   5.853   1.839
22631TIP3    H167770   1.886   5.923   1.777
22631TIP3    H267771   1.911   5.774   1.787
22632TIP3   OH267772   0.697   2.439   6.946
22632TIP3    H167773   0.662   2.371   6.889
22632TIP3    H267774   0.621   2.476   6.990
22633TIP3   OH267775   0.650   1.275   5.064
22633TIP3    H167776   0.587   1.347   5.053
22633TIP3    H267777   0.612   1.221   5.133
22634TIP3   OH267778   1.740   4.439   7.774
22634TIP3    H167779   1.760   4.505   7.708
22634TIP3    H267780   1.776   4.358   7.738
22635TIP3   OH267781   6.138   3.856   1.960
22635TIP3    H167782   6.114   3.949   1.951
22635TIP3    H267783   6.180   3.850   2.046
22636TIP3   OH267784   0.392   5.836   1.288
22636TIP3    H167785   0.384   5.888   1.368
22636TIP3    H267786   0.366   5.896   1.217
22637TIP3   OH267787   2.207   5.146   5.016
22637TIP3    H167788   2.181   5.054   5.027
22637TIP3    H267789   2.161   5.174   4.937
22638TIP3   OH267790   8.271   0.385   1.939
22638TIP3    H167791   8.364   0.408   1.950
22638TIP3    H267792   8.251   0.330   2.016
22639TIP3   OH267793   8.019   6.926   3.068
22639TIP3    H167794   7.995   6.883   2.986
22639TIP3    H267795   7.979   6.872   3.137
22640TIP3   OH267796   5.128   0.194   7.753
22640TIP3    H167797   5.115   0.220   7.662
22640TIP3    H267798   5.079   0.112   7.762
22641TIP3   OH267799   1.353   6.384   4.049
22641TIP3    H167800   1.375   6.326   4.122
22641TIP3    H267801   1.437   6.406   4.010
22642TIP3   OH267802   6.616   3.762   5.580
22642TIP3    H167803   6.594   3.722   5.664
22642TIP3    H267804   6.703   3.728   5.558
22643TIP3   OH267805   0.353   7.028   6.049
22643TIP3    H167806   0.311   7.092   6.106
22643TIP3    H267807   0.315   7.043   5.963
22644TIP3   OH267808   1.310   7.344   6.042
22644TIP3    H167809   1.372   7.375   5.976
22644TIP3    H267810   1.236   7.404   6.034
22645TIP3   OH267811   0.933   2.963   2.714
22645TIP3    H167812   0.912   3.056   2.700
22645TIP3    H267813   0.958   2.931   2.627
22646TIP3   OH267814   0.260   6.345   0.244
22646TIP3    H167815   0.233   6.270   0.191
22646TIP3    H267816   0.343   6.316   0.284
22647TIP3   OH267817   8.839   1.741   0.719
22647TIP3    H167818   8.902   1.702   0.780
22647TIP3    H267819   8.891   1.805   0.669
22648TIP3   OH267820   6.594   7.835   3.477
22648TIP3    H167821   6.634   7.888   3.546
22648TIP3    H267822   6.508   7.875   3.464
22649TIP3   OH267823   7.593   7.185   4.042
22649TIP3    H167824   7.510   7.203   3.999
22649TIP3    H267825   7.578   7.105   4.092
22650TIP3   OH267826   0.732   4.822   2.469
22650TIP3    H167827   0.680   4.750   2.434
22650TIP3    H267828   0.703   4.898   2.420
22651TIP3   OH267829   0.993   5.773   4.716
22651TIP3    H167830   0.906   5.744   4.742
22651TIP3    H267831   1.014   5.721   4.639
22652TIP3   OH267832   7.187   2.953   4.025
22652TIP3    H167833   7.151   3.000   4.100
22652TIP3    H267834   7.119   2.889   4.002
22653TIP3   OH267835   3.388   4.636   1.981
22653TIP3    H167836   3.473   4.598   1.956
22653TIP3    H267837   3.411   4.722   2.017
22654TIP3   OH267838   7.341   7.209   0.167
22654TIP3    H167839   7.390   7.199   0.248
22654TIP3    H267840   7.287   7.130   0.161
22655TIP3   OH267841   8.861   4.309   6.317
22655TIP3    H167842   8.901   4.260   6.244
22655TIP3    H267843   8.928   4.308   6.385
22656TIP3   OH267844   9.179   1.133   6.569
22656TIP3    H167845   9.118   1.153   6.640
22656TIP3    H267846   9.207   1.044   6.586
22657TIP3   OH267847   4.449   8.170   2.088
22657TIP3    H167848   4.356   8.195   2.083
22657TIP3    H267849   4.448   8.075   2.097
22658TIP3   OH267850   8.484   5.044   4.398
22658TIP3    H167851   8.400   5.022   4.358
22658TIP3    H267852   8.533   4.962   4.396
22659TIP3   OH267853   4.040   4.167   3.109
22659TIP3    H167854   4.060   4.260   3.119
22659TIP3    H267855   4.125   4.124   3.107
22660TIP3   OH267856   6.916   8.946   6.146
22660TIP3    H167857   6.979   8.958   6.217
22660TIP3    H267858   6.831   8.966   6.186
22661TIP3   OH267859   4.531   0.877   3.592
22661TIP3    H167860   4.564   0.903   3.678
22661TIP3    H267861   4.436   0.882   3.600
22662TIP3   OH267862   6.248   7.338   3.397
22662TIP3    H167863   6.267   7.246   3.381
22662TIP3    H267864   6.187   7.363   3.328
22663TIP3   OH267865   9.332   3.921   5.374
22663TIP3    H167866   9.424   3.930   5.398
22663TIP3    H267867   9.334   3.888   5.284
22664TIP3   OH267868   7.372   2.259   5.087
22664TIP3    H167869   7.371   2.268   4.992
22664TIP3    H267870   7.323   2.336   5.118
22665TIP3   OH267871   6.615   2.726   5.101
22665TIP3    H167872   6.678   2.772   5.045
22665TIP3    H267873   6.641   2.749   5.190
22666TIP3   OH267874   0.471   1.563   2.812
22666TIP3    H167875   0.404   1.557   2.744
22666TIP3    H267876   0.424   1.544   2.893
22667TIP3   OH267877   6.459   7.865   7.580
22667TIP3    H167878   6.540   7.887   7.533
22667TIP3    H267879   6.460   7.921   7.657
22668TIP3   OH267880   3.760   7.360   5.538
22668TIP3    H167881   3.782   7.270   5.564
22668TIP3    H267882   3.742   7.405   5.621
22669TIP3   OH267883   5.421   8.362   4.462
22669TIP3    H167884   5.358   8.324   4.402
22669TIP3    H267885   5.375   8.436   4.501
22670TIP3   OH267886   0.823   3.210   5.557
22670TIP3    H167887   0.860   3.159   5.628
22670TIP3    H267888   0.898   3.233   5.502
22671TIP3   OH267889   2.068   5.562   0.418
22671TIP3    H167890   2.109   5.477   0.402
22671TIP3    H267891   2.135   5.626   0.395
22672TIP3   OH267892   7.774   6.665   6.100
22672TIP3    H167893   7.771   6.728   6.172
22672TIP3    H267894   7.741   6.584   6.138
22673TIP3   OH267895   9.052   4.438   7.186
22673TIP3    H167896   9.024   4.457   7.275
22673TIP3    H267897   9.072   4.524   7.148
22674TIP3   OH267898   1.260   3.935   3.920
22674TIP3    H167899   1.350   3.968   3.920
22674TIP3    H267900   1.269   3.842   3.941
22675TIP3   OH267901   6.190   5.205   2.148
22675TIP3    H167902   6.246   5.234   2.075
22675TIP3    H267903   6.177   5.283   2.200
22676TIP3   OH267904   3.572   2.075   3.887
22676TIP3    H167905   3.648   2.038   3.931
22676TIP3    H267906   3.557   2.159   3.931
22677TIP3   OH267907   2.808   5.863   2.888
22677TIP3    H167908   2.758   5.861   2.970
22677TIP3    H267909   2.892   5.824   2.910
22678TIP3   OH267910   2.870   4.631   3.543
22678TIP3    H167911   2.825   4.607   3.625
22678TIP3    H267912   2.802   4.674   3.491
22679TIP3   OH267913   6.381   0.298   5.457
22679TIP3    H167914   6.328   0.349   5.518
22679TIP3    H267915   6.471   0.308   5.488
22680TIP3   OH267916   4.786   6.849   4.977
22680TIP3    H167917   4.844   6.876   4.906
22680TIP3    H267918   4.817   6.897   5.054
22681TIP3   OH267919   4.788   6.150   5.288
22681TIP3    H167920   4.779   6.064   5.245
22681TIP3    H267921   4.860   6.192   5.243
22682TIP3   OH267922   1.618   4.700   3.762
22682TIP3    H167923   1.630   4.736   3.674
22682TIP3    H267924   1.633   4.606   3.753
22683TIP3   OH267925   6.147   7.857   5.432
22683TIP3    H167926   6.201   7.798   5.378
22683TIP3    H267927   6.135   7.809   5.514
22684TIP3   OH267928   3.697   6.592   3.030
22684TIP3    H167929   3.768   6.537   2.996
22684TIP3    H267930   3.739   6.649   3.094
22685TIP3   OH267931   2.666   4.005   4.461
22685TIP3    H167932   2.612   3.931   4.432
22685TIP3    H267933   2.721   3.968   4.529
22686TIP3   OH267934   1.730   8.291   0.778
22686TIP3    H167935   1.689   8.377   0.790
22686TIP3    H267936   1.668   8.230   0.818
22687TIP3   OH267937   2.746   0.749   6.447
22687TIP3    H167938   2.685   0.737   6.519
22687TIP3    H267939   2.823   0.789   6.487
22688TIP3   OH267940   1.984   6.166   5.943
22688TIP3    H167941   2.010   6.251   5.908
22688TIP3    H267942   1.929   6.186   6.018
22689TIP3   OH267943   6.475   7.220   2.447
22689TIP3    H167944   6.424   7.241   2.525
22689TIP3    H267945   6.558   7.187   2.480
22690TIP3   OH267946   2.412   6.832   5.482
22690TIP3    H167947   2.440   6.912   5.438
22690TIP3    H267948   2.441   6.843   5.573
22691TIP3   OH267949   8.851   6.599   6.548
22691TIP3    H167950   8.844   6.692   6.529
22691TIP3    H267951   8.856   6.593   6.643
22692TIP3   OH267952   9.171   7.608   0.241
22692TIP3    H167953   9.253   7.565   0.263
22692TIP3    H267954   9.105   7.564   0.296
22693TIP3   OH267955   9.150   5.784   7.079
22693TIP3    H167956   9.143   5.725   7.004
22693TIP3    H267957   9.066   5.831   7.080
22694TIP3   OH267958   1.853   5.704   6.129
22694TIP3    H167959   1.793   5.687   6.057
22694TIP3    H267960   1.796   5.713   6.206
22695TIP3   OH267961   6.300   0.516   2.245
22695TIP3    H167962   6.227   0.512   2.308
22695TIP3    H267963   6.369   0.463   2.285
22696TIP3   OH267964   9.242   6.958   7.130
22696TIP3    H167965   9.174   6.927   7.189
22696TIP3    H267966   9.323   6.920   7.164
22697TIP3   OH267967   8.600   6.104   6.658
22697TIP3    H167968   8.624   6.085   6.748
22697TIP3    H267969   8.656   6.178   6.633
22698TIP3   OH267970   2.855   6.121   6.534
22698TIP3    H167971   2.833   6.122   6.627
22698TIP3    H267972   2.946   6.090   6.532
22699TIP3   OH267973   2.263   2.955   2.983
22699TIP3    H167974   2.294   2.889   2.921
22699TIP3    H267975   2.261   3.037   2.933
22700TIP3   OH267976   7.195   4.769   6.544
22700TIP3    H167977   7.211   4.863   6.535
22700TIP3    H267978   7.100   4.759   6.534
22701TIP3   OH267979   8.001   0.652   0.615
22701TIP3    H167980   8.004   0.744   0.641
22701TIP3    H267981   7.946   0.651   0.536
22702TIP3   OH267982   1.653   3.490   1.766
22702TIP3    H167983   1.645   3.416   1.706
22702TIP3    H267984   1.584   3.477   1.831
22703TIP3   OH267985   4.326   6.775   3.801
22703TIP3    H167986   4.276   6.848   3.837
22703TIP3    H267987   4.260   6.710   3.778
22704TIP3   OH267988   1.352   5.029   1.962
22704TIP3    H167989   1.411   5.102   1.984
22704TIP3    H267990   1.404   4.973   1.904
22705TIP3   OH267991   0.513   2.089   0.750
22705TIP3    H167992   0.560   2.161   0.792
22705TIP3    H267993   0.529   2.013   0.806
22706TIP3   OH267994   1.376   0.569   6.697
22706TIP3    H167995   1.311   0.611   6.640
22706TIP3    H267996   1.394   0.485   6.655
22707TIP3   OH267997   6.308   1.983   4.314
22707TIP3    H167998   6.399   1.992   4.285
22707TIP3    H267999   6.287   1.891   4.294
22708TIP3   OH268000   8.193   1.729   4.235
22708TIP3    H168001   8.204   1.706   4.327
22708TIP3    H268002   8.242   1.662   4.188
22709TIP3   OH268003   0.930   7.728   3.661
22709TIP3    H168004   0.927   7.692   3.572
22709TIP3    H268005   0.901   7.656   3.717
22710TIP3   OH268006   3.135   7.942   5.885
22710TIP3    H168007   3.128   7.873   5.819
22710TIP3    H268008   3.206   7.914   5.942
22711TIP3   OH268009   8.302   8.075   0.789
22711TIP3    H168010   8.263   7.991   0.811
22711TIP3    H268011   8.230   8.138   0.795
22712TIP3   OH268012   8.942   5.566   3.565
22712TIP3    H168013   8.927   5.661   3.569
22712TIP3    H268014   8.935   5.537   3.655
22713TIP3   OH268015   1.234   8.115   4.253
22713TIP3    H168016   1.151   8.151   4.221
22713TIP3    H268017   1.279   8.190   4.294
22714TIP3   OH268018   0.889   5.783   5.337
22714TIP3    H168019   0.835   5.845   5.385
22714TIP3    H268020   0.827   5.732   5.284
22715TIP3   OH268021   2.026   3.528   7.779
22715TIP3    H168022   2.054   3.446   7.738
22715TIP3    H268023   2.100   3.588   7.767
22716TIP3   OH268024   3.605   9.008   4.391
22716TIP3    H168025   3.643   8.978   4.474
22716TIP3    H268026   3.564   8.929   4.354
22717TIP3   OH268027   7.917   7.921   1.565
22717TIP3    H168028   7.945   7.931   1.656
22717TIP3    H268029   7.997   7.897   1.518
22718TIP3   OH268030   5.628   5.806   0.723
22718TIP3    H168031   5.564   5.877   0.713
22718TIP3    H268032   5.578   5.726   0.708
22719TIP3   OH268033   4.783   2.814   2.417
22719TIP3    H168034   4.720   2.777   2.479
22719TIP3    H268035   4.738   2.810   2.332
22720TIP3   OH268036   9.316   0.867   3.251
22720TIP3    H168037   9.263   0.902   3.179
22720TIP3    H268038   9.379   0.936   3.270
22721TIP3   OH268039   1.349   7.079   6.876
22721TIP3    H168040   1.293   7.155   6.891
22721TIP3    H268041   1.326   7.050   6.788
22722TIP3   OH268042   6.560   2.930   4.172
22722TIP3    H168043   6.472   2.968   4.181
22722TIP3    H268044   6.558   2.851   4.226
22723TIP3   OH268045   1.763   0.110   6.527
22723TIP3    H168046   1.738   0.129   6.436
22723TIP3    H268047   1.681   0.088   6.571
22724TIP3   OH268048   6.679   2.521   0.295
22724TIP3    H168049   6.744   2.592   0.294
22724TIP3    H268050   6.657   2.511   0.388
22725TIP3   OH268051   4.355   1.204   3.749
22725TIP3    H168052   4.373   1.172   3.660
22725TIP3    H268053   4.317   1.130   3.795
22726TIP3   OH268054   3.683   6.616   1.080
22726TIP3    H168055   3.647   6.675   1.013
22726TIP3    H268056   3.772   6.649   1.096
22727TIP3   OH268057   8.161   1.152   3.747
22727TIP3    H168058   8.160   1.100   3.666
22727TIP3    H268059   8.186   1.240   3.718
22728TIP3   OH268060   7.744   6.426   2.758
22728TIP3    H168061   7.793   6.477   2.823
22728TIP3    H268062   7.779   6.337   2.766
22729TIP3   OH268063   4.979   5.539   6.916
22729TIP3    H168064   5.048   5.476   6.892
22729TIP3    H268065   4.935   5.499   6.991
22730TIP3   OH268066   9.046   1.808   4.812
22730TIP3    H168067   9.126   1.837   4.769
22730TIP3    H268068   9.059   1.715   4.828
22731TIP3   OH268069   5.090   3.494   4.148
22731TIP3    H168070   5.159   3.553   4.120
22731TIP3    H268071   5.067   3.445   4.069
22732TIP3   OH268072   6.952   3.590   6.039
22732TIP3    H168073   6.889   3.634   6.095
22732TIP3    H268074   7.027   3.649   6.036
22733TIP3   OH268075   7.258   5.975   6.660
22733TIP3    H168076   7.176   6.015   6.689
22733TIP3    H268077   7.319   6.048   6.649
22734TIP3   OH268078   6.741   6.360   4.397
22734TIP3    H168079   6.751   6.272   4.361
22734TIP3    H268080   6.704   6.411   4.325
22735TIP3   OH268081   6.368   4.616   7.453
22735TIP3    H168082   6.346   4.706   7.479
22735TIP3    H268083   6.285   4.569   7.461
22736TIP3   OH268084   0.809   6.189   3.218
22736TIP3    H168085   0.826   6.117   3.158
22736TIP3    H268086   0.865   6.172   3.294
22737TIP3   OH268087   1.689   8.820   3.175
22737TIP3    H168088   1.755   8.809   3.106
22737TIP3    H268089   1.627   8.749   3.160
22738TIP3   OH268090   5.485   2.026   0.746
22738TIP3    H168091   5.525   2.088   0.807
22738TIP3    H268092   5.465   1.949   0.799
22739TIP3   OH268093   8.486   3.696   7.370
22739TIP3    H168094   8.469   3.742   7.288
22739TIP3    H268095   8.569   3.651   7.356
22740TIP3   OH268096   4.651   8.412   4.257
22740TIP3    H168097   4.633   8.341   4.195
22740TIP3    H268098   4.612   8.382   4.339
22741TIP3   OH268099   5.523   4.823   4.383
22741TIP3    H168100   5.504   4.806   4.291
22741TIP3    H268101   5.437   4.830   4.424
22742TIP3   OH268102   9.182   5.022   2.163
22742TIP3    H168103   9.271   5.028   2.197
22742TIP3    H268104   9.135   4.967   2.226
22743TIP3   OH268105   6.852   7.444   5.842
22743TIP3    H168106   6.796   7.514   5.809
22743TIP3    H268107   6.855   7.380   5.771
22744TIP3   OH268108   9.200   4.721   5.792
22744TIP3    H168109   9.120   4.672   5.768
22744TIP3    H268110   9.180   4.758   5.878
22745TIP3   OH268111   4.848   6.192   0.124
22745TIP3    H168112   4.868   6.260   0.060
22745TIP3    H268113   4.776   6.143   0.086
22746TIP3   OH268114   8.446   1.432   3.396
22746TIP3    H168115   8.402   1.400   3.475
22746TIP3    H268116   8.530   1.466   3.427
22747TIP3   OH268117   3.954   4.391   5.583
22747TIP3    H168118   3.963   4.297   5.565
22747TIP3    H268119   3.897   4.423   5.513
22748TIP3   OH268120   3.281   1.665   4.050
22748TIP3    H168121   3.278   1.585   3.997
22748TIP3    H268122   3.218   1.649   4.120
22749TIP3   OH268123   3.653   7.805   2.209
22749TIP3    H168124   3.742   7.839   2.198
22749TIP3    H268125   3.611   7.866   2.270
22750TIP3   OH268126   2.011   3.078   7.685
22750TIP3    H168127   2.061   3.159   7.697
22750TIP3    H268128   2.077   3.008   7.690
22751TIP3   OH268129   0.927   8.650   1.517
22751TIP3    H168130   0.843   8.685   1.487
22751TIP3    H268131   0.935   8.681   1.607
22752TIP3   OH268132   2.367   6.818   1.741
22752TIP3    H168133   2.334   6.905   1.760
22752TIP3    H268134   2.291   6.760   1.752
22753TIP3   OH268135   7.720   2.985   6.803
22753TIP3    H168136   7.688   3.056   6.748
22753TIP3    H268137   7.743   3.027   6.886
22754TIP3   OH268138   4.374   6.415   1.167
22754TIP3    H168139   4.373   6.473   1.243
22754TIP3    H268140   4.450   6.358   1.181
22755TIP3   OH268141   3.683   0.109   7.443
22755TIP3    H168142   3.619   0.118   7.372
22755TIP3    H268143   3.749   0.175   7.423
22756TIP3   OH268144   4.781   3.858   0.679
22756TIP3    H168145   4.694   3.886   0.706
22756TIP3    H268146   4.766   3.806   0.600
22757TIP3   OH268147   0.808   6.632   5.565
22757TIP3    H168148   0.871   6.560   5.575
22757TIP3    H268149   0.723   6.593   5.588
22758TIP3   OH268150   2.046   3.507   0.846
22758TIP3    H168151   2.092   3.438   0.895
22758TIP3    H268152   2.099   3.585   0.861
22759TIP3   OH268153   6.180   2.878   2.397
22759TIP3    H168154   6.248   2.897   2.462
22759TIP3    H268155   6.103   2.856   2.449
22760TIP3   OH268156   0.383   8.915   4.930
22760TIP3    H168157   0.332   8.915   4.848
22760TIP3    H268158   0.383   8.823   4.958
22761TIP3   OH268159   4.302   3.560   1.581
22761TIP3    H168160   4.327   3.652   1.595
22761TIP3    H268161   4.350   3.534   1.503
22762TIP3   OH268162   5.712   6.893   0.271
22762TIP3    H168163   5.697   6.800   0.290
22762TIP3    H268164   5.715   6.898   0.176
22763TIP3   OH268165   3.433   7.808   3.812
22763TIP3    H168166   3.523   7.777   3.808
22763TIP3    H268167   3.440   7.900   3.839
22764TIP3   OH268168   4.512   6.124   4.095
22764TIP3    H168169   4.517   6.152   4.187
22764TIP3    H268170   4.545   6.034   4.096
22765TIP3   OH268171   1.477   1.383   0.973
22765TIP3    H168172   1.385   1.358   0.975
22765TIP3    H268173   1.521   1.312   0.926
22766TIP3   OH268174   5.050   2.897   7.314
22766TIP3    H168175   5.050   2.908   7.219
22766TIP3    H268176   4.981   2.833   7.331
22767TIP3   OH268177   6.489   1.463   2.757
22767TIP3    H168178   6.541   1.441   2.835
22767TIP3    H268179   6.553   1.463   2.686
22768TIP3   OH268180   6.300   4.744   4.342
22768TIP3    H168181   6.264   4.671   4.292
22768TIP3    H268182   6.394   4.726   4.347
22769TIP3   OH268183   3.180   5.002   3.660
22769TIP3    H168184   3.139   4.930   3.613
22769TIP3    H268185   3.131   5.080   3.631
22770TIP3   OH268186   9.508   0.964   2.175
22770TIP3    H168187   9.420   0.944   2.143
22770TIP3    H268188   9.562   0.972   2.097
22771TIP3   OH268189   5.928   0.767   4.614
22771TIP3    H168190   5.999   0.704   4.627
22771TIP3    H268191   5.968   0.840   4.567
22772TIP3   OH268192   4.087   5.144   4.156
22772TIP3    H168193   4.097   5.214   4.220
22772TIP3    H268194   4.173   5.138   4.113
22773TIP3   OH268195   0.729   4.758   6.287
22773TIP3    H168196   0.802   4.817   6.305
22773TIP3    H268197   0.660   4.785   6.347
22774TIP3   OH268198   3.657   3.358   6.861
22774TIP3    H168199   3.612   3.315   6.933
22774TIP3    H268200   3.615   3.325   6.782
22775TIP3   OH268201   9.068   4.742   1.190
22775TIP3    H168202   9.094   4.783   1.272
22775TIP3    H268203   9.002   4.678   1.216
22776TIP3   OH268204   8.437   1.297   1.674
22776TIP3    H168205   8.452   1.202   1.681
22776TIP3    H268206   8.476   1.333   1.754
22777TIP3   OH268207   0.109   5.001   3.480
22777TIP3    H168208   0.159   5.061   3.424
22777TIP3    H268209   0.035   4.974   3.426
   9.57271   9.02524   7.81609   0.00000   0.00000  -3.19091   0.00000  -3.19091  -4.51262
