Title t= 311.00000 step= 155500
29212
    1ASP      N    1   2.338   1.402   3.030
    1ASP    HT1    2   2.293   1.463   3.101
    1ASP    HT2    3   2.439   1.386   3.051
    1ASP    HT3    4   2.301   1.305   3.030
    1ASP     CA    5   2.340   1.453   2.893
    1ASP     HA    6   2.407   1.538   2.894
    1ASP     CB    7   2.394   1.353   2.792
    1ASP    HB1    8   2.381   1.383   2.686
    1ASP    HB2    9   2.353   1.250   2.804
    1ASP     CG   10   2.545   1.332   2.809
    1ASP    OD1   11   2.595   1.371   2.921
    1ASP    OD2   12   2.619   1.267   2.733
    1ASP      C   13   2.207   1.501   2.854
    1ASP      O   14   2.104   1.489   2.924
    2GLY      N   15   2.199   1.573   2.737
    2GLY     HN   16   2.287   1.604   2.702
    2GLY     CA   17   2.073   1.625   2.688
    2GLY    HA1   18   2.099   1.665   2.591
    2GLY    HA2   19   2.036   1.695   2.760
    2GLY      C   20   1.971   1.521   2.654
    2GLY      O   21   1.999   1.403   2.653
    3ASP      N   22   1.854   1.577   2.618
    3ASP     HN   23   1.843   1.675   2.604
    3ASP     CA   24   1.727   1.499   2.595
    3ASP     HA   25   1.744   1.404   2.547
    3ASP     CB   26   1.661   1.484   2.735
    3ASP    HB1   27   1.551   1.471   2.725
    3ASP    HB2   28   1.671   1.576   2.796
    3ASP     CG   29   1.710   1.364   2.813
    3ASP    OD1   30   1.662   1.350   2.927
    3ASP    OD2   31   1.794   1.280   2.769
    3ASP      C   32   1.637   1.571   2.491
    3ASP      O   33   1.645   1.695   2.485
    4GLY      N   34   1.549   1.502   2.417
    4GLY     HN   35   1.553   1.404   2.429
    4GLY     CA   36   1.460   1.560   2.319
    4GLY    HA1   37   1.404   1.475   2.284
    4GLY    HA2   38   1.527   1.607   2.249
    4GLY      C   39   1.361   1.662   2.355
    4GLY      O   40   1.355   1.692   2.475
    5PRO      N   41   1.281   1.715   2.263
    5PRO     CD   42   1.288   1.679   2.120
    5PRO    HD1   43   1.255   1.573   2.118
    5PRO    HD2   44   1.393   1.682   2.082
    5PRO     CA   45   1.187   1.818   2.297
    5PRO     HA   46   1.232   1.893   2.361
    5PRO     CB   47   1.165   1.886   2.154
    5PRO    HB1   48   1.245   1.962   2.139
    5PRO    HB2   49   1.058   1.914   2.141
    5PRO     CG   50   1.195   1.775   2.047
    5PRO    HG1   51   1.111   1.706   2.025
    5PRO    HG2   52   1.220   1.818   1.947
    5PRO      C   53   1.057   1.778   2.363
    5PRO      O   54   0.959   1.858   2.359
    6GLY      N   55   1.047   1.663   2.418
    6GLY     HN   56   1.120   1.596   2.403
    6GLY     CA   57   0.927   1.614   2.484
    6GLY    HA1   58   0.952   1.521   2.533
    6GLY    HA2   59   0.847   1.608   2.411
    6GLY      C   60   0.860   1.700   2.593
    6GLY      O   61   0.920   1.789   2.660
    7ASP      N   62   0.730   1.686   2.613
    7ASP     HN   63   0.670   1.650   2.541
    7ASP     CA   64   0.655   1.756   2.718
    7ASP     HA   65   0.700   1.853   2.731
    7ASP     CB   66   0.496   1.767   2.704
    7ASP    HB1   67   0.453   1.821   2.792
    7ASP    HB2   68   0.456   1.663   2.701
    7ASP     CG   69   0.453   1.837   2.576
    7ASP    OD1   70   0.537   1.914   2.522
    7ASP    OD2   71   0.338   1.820   2.534
    7ASP      C   72   0.678   1.683   2.852
    7ASP      O   73   0.665   1.556   2.855
    8PRO      N   74   0.707   1.747   2.967
    8PRO     CD   75   0.712   1.890   2.976
    8PRO    HD1   76   0.622   1.932   2.927
    8PRO    HD2   77   0.803   1.922   2.921
    8PRO     CA   78   0.731   1.680   3.101
    8PRO     HA   79   0.810   1.607   3.105
    8PRO     CB   80   0.776   1.792   3.196
    8PRO    HB1   81   0.887   1.800   3.205
    8PRO    HB2   82   0.738   1.791   3.301
    8PRO     CG   83   0.723   1.922   3.124
    8PRO    HG1   84   0.619   1.939   3.161
    8PRO    HG2   85   0.786   2.012   3.146
    8PRO      C   86   0.599   1.611   3.144
    8PRO      O   87   0.509   1.677   3.195
    9GLY      N   88   0.583   1.478   3.139
    9GLY     HN   89   0.658   1.417   3.115
    9GLY     CA   90   0.459   1.416   3.181
    9GLY    HA1   91   0.461   1.311   3.155
    9GLY    HA2   92   0.381   1.468   3.127
    9GLY      C   93   0.425   1.423   3.326
    9GLY      O   94   0.504   1.478   3.404
   10ASP      N   95   0.314   1.362   3.367
   10ASP     HN   96   0.254   1.341   3.290
   10ASP     CA   97   0.265   1.368   3.511
   10ASP     HA   98   0.314   1.451   3.559
   10ASP     CB   99   0.111   1.385   3.504
   10ASP    HB1  100   0.060   1.358   3.599
   10ASP    HB2  101   0.064   1.323   3.424
   10ASP     CG  102   0.076   1.531   3.482
   10ASP    OD1  103   7.173   1.565   3.457
   10ASP    OD2  104   0.160   1.620   3.507
   10ASP      C  105   0.302   1.237   3.594
   10ASP      O  106   0.269   1.218   3.707
   11GLY      N  107   0.392   1.157   3.535
   11GLY     HN  108   0.420   1.186   3.443
   11GLY     CA  109   0.443   1.039   3.602
   11GLY    HA1  110   0.363   0.980   3.644
   11GLY    HA2  111   0.521   1.074   3.668
   11GLY      C  112   0.513   0.952   3.496
   11GLY    OT1  113   0.447   0.867   3.435
   11GLY    OT2  114   0.635   0.971   3.472
   12LIT    LIT  115   4.968   5.135   2.049
   13LIT    LIT  116   3.339   2.536   5.682
   14LIT    LIT  117  -0.035   3.904   5.724
   15LIT    LIT  118   2.839   2.070   1.744
   16LIT    LIT  119   0.625   0.814   3.346
   17LIT    LIT  120   2.491   5.120   5.855
   18LIT    LIT  121   2.572   1.518   5.401
   19LIT    LIT  122   5.016   0.024   1.457
   20LIT    LIT  123   0.229   3.228   4.264
   21LIT    LIT  124   3.407   1.484   5.464
   22LIT    LIT  125   4.058   4.953   0.242
   23LIT    LIT  126   4.089   4.026   5.696
   24LIT    LIT  127   6.447   4.275   2.464
   25LIT    LIT  128   6.483   0.988   2.522
   26LIT    LIT  129   0.001   1.754   3.459
   27LIT    LIT  130   4.440   2.276   3.227
   28LIT    LIT  131   3.980   1.507  -0.009
   29LIT    LIT  132   1.090   2.181   3.044
   30LIT    LIT  133   0.142   3.211   1.771
   31LIT    LIT  134   4.016   1.686   1.872
   32LIT    LIT  135   6.493   0.919   0.699
   33LIT    LIT  136   4.303   2.764   2.154
   34LIT    LIT  137   6.733   5.370   0.134
   35LIT    LIT  138   6.891   1.246   1.940
   36LIT    LIT  139   4.575   3.150   4.617
   37LIT    LIT  140   3.881   4.273   2.275
   38LIT    LIT  141   0.274   4.647   0.584
   39LIT    LIT  142   2.766   1.291   2.861
   40LIT    LIT  143   4.681   0.466   2.097
   41LIT    LIT  144   3.248   1.063   4.656
   42LIT    LIT  145   1.957   1.228   2.692
   43CLA    CLA  146   4.537   0.285   2.065
   44CLA    CLA  147   6.002   2.107   2.874
   45CLA    CLA  148   3.106   2.569   5.235
   46CLA    CLA  149   3.147   1.370   5.769
   47CLA    CLA  150   5.568   1.063   1.133
   48CLA    CLA  151   4.120   2.947   4.537
   49CLA    CLA  152   4.361   4.376   2.760
   50CLA    CLA  153   5.388   5.916   1.282
   51CLA    CLA  154   2.137   5.526   5.840
   52CLA    CLA  155   2.654   0.265   0.716
   53CLA    CLA  156   3.446   3.288   3.019
   54CLA    CLA  157   5.680   3.168   2.557
   55CLA    CLA  158   0.881   2.951   5.349
   56CLA    CLA  159   0.152   3.121   2.199
   57CLA    CLA  160   5.321   0.710   4.918
   58CLA    CLA  161   4.216   3.186   1.940
   59CLA    CLA  162   5.770   4.838   4.478
   60CLA    CLA  163   4.287   2.029   4.838
   61CLA    CLA  164   2.754   1.135   1.261
   62CLA    CLA  165   6.849   4.074   5.533
   63CLA    CLA  166   1.578   1.759   3.544
   64CLA    CLA  167   4.779   2.070   0.157
   65CLA    CLA  168   5.515   4.786   1.783
   66CLA    CLA  169   2.396   0.774   4.431
   67CLA    CLA  170   4.386   3.446   2.651
   68CLA    CLA  171   1.117   2.623   2.013
   69CLA    CLA  172   4.988   5.390   1.648
   70TIP3   OH2  173   0.104   3.594   1.138
   70TIP3    H1  174   0.175   3.608   1.201
   70TIP3    H2  175   0.070   3.507   1.159
   71TIP3   OH2  176   4.289   1.759   4.368
   71TIP3    H1  177   4.257   1.811   4.295
   71TIP3    H2  178   4.346   1.818   4.418
   72TIP3   OH2  179   5.279   5.512   0.441
   72TIP3    H1  180   5.333   5.497   0.519
   72TIP3    H2  181   5.245   5.425   0.419
   73TIP3   OH2  182   5.452   3.333   0.331
   73TIP3    H1  183   5.455   3.344   0.236
   73TIP3    H2  184   5.369   3.375   0.357
   74TIP3   OH2  185   4.836   3.894   3.310
   74TIP3    H1  186   4.912   3.860   3.262
   74TIP3    H2  187   4.769   3.905   3.242
   75TIP3   OH2  188   5.149   2.601   2.353
   75TIP3    H1  189   5.156   2.530   2.289
   75TIP3    H2  190   5.099   2.669   2.307
   76TIP3   OH2  191   4.727   6.191   4.734
   76TIP3    H1  192   4.738   6.250   4.660
   76TIP3    H2  193   4.635   6.165   4.731
   77TIP3   OH2  194   2.655   3.912   2.522
   77TIP3    H1  195   2.594   3.844   2.548
   77TIP3    H2  196   2.605   3.969   2.463
   78TIP3   OH2  197   6.148   0.293   5.549
   78TIP3    H1  198   6.054   0.310   5.563
   78TIP3    H2  199   6.191   0.341   5.619
   79TIP3   OH2  200   7.130   0.696   1.674
   79TIP3    H1  201   7.071   0.666   1.605
   79TIP3    H2  202   7.218   0.673   1.641
   80TIP3   OH2  203   4.501   3.463   0.286
   80TIP3    H1  204   4.553   3.429   0.213
   80TIP3    H2  205   4.551   3.538   0.319
   81TIP3   OH2  206   6.737   2.573   3.532
   81TIP3    H1  207   6.798   2.519   3.483
   81TIP3    H2  208   6.759   2.663   3.507
   82TIP3   OH2  209   4.001   4.358   3.628
   82TIP3    H1  210   3.947   4.294   3.583
   82TIP3    H2  211   4.011   4.325   3.717
   83TIP3   OH2  212   5.826   5.224   1.521
   83TIP3    H1  213   5.779   5.153   1.478
   83TIP3    H2  214   5.919   5.203   1.507
   84TIP3   OH2  215   4.926   4.629   2.645
   84TIP3    H1  216   4.978   4.658   2.720
   84TIP3    H2  217   4.991   4.596   2.582
   85TIP3   OH2  218   3.703   1.903   2.822
   85TIP3    H1  219   3.776   1.956   2.855
   85TIP3    H2  220   3.728   1.880   2.733
   86TIP3   OH2  221   6.066   0.112   4.906
   86TIP3    H1  222   6.078   0.039   4.967
   86TIP3    H2  223   6.024   0.181   4.959
   87TIP3   OH2  224   3.285   2.041   2.382
   87TIP3    H1  225   3.358   2.092   2.416
   87TIP3    H2  226   3.246   1.999   2.459
   88TIP3   OH2  227   0.456   3.922   5.138
   88TIP3    H1  228   0.480   4.014   5.125
   88TIP3    H2  229   0.396   3.924   5.213
   89TIP3   OH2  230   7.100   4.780   2.438
   89TIP3    H1  231   7.179   4.807   2.486
   89TIP3    H2  232   7.111   4.817   2.351
   90TIP3   OH2  233   5.591   0.979   4.126
   90TIP3    H1  234   5.677   0.955   4.092
   90TIP3    H2  235   5.557   1.043   4.063
   91TIP3   OH2  236   6.820   2.358   4.131
   91TIP3    H1  237   6.803   2.337   4.223
   91TIP3    H2  238   6.751   2.311   4.083
   92TIP3   OH2  239   2.226   5.583   1.572
   92TIP3    H1  240   2.150   5.565   1.627
   92TIP3    H2  241   2.298   5.536   1.616
   93TIP3   OH2  242   0.004   3.661   3.852
   93TIP3    H1  243  -0.032   3.579   3.820
   93TIP3    H2  244   0.099   3.650   3.846
   94TIP3   OH2  245   4.796   2.840   3.299
   94TIP3    H1  246   4.748   2.904   3.248
   94TIP3    H2  247   4.802   2.763   3.241
   95TIP3   OH2  248   0.191   1.593   0.327
   95TIP3    H1  249   0.126   1.617   0.393
   95TIP3    H2  250   0.176   1.499   0.312
   96TIP3   OH2  251   6.368   1.440   2.604
   96TIP3    H1  252   6.388   1.531   2.625
   96TIP3    H2  253   6.393   1.391   2.682
   97TIP3   OH2  254   1.465   5.404   0.369
   97TIP3    H1  255   1.409   5.476   0.400
   97TIP3    H2  256   1.504   5.438   0.288
   98TIP3   OH2  257   1.037   0.254   0.491
   98TIP3    H1  258   1.082   0.295   0.418
   98TIP3    H2  259   1.015   0.326   0.550
   99TIP3   OH2  260   0.349   3.247   1.868
   99TIP3    H1  261   0.383   3.201   1.944
   99TIP3    H2  262   0.323   3.333   1.901
  100TIP3   OH2  263   5.062   5.837   1.611
  100TIP3    H1  264   5.134   5.900   1.610
  100TIP3    H2  265   5.103   5.754   1.588
  101TIP3   OH2  266   3.006   3.702   4.368
  101TIP3    H1  267   2.915   3.726   4.351
  101TIP3    H2  268   3.001   3.611   4.399
  102TIP3   OH2  269   2.348   2.040   2.514
  102TIP3    H1  270   2.366   2.121   2.466
  102TIP3    H2  271   2.300   2.068   2.592
  103TIP3   OH2  272   5.231   5.535   2.170
  103TIP3    H1  273   5.154   5.569   2.215
  103TIP3    H2  274   5.202   5.520   2.081
  104TIP3   OH2  275   4.095   0.300   5.018
  104TIP3    H1  276   4.098   0.319   4.925
  104TIP3    H2  277   4.029   0.230   5.026
  105TIP3   OH2  278   3.745   1.004   5.534
  105TIP3    H1  279   3.654   0.995   5.563
  105TIP3    H2  280   3.746   1.086   5.485
  106TIP3   OH2  281   6.877   5.513   0.604
  106TIP3    H1  282   6.911   5.594   0.565
  106TIP3    H2  283   6.932   5.499   0.681
  107TIP3   OH2  284   3.036   0.434   2.406
  107TIP3    H1  285   3.015   0.527   2.409
  107TIP3    H2  286   2.980   0.399   2.337
  108TIP3   OH2  287   2.613   0.305   2.653
  108TIP3    H1  288   2.544   0.360   2.617
  108TIP3    H2  289   2.566   0.239   2.705
  109TIP3   OH2  290   6.975   6.347   1.269
  109TIP3    H1  291   6.938   6.332   1.182
  109TIP3    H2  292   6.925   6.288   1.326
  110TIP3   OH2  293   2.803   1.040   1.896
  110TIP3    H1  294   2.745   1.077   1.829
  110TIP3    H2  295   2.856   0.976   1.849
  111TIP3   OH2  296   1.794   2.669   4.504
  111TIP3    H1  297   1.756   2.589   4.467
  111TIP3    H2  298   1.865   2.691   4.444
  112TIP3   OH2  299   6.988   0.818   5.050
  112TIP3    H1  300   7.029   0.852   4.970
  112TIP3    H2  301   6.923   0.884   5.074
  113TIP3   OH2  302   4.956   6.603   3.372
  113TIP3    H1  303   4.885   6.655   3.407
  113TIP3    H2  304   4.941   6.515   3.406
  114TIP3   OH2  305   7.215   2.003   0.362
  114TIP3    H1  306   7.284   2.056   0.401
  114TIP3    H2  307   7.172   2.061   0.300
  115TIP3   OH2  308   4.167   1.005   5.840
  115TIP3    H1  309   4.087   0.954   5.841
  115TIP3    H2  310   4.199   0.996   5.750
  116TIP3   OH2  311   3.402   2.989   2.965
  116TIP3    H1  312   3.338   2.968   3.033
  116TIP3    H2  313   3.400   3.084   2.958
  117TIP3   OH2  314   3.313   6.400   2.092
  117TIP3    H1  315   3.331   6.338   2.022
  117TIP3    H2  316   3.353   6.361   2.170
  118TIP3   OH2  317   6.394   2.990   2.334
  118TIP3    H1  318   6.345   3.058   2.288
  118TIP3    H2  319   6.453   2.955   2.267
  119TIP3   OH2  320   1.085   5.330   0.662
  119TIP3    H1  321   1.023   5.380   0.609
  119TIP3    H2  322   1.053   5.340   0.752
  120TIP3   OH2  323   5.234   0.063   2.057
  120TIP3    H1  324   5.327   0.052   2.038
  120TIP3    H2  325   5.200  -0.027   2.059
  121TIP3   OH2  326   3.005   0.709   2.505
  121TIP3    H1  327   3.015   0.748   2.418
  121TIP3    H2  328   2.952   0.773   2.553
  122TIP3   OH2  329   4.111   0.670   2.944
  122TIP3    H1  330   4.154   0.603   2.890
  122TIP3    H2  331   4.020   0.642   2.951
  123TIP3   OH2  332   1.873   6.471   4.300
  123TIP3    H1  333   1.948   6.518   4.265
  123TIP3    H2  334   1.803   6.536   4.303
  124TIP3   OH2  335   1.386   4.912   0.718
  124TIP3    H1  336   1.452   4.977   0.744
  124TIP3    H2  337   1.322   4.962   0.668
  125TIP3   OH2  338   5.601   2.077   0.986
  125TIP3    H1  339   5.642   1.992   1.005
  125TIP3    H2  340   5.549   2.097   1.065
  126TIP3   OH2  341   3.553   1.535   2.730
  126TIP3    H1  342   3.498   1.458   2.722
  126TIP3    H2  343   3.621   1.524   2.663
  127TIP3   OH2  344   5.036   5.809   5.639
  127TIP3    H1  345   5.098   5.740   5.663
  127TIP3    H2  346   5.073   5.847   5.559
  128TIP3   OH2  347   3.434   2.932   0.768
  128TIP3    H1  348   3.409   2.875   0.841
  128TIP3    H2  349   3.529   2.925   0.764
  129TIP3   OH2  350   1.798   1.520   3.526
  129TIP3    H1  351   1.740   1.587   3.563
  129TIP3    H2  352   1.771   1.438   3.567
  130TIP3   OH2  353   4.267   1.453   0.302
  130TIP3    H1  354   4.308   1.538   0.287
  130TIP3    H2  355   4.188   1.473   0.352
  131TIP3   OH2  356   1.302   6.348   4.826
  131TIP3    H1  357   1.386   6.308   4.849
  131TIP3    H2  358   1.325   6.434   4.791
  132TIP3   OH2  359   2.931   5.873   5.177
  132TIP3    H1  360   3.020   5.909   5.179
  132TIP3    H2  361   2.882   5.927   5.238
  133TIP3   OH2  362   5.272   2.752   3.485
  133TIP3    H1  363   5.350   2.755   3.430
  133TIP3    H2  364   5.214   2.818   3.449
  134TIP3   OH2  365   7.198   0.528   2.072
  134TIP3    H1  366   7.116   0.484   2.052
  134TIP3    H2  367   7.183   0.571   2.156
  135TIP3   OH2  368   5.092   5.525   4.472
  135TIP3    H1  369   5.083   5.594   4.406
  135TIP3    H2  370   5.143   5.566   4.541
  136TIP3   OH2  371   4.487   4.209   5.853
  136TIP3    H1  372   4.403   4.224   5.896
  136TIP3    H2  373   4.495   4.114   5.848
  137TIP3   OH2  374   2.279   1.469   0.505
  137TIP3    H1  375   2.280   1.507   0.592
  137TIP3    H2  376   2.227   1.389   0.514
  138TIP3   OH2  377   0.726   0.991   1.441
  138TIP3    H1  378   0.791   1.027   1.501
  138TIP3    H2  379   0.686   0.918   1.489
  139TIP3   OH2  380   5.772   1.866   5.748
  139TIP3    H1  381   5.826   1.787   5.743
  139TIP3    H2  382   5.798   1.917   5.672
  140TIP3   OH2  383   1.343   3.562   3.782
  140TIP3    H1  384   1.414   3.497   3.786
  140TIP3    H2  385   1.353   3.614   3.862
  141TIP3   OH2  386   5.972   6.728   3.474
  141TIP3    H1  387   5.960   6.770   3.559
  141TIP3    H2  388   5.905   6.659   3.473
  142TIP3   OH2  389   3.694   2.391   5.539
  142TIP3    H1  390   3.607   2.431   5.537
  142TIP3    H2  391   3.754   2.464   5.525
  143TIP3   OH2  392   6.926   5.596   2.892
  143TIP3    H1  393   6.975   5.610   2.810
  143TIP3    H2  394   6.973   5.524   2.935
  144TIP3   OH2  395   6.716   2.025   4.753
  144TIP3    H1  396   6.768   2.009   4.674
  144TIP3    H2  397   6.749   2.109   4.786
  145TIP3   OH2  398   1.026   3.880   0.705
  145TIP3    H1  399   0.980   3.957   0.670
  145TIP3    H2  400   0.960   3.811   0.705
  146TIP3   OH2  401   0.575   2.646   5.555
  146TIP3    H1  402   0.570   2.723   5.499
  146TIP3    H2  403   0.502   2.591   5.526
  147TIP3   OH2  404   3.836   0.607   2.977
  147TIP3    H1  405   3.839   0.611   2.881
  147TIP3    H2  406   3.745   0.586   2.998
  148TIP3   OH2  407   5.174   4.439   0.430
  148TIP3    H1  408   5.087   4.397   0.431
  148TIP3    H2  409   5.214   4.411   0.513
  149TIP3   OH2  410   4.918   5.352   3.574
  149TIP3    H1  411   4.863   5.297   3.629
  149TIP3    H2  412   5.006   5.319   3.587
  150TIP3   OH2  413   5.579   3.218   5.235
  150TIP3    H1  414   5.519   3.164   5.183
  150TIP3    H2  415   5.609   3.159   5.305
  151TIP3   OH2  416   1.577   4.934   3.301
  151TIP3    H1  417   1.547   4.846   3.280
  151TIP3    H2  418   1.533   4.955   3.384
  152TIP3   OH2  419   4.161   2.607   5.690
  152TIP3    H1  420   4.133   2.680   5.745
  152TIP3    H2  421   4.256   2.602   5.703
  153TIP3   OH2  422   2.285   1.080   3.885
  153TIP3    H1  423   2.330   0.998   3.905
  153TIP3    H2  424   2.231   1.097   3.961
  154TIP3   OH2  425   6.960   0.755   4.226
  154TIP3    H1  426   6.963   0.786   4.317
  154TIP3    H2  427   6.882   0.701   4.222
  155TIP3   OH2  428   5.278   6.667   5.788
  155TIP3    H1  429   5.241   6.715   5.715
  155TIP3    H2  430   5.279   6.576   5.759
  156TIP3   OH2  431   3.567   2.318   1.857
  156TIP3    H1  432   3.550   2.412   1.861
  156TIP3    H2  433   3.598   2.303   1.768
  157TIP3   OH2  434   0.130   5.191   2.270
  157TIP3    H1  435   0.133   5.213   2.363
  157TIP3    H2  436   0.179   5.109   2.264
  158TIP3   OH2  437   5.191   6.346   4.281
  158TIP3    H1  438   5.137   6.326   4.358
  158TIP3    H2  439   5.136   6.403   4.227
  159TIP3   OH2  440   4.556   0.841   2.560
  159TIP3    H1  441   4.559   0.756   2.604
  159TIP3    H2  442   4.546   0.904   2.631
  160TIP3   OH2  443   1.470   3.816   3.515
  160TIP3    H1  444   1.560   3.813   3.546
  160TIP3    H2  445   1.434   3.896   3.552
  161TIP3   OH2  446   1.985   2.280   0.179
  161TIP3    H1  447   1.957   2.327   0.101
  161TIP3    H2  448   1.927   2.204   0.183
  162TIP3   OH2  449   5.848   0.760   0.889
  162TIP3    H1  450   5.887   0.746   0.975
  162TIP3    H2  451   5.756   0.779   0.906
  163TIP3   OH2  452   2.452   2.222   3.692
  163TIP3    H1  453   2.396   2.161   3.740
  163TIP3    H2  454   2.406   2.306   3.695
  164TIP3   OH2  455   3.371   4.115   1.692
  164TIP3    H1  456   3.459   4.089   1.667
  164TIP3    H2  457   3.322   4.117   1.609
  165TIP3   OH2  458   5.506   3.262   3.058
  165TIP3    H1  459   5.524   3.295   2.970
  165TIP3    H2  460   5.587   3.279   3.107
  166TIP3   OH2  461   2.520   4.314   4.325
  166TIP3    H1  462   2.509   4.311   4.230
  166TIP3    H2  463   2.444   4.266   4.359
  167TIP3   OH2  464   7.236   2.719   3.765
  167TIP3    H1  465   7.150   2.682   3.746
  167TIP3    H2  466   7.272   2.661   3.832
  168TIP3   OH2  467   7.147   6.480   0.566
  168TIP3    H1  468   7.177   6.571   0.563
  168TIP3    H2  469   7.071   6.478   0.507
  169TIP3   OH2  470   6.142   4.163   2.828
  169TIP3    H1  471   6.116   4.255   2.829
  169TIP3    H2  472   6.075   4.119   2.775
  170TIP3   OH2  473   4.824   3.039   5.007
  170TIP3    H1  474   4.844   2.972   4.942
  170TIP3    H2  475   4.841   3.122   4.962
  171TIP3   OH2  476   6.232   1.877   2.796
  171TIP3    H1  477   6.153   1.922   2.824
  171TIP3    H2  478   6.292   1.948   2.772
  172TIP3   OH2  479   2.696   6.099   2.582
  172TIP3    H1  480   2.636   6.027   2.603
  172TIP3    H2  481   2.678   6.120   2.491
  173TIP3   OH2  482   0.250   1.485   2.474
  173TIP3    H1  483   0.341   1.491   2.445
  173TIP3    H2  484   0.253   1.432   2.554
  174TIP3   OH2  485   1.533   5.338   1.249
  174TIP3    H1  486   1.483   5.349   1.330
  174TIP3    H2  487   1.470   5.356   1.179
  175TIP3   OH2  488   6.793   0.180   2.606
  175TIP3    H1  489   6.873   0.231   2.597
  175TIP3    H2  490   6.767   0.193   2.698
  176TIP3   OH2  491   0.893   4.009   0.118
  176TIP3    H1  492   0.852   3.924   0.098
  176TIP3    H2  493   0.909   4.048   0.032
  177TIP3   OH2  494   4.990   5.023   4.787
  177TIP3    H1  495   4.902   4.986   4.793
  177TIP3    H2  496   5.022   5.022   4.878
  178TIP3   OH2  497   5.395   3.918   2.540
  178TIP3    H1  498   5.399   4.006   2.502
  178TIP3    H2  499   5.362   3.933   2.629
  179TIP3   OH2  500   0.113   6.540   5.720
  179TIP3    H1  501   0.046   6.566   5.656
  179TIP3    H2  502   0.064   6.500   5.792
  180TIP3   OH2  503   3.559   2.235   4.381
  180TIP3    H1  504   3.566   2.141   4.394
  180TIP3    H2  505   3.571   2.248   4.287
  181TIP3   OH2  506   6.194   1.678   2.989
  181TIP3    H1  507   6.228   1.744   2.929
  181TIP3    H2  508   6.269   1.622   3.008
  182TIP3   OH2  509   2.604   2.106   3.923
  182TIP3    H1  510   2.525   2.117   3.975
  182TIP3    H2  511   2.577   2.125   3.833
  183TIP3   OH2  512   1.894   3.142   5.042
  183TIP3    H1  513   1.913   3.051   5.067
  183TIP3    H2  514   1.827   3.134   4.974
  184TIP3   OH2  515   7.199   4.371   4.950
  184TIP3    H1  516   7.215   4.433   5.021
  184TIP3    H2  517   7.208   4.424   4.870
  185TIP3   OH2  518   5.060   5.180   5.097
  185TIP3    H1  519   5.044   5.190   5.190
  185TIP3    H2  520   5.088   5.090   5.087
  186TIP3   OH2  521   3.917   2.669   3.832
  186TIP3    H1  522   3.907   2.579   3.802
  186TIP3    H2  523   3.992   2.666   3.892
  187TIP3   OH2  524   1.064   2.057   0.587
  187TIP3    H1  525   1.076   1.987   0.522
  187TIP3    H2  526   1.103   2.134   0.546
  188TIP3   OH2  527   2.425   0.259   1.202
  188TIP3    H1  528   2.407   0.192   1.268
  188TIP3    H2  529   2.502   0.226   1.155
  189TIP3   OH2  530   5.593   3.501   5.277
  189TIP3    H1  531   5.668   3.508   5.218
  189TIP3    H2  532   5.571   3.408   5.277
  190TIP3   OH2  533   6.754   3.336   0.718
  190TIP3    H1  534   6.788   3.367   0.634
  190TIP3    H2  535   6.750   3.414   0.773
  191TIP3   OH2  536   4.500   1.649   4.582
  191TIP3    H1  537   4.483   1.666   4.489
  191TIP3    H2  538   4.414   1.658   4.624
  192TIP3   OH2  539   3.443   4.997   1.535
  192TIP3    H1  540   3.398   4.932   1.481
  192TIP3    H2  541   3.521   4.951   1.567
  193TIP3   OH2  542   2.399   6.544   4.306
  193TIP3    H1  543   2.372   6.595   4.382
  193TIP3    H2  544   2.320   6.497   4.279
  194TIP3   OH2  545   1.279   2.449   3.509
  194TIP3    H1  546   1.365   2.470   3.546
  194TIP3    H2  547   1.266   2.357   3.531
  195TIP3   OH2  548   0.359   2.035   4.168
  195TIP3    H1  549   0.441   2.084   4.161
  195TIP3    H2  550   0.363   1.971   4.097
  196TIP3   OH2  551   2.174   0.914   3.073
  196TIP3    H1  552   2.128   0.880   3.150
  196TIP3    H2  553   2.204   0.836   3.026
  197TIP3   OH2  554   4.924   1.515   0.676
  197TIP3    H1  555   4.849   1.513   0.735
  197TIP3    H2  556   4.886   1.504   0.589
  198TIP3   OH2  557   4.385   0.028   1.053
  198TIP3    H1  558   4.452  -0.030   1.017
  198TIP3    H2  559   4.403   0.113   1.012
  199TIP3   OH2  560   6.103   1.315   3.134
  199TIP3    H1  561   6.025   1.369   3.125
  199TIP3    H2  562   6.142   1.315   3.046
  200TIP3   OH2  563   3.907   3.831   2.392
  200TIP3    H1  564   3.988   3.856   2.346
  200TIP3    H2  565   3.913   3.735   2.399
  201TIP3   OH2  566   0.853   2.167   2.052
  201TIP3    H1  567   0.912   2.120   1.993
  201TIP3    H2  568   0.883   2.258   2.048
  202TIP3   OH2  569   6.764   3.966   2.860
  202TIP3    H1  570   6.703   3.895   2.840
  202TIP3    H2  571   6.709   4.037   2.892
  203TIP3   OH2  572   5.312   1.898   1.135
  203TIP3    H1  573   5.318   1.977   1.188
  203TIP3    H2  574   5.272   1.927   1.053
  204TIP3   OH2  575   6.490   3.041   2.798
  204TIP3    H1  576   6.494   2.989   2.878
  204TIP3    H2  577   6.400   3.074   2.796
  205TIP3   OH2  578   5.977   2.691   4.353
  205TIP3    H1  579   6.020   2.710   4.269
  205TIP3    H2  580   5.910   2.759   4.362
  206TIP3   OH2  581   3.530   2.793   1.216
  206TIP3    H1  582   3.438   2.784   1.242
  206TIP3    H2  583   3.540   2.887   1.197
  207TIP3   OH2  584   7.066   3.969   5.873
  207TIP3    H1  585   7.048   4.055   5.912
  207TIP3    H2  586   7.012   3.908   5.924
  208TIP3   OH2  587   0.824   0.176   4.034
  208TIP3    H1  588   0.815   0.270   4.049
  208TIP3    H2  589   0.869   0.143   4.112
  209TIP3   OH2  590   3.005   6.467   2.131
  209TIP3    H1  591   3.034   6.435   2.045
  209TIP3    H2  592   2.916   6.432   2.140
  210TIP3   OH2  593   7.116   4.474   1.947
  210TIP3    H1  594   7.099   4.462   1.854
  210TIP3    H2  595   7.207   4.501   1.953
  211TIP3   OH2  596   3.744   0.650   2.027
  211TIP3    H1  597   3.837   0.674   2.026
  211TIP3    H2  598   3.709   0.687   1.947
  212TIP3   OH2  599   4.269   3.954   1.506
  212TIP3    H1  600   4.207   3.945   1.434
  212TIP3    H2  601   4.215   3.984   1.580
  213TIP3   OH2  602   0.430   4.307   3.767
  213TIP3    H1  603   0.479   4.361   3.705
  213TIP3    H2  604   0.352   4.359   3.788
  214TIP3   OH2  605   6.995   3.269   4.157
  214TIP3    H1  606   7.010   3.177   4.180
  214TIP3    H2  607   6.990   3.314   4.242
  215TIP3   OH2  608   5.753   2.049   3.568
  215TIP3    H1  609   5.683   2.080   3.512
  215TIP3    H2  610   5.820   2.015   3.508
  216TIP3   OH2  611   5.205   1.922   3.750
  216TIP3    H1  612   5.225   2.011   3.781
  216TIP3    H2  613   5.272   1.905   3.683
  217TIP3   OH2  614   4.323   1.331   4.559
  217TIP3    H1  615   4.401   1.321   4.614
  217TIP3    H2  616   4.354   1.314   4.470
  218TIP3   OH2  617   5.762   0.889   5.340
  218TIP3    H1  618   5.803   0.968   5.305
  218TIP3    H2  619   5.789   0.819   5.280
  219TIP3   OH2  620   4.916   2.007   0.554
  219TIP3    H1  621   4.877   2.092   0.535
  219TIP3    H2  622   4.858   1.966   0.617
  220TIP3   OH2  623   0.176   0.537   1.772
  220TIP3    H1  624   0.189   0.555   1.865
  220TIP3    H2  625   0.262   0.549   1.732
  221TIP3   OH2  626   6.437   3.056   3.426
  221TIP3    H1  627   6.475   3.113   3.493
  221TIP3    H2  628   6.454   3.101   3.343
  222TIP3   OH2  629   1.852   6.776   2.865
  222TIP3    H1  630   1.774   6.799   2.814
  222TIP3    H2  631   1.830   6.805   2.954
  223TIP3   OH2  632   1.051   1.448   2.861
  223TIP3    H1  633   1.081   1.461   2.951
  223TIP3    H2  634   1.104   1.509   2.809
  224TIP3   OH2  635   3.104   3.921   3.521
  224TIP3    H1  636   3.128   3.876   3.440
  224TIP3    H2  637   3.144   4.007   3.514
  225TIP3   OH2  638   4.438   5.746   4.327
  225TIP3    H1  639   4.487   5.734   4.246
  225TIP3    H2  640   4.451   5.664   4.375
  226TIP3   OH2  641   1.346   2.595   1.788
  226TIP3    H1  642   1.325   2.672   1.735
  226TIP3    H2  643   1.290   2.602   1.865
  227TIP3   OH2  644   3.628   3.283   5.033
  227TIP3    H1  645   3.684   3.211   5.065
  227TIP3    H2  646   3.541   3.244   5.025
  228TIP3   OH2  647   0.518   1.997   0.084
  228TIP3    H1  648   0.470   1.971   0.163
  228TIP3    H2  649   0.564   1.918   0.057
  229TIP3   OH2  650   1.671   5.619   4.468
  229TIP3    H1  651   1.764   5.603   4.481
  229TIP3    H2  652   1.660   5.713   4.481
  230TIP3   OH2  653   4.520   5.622   2.356
  230TIP3    H1  654   4.593   5.659   2.406
  230TIP3    H2  655   4.522   5.669   2.272
  231TIP3   OH2  656   2.995   1.089   0.771
  231TIP3    H1  657   2.982   1.104   0.865
  231TIP3    H2  658   2.907   1.095   0.733
  232TIP3   OH2  659   3.098   6.766   1.689
  232TIP3    H1  660   3.040   6.719   1.749
  232TIP3    H2  661   3.183   6.725   1.701
  233TIP3   OH2  662   6.604   2.401   4.611
  233TIP3    H1  663   6.664   2.453   4.664
  233TIP3    H2  664   6.546   2.465   4.570
  234TIP3   OH2  665   4.186   1.316   3.550
  234TIP3    H1  666   4.163   1.320   3.457
  234TIP3    H2  667   4.205   1.407   3.574
  235TIP3   OH2  668   5.174   3.211   5.263
  235TIP3    H1  669   5.226   3.147   5.214
  235TIP3    H2  670   5.164   3.285   5.202
  236TIP3   OH2  671   0.323   5.320   3.941
  236TIP3    H1  672   0.337   5.226   3.937
  236TIP3    H2  673   0.394   5.357   3.889
  237TIP3   OH2  674   4.790   6.701   1.192
  237TIP3    H1  675   4.721   6.662   1.137
  237TIP3    H2  676   4.829   6.768   1.137
  238TIP3   OH2  677   4.602   6.521   4.642
  238TIP3    H1  678   4.523   6.476   4.671
  238TIP3    H2  679   4.657   6.525   4.720
  239TIP3   OH2  680   6.693   6.150   2.243
  239TIP3    H1  681   6.713   6.157   2.336
  239TIP3    H2  682   6.777   6.162   2.199
  240TIP3   OH2  683   5.408   6.033   0.739
  240TIP3    H1  684   5.349   6.108   0.745
  240TIP3    H2  685   5.376   5.973   0.806
  241TIP3   OH2  686   2.640   4.339   1.798
  241TIP3    H1  687   2.584   4.338   1.875
  241TIP3    H2  688   2.727   4.317   1.831
  242TIP3   OH2  689   6.192   2.810   2.714
  242TIP3    H1  690   6.194   2.723   2.674
  242TIP3    H2  691   6.156   2.867   2.646
  243TIP3   OH2  692   3.235   3.417   4.186
  243TIP3    H1  693   3.184   3.337   4.174
  243TIP3    H2  694   3.322   3.387   4.211
  244TIP3   OH2  695   1.761   0.981   3.281
  244TIP3    H1  696   1.750   1.076   3.293
  244TIP3    H2  697   1.769   0.969   3.187
  245TIP3   OH2  698   1.519   4.277   2.644
  245TIP3    H1  699   1.437   4.252   2.602
  245TIP3    H2  700   1.549   4.354   2.596
  246TIP3   OH2  701   0.721   6.639   0.708
  246TIP3    H1  702   0.686   6.651   0.797
  246TIP3    H2  703   0.680   6.708   0.656
  247TIP3   OH2  704   7.029   2.104   2.369
  247TIP3    H1  705   7.096   2.158   2.328
  247TIP3    H2  706   7.045   2.114   2.463
  248TIP3   OH2  707   3.196   4.447   4.717
  248TIP3    H1  708   3.225   4.391   4.645
  248TIP3    H2  709   3.236   4.408   4.795
  249TIP3   OH2  710   3.823  -0.012   3.534
  249TIP3    H1  711   3.823   0.071   3.486
  249TIP3    H2  712   3.845  -0.078   3.468
  250TIP3   OH2  713   4.474   2.255   3.026
  250TIP3    H1  714   4.532   2.314   2.978
  250TIP3    H2  715   4.404   2.235   2.963
  251TIP3   OH2  716   0.923   2.246   1.327
  251TIP3    H1  717   1.013   2.215   1.337
  251TIP3    H2  718   0.921   2.329   1.375
  252TIP3   OH2  719   6.795   4.082   3.908
  252TIP3    H1  720   6.812   4.025   3.834
  252TIP3    H2  721   6.700   4.093   3.908
  253TIP3   OH2  722   3.870   4.417   1.139
  253TIP3    H1  723   3.793   4.426   1.082
  253TIP3    H2  724   3.833   4.401   1.226
  254TIP3   OH2  725   2.955   2.174   2.193
  254TIP3    H1  726   2.969   2.095   2.245
  254TIP3    H2  727   3.025   2.233   2.221
  255TIP3   OH2  728   3.550   3.182   0.853
  255TIP3    H1  729   3.511   3.126   0.786
  255TIP3    H2  730   3.485   3.251   0.867
  256TIP3   OH2  731   2.911   6.032   4.304
  256TIP3    H1  732   2.939   6.032   4.212
  256TIP3    H2  733   2.828   5.983   4.304
  257TIP3   OH2  734   4.635   5.662   0.604
  257TIP3    H1  735   4.662   5.596   0.540
  257TIP3    H2  736   4.552   5.695   0.569
  258TIP3   OH2  737   3.422   2.729   2.867
  258TIP3    H1  738   3.336   2.687   2.868
  258TIP3    H2  739   3.404   2.821   2.884
  259TIP3   OH2  740   4.464   4.071   4.856
  259TIP3    H1  741   4.539   4.045   4.909
  259TIP3    H2  742   4.388   4.056   4.913
  260TIP3   OH2  743   1.568   6.197   2.512
  260TIP3    H1  744   1.583   6.187   2.418
  260TIP3    H2  745   1.625   6.131   2.552
  261TIP3   OH2  746   1.874   1.463   3.063
  261TIP3    H1  747   1.811   1.444   2.993
  261TIP3    H2  748   1.960   1.459   3.019
  262TIP3   OH2  749   2.390   3.075   5.395
  262TIP3    H1  750   2.310   3.065   5.343
  262TIP3    H2  751   2.378   3.015   5.469
  263TIP3   OH2  752   6.568   1.216   5.295
  263TIP3    H1  753   6.582   1.209   5.389
  263TIP3    H2  754   6.576   1.127   5.262
  264TIP3   OH2  755   0.923   5.496   0.510
  264TIP3    H1  756   0.869   5.428   0.471
  264TIP3    H2  757   0.865   5.542   0.571
  265TIP3   OH2  758   3.745   0.087   4.756
  265TIP3    H1  759   3.649   0.091   4.759
  265TIP3    H2  760   3.774   0.138   4.832
  266TIP3   OH2  761   2.157   6.426   1.413
  266TIP3    H1  762   2.207   6.465   1.342
  266TIP3    H2  763   2.071   6.468   1.408
  267TIP3   OH2  764   2.081   2.359   1.187
  267TIP3    H1  765   2.057   2.267   1.197
  267TIP3    H2  766   2.145   2.360   1.116
  268TIP3   OH2  767   5.462   6.126   1.581
  268TIP3    H1  768   5.436   6.055   1.522
  268TIP3    H2  769   5.538   6.166   1.539
  269TIP3   OH2  770   3.007   6.449   4.985
  269TIP3    H1  771   3.016   6.460   4.890
  269TIP3    H2  772   2.913   6.447   5.000
  270TIP3   OH2  773   3.035   1.737   2.285
  270TIP3    H1  774   2.998   1.648   2.278
  270TIP3    H2  775   2.966   1.788   2.328
  271TIP3   OH2  776   6.003   1.661   2.589
  271TIP3    H1  777   6.019   1.635   2.680
  271TIP3    H2  778   5.969   1.582   2.547
  272TIP3   OH2  779   6.234   6.647   1.609
  272TIP3    H1  780   6.165   6.601   1.657
  272TIP3    H2  781   6.315   6.618   1.651
  273TIP3   OH2  782   1.399   2.837   3.700
  273TIP3    H1  783   1.324   2.891   3.725
  273TIP3    H2  784   1.383   2.753   3.743
  274TIP3   OH2  785   7.202   5.346   0.606
  274TIP3    H1  786   7.159   5.336   0.521
  274TIP3    H2  787   7.130   5.364   0.667
  275TIP3   OH2  788   2.237   3.826   3.686
  275TIP3    H1  789   2.289   3.769   3.630
  275TIP3    H2  790   2.182   3.765   3.736
  276TIP3   OH2  791   2.841   0.779   4.182
  276TIP3    H1  792   2.908   0.846   4.188
  276TIP3    H2  793   2.761   0.822   4.211
  277TIP3   OH2  794   5.892   0.992   4.720
  277TIP3    H1  795   5.909   1.034   4.635
  277TIP3    H2  796   5.819   0.933   4.702
  278TIP3   OH2  797   6.523   1.883   1.305
  278TIP3    H1  798   6.570   1.951   1.257
  278TIP3    H2  799   6.504   1.923   1.390
  279TIP3   OH2  800   5.851   1.264   0.922
  279TIP3    H1  801   5.806   1.303   0.997
  279TIP3    H2  802   5.890   1.339   0.876
  280TIP3   OH2  803   4.524   0.822   4.225
  280TIP3    H1  804   4.520   0.866   4.140
  280TIP3    H2  805   4.613   0.836   4.256
  281TIP3   OH2  806   3.161   0.682   2.000
  281TIP3    H1  807   3.235   0.623   2.018
  281TIP3    H2  808   3.154   0.683   1.904
  282TIP3   OH2  809   4.080   5.768   3.830
  282TIP3    H1  810   4.036   5.830   3.772
  282TIP3    H2  811   4.080   5.686   3.780
  283TIP3   OH2  812   0.689   1.159   2.906
  283TIP3    H1  813   0.739   1.181   2.828
  283TIP3    H2  814   0.750   1.110   2.961
  284TIP3   OH2  815   5.361   0.563   0.345
  284TIP3    H1  816   5.339   0.531   0.258
  284TIP3    H2  817   5.326   0.652   0.348
  285TIP3   OH2  818   2.817   1.002   3.899
  285TIP3    H1  819   2.776   0.943   3.836
  285TIP3    H2  820   2.898   0.958   3.925
  286TIP3   OH2  821   4.347   6.034   3.716
  286TIP3    H1  822   4.407   6.078   3.656
  286TIP3    H2  823   4.401   6.009   3.791
  287TIP3   OH2  824   3.998   6.163   3.300
  287TIP3    H1  825   4.073   6.132   3.250
  287TIP3    H2  826   4.029   6.243   3.343
  288TIP3   OH2  827   2.733   0.282   5.352
  288TIP3    H1  828   2.710   0.249   5.439
  288TIP3    H2  829   2.767   0.206   5.306
  289TIP3   OH2  830   3.524   3.495   5.245
  289TIP3    H1  831   3.563   3.416   5.282
  289TIP3    H2  832   3.598   3.556   5.234
  290TIP3   OH2  833   2.246   6.338   3.575
  290TIP3    H1  834   2.258   6.359   3.482
  290TIP3    H2  835   2.330   6.300   3.602
  291TIP3   OH2  836   1.201   5.434   5.324
  291TIP3    H1  837   1.284   5.387   5.325
  291TIP3    H2  838   1.218   5.513   5.273
  292TIP3   OH2  839   3.880   5.089   0.540
  292TIP3    H1  840   3.916   5.022   0.598
  292TIP3    H2  841   3.952   5.151   0.527
  293TIP3   OH2  842   5.069   1.411   3.848
  293TIP3    H1  843   5.105   1.496   3.871
  293TIP3    H2  844   4.978   1.415   3.875
  294TIP3   OH2  845   0.197   2.010   4.396
  294TIP3    H1  846   0.273   1.998   4.340
  294TIP3    H2  847   0.124   1.973   4.346
  295TIP3   OH2  848   0.512   6.419   2.170
  295TIP3    H1  849   0.536   6.326   2.170
  295TIP3    H2  850   0.467   6.431   2.254
  296TIP3   OH2  851   7.192   3.366   0.898
  296TIP3    H1  852   7.165   3.368   0.806
  296TIP3    H2  853   7.287   3.367   0.895
  297TIP3   OH2  854   2.997   1.078   3.305
  297TIP3    H1  855   2.989   1.047   3.215
  297TIP3    H2  856   2.978   1.000   3.358
  298TIP3   OH2  857   1.924   3.034   0.052
  298TIP3    H1  858   1.867   2.973   0.005
  298TIP3    H2  859   1.870   3.067   0.124
  299TIP3   OH2  860   4.697   4.877   2.892
  299TIP3    H1  861   4.790   4.881   2.914
  299TIP3    H2  862   4.657   4.829   2.964
  300TIP3   OH2  863   5.468   3.716   2.010
  300TIP3    H1  864   5.507   3.803   2.010
  300TIP3    H2  865   5.450   3.697   2.102
  301TIP3   OH2  866   2.235   2.142   0.568
  301TIP3    H1  867   2.144   2.123   0.590
  301TIP3    H2  868   2.244   2.116   0.477
  302TIP3   OH2  869   2.679   4.511   5.743
  302TIP3    H1  870   2.771   4.493   5.764
  302TIP3    H2  871   2.630   4.471   5.816
  303TIP3   OH2  872   6.755   3.830   3.187
  303TIP3    H1  873   6.783   3.768   3.119
  303TIP3    H2  874   6.707   3.776   3.250
  304TIP3   OH2  875   6.621   5.307   5.082
  304TIP3    H1  876   6.578   5.387   5.052
  304TIP3    H2  877   6.618   5.249   5.006
  305TIP3   OH2  878   6.404   5.259   4.544
  305TIP3    H1  879   6.485   5.278   4.592
  305TIP3    H2  880   6.338   5.315   4.586
  306TIP3   OH2  881   2.708   4.018   2.888
  306TIP3    H1  882   2.678   3.941   2.839
  306TIP3    H2  883   2.715   4.087   2.822
  307TIP3   OH2  884   1.706   0.106   5.598
  307TIP3    H1  885   1.645   0.171   5.634
  307TIP3    H2  886   1.711   0.127   5.505
  308TIP3   OH2  887   3.651   0.740   2.268
  308TIP3    H1  888   3.645   0.693   2.185
  308TIP3    H2  889   3.600   0.688   2.330
  309TIP3   OH2  890   0.207   0.355   0.757
  309TIP3    H1  891   0.201   0.280   0.698
  309TIP3    H2  892   0.260   0.419   0.710
  310TIP3   OH2  893   3.465   2.614   5.259
  310TIP3    H1  894   3.372   2.617   5.236
  310TIP3    H2  895   3.509   2.663   5.190
  311TIP3   OH2  896   2.597   0.450   2.206
  311TIP3    H1  897   2.531   0.388   2.236
  311TIP3    H2  898   2.554   0.501   2.138
  312TIP3   OH2  899   1.430   5.356   2.325
  312TIP3    H1  900   1.353   5.408   2.302
  312TIP3    H2  901   1.431   5.285   2.260
  313TIP3   OH2  902   2.278   1.660   1.428
  313TIP3    H1  903   2.199   1.669   1.481
  313TIP3    H2  904   2.307   1.750   1.412
  314TIP3   OH2  905   2.233   2.936   1.480
  314TIP3    H1  906   2.161   2.876   1.462
  314TIP3    H2  907   2.211   2.975   1.564
  315TIP3   OH2  908   5.424   3.329   1.534
  315TIP3    H1  909   5.504   3.286   1.565
  315TIP3    H2  910   5.364   3.325   1.608
  316TIP3   OH2  911   6.764   6.176   1.880
  316TIP3    H1  912   6.807   6.197   1.963
  316TIP3    H2  913   6.769   6.258   1.830
  317TIP3   OH2  914   2.075   2.307   3.057
  317TIP3    H1  915   2.102   2.223   3.020
  317TIP3    H2  916   1.984   2.295   3.081
  318TIP3   OH2  917   0.672   4.805   5.296
  318TIP3    H1  918   0.656   4.857   5.374
  318TIP3    H2  919   0.768   4.801   5.289
  319TIP3   OH2  920   2.704   1.950   0.828
  319TIP3    H1  921   2.680   1.979   0.916
  319TIP3    H2  922   2.727   2.031   0.782
  320TIP3   OH2  923   5.030   1.641   1.879
  320TIP3    H1  924   5.049   1.718   1.825
  320TIP3    H2  925   4.976   1.675   1.951
  321TIP3   OH2  926   5.438   5.624   0.943
  321TIP3    H1  927   5.528   5.593   0.941
  321TIP3    H2  928   5.417   5.631   1.036
  322TIP3   OH2  929   1.595   4.595   3.531
  322TIP3    H1  930   1.634   4.549   3.605
  322TIP3    H2  931   1.662   4.594   3.464
  323TIP3   OH2  932   3.083   2.670   0.107
  323TIP3    H1  933   3.090   2.765   0.106
  323TIP3    H2  934   3.159   2.640   0.056
  324TIP3   OH2  935   0.770   4.556   4.381
  324TIP3    H1  936   0.768   4.575   4.287
  324TIP3    H2  937   0.730   4.633   4.422
  325TIP3   OH2  938   4.793   0.271   3.349
  325TIP3    H1  939   4.794   0.288   3.255
  325TIP3    H2  940   4.705   0.237   3.366
  326TIP3   OH2  941   0.493   2.212   2.809
  326TIP3    H1  942   0.488   2.307   2.809
  326TIP3    H2  943   0.503   2.188   2.717
  327TIP3   OH2  944   2.132   2.764   0.896
  327TIP3    H1  945   2.218   2.788   0.861
  327TIP3    H2  946   2.097   2.703   0.832
  328TIP3   OH2  947   3.158   2.374   4.895
  328TIP3    H1  948   3.097   2.426   4.843
  328TIP3    H2  949   3.166   2.421   4.978
  329TIP3   OH2  950   1.473   5.400   3.226
  329TIP3    H1  951   1.550   5.361   3.268
  329TIP3    H2  952   1.510   5.463   3.164
  330TIP3   OH2  953   1.860   6.108   0.757
  330TIP3    H1  954   1.872   6.153   0.674
  330TIP3    H2  955   1.804   6.034   0.737
  331TIP3   OH2  956   1.215   6.408   2.399
  331TIP3    H1  957   1.176   6.427   2.484
  331TIP3    H2  958   1.309   6.422   2.411
  332TIP3   OH2  959   3.424   1.121   2.919
  332TIP3    H1  960   3.426   1.026   2.911
  332TIP3    H2  961   3.347   1.139   2.973
  333TIP3   OH2  962   1.415   0.047   2.613
  333TIP3    H1  963   1.453   0.122   2.659
  333TIP3    H2  964   1.326   0.041   2.647
  334TIP3   OH2  965   1.482   6.759   2.402
  334TIP3    H1  966   1.486   6.664   2.419
  334TIP3    H2  967   1.389   6.779   2.397
  335TIP3   OH2  968   7.148   4.438   0.823
  335TIP3    H1  969   7.089   4.504   0.860
  335TIP3    H2  970   7.165   4.468   0.734
  336TIP3   OH2  971   1.168   5.276   3.665
  336TIP3    H1  972   1.230   5.214   3.703
  336TIP3    H2  973   1.206   5.301   3.581
  337TIP3   OH2  974   6.713   0.579   1.878
  337TIP3    H1  975   6.785   0.523   1.850
  337TIP3    H2  976   6.736   0.606   1.966
  338TIP3   OH2  977   0.125   0.062   3.226
  338TIP3    H1  978   0.080   0.078   3.143
  338TIP3    H2  979   0.160  -0.027   3.217
  339TIP3   OH2  980   2.727   6.615   2.040
  339TIP3    H1  981   2.729   6.523   2.064
  339TIP3    H2  982   2.650   6.650   2.084
  340TIP3   OH2  983   1.187   2.130   1.378
  340TIP3    H1  984   1.178   2.128   1.473
  340TIP3    H2  985   1.254   2.065   1.359
  341TIP3   OH2  986   5.770   6.503   3.163
  341TIP3    H1  987   5.741   6.582   3.210
  341TIP3    H2  988   5.705   6.436   3.187
  342TIP3   OH2  989   4.536   3.389   4.187
  342TIP3    H1  990   4.555   3.298   4.209
  342TIP3    H2  991   4.605   3.414   4.125
  343TIP3   OH2  992   4.323   6.795   3.472
  343TIP3    H1  993   4.373   6.831   3.399
  343TIP3    H2  994   4.353   6.844   3.548
  344TIP3   OH2  995   0.791   5.535   2.750
  344TIP3    H1  996   0.883   5.559   2.764
  344TIP3    H2  997   0.749   5.616   2.722
  345TIP3   OH2  998   4.225   6.127   3.132
  345TIP3    H1  999   4.285   6.197   3.158
  345TIP3    H2 1000   4.271   6.081   3.063
  346TIP3   OH2 1001   0.134   2.463   2.993
  346TIP3    H1 1002   0.086   2.390   2.955
  346TIP3    H2 1003   0.194   2.421   3.055
  347TIP3   OH2 1004   1.673   4.546   3.002
  347TIP3    H1 1005   1.625   4.464   3.000
  347TIP3    H2 1006   1.761   4.524   2.971
  348TIP3   OH2 1007   3.039   1.625   5.624
  348TIP3    H1 1008   3.057   1.547   5.676
  348TIP3    H2 1009   3.074   1.605   5.538
  349TIP3   OH2 1010   5.668   4.610   2.771
  349TIP3    H1 1011   5.658   4.546   2.700
  349TIP3    H2 1012   5.667   4.558   2.851
  350TIP3   OH2 1013   3.899   4.367   1.430
  350TIP3    H1 1014   3.846   4.437   1.468
  350TIP3    H2 1015   3.847   4.287   1.445
  351TIP3   OH2 1016   0.631   2.581   0.790
  351TIP3    H1 1017   0.716   2.598   0.750
  351TIP3    H2 1018   0.611   2.490   0.766
  352TIP3   OH2 1019   6.251   0.023   4.297
  352TIP3    H1 1020   6.275  -0.016   4.381
  352TIP3    H2 1021   6.285  -0.038   4.232
  353TIP3   OH2 1022   5.534   5.461   1.411
  353TIP3    H1 1023   5.598   5.526   1.441
  353TIP3    H2 1024   5.493   5.501   1.334
  354TIP3   OH2 1025   5.974   5.079   4.561
  354TIP3    H1 1026   5.923   5.003   4.533
  354TIP3    H2 1027   5.933   5.153   4.516
  355TIP3   OH2 1028   0.343   3.042   3.809
  355TIP3    H1 1029   0.377   3.084   3.730
  355TIP3    H2 1030   0.421   3.020   3.860
  356TIP3   OH2 1031   6.291   4.728   5.224
  356TIP3    H1 1032   6.343   4.677   5.162
  356TIP3    H2 1033   6.202   4.693   5.217
  357TIP3   OH2 1034   1.229   2.307   3.768
  357TIP3    H1 1035   1.173   2.286   3.694
  357TIP3    H2 1036   1.303   2.246   3.761
  358TIP3   OH2 1037   4.129   5.220   0.691
  358TIP3    H1 1038   4.106   5.295   0.746
  358TIP3    H2 1039   4.188   5.168   0.745
  359TIP3   OH2 1040   5.767   2.823   4.469
  359TIP3    H1 1041   5.761   2.908   4.512
  359TIP3    H2 1042   5.784   2.761   4.540
  360TIP3   OH2 1043   2.033   6.563   4.572
  360TIP3    H1 1044   2.068   6.487   4.525
  360TIP3    H2 1045   2.107   6.623   4.578
  361TIP3   OH2 1046   1.931   5.469   2.752
  361TIP3    H1 1047   1.925   5.405   2.681
  361TIP3    H2 1048   1.933   5.554   2.709
  362TIP3   OH2 1049   4.683   1.254   4.491
  362TIP3    H1 1050   4.776   1.269   4.470
  362TIP3    H2 1051   4.640   1.248   4.406
  363TIP3   OH2 1052   3.723   5.490   3.263
  363TIP3    H1 1053   3.665   5.555   3.222
  363TIP3    H2 1054   3.712   5.504   3.357
  364TIP3   OH2 1055   4.801   6.152   3.771
  364TIP3    H1 1056   4.854   6.230   3.757
  364TIP3    H2 1057   4.863   6.085   3.797
  365TIP3   OH2 1058   4.316   5.684   5.212
  365TIP3    H1 1059   4.303   5.589   5.213
  365TIP3    H2 1060   4.272   5.713   5.132
  366TIP3   OH2 1061   4.498   2.105   4.029
  366TIP3    H1 1062   4.571   2.164   4.012
  366TIP3    H2 1063   4.430   2.161   4.067
  367TIP3   OH2 1064   6.088   0.321   3.542
  367TIP3    H1 1065   6.176   0.283   3.543
  367TIP3    H2 1066   6.086   0.376   3.621
  368TIP3   OH2 1067   0.742   0.295   0.037
  368TIP3    H1 1068   0.649   0.280   0.058
  368TIP3    H2 1069   0.760   0.383   0.067
  369TIP3   OH2 1070   5.018   0.283   0.491
  369TIP3    H1 1071   4.974   0.355   0.536
  369TIP3    H2 1072   5.063   0.325   0.418
  370TIP3   OH2 1073   6.503   1.713   0.842
  370TIP3    H1 1074   6.536   1.802   0.826
  370TIP3    H2 1075   6.422   1.726   0.891
  371TIP3   OH2 1076   5.099   4.304   3.200
  371TIP3    H1 1077   5.008   4.334   3.192
  371TIP3    H2 1078   5.136   4.316   3.113
  372TIP3   OH2 1079   2.535   3.163   0.294
  372TIP3    H1 1080   2.588   3.110   0.354
  372TIP3    H2 1081   2.598   3.219   0.249
  373TIP3   OH2 1082   0.812   0.725   3.382
  373TIP3    H1 1083   0.901   0.728   3.417
  373TIP3    H2 1084   0.801   0.635   3.352
  374TIP3   OH2 1085  -0.006   6.712   4.481
  374TIP3    H1 1086  -0.092   6.716   4.523
  374TIP3    H2 1087  -0.024   6.674   4.394
  375TIP3   OH2 1088   1.512   0.516   2.199
  375TIP3    H1 1089   1.521   0.422   2.183
  375TIP3    H2 1090   1.487   0.552   2.114
  376TIP3   OH2 1091   4.872   6.631   5.737
  376TIP3    H1 1092   4.914   6.545   5.731
  376TIP3    H2 1093   4.855   6.643   5.830
  377TIP3   OH2 1094   3.113   4.441   2.552
  377TIP3    H1 1095   3.174   4.483   2.491
  377TIP3    H2 1096   3.096   4.508   2.618
  378TIP3   OH2 1097   0.003   3.487   5.355
  378TIP3    H1 1098  -0.060   3.494   5.427
  378TIP3    H2 1099  -0.001   3.395   5.329
  379TIP3   OH2 1100   3.115   1.623   0.294
  379TIP3    H1 1101   3.022   1.607   0.309
  379TIP3    H2 1102   3.128   1.603   0.201
  380TIP3   OH2 1103   0.574   2.207   4.166
  380TIP3    H1 1104   0.589   2.299   4.190
  380TIP3    H2 1105   0.647   2.186   4.108
  381TIP3   OH2 1106   3.104   6.656   5.113
  381TIP3    H1 1107   3.056   6.716   5.056
  381TIP3    H2 1108   3.076   6.568   5.085
  382TIP3   OH2 1109   4.261   6.461   0.942
  382TIP3    H1 1110   4.227   6.372   0.942
  382TIP3    H2 1111   4.302   6.471   0.856
  383TIP3   OH2 1112   5.360   0.751   5.241
  383TIP3    H1 1113   5.366   0.737   5.146
  383TIP3    H2 1114   5.403   0.675   5.280
  384TIP3   OH2 1115   2.256   5.132   0.462
  384TIP3    H1 1116   2.340   5.175   0.446
  384TIP3    H2 1117   2.232   5.094   0.378
  385TIP3   OH2 1118   3.414   0.872   3.123
  385TIP3    H1 1119   3.410   0.937   3.192
  385TIP3    H2 1120   3.503   0.879   3.088
  386TIP3   OH2 1121   7.020   4.359   1.685
  386TIP3    H1 1122   6.946   4.314   1.645
  386TIP3    H2 1123   7.091   4.350   1.622
  387TIP3   OH2 1124   0.222   3.729   1.388
  387TIP3    H1 1125   0.252   3.741   1.478
  387TIP3    H2 1126   0.136   3.770   1.386
  388TIP3   OH2 1127   4.325   5.824   1.468
  388TIP3    H1 1128   4.260   5.755   1.475
  388TIP3    H2 1129   4.397   5.785   1.418
  389TIP3   OH2 1130   0.394   5.824   2.632
  389TIP3    H1 1131   0.406   5.831   2.537
  389TIP3    H2 1132   0.434   5.740   2.655
  390TIP3   OH2 1133   7.176   1.756   3.892
  390TIP3    H1 1134   7.179   1.661   3.883
  390TIP3    H2 1135   7.201   1.773   3.983
  391TIP3   OH2 1136   5.199   6.220   5.500
  391TIP3    H1 1137   5.247   6.137   5.501
  391TIP3    H2 1138   5.124   6.203   5.443
  392TIP3   OH2 1139   2.048   5.176   3.593
  392TIP3    H1 1140   2.135   5.146   3.616
  392TIP3    H2 1141   1.992   5.149   3.666
  393TIP3   OH2 1142   4.023   3.961   4.229
  393TIP3    H1 1143   4.042   3.880   4.182
  393TIP3    H2 1144   3.931   3.979   4.209
  394TIP3   OH2 1145   6.687   5.420   5.527
  394TIP3    H1 1146   6.684   5.387   5.437
  394TIP3    H2 1147   6.667   5.343   5.581
  395TIP3   OH2 1148   6.347   0.564   2.273
  395TIP3    H1 1149   6.431   0.518   2.273
  395TIP3    H2 1150   6.284   0.497   2.247
  396TIP3   OH2 1151   2.969   3.450   3.492
  396TIP3    H1 1152   3.051   3.432   3.444
  396TIP3    H2 1153   2.976   3.542   3.518
  397TIP3   OH2 1154   1.583   0.060   5.174
  397TIP3    H1 1155   1.588  -0.020   5.122
  397TIP3    H2 1156   1.535   0.035   5.253
  398TIP3   OH2 1157   4.016   2.013   4.955
  398TIP3    H1 1158   4.030   2.003   5.049
  398TIP3    H2 1159   4.104   2.018   4.918
  399TIP3   OH2 1160   5.271   5.596   2.884
  399TIP3    H1 1161   5.256   5.503   2.901
  399TIP3    H2 1162   5.358   5.614   2.919
  400TIP3   OH2 1163   4.569   0.576   2.680
  400TIP3    H1 1164   4.505   0.513   2.716
  400TIP3    H2 1165   4.641   0.521   2.648
  401TIP3   OH2 1166   2.424   1.862   3.585
  401TIP3    H1 1167   2.518   1.879   3.584
  401TIP3    H2 1168   2.393   1.900   3.667
  402TIP3   OH2 1169   0.728   5.885   2.091
  402TIP3    H1 1170   0.782   5.886   2.170
  402TIP3    H2 1171   0.747   5.801   2.050
  403TIP3   OH2 1172   2.770   4.301   5.044
  403TIP3    H1 1173   2.817   4.377   5.076
  403TIP3    H2 1174   2.717   4.271   5.118
  404TIP3   OH2 1175   0.676   2.354   2.386
  404TIP3    H1 1176   0.635   2.283   2.435
  404TIP3    H2 1177   0.770   2.339   2.396
  405TIP3   OH2 1178   4.766   3.316   0.777
  405TIP3    H1 1179   4.706   3.248   0.747
  405TIP3    H2 1180   4.759   3.385   0.711
  406TIP3   OH2 1181   7.206   3.448   4.613
  406TIP3    H1 1182   7.156   3.386   4.666
  406TIP3    H2 1183   7.141   3.509   4.579
  407TIP3   OH2 1184   3.122   6.022   3.438
  407TIP3    H1 1185   3.027   6.031   3.443
  407TIP3    H2 1186   3.135   5.942   3.388
  408TIP3   OH2 1187   4.334   2.903   3.843
  408TIP3    H1 1188   4.246   2.896   3.880
  408TIP3    H2 1189   4.378   2.969   3.897
  409TIP3   OH2 1190   6.503   3.074   4.935
  409TIP3    H1 1191   6.539   2.998   4.889
  409TIP3    H2 1192   6.409   3.055   4.942
  410TIP3   OH2 1193   0.889   2.656   0.689
  410TIP3    H1 1194   0.892   2.669   0.783
  410TIP3    H2 1195   0.910   2.742   0.652
  411TIP3   OH2 1196   6.164   2.664   4.838
  411TIP3    H1 1197   6.140   2.677   4.747
  411TIP3    H2 1198   6.180   2.752   4.872
  412TIP3   OH2 1199   5.242   4.660   5.329
  412TIP3    H1 1200   5.272   4.575   5.297
  412TIP3    H2 1201   5.150   4.664   5.303
  413TIP3   OH2 1202   6.607   2.743   1.912
  413TIP3    H1 1203   6.588   2.762   2.003
  413TIP3    H2 1204   6.542   2.793   1.862
  414TIP3   OH2 1205   2.620   3.473   0.954
  414TIP3    H1 1206   2.621   3.554   0.903
  414TIP3    H2 1207   2.648   3.405   0.893
  415TIP3   OH2 1208   4.624   2.468   1.979
  415TIP3    H1 1209   4.623   2.553   1.935
  415TIP3    H2 1210   4.613   2.404   1.909
  416TIP3   OH2 1211   6.643   1.610   1.399
  416TIP3    H1 1212   6.613   1.632   1.311
  416TIP3    H2 1213   6.620   1.686   1.452
  417TIP3   OH2 1214   2.391   4.767   1.083
  417TIP3    H1 1215   2.484   4.759   1.062
  417TIP3    H2 1216   2.383   4.853   1.123
  418TIP3   OH2 1217   2.786   1.348   4.322
  418TIP3    H1 1218   2.876   1.314   4.316
  418TIP3    H2 1219   2.741   1.310   4.246
  419TIP3   OH2 1220   5.770   6.068   2.357
  419TIP3    H1 1221   5.775   6.147   2.302
  419TIP3    H2 1222   5.678   6.041   2.352
  420TIP3   OH2 1223   5.568   2.797   3.774
  420TIP3    H1 1224   5.568   2.788   3.869
  420TIP3    H2 1225   5.615   2.720   3.742
  421TIP3   OH2 1226   5.574   2.082   3.335
  421TIP3    H1 1227   5.587   2.175   3.313
  421TIP3    H2 1228   5.555   2.040   3.251
  422TIP3   OH2 1229   5.135   5.553   1.916
  422TIP3    H1 1230   5.074   5.627   1.916
  422TIP3    H2 1231   5.111   5.503   1.838
  423TIP3   OH2 1232   5.510   1.973   0.649
  423TIP3    H1 1233   5.445   1.909   0.621
  423TIP3    H2 1234   5.460   2.054   0.659
  424TIP3   OH2 1235   1.906   3.198   4.697
  424TIP3    H1 1236   1.825   3.159   4.729
  424TIP3    H2 1237   1.969   3.184   4.769
  425TIP3   OH2 1238   0.579   1.608   5.402
  425TIP3    H1 1239   0.657   1.582   5.353
  425TIP3    H2 1240   0.575   1.546   5.475
  426TIP3   OH2 1241   3.741   6.198   3.917
  426TIP3    H1 1242   3.678   6.198   3.990
  426TIP3    H2 1243   3.823   6.167   3.956
  427TIP3   OH2 1244   6.823   3.732   4.351
  427TIP3    H1 1245   6.787   3.729   4.439
  427TIP3    H2 1246   6.918   3.734   4.364
  428TIP3   OH2 1247   5.249   0.069   2.852
  428TIP3    H1 1248   5.289  -0.008   2.892
  428TIP3    H2 1249   5.170   0.085   2.904
  429TIP3   OH2 1250   4.408   5.940   2.959
  429TIP3    H1 1251   4.345   5.877   2.993
  429TIP3    H2 1252   4.485   5.929   3.014
  430TIP3   OH2 1253   0.077   2.475   0.868
  430TIP3    H1 1254   0.073   2.525   0.949
  430TIP3    H2 1255   0.170   2.470   0.847
  431TIP3   OH2 1256   3.931   6.811   5.809
  431TIP3    H1 1257   3.953   6.718   5.818
  431TIP3    H2 1258   3.931   6.827   5.715
  432TIP3   OH2 1259   7.009   0.250   3.418
  432TIP3    H1 1260   6.953   0.326   3.405
  432TIP3    H2 1261   6.970   0.204   3.493
  433TIP3   OH2 1262   0.347   5.686   5.728
  433TIP3    H1 1263   0.315   5.624   5.794
  433TIP3    H2 1264   0.440   5.696   5.748
  434TIP3   OH2 1265   5.196   1.324   0.196
  434TIP3    H1 1266   5.171   1.414   0.218
  434TIP3    H2 1267   5.124   1.270   0.229
  435TIP3   OH2 1268   1.662   5.621   5.869
  435TIP3    H1 1269   1.574   5.633   5.831
  435TIP3    H2 1270   1.710   5.700   5.844
  436TIP3   OH2 1271   5.269   3.049   5.697
  436TIP3    H1 1272   5.189   3.060   5.647
  436TIP3    H2 1273   5.335   3.098   5.648
  437TIP3   OH2 1274   1.034   0.749   4.084
  437TIP3    H1 1275   0.982   0.827   4.063
  437TIP3    H2 1276   1.068   0.766   4.172
  438TIP3   OH2 1277   4.151   4.400   5.812
  438TIP3    H1 1278   4.234   4.428   5.773
  438TIP3    H2 1279   4.136   4.460   5.885
  439TIP3   OH2 1280   6.335   4.949   4.809
  439TIP3    H1 1281   6.299   4.992   4.732
  439TIP3    H2 1282   6.391   4.880   4.774
  440TIP3   OH2 1283   5.620   5.673   4.818
  440TIP3    H1 1284   5.686   5.619   4.862
  440TIP3    H2 1285   5.614   5.636   4.730
  441TIP3   OH2 1286   1.329   3.671   4.331
  441TIP3    H1 1287   1.422   3.678   4.310
  441TIP3    H2 1288   1.301   3.761   4.347
  442TIP3   OH2 1289   5.058   5.041   4.093
  442TIP3    H1 1290   4.966   5.051   4.117
  442TIP3    H2 1291   5.107   5.067   4.171
  443TIP3   OH2 1292   4.643   3.757   4.926
  443TIP3    H1 1293   4.611   3.796   5.008
  443TIP3    H2 1294   4.701   3.824   4.890
  444TIP3   OH2 1295   4.926   4.569   3.248
  444TIP3    H1 1296   4.879   4.510   3.189
  444TIP3    H2 1297   4.932   4.520   3.330
  445TIP3   OH2 1298   0.973   0.671   2.750
  445TIP3    H1 1299   1.053   0.676   2.802
  445TIP3    H2 1300   0.902   0.672   2.814
  446TIP3   OH2 1301   1.516   0.516   4.158
  446TIP3    H1 1302   1.434   0.562   4.142
  446TIP3    H2 1303   1.512   0.489   4.249
  447TIP3   OH2 1304   4.951   1.821   3.254
  447TIP3    H1 1305   4.917   1.910   3.252
  447TIP3    H2 1306   4.920   1.782   3.172
  448TIP3   OH2 1307   7.058   4.710   0.885
  448TIP3    H1 1308   7.142   4.756   0.876
  448TIP3    H2 1309   7.016   4.751   0.961
  449TIP3   OH2 1310   3.163   4.766   0.089
  449TIP3    H1 1311   3.213   4.806   0.017
  449TIP3    H2 1312   3.190   4.816   0.167
  450TIP3   OH2 1313   6.819   4.061   4.892
  450TIP3    H1 1314   6.893   4.116   4.919
  450TIP3    H2 1315   6.787   4.021   4.973
  451TIP3   OH2 1316   2.467   3.663   4.309
  451TIP3    H1 1317   2.448   3.570   4.298
  451TIP3    H2 1318   2.420   3.706   4.238
  452TIP3   OH2 1319   1.003   5.829   4.999
  452TIP3    H1 1320   1.015   5.816   4.905
  452TIP3    H2 1321   0.929   5.773   5.022
  453TIP3   OH2 1322   1.348   2.848   5.568
  453TIP3    H1 1323   1.346   2.876   5.660
  453TIP3    H2 1324   1.432   2.881   5.535
  454TIP3   OH2 1325   2.140   1.760   0.472
  454TIP3    H1 1326   2.223   1.776   0.517
  454TIP3    H2 1327   2.142   1.667   0.450
  455TIP3   OH2 1328   2.726   0.020   0.472
  455TIP3    H1 1329   2.719   0.087   0.540
  455TIP3    H2 1330   2.730   0.069   0.390
  456TIP3   OH2 1331   6.658   1.201   3.747
  456TIP3    H1 1332   6.641   1.288   3.712
  456TIP3    H2 1333   6.572   1.159   3.752
  457TIP3   OH2 1334   2.998   3.974   0.362
  457TIP3    H1 1335   2.952   3.957   0.444
  457TIP3    H2 1336   2.984   3.895   0.310
  458TIP3   OH2 1337   2.538   0.809   5.636
  458TIP3    H1 1338   2.627   0.842   5.627
  458TIP3    H2 1339   2.528   0.791   5.730
  459TIP3   OH2 1340   5.955   1.349   4.538
  459TIP3    H1 1341   6.041   1.390   4.536
  459TIP3    H2 1342   5.971   1.258   4.511
  460TIP3   OH2 1343   6.217   0.627   0.479
  460TIP3    H1 1344   6.123   0.623   0.460
  460TIP3    H2 1345   6.252   0.543   0.448
  461TIP3   OH2 1346   4.190   0.258   0.472
  461TIP3    H1 1347   4.271   0.300   0.500
  461TIP3    H2 1348   4.136   0.256   0.551
  462TIP3   OH2 1349   5.836   5.720   4.067
  462TIP3    H1 1350   5.810   5.812   4.069
  462TIP3    H2 1351   5.762   5.675   4.026
  463TIP3   OH2 1352   4.775   6.518   2.522
  463TIP3    H1 1353   4.705   6.453   2.523
  463TIP3    H2 1354   4.757   6.575   2.597
  464TIP3   OH2 1355   2.624   0.082   4.515
  464TIP3    H1 1356   2.669   0.087   4.431
  464TIP3    H2 1357   2.543   0.036   4.497
  465TIP3   OH2 1358   0.283   0.442   4.611
  465TIP3    H1 1359   0.267   0.532   4.581
  465TIP3    H2 1360   0.299   0.450   4.705
  466TIP3   OH2 1361   0.242   2.140   0.805
  466TIP3    H1 1362   0.162   2.139   0.857
  466TIP3    H2 1363   0.303   2.083   0.852
  467TIP3   OH2 1364   6.781   1.788   2.256
  467TIP3    H1 1365   6.725   1.864   2.238
  467TIP3    H2 1366   6.794   1.790   2.351
  468TIP3   OH2 1367   1.308   0.104   4.805
  468TIP3    H1 1368   1.385   0.064   4.765
  468TIP3    H2 1369   1.333   0.194   4.823
  469TIP3   OH2 1370   4.410   0.945   4.478
  469TIP3    H1 1371   4.434   0.898   4.398
  469TIP3    H2 1372   4.379   1.030   4.447
  470TIP3   OH2 1373   1.645   3.417   3.022
  470TIP3    H1 1374   1.689   3.422   3.107
  470TIP3    H2 1375   1.562   3.462   3.036
  471TIP3   OH2 1376   5.786   1.558   1.410
  471TIP3    H1 1377   5.730   1.634   1.424
  471TIP3    H2 1378   5.855   1.590   1.352
  472TIP3   OH2 1379   0.712   3.341   4.236
  472TIP3    H1 1380   0.768   3.338   4.313
  472TIP3    H2 1381   0.772   3.349   4.163
  473TIP3   OH2 1382   5.223   1.929   0.882
  473TIP3    H1 1383   5.193   2.003   0.830
  473TIP3    H2 1384   5.214   1.854   0.824
  474TIP3   OH2 1385   0.514   6.639   0.077
  474TIP3    H1 1386   0.511   6.564   0.018
  474TIP3    H2 1387   0.600   6.633   0.119
  475TIP3   OH2 1388   6.458   6.019   5.687
  475TIP3    H1 1389   6.520   6.019   5.760
  475TIP3    H2 1390   6.502   6.068   5.618
  476TIP3   OH2 1391   3.284   6.214   2.815
  476TIP3    H1 1392   3.337   6.248   2.888
  476TIP3    H2 1393   3.337   6.231   2.737
  477TIP3   OH2 1394   6.922   3.476   3.104
  477TIP3    H1 1395   6.965   3.523   3.176
  477TIP3    H2 1396   6.907   3.388   3.139
  478TIP3   OH2 1397   0.889   5.338   3.475
  478TIP3    H1 1398   0.900   5.335   3.380
  478TIP3    H2 1399   0.978   5.342   3.510
  479TIP3   OH2 1400   2.775   6.373   5.491
  479TIP3    H1 1401   2.806   6.451   5.536
  479TIP3    H2 1402   2.839   6.305   5.513
  480TIP3   OH2 1403   0.384   4.711   0.741
  480TIP3    H1 1404   0.345   4.749   0.820
  480TIP3    H2 1405   0.475   4.693   0.765
  481TIP3   OH2 1406   3.890   1.124   2.212
  481TIP3    H1 1407   3.978   1.094   2.233
  481TIP3    H2 1408   3.836   1.091   2.283
  482TIP3   OH2 1409   5.561   3.313   3.615
  482TIP3    H1 1410   5.605   3.319   3.699
  482TIP3    H2 1411   5.576   3.223   3.587
  483TIP3   OH2 1412   0.868   3.485   2.100
  483TIP3    H1 1413   0.787   3.471   2.050
  483TIP3    H2 1414   0.869   3.415   2.164
  484TIP3   OH2 1415   6.651   2.590   4.107
  484TIP3    H1 1416   6.575   2.574   4.052
  484TIP3    H2 1417   6.691   2.503   4.119
  485TIP3   OH2 1418   4.160   1.226   5.458
  485TIP3    H1 1419   4.068   1.253   5.464
  485TIP3    H2 1420   4.209   1.301   5.493
  486TIP3   OH2 1421   6.737   5.735   4.986
  486TIP3    H1 1422   6.763   5.707   5.073
  486TIP3    H2 1423   6.658   5.787   5.000
  487TIP3   OH2 1424   4.429   4.611   2.943
  487TIP3    H1 1425   4.405   4.536   2.888
  487TIP3    H2 1426   4.347   4.635   2.987
  488TIP3   OH2 1427   1.797   2.674   4.220
  488TIP3    H1 1428   1.762   2.760   4.198
  488TIP3    H2 1429   1.794   2.625   4.138
  489TIP3   OH2 1430   5.092   2.921   3.978
  489TIP3    H1 1431   5.012   2.872   3.960
  489TIP3    H2 1432   5.154   2.893   3.910
  490TIP3   OH2 1433   3.478   0.759   0.340
  490TIP3    H1 1434   3.462   0.674   0.380
  490TIP3    H2 1435   3.517   0.812   0.409
  491TIP3   OH2 1436   3.492   6.053   1.741
  491TIP3    H1 1437   3.492   6.048   1.836
  491TIP3    H2 1438   3.439   6.130   1.720
  492TIP3   OH2 1439   6.516   1.635   0.220
  492TIP3    H1 1440   6.535   1.717   0.174
  492TIP3    H2 1441   6.602   1.600   0.244
  493TIP3   OH2 1442   2.198   2.292   4.947
  493TIP3    H1 1443   2.267   2.345   4.986
  493TIP3    H2 1444   2.214   2.297   4.853
  494TIP3   OH2 1445   6.378   5.773   5.628
  494TIP3    H1 1446   6.284   5.763   5.644
  494TIP3    H2 1447   6.395   5.866   5.644
  495TIP3   OH2 1448   2.167   3.116   1.270
  495TIP3    H1 1449   2.115   3.181   1.316
  495TIP3    H2 1450   2.205   3.061   1.339
  496TIP3   OH2 1451   4.775   6.052   3.304
  496TIP3    H1 1452   4.728   6.117   3.252
  496TIP3    H2 1453   4.707   6.007   3.354
  497TIP3   OH2 1454   0.399   5.628   1.892
  497TIP3    H1 1455   0.338   5.685   1.846
  497TIP3    H2 1456   0.355   5.606   1.974
  498TIP3   OH2 1457   0.380   5.952   3.555
  498TIP3    H1 1458   0.467   5.965   3.517
  498TIP3    H2 1459   0.364   6.032   3.605
  499TIP3   OH2 1460   2.506   3.760   1.954
  499TIP3    H1 1461   2.561   3.835   1.978
  499TIP3    H2 1462   2.428   3.798   1.915
  500TIP3   OH2 1463   1.804   1.312   4.127
  500TIP3    H1 1464   1.733   1.255   4.156
  500TIP3    H2 1465   1.793   1.319   4.032
  501TIP3   OH2 1466   2.469   1.638   2.700
  501TIP3    H1 1467   2.487   1.594   2.617
  501TIP3    H2 1468   2.549   1.627   2.751
  502TIP3   OH2 1469   1.150   3.727   1.924
  502TIP3    H1 1470   1.235   3.761   1.896
  502TIP3    H2 1471   1.088   3.761   1.859
  503TIP3   OH2 1472   1.650   1.501   2.055
  503TIP3    H1 1473   1.645   1.444   1.978
  503TIP3    H2 1474   1.671   1.588   2.019
  504TIP3   OH2 1475   4.570   1.856   2.316
  504TIP3    H1 1476   4.631   1.800   2.365
  504TIP3    H2 1477   4.608   1.943   2.323
  505TIP3   OH2 1478   3.501   2.566   1.784
  505TIP3    H1 1479   3.564   2.637   1.778
  505TIP3    H2 1480   3.438   2.595   1.851
  506TIP3   OH2 1481   4.792   2.893   0.312
  506TIP3    H1 1482   4.805   2.921   0.222
  506TIP3    H2 1483   4.738   2.814   0.305
  507TIP3   OH2 1484   3.207   3.123   1.527
  507TIP3    H1 1485   3.258   3.069   1.587
  507TIP3    H2 1486   3.116   3.110   1.553
  508TIP3   OH2 1487   2.474   0.094   4.780
  508TIP3    H1 1488   2.529   0.098   4.859
  508TIP3    H2 1489   2.531   0.057   4.713
  509TIP3   OH2 1490   1.444   6.421   0.502
  509TIP3    H1 1491   1.483   6.504   0.528
  509TIP3    H2 1492   1.380   6.444   0.435
  510TIP3   OH2 1493   3.444   3.629   5.473
  510TIP3    H1 1494   3.459   3.569   5.399
  510TIP3    H2 1495   3.421   3.571   5.546
  511TIP3   OH2 1496   2.914   4.485   3.486
  511TIP3    H1 1497   2.853   4.486   3.412
  511TIP3    H2 1498   2.952   4.573   3.487
  512TIP3   OH2 1499   2.278   4.414   3.323
  512TIP3    H1 1500   2.248   4.504   3.311
  512TIP3    H2 1501   2.250   4.369   3.243
  513TIP3   OH2 1502   0.436   5.089   5.345
  513TIP3    H1 1503   0.376   5.071   5.273
  513TIP3    H2 1504   0.439   5.185   5.350
  514TIP3   OH2 1505   5.291   2.216   2.319
  514TIP3    H1 1506   5.290   2.230   2.414
  514TIP3    H2 1507   5.382   2.233   2.293
  515TIP3   OH2 1508   5.510   4.668   4.424
  515TIP3    H1 1509   5.586   4.725   4.438
  515TIP3    H2 1510   5.530   4.621   4.344
  516TIP3   OH2 1511   3.259   6.840   2.305
  516TIP3    H1 1512   3.203   6.762   2.299
  516TIP3    H2 1513   3.319   6.821   2.377
  517TIP3   OH2 1514   0.245   4.207   1.617
  517TIP3    H1 1515   0.209   4.173   1.699
  517TIP3    H2 1516   0.327   4.250   1.643
  518TIP3   OH2 1517   0.760   6.826   2.141
  518TIP3    H1 1518   0.673   6.865   2.147
  518TIP3    H2 1519   0.765   6.789   2.053
  519TIP3   OH2 1520   5.209   0.420   5.048
  519TIP3    H1 1521   5.125   0.414   5.095
  519TIP3    H2 1522   5.205   0.504   5.002
  520TIP3   OH2 1523   0.818   1.338   3.130
  520TIP3    H1 1524   0.786   1.295   3.209
  520TIP3    H2 1525   0.849   1.266   3.074
  521TIP3   OH2 1526   0.208   3.468   2.213
  521TIP3    H1 1527   0.182   3.377   2.199
  521TIP3    H2 1528   0.167   3.492   2.296
  522TIP3   OH2 1529   6.393   2.619   1.587
  522TIP3    H1 1530   6.417   2.540   1.537
  522TIP3    H2 1531   6.462   2.682   1.566
  523TIP3   OH2 1532   6.041   1.820   4.778
  523TIP3    H1 1533   6.081   1.907   4.770
  523TIP3    H2 1534   5.973   1.818   4.711
  524TIP3   OH2 1535   1.014   1.877   5.633
  524TIP3    H1 1536   0.955   1.949   5.609
  524TIP3    H2 1537   1.099   1.903   5.598
  525TIP3   OH2 1538   1.025   4.003   1.490
  525TIP3    H1 1539   1.089   4.072   1.509
  525TIP3    H2 1540   0.962   4.044   1.431
  526TIP3   OH2 1541   3.239   6.123   1.413
  526TIP3    H1 1542   3.219   6.131   1.319
  526TIP3    H2 1543   3.327   6.086   1.415
  527TIP3   OH2 1544   2.373   5.043   1.799
  527TIP3    H1 1545   2.299   4.985   1.780
  527TIP3    H2 1546   2.444   4.984   1.824
  528TIP3   OH2 1547   0.220   1.245   1.019
  528TIP3    H1 1548   0.231   1.296   1.100
  528TIP3    H2 1549   0.230   1.309   0.949
  529TIP3   OH2 1550   3.503   4.800   3.449
  529TIP3    H1 1551   3.493   4.879   3.502
  529TIP3    H2 1552   3.591   4.769   3.468
  530TIP3   OH2 1553   2.832   3.340   0.493
  530TIP3    H1 1554   2.843   3.275   0.562
  530TIP3    H2 1555   2.916   3.386   0.490
  531TIP3   OH2 1556   2.308   3.031   0.169
  531TIP3    H1 1557   2.377   3.081   0.213
  531TIP3    H2 1558   2.278   2.969   0.236
  532TIP3   OH2 1559   5.636   4.092   5.643
  532TIP3    H1 1560   5.550   4.102   5.603
  532TIP3    H2 1561   5.688   4.045   5.577
  533TIP3   OH2 1562   3.612   2.835   4.038
  533TIP3    H1 1563   3.673   2.850   3.966
  533TIP3    H2 1564   3.537   2.890   4.018
  534TIP3   OH2 1565   3.205   5.796   3.287
  534TIP3    H1 1566   3.222   5.737   3.213
  534TIP3    H2 1567   3.184   5.737   3.360
  535TIP3   OH2 1568   2.737   1.856   3.512
  535TIP3    H1 1569   2.725   1.937   3.463
  535TIP3    H2 1570   2.798   1.878   3.582
  536TIP3   OH2 1571   2.736   4.064   5.626
  536TIP3    H1 1572   2.686   4.029   5.552
  536TIP3    H2 1573   2.727   4.159   5.618
  537TIP3   OH2 1574   6.086   4.794   0.320
  537TIP3    H1 1575   6.007   4.755   0.356
  537TIP3    H2 1576   6.112   4.861   0.383
  538TIP3   OH2 1577   4.837   4.342   4.819
  538TIP3    H1 1578   4.870   4.432   4.818
  538TIP3    H2 1579   4.854   4.309   4.731
  539TIP3   OH2 1580   1.983   3.285   4.034
  539TIP3    H1 1581   1.999   3.364   4.085
  539TIP3    H2 1582   2.032   3.298   3.953
  540TIP3   OH2 1583   2.567   5.340   3.058
  540TIP3    H1 1584   2.476   5.370   3.056
  540TIP3    H2 1585   2.564   5.254   3.017
  541TIP3   OH2 1586   4.230   0.986   5.074
  541TIP3    H1 1587   4.322   1.007   5.087
  541TIP3    H2 1588   4.227   0.943   4.988
  542TIP3   OH2 1589   5.604   5.694   0.129
  542TIP3    H1 1590   5.539   5.763   0.130
  542TIP3    H2 1591   5.626   5.680   0.221
  543TIP3   OH2 1592   2.320   2.889   0.411
  543TIP3    H1 1593   2.349   2.881   0.501
  543TIP3    H2 1594   2.261   2.814   0.398
  544TIP3   OH2 1595   2.171   3.104   5.214
  544TIP3    H1 1596   2.154   3.114   5.120
  544TIP3    H2 1597   2.148   3.013   5.233
  545TIP3   OH2 1598   2.458   2.707   1.326
  545TIP3    H1 1599   2.372   2.682   1.359
  545TIP3    H2 1600   2.511   2.627   1.334
  546TIP3   OH2 1601   5.450   0.215   2.260
  546TIP3    H1 1602   5.503   0.142   2.293
  546TIP3    H2 1603   5.442   0.198   2.166
  547TIP3   OH2 1604   6.532   6.635   0.327
  547TIP3    H1 1605   6.521   6.563   0.389
  547TIP3    H2 1606   6.445   6.674   0.320
  548TIP3   OH2 1607   1.693   0.712   0.718
  548TIP3    H1 1608   1.752   0.788   0.724
  548TIP3    H2 1609   1.635   0.721   0.793
  549TIP3   OH2 1610   4.222   6.635   3.669
  549TIP3    H1 1611   4.236   6.677   3.584
  549TIP3    H2 1612   4.270   6.689   3.730
  550TIP3   OH2 1613   0.349   2.860   1.785
  550TIP3    H1 1614   0.428   2.895   1.825
  550TIP3    H2 1615   0.375   2.774   1.752
  551TIP3   OH2 1616   7.050   5.205   2.721
  551TIP3    H1 1617   7.046   5.184   2.627
  551TIP3    H2 1618   6.959   5.209   2.748
  552TIP3   OH2 1619   2.877   2.457   2.668
  552TIP3    H1 1620   2.823   2.417   2.736
  552TIP3    H2 1621   2.816   2.509   2.616
  553TIP3   OH2 1622   6.778   3.535   2.711
  553TIP3    H1 1623   6.716   3.471   2.674
  553TIP3    H2 1624   6.727   3.584   2.775
  554TIP3   OH2 1625   5.159   0.965   5.764
  554TIP3    H1 1626   5.084   1.023   5.779
  554TIP3    H2 1627   5.225   1.023   5.726
  555TIP3   OH2 1628   5.780   2.330   2.924
  555TIP3    H1 1629   5.760   2.334   3.018
  555TIP3    H2 1630   5.845   2.260   2.916
  556TIP3   OH2 1631   2.114   0.143   3.164
  556TIP3    H1 1632   2.142   0.179   3.248
  556TIP3    H2 1633   2.195   0.130   3.115
  557TIP3   OH2 1634   3.248   5.684   4.817
  557TIP3    H1 1635   3.225   5.757   4.874
  557TIP3    H2 1636   3.165   5.654   4.780
  558TIP3   OH2 1637   3.215   5.556   1.310
  558TIP3    H1 1638   3.245   5.467   1.289
  558TIP3    H2 1639   3.174   5.548   1.396
  559TIP3   OH2 1640   1.222   3.487   5.755
  559TIP3    H1 1641   1.154   3.507   5.691
  559TIP3    H2 1642   1.223   3.391   5.759
  560TIP3   OH2 1643   3.595   2.358   5.283
  560TIP3    H1 1644   3.647   2.355   5.363
  560TIP3    H2 1645   3.597   2.450   5.257
  561TIP3   OH2 1646   1.696   3.274   4.091
  561TIP3    H1 1647   1.779   3.252   4.049
  561TIP3    H2 1648   1.707   3.247   4.182
  562TIP3   OH2 1649   4.517   6.106   0.595
  562TIP3    H1 1650   4.439   6.159   0.578
  562TIP3    H2 1651   4.576   6.127   0.522
  563TIP3   OH2 1652   0.717   5.754   1.578
  563TIP3    H1 1653   0.668   5.674   1.596
  563TIP3    H2 1654   0.808   5.733   1.600
  564TIP3   OH2 1655   1.538   4.169   5.710
  564TIP3    H1 1656   1.502   4.201   5.793
  564TIP3    H2 1657   1.571   4.081   5.731
  565TIP3   OH2 1658   0.642   6.152   4.941
  565TIP3    H1 1659   0.604   6.115   4.862
  565TIP3    H2 1660   0.585   6.225   4.964
  566TIP3   OH2 1661   3.978   0.657   2.315
  566TIP3    H1 1662   3.962   0.569   2.283
  566TIP3    H2 1663   3.971   0.713   2.237
  567TIP3   OH2 1664   1.126   2.502   5.162
  567TIP3    H1 1665   1.103   2.579   5.110
  567TIP3    H2 1666   1.090   2.520   5.249
  568TIP3   OH2 1667   2.622   0.332   5.617
  568TIP3    H1 1668   2.690   0.394   5.642
  568TIP3    H2 1669   2.546   0.358   5.669
  569TIP3   OH2 1670   1.167   0.016   4.592
  569TIP3    H1 1671   1.076   0.015   4.624
  569TIP3    H2 1672   1.220   0.016   4.671
  570TIP3   OH2 1673   6.272   6.200   1.775
  570TIP3    H1 1674   6.272   6.217   1.869
  570TIP3    H2 1675   6.256   6.106   1.767
  571TIP3   OH2 1676   4.173   3.818   0.513
  571TIP3    H1 1677   4.149   3.861   0.431
  571TIP3    H2 1678   4.108   3.750   0.525
  572TIP3   OH2 1679   2.150   4.645   2.599
  572TIP3    H1 1680   2.123   4.582   2.666
  572TIP3    H2 1681   2.212   4.703   2.644
  573TIP3   OH2 1682   0.291   0.593   4.077
  573TIP3    H1 1683   0.271   0.557   3.990
  573TIP3    H2 1684   0.217   0.568   4.131
  574TIP3   OH2 1685   0.016   4.650   5.636
  574TIP3    H1 1686   0.105   4.614   5.639
  574TIP3    H2 1687  -0.026   4.603   5.564
  575TIP3   OH2 1688   5.413   2.386   3.358
  575TIP3    H1 1689   5.402   2.337   3.276
  575TIP3    H2 1690   5.347   2.349   3.417
  576TIP3   OH2 1691   3.558   4.318   4.342
  576TIP3    H1 1692   3.641   4.348   4.306
  576TIP3    H2 1693   3.571   4.224   4.358
  577TIP3   OH2 1694   5.818   2.993   1.872
  577TIP3    H1 1695   5.796   2.993   1.965
  577TIP3    H2 1696   5.891   2.932   1.864
  578TIP3   OH2 1697   1.309   3.312   0.208
  578TIP3    H1 1698   1.291   3.257   0.283
  578TIP3    H2 1699   1.273   3.398   0.232
  579TIP3   OH2 1700   2.909   3.953   1.979
  579TIP3    H1 1701   2.989   3.928   2.026
  579TIP3    H2 1702   2.938   4.020   1.917
  580TIP3   OH2 1703   3.917   0.672   3.251
  580TIP3    H1 1704   3.848   0.690   3.315
  580TIP3    H2 1705   3.874   0.682   3.166
  581TIP3   OH2 1706   0.431   4.818   4.077
  581TIP3    H1 1707   0.343   4.792   4.050
  581TIP3    H2 1708   0.445   4.773   4.160
  582TIP3   OH2 1709   3.013   5.549   2.355
  582TIP3    H1 1710   3.058   5.633   2.344
  582TIP3    H2 1711   2.939   5.553   2.295
  583TIP3   OH2 1712   1.375   6.227   5.294
  583TIP3    H1 1713   1.445   6.176   5.254
  583TIP3    H2 1714   1.327   6.163   5.347
  584TIP3   OH2 1715   1.518   4.392   3.185
  584TIP3    H1 1716   1.507   4.332   3.111
  584TIP3    H2 1717   1.450   4.458   3.173
  585TIP3   OH2 1718   4.802   1.546   4.294
  585TIP3    H1 1719   4.783   1.586   4.379
  585TIP3    H2 1720   4.727   1.568   4.239
  586TIP3   OH2 1721   1.482   4.132   4.705
  586TIP3    H1 1722   1.577   4.131   4.701
  586TIP3    H2 1723   1.454   4.076   4.633
  587TIP3   OH2 1724   0.458   4.962   4.731
  587TIP3    H1 1725   0.518   4.896   4.766
  587TIP3    H2 1726   0.514   5.025   4.686
  588TIP3   OH2 1727   5.238   3.474   0.552
  588TIP3    H1 1728   5.320   3.453   0.597
  588TIP3    H2 1729   5.170   3.438   0.609
  589TIP3   OH2 1730   6.850   4.071   3.288
  589TIP3    H1 1731   6.906   4.079   3.211
  589TIP3    H2 1732   6.790   3.999   3.267
  590TIP3   OH2 1733   4.760   2.361   0.198
  590TIP3    H1 1734   4.667   2.381   0.191
  590TIP3    H2 1735   4.766   2.268   0.173
  591TIP3   OH2 1736   5.276   4.765   4.892
  591TIP3    H1 1737   5.300   4.774   4.800
  591TIP3    H2 1738   5.337   4.700   4.927
  592TIP3   OH2 1739   2.052   0.239   2.630
  592TIP3    H1 1740   2.066   0.325   2.670
  592TIP3    H2 1741   1.967   0.247   2.586
  593TIP3   OH2 1742   6.181   1.451   1.695
  593TIP3    H1 1743   6.154   1.365   1.662
  593TIP3    H2 1744   6.270   1.437   1.726
  594TIP3   OH2 1745   6.327   1.002   2.649
  594TIP3    H1 1746   6.231   0.997   2.646
  594TIP3    H2 1747   6.348   1.011   2.742
  595TIP3   OH2 1748   5.843   0.850   5.696
  595TIP3    H1 1749   5.777   0.781   5.688
  595TIP3    H2 1750   5.922   0.812   5.658
  596TIP3   OH2 1751   1.718   3.882   3.637
  596TIP3    H1 1752   1.760   3.912   3.557
  596TIP3    H2 1753   1.786   3.832   3.682
  597TIP3   OH2 1754   4.616   4.912   1.001
  597TIP3    H1 1755   4.627   4.943   1.091
  597TIP3    H2 1756   4.532   4.866   1.002
  598TIP3   OH2 1757   7.062   5.782   2.204
  598TIP3    H1 1758   7.067   5.687   2.196
  598TIP3    H2 1759   7.112   5.815   2.130
  599TIP3   OH2 1760   0.899   3.295   1.729
  599TIP3    H1 1761   0.804   3.306   1.731
  599TIP3    H2 1762   0.913   3.200   1.738
  600TIP3   OH2 1763   4.505   5.519   4.448
  600TIP3    H1 1764   4.539   5.521   4.537
  600TIP3    H2 1765   4.551   5.446   4.406
  601TIP3   OH2 1766   2.398   4.616   0.237
  601TIP3    H1 1767   2.313   4.643   0.201
  601TIP3    H2 1768   2.401   4.521   0.221
  602TIP3   OH2 1769   2.378   5.632   2.794
  602TIP3    H1 1770   2.435   5.708   2.807
  602TIP3    H2 1771   2.341   5.644   2.707
  603TIP3   OH2 1772   6.920   0.735   4.533
  603TIP3    H1 1773   6.862   0.670   4.572
  603TIP3    H2 1774   7.007   0.712   4.567
  604TIP3   OH2 1775   1.551   0.904   1.085
  604TIP3    H1 1776   1.540   0.819   1.043
  604TIP3    H2 1777   1.634   0.937   1.052
  605TIP3   OH2 1778   6.107   4.575   3.654
  605TIP3    H1 1779   6.084   4.488   3.621
  605TIP3    H2 1780   6.029   4.627   3.640
  606TIP3   OH2 1781   7.090   4.643   0.278
  606TIP3    H1 1782   7.088   4.704   0.205
  606TIP3    H2 1783   7.033   4.571   0.252
  607TIP3   OH2 1784   7.152   1.104   0.930
  607TIP3    H1 1785   7.123   1.017   0.959
  607TIP3    H2 1786   7.243   1.110   0.960
  608TIP3   OH2 1787   6.682   6.763   5.791
  608TIP3    H1 1788   6.633   6.824   5.736
  608TIP3    H2 1789   6.679   6.680   5.744
  609TIP3   OH2 1790   3.311   4.660   5.511
  609TIP3    H1 1791   3.289   4.749   5.536
  609TIP3    H2 1792   3.275   4.606   5.581
  610TIP3   OH2 1793   1.908   6.275   0.967
  610TIP3    H1 1794   1.895   6.229   0.885
  610TIP3    H2 1795   1.898   6.208   1.035
  611TIP3   OH2 1796   6.167   5.163   5.655
  611TIP3    H1 1797   6.188   5.226   5.724
  611TIP3    H2 1798   6.225   5.186   5.583
  612TIP3   OH2 1799   6.601   1.803   4.161
  612TIP3    H1 1800   6.638   1.770   4.243
  612TIP3    H2 1801   6.563   1.888   4.183
  613TIP3   OH2 1802   5.463   6.251   1.831
  613TIP3    H1 1803   5.475   6.207   1.747
  613TIP3    H2 1804   5.440   6.341   1.807
  614TIP3   OH2 1805   3.856   2.399   3.816
  614TIP3    H1 1806   3.835   2.422   3.906
  614TIP3    H2 1807   3.895   2.312   3.822
  615TIP3   OH2 1808   3.955   3.984   0.037
  615TIP3    H1 1809   3.954   3.988   0.132
  615TIP3    H2 1810   4.047   3.977   0.014
  616TIP3   OH2 1811   2.498   2.613   4.734
  616TIP3    H1 1812   2.485   2.659   4.817
  616TIP3    H2 1813   2.578   2.651   4.698
  617TIP3   OH2 1814   3.835   4.926   2.534
  617TIP3    H1 1815   3.854   4.976   2.454
  617TIP3    H2 1816   3.749   4.888   2.519
  618TIP3   OH2 1817   2.744   5.736   5.875
  618TIP3    H1 1818   2.825   5.778   5.903
  618TIP3    H2 1819   2.681   5.757   5.944
  619TIP3   OH2 1820   3.863   3.838   3.013
  619TIP3    H1 1821   3.937   3.779   3.006
  619TIP3    H2 1822   3.865   3.867   3.104
  620TIP3   OH2 1823   3.962   4.473   4.484
  620TIP3    H1 1824   3.997   4.528   4.555
  620TIP3    H2 1825   4.028   4.405   4.472
  621TIP3   OH2 1826   1.166   5.028   2.224
  621TIP3    H1 1827   1.235   4.981   2.270
  621TIP3    H2 1828   1.102   5.051   2.292
  622TIP3   OH2 1829   3.666   4.565   5.164
  622TIP3    H1 1830   3.590   4.524   5.123
  622TIP3    H2 1831   3.630   4.638   5.214
  623TIP3   OH2 1832   4.210   0.481   3.999
  623TIP3    H1 1833   4.204   0.575   3.983
  623TIP3    H2 1834   4.295   0.456   3.963
  624TIP3   OH2 1835   1.385   4.437   4.009
  624TIP3    H1 1836   1.320   4.486   4.059
  624TIP3    H2 1837   1.457   4.498   3.997
  625TIP3   OH2 1838   4.673   0.786   5.496
  625TIP3    H1 1839   4.684   0.799   5.402
  625TIP3    H2 1840   4.750   0.828   5.535
  626TIP3   OH2 1841   6.925   4.318   2.503
  626TIP3    H1 1842   6.958   4.370   2.576
  626TIP3    H2 1843   7.002   4.303   2.448
  627TIP3   OH2 1844   1.267   3.615   4.694
  627TIP3    H1 1845   1.303   3.703   4.699
  627TIP3    H2 1846   1.327   3.561   4.746
  628TIP3   OH2 1847   6.235   3.474   0.065
  628TIP3    H1 1848   6.262   3.437  -0.019
  628TIP3    H2 1849   6.140   3.485   0.056
  629TIP3   OH2 1850   3.093   2.797   1.830
  629TIP3    H1 1851   3.017   2.762   1.785
  629TIP3    H2 1852   3.148   2.721   1.849
  630TIP3   OH2 1853   4.618   1.655   2.609
  630TIP3    H1 1854   4.683   1.722   2.586
  630TIP3    H2 1855   4.556   1.700   2.666
  631TIP3   OH2 1856   6.900   3.118   2.389
  631TIP3    H1 1857   6.906   3.056   2.317
  631TIP3    H2 1858   6.839   3.185   2.358
  632TIP3   OH2 1859   3.020   1.618   3.314
  632TIP3    H1 1860   3.011   1.525   3.292
  632TIP3    H2 1861   3.109   1.641   3.288
  633TIP3   OH2 1862   4.920   5.184   2.898
  633TIP3    H1 1863   4.972   5.239   2.956
  633TIP3    H2 1864   4.854   5.243   2.861
  634TIP3   OH2 1865   3.038   3.440   5.734
  634TIP3    H1 1866   3.043   3.532   5.708
  634TIP3    H2 1867   3.020   3.393   5.653
  635TIP3   OH2 1868   0.211   3.331   3.449
  635TIP3    H1 1869   0.123   3.321   3.412
  635TIP3    H2 1870   0.250   3.244   3.440
  636TIP3   OH2 1871   6.813   5.090   1.698
  636TIP3    H1 1872   6.847   5.005   1.723
  636TIP3    H2 1873   6.875   5.153   1.734
  637TIP3   OH2 1874   5.533   5.056   3.099
  637TIP3    H1 1875   5.623   5.089   3.101
  637TIP3    H2 1876   5.512   5.037   3.191
  638TIP3   OH2 1877   4.473   4.844   4.774
  638TIP3    H1 1878   4.525   4.881   4.845
  638TIP3    H2 1879   4.388   4.824   4.815
  639TIP3   OH2 1880   3.791   2.493   0.112
  639TIP3    H1 1881   3.881   2.476   0.088
  639TIP3    H2 1882   3.787   2.476   0.206
  640TIP3   OH2 1883   3.504   0.338   2.560
  640TIP3    H1 1884   3.477   0.247   2.573
  640TIP3    H2 1885   3.600   0.334   2.559
  641TIP3   OH2 1886   5.476   0.262   0.039
  641TIP3    H1 1887   5.527   0.248  -0.040
  641TIP3    H2 1888   5.418   0.186   0.045
  642TIP3   OH2 1889   7.209   2.844   4.344
  642TIP3    H1 1890   7.239   2.930   4.313
  642TIP3    H2 1891   7.254   2.782   4.286
  643TIP3   OH2 1892   0.045   2.909   0.502
  643TIP3    H1 1893  -0.041   2.871   0.485
  643TIP3    H2 1894   0.102   2.833   0.515
  644TIP3   OH2 1895   5.563   0.382   1.968
  644TIP3    H1 1896   5.469   0.398   1.978
  644TIP3    H2 1897   5.594   0.456   1.915
  645TIP3   OH2 1898   2.672   5.460   4.869
  645TIP3    H1 1899   2.751   5.407   4.873
  645TIP3    H2 1900   2.703   5.550   4.876
  646TIP3   OH2 1901   5.971   4.421   4.349
  646TIP3    H1 1902   5.914   4.482   4.303
  646TIP3    H2 1903   5.987   4.462   4.434
  647TIP3   OH2 1904   3.710   6.050   1.321
  647TIP3    H1 1905   3.629   6.043   1.371
  647TIP3    H2 1906   3.741   6.139   1.338
  648TIP3   OH2 1907   0.707   0.579   5.014
  648TIP3    H1 1908   0.678   0.498   5.057
  648TIP3    H2 1909   0.765   0.550   4.944
  649TIP3   OH2 1910   3.136   4.062   5.275
  649TIP3    H1 1911   3.190   4.111   5.338
  649TIP3    H2 1912   3.200   4.014   5.222
  650TIP3   OH2 1913   0.803   2.708   0.378
  650TIP3    H1 1914   0.850   2.773   0.326
  650TIP3    H2 1915   0.760   2.759   0.447
  651TIP3   OH2 1916   5.477   5.357   2.319
  651TIP3    H1 1917   5.540   5.329   2.386
  651TIP3    H2 1918   5.512   5.439   2.285
  652TIP3   OH2 1919   5.785   3.091   5.449
  652TIP3    H1 1920   5.798   3.130   5.535
  652TIP3    H2 1921   5.695   3.058   5.450
  653TIP3   OH2 1922   7.040   3.711   1.765
  653TIP3    H1 1923   6.952   3.734   1.795
  653TIP3    H2 1924   7.053   3.763   1.686
  654TIP3   OH2 1925   0.474   5.012   4.368
  654TIP3    H1 1926   0.569   5.023   4.361
  654TIP3    H2 1927   0.446   5.086   4.422
  655TIP3   OH2 1928   0.416   5.867   1.282
  655TIP3    H1 1929   0.497   5.818   1.291
  655TIP3    H2 1930   0.439   5.957   1.304
  656TIP3   OH2 1931   6.675   2.449   2.438
  656TIP3    H1 1932   6.644   2.508   2.369
  656TIP3    H2 1933   6.770   2.465   2.442
  657TIP3   OH2 1934   3.741   4.585   1.495
  657TIP3    H1 1935   3.736   4.662   1.552
  657TIP3    H2 1936   3.650   4.568   1.470
  658TIP3   OH2 1937   4.632   4.087   4.522
  658TIP3    H1 1938   4.573   4.040   4.464
  658TIP3    H2 1939   4.582   4.162   4.553
  659TIP3   OH2 1940   4.182   6.168   2.398
  659TIP3    H1 1941   4.091   6.161   2.368
  659TIP3    H2 1942   4.225   6.091   2.360
  660TIP3   OH2 1943   2.235   4.344   4.321
  660TIP3    H1 1944   2.159   4.325   4.267
  660TIP3    H2 1945   2.228   4.438   4.340
  661TIP3   OH2 1946   2.859   4.809   0.948
  661TIP3    H1 1947   2.784   4.830   0.892
  661TIP3    H2 1948   2.929   4.867   0.918
  662TIP3   OH2 1949   3.471   6.177   3.799
  662TIP3    H1 1950   3.438   6.252   3.749
  662TIP3    H2 1951   3.557   6.205   3.830
  663TIP3   OH2 1952   4.441   0.150   0.752
  663TIP3    H1 1953   4.407   0.070   0.713
  663TIP3    H2 1954   4.461   0.207   0.678
  664TIP3   OH2 1955   4.115   6.009   5.356
  664TIP3    H1 1956   4.192   5.952   5.364
  664TIP3    H2 1957   4.066   5.973   5.282
  665TIP3   OH2 1958   5.058   2.904   3.383
  665TIP3    H1 1959   5.061   2.992   3.346
  665TIP3    H2 1960   4.978   2.865   3.349
  666TIP3   OH2 1961   6.408   3.651   3.666
  666TIP3    H1 1962   6.379   3.675   3.754
  666TIP3    H2 1963   6.504   3.647   3.673
  667TIP3   OH2 1964   6.633   4.671   1.844
  667TIP3    H1 1965   6.592   4.600   1.794
  667TIP3    H2 1966   6.671   4.628   1.921
  668TIP3   OH2 1967   7.115   5.567   1.524
  668TIP3    H1 1968   7.046   5.532   1.579
  668TIP3    H2 1969   7.193   5.568   1.580
  669TIP3   OH2 1970   5.303   5.155   0.243
  669TIP3    H1 1971   5.373   5.124   0.299
  669TIP3    H2 1972   5.336   5.143   0.154
  670TIP3   OH2 1973   2.073   5.177   3.288
  670TIP3    H1 1974   2.167   5.161   3.276
  670TIP3    H2 1975   2.064   5.198   3.381
  671TIP3   OH2 1976   0.119   6.561   4.753
  671TIP3    H1 1977   0.025   6.558   4.736
  671TIP3    H2 1978   0.156   6.612   4.681
  672TIP3   OH2 1979   1.837   2.798   5.275
  672TIP3    H1 1980   1.830   2.843   5.191
  672TIP3    H2 1981   1.931   2.800   5.295
  673TIP3   OH2 1982   5.155   1.000   1.312
  673TIP3    H1 1983   5.230   0.950   1.342
  673TIP3    H2 1984   5.190   1.055   1.241
  674TIP3   OH2 1985   2.559   1.126   0.116
  674TIP3    H1 1986   2.598   1.207   0.149
  674TIP3    H2 1987   2.467   1.131   0.144
  675TIP3   OH2 1988   1.066   0.375   3.826
  675TIP3    H1 1989   1.059   0.421   3.909
  675TIP3    H2 1990   1.037   0.439   3.761
  676TIP3   OH2 1991   3.458   0.284   3.722
  676TIP3    H1 1992   3.457   0.188   3.717
  676TIP3    H2 1993   3.410   0.304   3.802
  677TIP3   OH2 1994   2.823   6.341   3.270
  677TIP3    H1 1995   2.751   6.279   3.283
  677TIP3    H2 1996   2.788   6.425   3.299
  678TIP3   OH2 1997   0.806   4.908   3.325
  678TIP3    H1 1998   0.777   4.904   3.234
  678TIP3    H2 1999   0.884   4.853   3.328
  679TIP3   OH2 2000   6.221   2.791   0.161
  679TIP3    H1 2001   6.171   2.871   0.143
  679TIP3    H2 2002   6.265   2.771   0.079
  680TIP3   OH2 2003   6.937   1.208   1.108
  680TIP3    H1 2004   7.010   1.195   1.048
  680TIP3    H2 2005   6.975   1.196   1.195
  681TIP3   OH2 2006   1.278   2.419   1.287
  681TIP3    H1 2007   1.306   2.336   1.250
  681TIP3    H2 2008   1.238   2.396   1.371
  682TIP3   OH2 2009   5.327   4.247   2.177
  682TIP3    H1 2010   5.312   4.242   2.083
  682TIP3    H2 2011   5.402   4.305   2.188
  683TIP3   OH2 2012   6.746   2.627   2.229
  683TIP3    H1 2013   6.801   2.584   2.163
  683TIP3    H2 2014   6.808   2.677   2.282
  684TIP3   OH2 2015   5.294   0.562   0.783
  684TIP3    H1 2016   5.220   0.512   0.820
  684TIP3    H2 2017   5.327   0.614   0.856
  685TIP3   OH2 2018   7.107   0.145   5.585
  685TIP3    H1 2019   7.074   0.064   5.624
  685TIP3    H2 2020   7.184   0.118   5.536
  686TIP3   OH2 2021   6.948   0.308   0.269
  686TIP3    H1 2022   6.892   0.314   0.346
  686TIP3    H2 2023   6.888   0.319   0.195
  687TIP3   OH2 2024   2.284   4.604   4.385
  687TIP3    H1 2025   2.298   4.559   4.469
  687TIP3    H2 2026   2.238   4.685   4.409
  688TIP3   OH2 2027   2.460   1.337   4.051
  688TIP3    H1 2028   2.499   1.424   4.053
  688TIP3    H2 2029   2.533   1.277   4.068
  689TIP3   OH2 2030   0.595   5.145   0.305
  689TIP3    H1 2031   0.641   5.192   0.235
  689TIP3    H2 2032   0.510   5.124   0.267
  690TIP3   OH2 2033   2.776   1.878   4.972
  690TIP3    H1 2034   2.706   1.897   4.910
  690TIP3    H2 2035   2.853   1.921   4.934
  691TIP3   OH2 2036   0.885   5.063   5.030
  691TIP3    H1 2037   0.900   4.985   5.084
  691TIP3    H2 2038   0.791   5.078   5.037
  692TIP3   OH2 2039   4.144   0.100   4.079
  692TIP3    H1 2040   4.106   0.094   3.992
  692TIP3    H2 2041   4.140   0.193   4.101
  693TIP3   OH2 2042   4.547   3.564   5.370
  693TIP3    H1 2043   4.521   3.485   5.418
  693TIP3    H2 2044   4.638   3.547   5.345
  694TIP3   OH2 2045   5.142   1.428   2.984
  694TIP3    H1 2046   5.165   1.435   2.892
  694TIP3    H2 2047   5.170   1.511   3.022
  695TIP3   OH2 2048   0.805   0.701   4.245
  695TIP3    H1 2049   0.768   0.656   4.168
  695TIP3    H2 2050   0.882   0.746   4.211
  696TIP3   OH2 2051   1.583   0.311   5.714
  696TIP3    H1 2052   1.512   0.365   5.750
  696TIP3    H2 2053   1.661   0.340   5.760
  697TIP3   OH2 2054   4.236   3.400   3.896
  697TIP3    H1 2055   4.205   3.366   3.812
  697TIP3    H2 2056   4.159   3.397   3.953
  698TIP3   OH2 2057   1.118   6.060   0.262
  698TIP3    H1 2058   1.175   6.021   0.328
  698TIP3    H2 2059   1.129   6.154   0.273
  699TIP3   OH2 2060   5.600   5.585   4.050
  699TIP3    H1 2061   5.594   5.489   4.051
  699TIP3    H2 2062   5.509   5.614   4.059
  700TIP3   OH2 2063   6.485   2.684   3.552
  700TIP3    H1 2064   6.520   2.719   3.634
  700TIP3    H2 2065   6.554   2.626   3.519
  701TIP3   OH2 2066   3.278   6.065   4.650
  701TIP3    H1 2067   3.268   6.087   4.557
  701TIP3    H2 2068   3.371   6.045   4.660
  702TIP3   OH2 2069   0.002   5.411   2.784
  702TIP3    H1 2070  -0.063   5.347   2.756
  702TIP3    H2 2071   0.058   5.363   2.846
  703TIP3   OH2 2072   4.811   5.454   4.437
  703TIP3    H1 2073   4.834   5.362   4.422
  703TIP3    H2 2074   4.886   5.489   4.484
  704TIP3   OH2 2075   3.862   6.614   2.276
  704TIP3    H1 2076   3.880   6.687   2.217
  704TIP3    H2 2077   3.790   6.566   2.235
  705TIP3   OH2 2078   1.933   5.465   3.036
  705TIP3    H1 2079   1.901   5.375   3.044
  705TIP3    H2 2080   1.935   5.482   2.942
  706TIP3   OH2 2081   3.228   1.364   0.212
  706TIP3    H1 2082   3.294   1.394   0.275
  706TIP3    H2 2083   3.163   1.319   0.266
  707TIP3   OH2 2084   7.052   3.907   3.424
  707TIP3    H1 2085   7.131   3.961   3.431
  707TIP3    H2 2086   6.986   3.966   3.387
  708TIP3   OH2 2087   7.080   0.188   0.748
  708TIP3    H1 2088   6.984   0.188   0.738
  708TIP3    H2 2089   7.112   0.232   0.670
  709TIP3   OH2 2090   1.733   2.069   2.152
  709TIP3    H1 2091   1.697   2.053   2.240
  709TIP3    H2 2092   1.710   2.160   2.133
  710TIP3   OH2 2093   7.138   1.236   5.006
  710TIP3    H1 2094   7.088   1.219   5.085
  710TIP3    H2 2095   7.130   1.330   4.992
  711TIP3   OH2 2096   0.523   2.725   4.167
  711TIP3    H1 2097   0.515   2.721   4.072
  711TIP3    H2 2098   0.433   2.722   4.199
  712TIP3   OH2 2099   1.159   0.877   3.344
  712TIP3    H1 2100   1.164   0.909   3.434
  712TIP3    H2 2101   1.116   0.791   3.351
  713TIP3   OH2 2102   0.449   6.756   4.863
  713TIP3    H1 2103   0.457   6.749   4.768
  713TIP3    H2 2104   0.400   6.677   4.889
  714TIP3   OH2 2105   6.728   4.991   4.201
  714TIP3    H1 2106   6.799   5.055   4.190
  714TIP3    H2 2107   6.658   5.041   4.244
  715TIP3   OH2 2108   2.333   3.159   4.531
  715TIP3    H1 2109   2.362   3.219   4.600
  715TIP3    H2 2110   2.238   3.159   4.539
  716TIP3   OH2 2111   1.164   1.782   2.805
  716TIP3    H1 2112   1.202   1.705   2.763
  716TIP3    H2 2113   1.070   1.776   2.786
  717TIP3   OH2 2114   3.652   5.472   0.938
  717TIP3    H1 2115   3.724   5.415   0.910
  717TIP3    H2 2116   3.653   5.544   0.876
  718TIP3   OH2 2117   5.099   1.051   2.899
  718TIP3    H1 2118   5.155   1.109   2.847
  718TIP3    H2 2119   5.070   1.105   2.972
  719TIP3   OH2 2120   1.490   6.148   0.595
  719TIP3    H1 2121   1.405   6.176   0.630
  719TIP3    H2 2122   1.543   6.227   0.596
  720TIP3   OH2 2123   1.939   4.954   3.117
  720TIP3    H1 2124   1.879   5.029   3.120
  720TIP3    H2 2125   2.003   4.973   3.186
  721TIP3   OH2 2126   0.734   3.449   0.980
  721TIP3    H1 2127   0.708   3.362   0.952
  721TIP3    H2 2128   0.659   3.505   0.958
  722TIP3   OH2 2129   4.803   6.376   4.506
  722TIP3    H1 2130   4.782   6.416   4.422
  722TIP3    H2 2131   4.759   6.431   4.571
  723TIP3   OH2 2132   2.594   1.128   0.478
  723TIP3    H1 2133   2.519   1.186   0.481
  723TIP3    H2 2134   2.560   1.045   0.447
  724TIP3   OH2 2135   5.625   5.372   2.588
  724TIP3    H1 2136   5.690   5.399   2.652
  724TIP3    H2 2137   5.578   5.452   2.566
  725TIP3   OH2 2138   5.644   4.000   0.173
  725TIP3    H1 2139   5.712   4.009   0.240
  725TIP3    H2 2140   5.630   4.090   0.141
  726TIP3   OH2 2141   4.078   2.916   3.941
  726TIP3    H1 2142   4.041   3.000   3.967
  726TIP3    H2 2143   4.065   2.860   4.018
  727TIP3   OH2 2144   4.899   4.532   0.658
  727TIP3    H1 2145   4.990   4.529   0.689
  727TIP3    H2 2146   4.901   4.494   0.571
  728TIP3   OH2 2147   1.785   0.011   4.347
  728TIP3    H1 2148   1.706   0.024   4.294
  728TIP3    H2 2149   1.828   0.096   4.347
  729TIP3   OH2 2150   0.532   5.005   3.793
  729TIP3    H1 2151   0.446   5.018   3.754
  729TIP3    H2 2152   0.558   5.092   3.824
  730TIP3   OH2 2153   6.608   0.613   5.191
  730TIP3    H1 2154   6.543   0.641   5.127
  730TIP3    H2 2155   6.670   0.560   5.141
  731TIP3   OH2 2156   0.141   0.208   5.173
  731TIP3    H1 2157   0.093   0.288   5.152
  731TIP3    H2 2158   0.224   0.217   5.125
  732TIP3   OH2 2159   0.325   6.368   2.790
  732TIP3    H1 2160   0.269   6.305   2.744
  732TIP3    H2 2161   0.362   6.423   2.721
  733TIP3   OH2 2162   3.457   6.497   5.294
  733TIP3    H1 2163   3.534   6.448   5.265
  733TIP3    H2 2164   3.390   6.430   5.308
  734TIP3   OH2 2165   4.288   3.272   5.376
  734TIP3    H1 2166   4.361   3.236   5.325
  734TIP3    H2 2167   4.212   3.222   5.347
  735TIP3   OH2 2168   3.079   3.201   4.129
  735TIP3    H1 2169   3.016   3.225   4.061
  735TIP3    H2 2170   3.049   3.116   4.161
  736TIP3   OH2 2171   7.026   6.811   4.062
  736TIP3    H1 2172   7.114   6.821   4.027
  736TIP3    H2 2173   7.013   6.716   4.069
  737TIP3   OH2 2174   4.822   1.128   0.076
  737TIP3    H1 2175   4.812   1.155  -0.016
  737TIP3    H2 2176   4.732   1.115   0.107
  738TIP3   OH2 2177   1.461   0.676   0.937
  738TIP3    H1 2178   1.500   0.591   0.958
  738TIP3    H2 2179   1.388   0.655   0.879
  739TIP3   OH2 2180   4.628   2.412   1.342
  739TIP3    H1 2181   4.670   2.401   1.257
  739TIP3    H2 2182   4.632   2.325   1.382
  740TIP3   OH2 2183   3.664   1.387   1.400
  740TIP3    H1 2184   3.585   1.399   1.452
  740TIP3    H2 2185   3.661   1.458   1.335
  741TIP3   OH2 2186   5.254   4.466   1.561
  741TIP3    H1 2187   5.276   4.549   1.519
  741TIP3    H2 2188   5.160   4.456   1.546
  742TIP3   OH2 2189   6.356   3.346   2.773
  742TIP3    H1 2190   6.320   3.325   2.859
  742TIP3    H2 2191   6.318   3.281   2.714
  743TIP3   OH2 2192   4.545   0.392   0.388
  743TIP3    H1 2193   4.632   0.402   0.350
  743TIP3    H2 2194   4.549   0.312   0.439
  744TIP3   OH2 2195   5.785   5.289   2.009
  744TIP3    H1 2196   5.722   5.251   1.949
  744TIP3    H2 2197   5.752   5.268   2.096
  745TIP3   OH2 2198   6.629   5.711   1.166
  745TIP3    H1 2199   6.577   5.674   1.238
  745TIP3    H2 2200   6.719   5.682   1.184
  746TIP3   OH2 2201   5.052   6.595   2.618
  746TIP3    H1 2202   5.139   6.612   2.580
  746TIP3    H2 2203   4.999   6.569   2.543
  747TIP3   OH2 2204   6.898   0.886   0.225
  747TIP3    H1 2205   6.896   0.873   0.130
  747TIP3    H2 2206   6.904   0.981   0.236
  748TIP3   OH2 2207   4.696   2.333   1.752
  748TIP3    H1 2208   4.761   2.399   1.728
  748TIP3    H2 2209   4.737   2.249   1.732
  749TIP3   OH2 2210   4.893   1.075   4.114
  749TIP3    H1 2211   4.969   1.020   4.096
  749TIP3    H2 2212   4.841   1.024   4.176
  750TIP3   OH2 2213   3.941   4.415   1.857
  750TIP3    H1 2214   3.891   4.340   1.889
  750TIP3    H2 2215   3.985   4.383   1.778
  751TIP3   OH2 2216   5.962   0.782   0.233
  751TIP3    H1 2217   5.886   0.787   0.175
  751TIP3    H2 2218   6.032   0.747   0.178
  752TIP3   OH2 2219   0.576   3.192   2.560
  752TIP3    H1 2220   0.577   3.138   2.482
  752TIP3    H2 2221   0.616   3.137   2.628
  753TIP3   OH2 2222   2.012   3.289   5.780
  753TIP3    H1 2223   2.067   3.345   5.726
  753TIP3    H2 2224   1.922   3.314   5.758
  754TIP3   OH2 2225   5.752   6.414   2.777
  754TIP3    H1 2226   5.834   6.433   2.731
  754TIP3    H2 2227   5.701   6.494   2.769
  755TIP3   OH2 2228   4.671   0.902   0.507
  755TIP3    H1 2229   4.638   0.887   0.595
  755TIP3    H2 2230   4.618   0.974   0.473
  756TIP3   OH2 2231   3.929   5.181   2.964
  756TIP3    H1 2232   3.862   5.232   3.008
  756TIP3    H2 2233   3.988   5.246   2.925
  757TIP3   OH2 2234   6.179   2.079   4.763
  757TIP3    H1 2235   6.267   2.104   4.736
  757TIP3    H2 2236   6.147   2.154   4.813
  758TIP3   OH2 2237   5.060   1.502   4.199
  758TIP3    H1 2238   4.968   1.512   4.222
  758TIP3    H2 2239   5.068   1.411   4.170
  759TIP3   OH2 2240   3.032   2.290   4.269
  759TIP3    H1 2241   2.974   2.227   4.227
  759TIP3    H2 2242   3.114   2.284   4.220
  760TIP3   OH2 2243   6.335   3.978   1.429
  760TIP3    H1 2244   6.352   3.998   1.521
  760TIP3    H2 2245   6.304   3.888   1.430
  761TIP3   OH2 2246   0.000   0.607   3.334
  761TIP3    H1 2247   0.082   0.654   3.346
  761TIP3    H2 2248  -0.061   0.674   3.302
  762TIP3   OH2 2249   5.391   3.021   5.148
  762TIP3    H1 2250   5.413   2.947   5.205
  762TIP3    H2 2251   5.401   2.988   5.059
  763TIP3   OH2 2252   3.103   4.763   4.813
  763TIP3    H1 2253   3.100   4.731   4.723
  763TIP3    H2 2254   3.024   4.727   4.854
  764TIP3   OH2 2255   7.091   5.234   1.087
  764TIP3    H1 2256   7.099   5.323   1.123
  764TIP3    H2 2257   7.028   5.190   1.144
  765TIP3   OH2 2258   4.463   2.714   0.559
  765TIP3    H1 2259   4.534   2.740   0.617
  765TIP3    H2 2260   4.426   2.797   0.528
  766TIP3   OH2 2261   2.651   4.613   1.263
  766TIP3    H1 2262   2.691   4.693   1.228
  766TIP3    H2 2263   2.722   4.550   1.265
  767TIP3   OH2 2264   6.111   2.372   5.249
  767TIP3    H1 2265   6.194   2.362   5.295
  767TIP3    H2 2266   6.111   2.464   5.221
  768TIP3   OH2 2267   6.202   1.276   0.134
  768TIP3    H1 2268   6.189   1.351   0.193
  768TIP3    H2 2269   6.118   1.231   0.135
  769TIP3   OH2 2270   3.199   5.764   0.934
  769TIP3    H1 2271   3.223   5.782   1.025
  769TIP3    H2 2272   3.158   5.845   0.903
  770TIP3   OH2 2273   4.016   0.026   2.738
  770TIP3    H1 2274   3.924   0.052   2.726
  770TIP3    H2 2275   4.057   0.049   2.655
  771TIP3   OH2 2276   4.338   6.755   3.882
  771TIP3    H1 2277   4.324   6.748   3.977
  771TIP3    H2 2278   4.428   6.784   3.873
  772TIP3   OH2 2279   6.190   1.034   4.313
  772TIP3    H1 2280   6.262   1.086   4.277
  772TIP3    H2 2281   6.227   0.946   4.324
  773TIP3   OH2 2282   5.150   1.671   3.870
  773TIP3    H1 2283   5.131   1.701   3.959
  773TIP3    H2 2284   5.152   1.751   3.818
  774TIP3   OH2 2285   6.164   1.645   0.832
  774TIP3    H1 2286   6.170   1.735   0.800
  774TIP3    H2 2287   6.191   1.650   0.924
  775TIP3   OH2 2288   5.728   3.527   0.111
  775TIP3    H1 2289   5.738   3.432   0.114
  775TIP3    H2 2290   5.798   3.556   0.052
  776TIP3   OH2 2291   1.636   2.265   1.051
  776TIP3    H1 2292   1.673   2.235   1.134
  776TIP3    H2 2293   1.685   2.216   0.984
  777TIP3   OH2 2294   5.042   5.383   4.871
  777TIP3    H1 2295   5.036   5.347   4.959
  777TIP3    H2 2296   5.121   5.344   4.834
  778TIP3   OH2 2297   2.431   2.754   3.152
  778TIP3    H1 2298   2.444   2.831   3.097
  778TIP3    H2 2299   2.341   2.762   3.184
  779TIP3   OH2 2300   2.645   1.389   1.137
  779TIP3    H1 2301   2.657   1.301   1.172
  779TIP3    H2 2302   2.603   1.438   1.207
  780TIP3   OH2 2303   1.916   2.951   2.857
  780TIP3    H1 2304   1.847   2.898   2.818
  780TIP3    H2 2305   1.873   2.995   2.931
  781TIP3   OH2 2306   4.203   4.107   5.571
  781TIP3    H1 2307   4.296   4.121   5.554
  781TIP3    H2 2308   4.158   4.166   5.511
  782TIP3   OH2 2309   4.115   3.243   2.571
  782TIP3    H1 2310   4.162   3.315   2.531
  782TIP3    H2 2311   4.151   3.164   2.530
  783TIP3   OH2 2312   3.856   4.917   5.746
  783TIP3    H1 2313   3.906   4.882   5.673
  783TIP3    H2 2314   3.770   4.935   5.711
  784TIP3   OH2 2315   1.412   6.101   2.720
  784TIP3    H1 2316   1.411   6.175   2.782
  784TIP3    H2 2317   1.433   6.142   2.636
  785TIP3   OH2 2318   6.676   2.180   0.477
  785TIP3    H1 2319   6.687   2.272   0.453
  785TIP3    H2 2320   6.699   2.132   0.397
  786TIP3   OH2 2321   4.154   4.180   0.660
  786TIP3    H1 2322   4.198   4.254   0.616
  786TIP3    H2 2323   4.169   4.106   0.602
  787TIP3   OH2 2324   4.543   3.227   2.541
  787TIP3    H1 2325   4.488   3.289   2.589
  787TIP3    H2 2326   4.528   3.247   2.449
  788TIP3   OH2 2327   1.804   4.361   5.193
  788TIP3    H1 2328   1.778   4.273   5.166
  788TIP3    H2 2329   1.748   4.420   5.143
  789TIP3   OH2 2330   3.820   4.025   2.561
  789TIP3    H1 2331   3.840   3.950   2.504
  789TIP3    H2 2332   3.844   3.995   2.649
  790TIP3   OH2 2333   2.397   1.101   3.094
  790TIP3    H1 2334   2.331   1.032   3.104
  790TIP3    H2 2335   2.476   1.064   3.132
  791TIP3   OH2 2336   0.122   4.844   2.637
  791TIP3    H1 2337   0.117   4.853   2.732
  791TIP3    H2 2338   0.209   4.877   2.614
  792TIP3   OH2 2339   3.185   2.115   2.724
  792TIP3    H1 2340   3.130   2.102   2.802
  792TIP3    H2 2341   3.125   2.149   2.658
  793TIP3   OH2 2342   5.774   0.734   0.434
  793TIP3    H1 2343   5.811   0.680   0.504
  793TIP3    H2 2344   5.845   0.741   0.370
  794TIP3   OH2 2345   5.358   2.732   1.495
  794TIP3    H1 2346   5.264   2.728   1.510
  794TIP3    H2 2347   5.385   2.640   1.485
  795TIP3   OH2 2348   3.523   1.539   0.928
  795TIP3    H1 2349   3.440   1.572   0.893
  795TIP3    H2 2350   3.501   1.455   0.969
  796TIP3   OH2 2351   1.707   2.934   3.131
  796TIP3    H1 2352   1.703   3.015   3.182
  796TIP3    H2 2353   1.788   2.891   3.160
  797TIP3   OH2 2354   2.666   4.114   3.523
  797TIP3    H1 2355   2.695   4.161   3.445
  797TIP3    H2 2356   2.745   4.070   3.555
  798TIP3   OH2 2357   2.358   0.972   1.857
  798TIP3    H1 2358   2.302   0.909   1.812
  798TIP3    H2 2359   2.299   1.020   1.915
  799TIP3   OH2 2360   0.087   2.903   1.236
  799TIP3    H1 2361   0.174   2.865   1.233
  799TIP3    H2 2362   0.091   2.979   1.179
  800TIP3   OH2 2363   1.061   2.236   5.616
  800TIP3    H1 2364   1.090   2.258   5.527
  800TIP3    H2 2365   1.142   2.216   5.662
  801TIP3   OH2 2366   6.255   1.457   0.620
  801TIP3    H1 2367   6.253   1.493   0.531
  801TIP3    H2 2368   6.238   1.532   0.677
  802TIP3   OH2 2369   1.649   0.961   5.758
  802TIP3    H1 2370   1.613   0.891   5.704
  802TIP3    H2 2371   1.661   0.921   5.844
  803TIP3   OH2 2372   0.169   2.085   0.104
  803TIP3    H1 2373   0.133   2.011   0.153
  803TIP3    H2 2374   0.171   2.157   0.166
  804TIP3   OH2 2375   0.021   4.168   3.569
  804TIP3    H1 2376   0.048   4.081   3.540
  804TIP3    H2 2377   0.096   4.224   3.550
  805TIP3   OH2 2378   6.281   2.676   2.328
  805TIP3    H1 2379   6.231   2.745   2.371
  805TIP3    H2 2380   6.273   2.696   2.234
  806TIP3   OH2 2381   0.150   3.429   5.705
  806TIP3    H1 2382   0.212   3.359   5.682
  806TIP3    H2 2383   0.159   3.438   5.800
  807TIP3   OH2 2384   1.131   0.601   2.334
  807TIP3    H1 2385   1.103   0.682   2.377
  807TIP3    H2 2386   1.219   0.586   2.366
  808TIP3   OH2 2387   5.482   4.594   0.152
  808TIP3    H1 2388   5.412   4.659   0.140
  808TIP3    H2 2389   5.559   4.634   0.111
  809TIP3   OH2 2390   6.309   0.696   5.468
  809TIP3    H1 2391   6.249   0.652   5.407
  809TIP3    H2 2392   6.356   0.624   5.511
  810TIP3   OH2 2393   4.978   5.184   5.361
  810TIP3    H1 2394   4.886   5.199   5.382
  810TIP3    H2 2395   5.010   5.126   5.430
  811TIP3   OH2 2396   3.984   5.231   3.593
  811TIP3    H1 2397   4.050   5.277   3.541
  811TIP3    H2 2398   4.022   5.144   3.607
  812TIP3   OH2 2399   3.753   2.081   1.488
  812TIP3    H1 2400   3.680   2.046   1.540
  812TIP3    H2 2401   3.714   2.099   1.402
  813TIP3   OH2 2402   0.121   0.844   1.223
  813TIP3    H1 2403   0.050   0.904   1.247
  813TIP3    H2 2404   0.164   0.886   1.149
  814TIP3   OH2 2405   5.508   5.402   4.252
  814TIP3    H1 2406   5.527   5.313   4.282
  814TIP3    H2 2407   5.581   5.454   4.286
  815TIP3   OH2 2408   5.287   0.806   0.576
  815TIP3    H1 2409   5.229   0.789   0.650
  815TIP3    H2 2410   5.329   0.890   0.596
  816TIP3   OH2 2411   5.840   4.754   3.913
  816TIP3    H1 2412   5.933   4.731   3.917
  816TIP3    H2 2413   5.831   4.829   3.972
  817TIP3   OH2 2414   3.716   2.434   3.298
  817TIP3    H1 2415   3.692   2.492   3.226
  817TIP3    H2 2416   3.757   2.359   3.256
  818TIP3   OH2 2417   0.388   0.685   1.579
  818TIP3    H1 2418   0.414   0.619   1.516
  818TIP3    H2 2419   0.293   0.689   1.572
  819TIP3   OH2 2420   6.408   6.049   5.154
  819TIP3    H1 2421   6.316   6.060   5.129
  819TIP3    H2 2422   6.442   6.139   5.156
  820TIP3   OH2 2423   3.915   2.977   3.474
  820TIP3    H1 2424   3.935   2.966   3.381
  820TIP3    H2 2425   3.837   3.031   3.476
  821TIP3   OH2 2426   0.868   4.194   4.131
  821TIP3    H1 2427   0.792   4.240   4.095
  821TIP3    H2 2428   0.927   4.264   4.161
  822TIP3   OH2 2429   3.065   0.153   2.855
  822TIP3    H1 2430   2.998   0.215   2.826
  822TIP3    H2 2431   3.075   0.171   2.949
  823TIP3   OH2 2432   0.589   3.306   1.237
  823TIP3    H1 2433   0.549   3.386   1.203
  823TIP3    H2 2434   0.516   3.255   1.272
  824TIP3   OH2 2435   4.678   2.946   1.607
  824TIP3    H1 2436   4.613   2.975   1.543
  824TIP3    H2 2437   4.729   2.880   1.562
  825TIP3   OH2 2438   2.109   0.413   2.178
  825TIP3    H1 2439   2.016   0.432   2.165
  825TIP3    H2 2440   2.154   0.488   2.140
  826TIP3   OH2 2441   6.222   3.678   2.392
  826TIP3    H1 2442   6.133   3.647   2.377
  826TIP3    H2 2443   6.253   3.627   2.466
  827TIP3   OH2 2444   5.946   6.646   4.878
  827TIP3    H1 2445   5.996   6.709   4.930
  827TIP3    H2 2446   5.910   6.585   4.942
  828TIP3   OH2 2447   2.686   1.797   3.874
  828TIP3    H1 2448   2.670   1.891   3.888
  828TIP3    H2 2449   2.762   1.794   3.817
  829TIP3   OH2 2450   1.511   2.121   3.996
  829TIP3    H1 2451   1.438   2.104   3.936
  829TIP3    H2 2452   1.578   2.059   3.969
  830TIP3   OH2 2453   6.745   1.815   5.250
  830TIP3    H1 2454   6.765   1.845   5.161
  830TIP3    H2 2455   6.829   1.819   5.296
  831TIP3   OH2 2456   1.705   1.239   4.530
  831TIP3    H1 2457   1.710   1.231   4.626
  831TIP3    H2 2458   1.752   1.320   4.511
  832TIP3   OH2 2459   6.847   2.876   0.864
  832TIP3    H1 2460   6.791   2.949   0.836
  832TIP3    H2 2461   6.877   2.900   0.951
  833TIP3   OH2 2462   0.030   6.445   1.061
  833TIP3    H1 2463  -0.009   6.503   1.127
  833TIP3    H2 2464   0.034   6.498   0.981
  834TIP3   OH2 2465   0.028   5.258   3.144
  834TIP3    H1 2466   0.110   5.245   3.191
  834TIP3    H2 2467   0.008   5.351   3.155
  835TIP3   OH2 2468   2.921   1.777   3.733
  835TIP3    H1 2469   2.928   1.685   3.705
  835TIP3    H2 2470   3.011   1.802   3.754
  836TIP3   OH2 2471   2.545   5.854   3.296
  836TIP3    H1 2472   2.602   5.826   3.367
  836TIP3    H2 2473   2.548   5.782   3.233
  837TIP3   OH2 2474   6.463   0.572   0.096
  837TIP3    H1 2475   6.552   0.570   0.061
  837TIP3    H2 2476   6.449   0.664   0.118
  838TIP3   OH2 2477   2.862   5.337   0.152
  838TIP3    H1 2478   2.794   5.277   0.122
  838TIP3    H2 2479   2.816   5.404   0.202
  839TIP3   OH2 2480   0.963   4.514   0.298
  839TIP3    H1 2481   0.983   4.428   0.260
  839TIP3    H2 2482   0.922   4.562   0.226
  840TIP3   OH2 2483   0.084   0.890   3.088
  840TIP3    H1 2484   0.154   0.881   3.153
  840TIP3    H2 2485   0.003   0.888   3.139
  841TIP3   OH2 2486   2.045   1.282   2.195
  841TIP3    H1 2487   2.122   1.232   2.221
  841TIP3    H2 2488   1.975   1.217   2.193
  842TIP3   OH2 2489   5.383   0.400   0.558
  842TIP3    H1 2490   5.371   0.469   0.493
  842TIP3    H2 2491   5.365   0.442   0.642
  843TIP3   OH2 2492   6.644   0.803   0.343
  843TIP3    H1 2493   6.666   0.745   0.416
  843TIP3    H2 2494   6.725   0.810   0.293
  844TIP3   OH2 2495   1.682   1.798   2.027
  844TIP3    H1 2496   1.720   1.794   2.115
  844TIP3    H2 2497   1.685   1.891   2.004
  845TIP3   OH2 2498   2.366   6.196   4.525
  845TIP3    H1 2499   2.434   6.147   4.479
  845TIP3    H2 2500   2.289   6.139   4.519
  846TIP3   OH2 2501   2.093   6.129   4.939
  846TIP3    H1 2502   2.110   6.111   5.031
  846TIP3    H2 2503   2.153   6.071   4.892
  847TIP3   OH2 2504   3.426   3.452   3.583
  847TIP3    H1 2505   3.435   3.491   3.670
  847TIP3    H2 2506   3.348   3.397   3.589
  848TIP3   OH2 2507   5.254   1.519   3.416
  848TIP3    H1 2508   5.312   1.566   3.356
  848TIP3    H2 2509   5.312   1.458   3.462
  849TIP3   OH2 2510   3.243   3.676   4.972
  849TIP3    H1 2511   3.153   3.683   5.004
  849TIP3    H2 2512   3.236   3.632   4.887
  850TIP3   OH2 2513   7.103   2.770   1.993
  850TIP3    H1 2514   7.135   2.807   1.911
  850TIP3    H2 2515   7.085   2.846   2.048
  851TIP3   OH2 2516   4.731   1.353   5.117
  851TIP3    H1 2517   4.804   1.301   5.085
  851TIP3    H2 2518   4.726   1.427   5.057
  852TIP3   OH2 2519   0.873   5.665   5.338
  852TIP3    H1 2520   0.844   5.639   5.251
  852TIP3    H2 2521   0.827   5.607   5.398
  853TIP3   OH2 2522   3.582   0.135   5.837
  853TIP3    H1 2523   3.627   0.220   5.829
  853TIP3    H2 2524   3.596   0.092   5.753
  854TIP3   OH2 2525   0.774   0.325   1.834
  854TIP3    H1 2526   0.796   0.280   1.916
  854TIP3    H2 2527   0.692   0.369   1.852
  855TIP3   OH2 2528   6.550   2.510   0.207
  855TIP3    H1 2529   6.463   2.476   0.186
  855TIP3    H2 2530   6.608   2.472   0.141
  856TIP3   OH2 2531   6.965   5.133   4.202
  856TIP3    H1 2532   7.038   5.193   4.189
  856TIP3    H2 2533   7.007   5.048   4.216
  857TIP3   OH2 2534   6.838   4.833   0.579
  857TIP3    H1 2535   6.743   4.847   0.574
  857TIP3    H2 2536   6.849   4.767   0.647
  858TIP3   OH2 2537   5.570   4.324   4.819
  858TIP3    H1 2538   5.536   4.397   4.869
  858TIP3    H2 2539   5.582   4.254   4.883
  859TIP3   OH2 2540   2.906   3.637   1.019
  859TIP3    H1 2541   2.826   3.585   1.025
  859TIP3    H2 2542   2.880   3.718   0.975
  860TIP3   OH2 2543   0.959   2.251   4.499
  860TIP3    H1 2544   0.933   2.162   4.521
  860TIP3    H2 2545   1.028   2.272   4.562
  861TIP3   OH2 2546   3.070   6.191   1.692
  861TIP3    H1 2547   3.102   6.129   1.757
  861TIP3    H2 2548   3.143   6.201   1.631
  862TIP3   OH2 2549   5.162   1.621   0.282
  862TIP3    H1 2550   5.215   1.618   0.362
  862TIP3    H2 2551   5.088   1.677   0.305
  863TIP3   OH2 2552   5.285  -0.011   3.506
  863TIP3    H1 2553   5.374  -0.032   3.476
  863TIP3    H2 2554   5.275   0.082   3.486
  864TIP3   OH2 2555   2.674   3.181   5.721
  864TIP3    H1 2556   2.691   3.263   5.673
  864TIP3    H2 2557   2.690   3.203   5.812
  865TIP3   OH2 2558   3.852   2.596   3.475
  865TIP3    H1 2559   3.799   2.672   3.497
  865TIP3    H2 2560   3.816   2.564   3.393
  866TIP3   OH2 2561   1.372   3.880   1.866
  866TIP3    H1 2562   1.385   3.812   1.800
  866TIP3    H2 2563   1.403   3.960   1.823
  867TIP3   OH2 2564   3.582   4.524   0.729
  867TIP3    H1 2565   3.570   4.460   0.659
  867TIP3    H2 2566   3.500   4.524   0.777
  868TIP3   OH2 2567   3.454   1.483   3.704
  868TIP3    H1 2568   3.382   1.421   3.711
  868TIP3    H2 2569   3.419   1.565   3.740
  869TIP3   OH2 2570   6.369   5.669   1.637
  869TIP3    H1 2571   6.353   5.584   1.595
  869TIP3    H2 2572   6.325   5.663   1.721
  870TIP3   OH2 2573   5.002   2.151   1.906
  870TIP3    H1 2574   4.931   2.134   1.844
  870TIP3    H2 2575   5.022   2.244   1.895
  871TIP3   OH2 2576   0.178   1.733   1.748
  871TIP3    H1 2577   0.103   1.731   1.807
  871TIP3    H2 2578   0.249   1.692   1.798
  872TIP3   OH2 2579   1.881   3.451   2.520
  872TIP3    H1 2580   1.845   3.539   2.523
  872TIP3    H2 2581   1.955   3.458   2.459
  873TIP3   OH2 2582   2.097   1.041   0.814
  873TIP3    H1 2583   2.065   1.014   0.728
  873TIP3    H2 2584   2.181   0.997   0.824
  874TIP3   OH2 2585   2.934   3.351   5.122
  874TIP3    H1 2586   2.869   3.329   5.055
  874TIP3    H2 2587   2.888   3.338   5.205
  875TIP3   OH2 2588   6.124   5.137   4.190
  875TIP3    H1 2589   6.148   5.054   4.230
  875TIP3    H2 2590   6.199   5.161   4.136
  876TIP3   OH2 2591   2.555   3.115   0.642
  876TIP3    H1 2592   2.552   3.118   0.547
  876TIP3    H2 2593   2.605   3.036   0.663
  877TIP3   OH2 2594   3.921   4.309   0.808
  877TIP3    H1 2595   3.899   4.402   0.811
  877TIP3    H2 2596   3.984   4.302   0.737
  878TIP3   OH2 2597   4.508   5.678   2.866
  878TIP3    H1 2598   4.500   5.774   2.866
  878TIP3    H2 2599   4.591   5.661   2.910
  879TIP3   OH2 2600   5.769   2.543   3.168
  879TIP3    H1 2601   5.809   2.608   3.110
  879TIP3    H2 2602   5.795   2.569   3.256
  880TIP3   OH2 2603   0.429   1.116   4.048
  880TIP3    H1 2604   0.360   1.070   4.001
  880TIP3    H2 2605   0.442   1.066   4.128
  881TIP3   OH2 2606   2.596   1.594   4.045
  881TIP3    H1 2607   2.638   1.650   3.979
  881TIP3    H2 2608   2.638   1.618   4.127
  882TIP3   OH2 2609   4.314   5.837   5.436
  882TIP3    H1 2610   4.348   5.779   5.367
  882TIP3    H2 2611   4.377   5.829   5.507
  883TIP3   OH2 2612   2.911   1.476   0.802
  883TIP3    H1 2613   2.906   1.435   0.715
  883TIP3    H2 2614   2.883   1.566   0.787
  884TIP3   OH2 2615   3.898   4.036   5.636
  884TIP3    H1 2616   3.866   4.126   5.635
  884TIP3    H2 2617   3.822   3.983   5.658
  885TIP3   OH2 2618   2.200   5.804   2.597
  885TIP3    H1 2619   2.258   5.741   2.554
  885TIP3    H2 2620   2.174   5.864   2.528
  886TIP3   OH2 2621   3.885   2.673   5.110
  886TIP3    H1 2622   3.934   2.592   5.095
  886TIP3    H2 2623   3.794   2.650   5.093
  887TIP3   OH2 2624   0.159   0.144   2.523
  887TIP3    H1 2625   0.116   0.063   2.495
  887TIP3    H2 2626   0.234   0.154   2.465
  888TIP3   OH2 2627   0.771   0.318   5.794
  888TIP3    H1 2628   0.712   0.248   5.764
  888TIP3    H2 2629   0.844   0.315   5.733
  889TIP3   OH2 2630   0.171   4.853   0.180
  889TIP3    H1 2631   0.230   4.912   0.134
  889TIP3    H2 2632   0.217   4.832   0.262
  890TIP3   OH2 2633   7.212   3.845   1.337
  890TIP3    H1 2634   7.199   3.851   1.242
  890TIP3    H2 2635   7.142   3.788   1.368
  891TIP3   OH2 2636   0.475   6.413   0.962
  891TIP3    H1 2637   0.399   6.402   1.020
  891TIP3    H2 2638   0.455   6.357   0.887
  892TIP3   OH2 2639   5.823   1.579   4.482
  892TIP3    H1 2640   5.868   1.496   4.497
  892TIP3    H2 2641   5.799   1.610   4.569
  893TIP3   OH2 2642   1.464   3.287   4.581
  893TIP3    H1 2643   1.385   3.341   4.575
  893TIP3    H2 2644   1.537   3.349   4.574
  894TIP3   OH2 2645   1.996   6.737   0.592
  894TIP3    H1 2646   2.011   6.664   0.532
  894TIP3    H2 2647   1.972   6.695   0.675
  895TIP3   OH2 2648   0.129   3.028   1.905
  895TIP3    H1 2649   0.144   3.030   1.999
  895TIP3    H2 2650   0.121   2.935   1.883
  896TIP3   OH2 2651   6.986   3.253   3.521
  896TIP3    H1 2652   6.941   3.264   3.604
  896TIP3    H2 2653   7.055   3.189   3.539
  897TIP3   OH2 2654   2.186   0.153   3.441
  897TIP3    H1 2655   2.181   0.184   3.531
  897TIP3    H2 2656   2.216   0.063   3.448
  898TIP3   OH2 2657   0.561   0.081   4.073
  898TIP3    H1 2658   0.646   0.125   4.078
  898TIP3    H2 2659   0.574  -0.003   4.118
  899TIP3   OH2 2660   3.635   2.709   0.213
  899TIP3    H1 2661   3.551   2.665   0.207
  899TIP3    H2 2662   3.694   2.655   0.160
  900TIP3   OH2 2663   6.273   3.167   2.594
  900TIP3    H1 2664   6.232   3.081   2.584
  900TIP3    H2 2665   6.335   3.172   2.521
  901TIP3   OH2 2666   1.913   1.441   5.303
  901TIP3    H1 2667   1.849   1.391   5.353
  901TIP3    H2 2668   1.953   1.500   5.368
  902TIP3   OH2 2669   1.688   2.191   1.498
  902TIP3    H1 2670   1.616   2.189   1.561
  902TIP3    H2 2671   1.711   2.284   1.492
  903TIP3   OH2 2672   5.636   5.225   0.779
  903TIP3    H1 2673   5.548   5.189   0.764
  903TIP3    H2 2674   5.688   5.150   0.807
  904TIP3   OH2 2675   3.604   0.994   5.113
  904TIP3    H1 2676   3.551   1.025   5.187
  904TIP3    H2 2677   3.693   0.988   5.148
  905TIP3   OH2 2678   1.050   5.303   4.497
  905TIP3    H1 2679   1.107   5.331   4.569
  905TIP3    H2 2680   1.034   5.210   4.513
  906TIP3   OH2 2681   3.489   5.337   4.283
  906TIP3    H1 2682   3.512   5.376   4.367
  906TIP3    H2 2683   3.569   5.291   4.255
  907TIP3   OH2 2684   1.913   5.335   4.042
  907TIP3    H1 2685   1.920   5.429   4.023
  907TIP3    H2 2686   1.974   5.321   4.114
  908TIP3   OH2 2687   2.003   5.822   2.841
  908TIP3    H1 2688   2.078   5.789   2.891
  908TIP3    H2 2689   1.990   5.756   2.772
  909TIP3   OH2 2690   0.732   2.876   1.077
  909TIP3    H1 2691   0.804   2.893   1.137
  909TIP3    H2 2692   0.759   2.798   1.028
  910TIP3   OH2 2693   4.164   0.683   3.334
  910TIP3    H1 2694   4.205   0.599   3.353
  910TIP3    H2 2695   4.077   0.660   3.302
  911TIP3   OH2 2696   6.786   5.392   5.277
  911TIP3    H1 2697   6.734   5.341   5.216
  911TIP3    H2 2698   6.859   5.335   5.300
  912TIP3   OH2 2699   6.848   0.877   3.852
  912TIP3    H1 2700   6.868   0.964   3.885
  912TIP3    H2 2701   6.838   0.889   3.757
  913TIP3   OH2 2702   2.912   6.814   0.842
  913TIP3    H1 2703   2.856   6.873   0.792
  913TIP3    H2 2704   2.910   6.849   0.931
  914TIP3   OH2 2705   4.188   5.867   4.351
  914TIP3    H1 2706   4.269   5.828   4.316
  914TIP3    H2 2707   4.210   5.891   4.441
  915TIP3   OH2 2708   4.027   4.615   4.773
  915TIP3    H1 2709   4.068   4.701   4.762
  915TIP3    H2 2710   3.941   4.633   4.811
  916TIP3   OH2 2711   0.991   0.789   3.568
  916TIP3    H1 2712   1.069   0.779   3.622
  916TIP3    H2 2713   0.934   0.847   3.619
  917TIP3   OH2 2714   1.774   1.950   5.288
  917TIP3    H1 2715   1.747   1.858   5.288
  917TIP3    H2 2716   1.866   1.948   5.264
  918TIP3   OH2 2717   4.991   2.383   2.543
  918TIP3    H1 2718   4.966   2.471   2.515
  918TIP3    H2 2719   5.051   2.352   2.475
  919TIP3   OH2 2720   0.042   0.839   4.438
  919TIP3    H1 2721   0.101   0.778   4.482
  919TIP3    H2 2722   0.095   0.876   4.367
  920TIP3   OH2 2723   2.736   1.950   2.778
  920TIP3    H1 2724   2.695   2.021   2.728
  920TIP3    H2 2725   2.821   1.938   2.736
  921TIP3   OH2 2726   6.603   6.464   2.266
  921TIP3    H1 2727   6.613   6.431   2.355
  921TIP3    H2 2728   6.602   6.559   2.276
  922TIP3   OH2 2729   7.201   3.248   3.310
  922TIP3    H1 2730   7.115   3.205   3.314
  922TIP3    H2 2731   7.222   3.250   3.217
  923TIP3   OH2 2732   0.655   2.811   2.110
  923TIP3    H1 2733   0.565   2.839   2.131
  923TIP3    H2 2734   0.673   2.741   2.173
  924TIP3   OH2 2735   6.191   0.275   1.467
  924TIP3    H1 2736   6.233   0.318   1.541
  924TIP3    H2 2737   6.225   0.186   1.467
  925TIP3   OH2 2738   1.337   6.318   3.991
  925TIP3    H1 2739   1.404   6.338   4.057
  925TIP3    H2 2740   1.384   6.269   3.923
  926TIP3   OH2 2741   6.614   1.285   0.451
  926TIP3    H1 2742   6.605   1.353   0.517
  926TIP3    H2 2743   6.611   1.332   0.368
  927TIP3   OH2 2744   0.707   4.526   3.766
  927TIP3    H1 2745   0.737   4.583   3.695
  927TIP3    H2 2746   0.631   4.572   3.803
  928TIP3   OH2 2747   2.689   4.026   5.338
  928TIP3    H1 2748   2.784   4.015   5.326
  928TIP3    H2 2749   2.673   4.118   5.320
  929TIP3   OH2 2750   3.808   5.301   1.403
  929TIP3    H1 2751   3.807   5.279   1.496
  929TIP3    H2 2752   3.875   5.369   1.396
  930TIP3   OH2 2753   2.811   4.683   2.218
  930TIP3    H1 2754   2.860   4.612   2.258
  930TIP3    H2 2755   2.841   4.684   2.127
  931TIP3   OH2 2756   4.243   1.394   1.991
  931TIP3    H1 2757   4.264   1.390   1.898
  931TIP3    H2 2758   4.277   1.313   2.028
  932TIP3   OH2 2759   0.682   6.768   3.609
  932TIP3    H1 2760   0.685   6.855   3.651
  932TIP3    H2 2761   0.769   6.731   3.626
  933TIP3   OH2 2762   2.402   1.243   5.118
  933TIP3    H1 2763   2.479   1.190   5.101
  933TIP3    H2 2764   2.402   1.308   5.048
  934TIP3   OH2 2765   6.660   0.307   3.197
  934TIP3    H1 2766   6.643   0.216   3.170
  934TIP3    H2 2767   6.680   0.301   3.290
  935TIP3   OH2 2768   2.900   1.235   0.219
  935TIP3    H1 2769   2.807   1.256   0.224
  935TIP3    H2 2770   2.916   1.176   0.293
  936TIP3   OH2 2771   3.358   4.966   3.630
  936TIP3    H1 2772   3.442   5.004   3.654
  936TIP3    H2 2773   3.324   4.930   3.712
  937TIP3   OH2 2774   6.495   1.338   1.329
  937TIP3    H1 2775   6.545   1.295   1.260
  937TIP3    H2 2776   6.519   1.430   1.321
  938TIP3   OH2 2777   0.143   1.254   3.112
  938TIP3    H1 2778   0.224   1.204   3.122
  938TIP3    H2 2779   0.075   1.187   3.109
  939TIP3   OH2 2780   6.413   3.096   0.522
  939TIP3    H1 2781   6.444   3.142   0.600
  939TIP3    H2 2782   6.372   3.016   0.556
  940TIP3   OH2 2783   7.003   5.802   3.481
  940TIP3    H1 2784   6.974   5.857   3.408
  940TIP3    H2 2785   6.943   5.728   3.480
  941TIP3   OH2 2786   0.903   6.204   4.518
  941TIP3    H1 2787   0.969   6.234   4.579
  941TIP3    H2 2788   0.819   6.220   4.562
  942TIP3   OH2 2789   1.864   3.850   3.937
  942TIP3    H1 2790   1.858   3.946   3.937
  942TIP3    H2 2791   1.892   3.828   4.026
  943TIP3   OH2 2792   4.885   5.692   0.348
  943TIP3    H1 2793   4.869   5.699   0.254
  943TIP3    H2 2794   4.824   5.624   0.377
  944TIP3   OH2 2795   3.318   0.768   3.463
  944TIP3    H1 2796   3.255   0.736   3.400
  944TIP3    H2 2797   3.335   0.694   3.521
  945TIP3   OH2 2798   0.873   3.288   2.307
  945TIP3    H1 2799   0.860   3.193   2.312
  945TIP3    H2 2800   0.808   3.325   2.366
  946TIP3   OH2 2801   6.829   2.608   5.539
  946TIP3    H1 2802   6.810   2.643   5.626
  946TIP3    H2 2803   6.747   2.616   5.491
  947TIP3   OH2 2804   6.569   5.403   3.313
  947TIP3    H1 2805   6.530   5.482   3.350
  947TIP3    H2 2806   6.501   5.336   3.321
  948TIP3   OH2 2807   6.842   0.106   1.896
  948TIP3    H1 2808   6.928   0.124   1.857
  948TIP3    H2 2809   6.854   0.024   1.943
  949TIP3   OH2 2810   3.701   4.125   5.815
  949TIP3    H1 2811   3.614   4.158   5.791
  949TIP3    H2 2812   3.761   4.192   5.782
  950TIP3   OH2 2813   1.707   0.483   5.257
  950TIP3    H1 2814   1.639   0.445   5.201
  950TIP3    H2 2815   1.771   0.413   5.267
  951TIP3   OH2 2816   5.050   1.222   3.113
  951TIP3    H1 2817   5.004   1.232   3.196
  951TIP3    H2 2818   5.092   1.306   3.098
  952TIP3   OH2 2819   1.351   4.428   1.042
  952TIP3    H1 2820   1.315   4.515   1.027
  952TIP3    H2 2821   1.425   4.422   0.982
  953TIP3   OH2 2822   5.817   1.736   3.187
  953TIP3    H1 2823   5.824   1.802   3.257
  953TIP3    H2 2824   5.788   1.786   3.110
  954TIP3   OH2 2825   2.500   1.583   2.440
  954TIP3    H1 2826   2.548   1.500   2.442
  954TIP3    H2 2827   2.425   1.565   2.383
  955TIP3   OH2 2828   4.143   0.488   4.267
  955TIP3    H1 2829   4.155   0.577   4.302
  955TIP3    H2 2830   4.213   0.478   4.203
  956TIP3   OH2 2831   5.301   4.404   2.705
  956TIP3    H1 2832   5.340   4.417   2.618
  956TIP3    H2 2833   5.318   4.485   2.752
  957TIP3   OH2 2834   6.079   5.185   1.338
  957TIP3    H1 2835   6.072   5.237   1.258
  957TIP3    H2 2836   6.082   5.249   1.409
  958TIP3   OH2 2837   1.918   6.187   2.778
  958TIP3    H1 2838   1.881   6.273   2.797
  958TIP3    H2 2839   1.906   6.138   2.859
  959TIP3   OH2 2840   0.241   6.744   1.802
  959TIP3    H1 2841   0.279   6.680   1.742
  959TIP3    H2 2842   0.271   6.718   1.888
  960TIP3   OH2 2843   1.203   0.385   1.804
  960TIP3    H1 2844   1.112   0.357   1.814
  960TIP3    H2 2845   1.236   0.332   1.732
  961TIP3   OH2 2846   2.051   2.755   1.416
  961TIP3    H1 2847   2.024   2.760   1.325
  961TIP3    H2 2848   2.094   2.670   1.424
  962TIP3   OH2 2849   0.755   1.408   0.017
  962TIP3    H1 2850   0.738   1.387   0.109
  962TIP3    H2 2851   0.737   1.326  -0.029
  963TIP3   OH2 2852   4.700   6.741   0.822
  963TIP3    H1 2853   4.720   6.815   0.765
  963TIP3    H2 2854   4.754   6.669   0.790
  964TIP3   OH2 2855   1.246   3.816   5.687
  964TIP3    H1 2856   1.173   3.844   5.742
  964TIP3    H2 2857   1.216   3.735   5.647
  965TIP3   OH2 2858   4.611   2.154   5.672
  965TIP3    H1 2859   4.678   2.196   5.618
  965TIP3    H2 2860   4.534   2.211   5.663
  966TIP3   OH2 2861   0.432   5.128   2.395
  966TIP3    H1 2862   0.405   5.219   2.383
  966TIP3    H2 2863   0.528   5.131   2.400
  967TIP3   OH2 2864   4.914   2.139   4.014
  967TIP3    H1 2865   4.945   2.058   4.055
  967TIP3    H2 2866   4.950   2.208   4.070
  968TIP3   OH2 2867   5.003   5.986   0.176
  968TIP3    H1 2868   4.995   6.062   0.117
  968TIP3    H2 2869   5.001   6.024   0.264
  969TIP3   OH2 2870   0.754   0.256   4.478
  969TIP3    H1 2871   0.806   0.336   4.470
  969TIP3    H2 2872   0.663   0.287   4.486
  970TIP3   OH2 2873   5.063   1.007   3.418
  970TIP3    H1 2874   4.975   1.034   3.395
  970TIP3    H2 2875   5.055   0.965   3.504
  971TIP3   OH2 2876   4.540   3.085   0.786
  971TIP3    H1 2877   4.452   3.083   0.750
  971TIP3    H2 2878   4.595   3.048   0.717
  972TIP3   OH2 2879   7.044   2.184   1.720
  972TIP3    H1 2880   7.028   2.258   1.778
  972TIP3    H2 2881   6.961   2.171   1.674
  973TIP3   OH2 2882   3.031   4.732   0.691
  973TIP3    H1 2883   2.953   4.707   0.640
  973TIP3    H2 2884   3.099   4.746   0.626
  974TIP3   OH2 2885   6.180   3.049   3.664
  974TIP3    H1 2886   6.268   3.064   3.629
  974TIP3    H2 2887   6.140   3.136   3.668
  975TIP3   OH2 2888   6.435   5.108   3.345
  975TIP3    H1 2889   6.372   5.058   3.293
  975TIP3    H2 2890   6.515   5.056   3.343
  976TIP3   OH2 2891   2.332   1.020   4.623
  976TIP3    H1 2892   2.382   0.963   4.565
  976TIP3    H2 2893   2.355   1.109   4.596
  977TIP3   OH2 2894   0.813   0.055   2.293
  977TIP3    H1 2895   0.751  -0.015   2.312
  977TIP3    H2 2896   0.801   0.117   2.365
  978TIP3   OH2 2897   2.080   6.130   3.502
  978TIP3    H1 2898   2.122   6.203   3.547
  978TIP3    H2 2899   2.149   6.065   3.491
  979TIP3   OH2 2900   0.299   2.375   3.181
  979TIP3    H1 2901   0.271   2.295   3.226
  979TIP3    H2 2902   0.332   2.432   3.251
  980TIP3   OH2 2903   1.773   3.450   3.262
  980TIP3    H1 2904   1.732   3.364   3.264
  980TIP3    H2 2905   1.742   3.494   3.340
  981TIP3   OH2 2906   5.231   0.945   4.709
  981TIP3    H1 2907   5.314   0.991   4.698
  981TIP3    H2 2908   5.247   0.884   4.781
  982TIP3   OH2 2909   6.916   5.566   5.549
  982TIP3    H1 2910   6.901   5.652   5.510
  982TIP3    H2 2911   6.828   5.531   5.565
  983TIP3   OH2 2912   0.566   5.494   0.891
  983TIP3    H1 2913   0.644   5.520   0.842
  983TIP3    H2 2914   0.600   5.451   0.970
  984TIP3   OH2 2915   0.557   2.920   4.608
  984TIP3    H1 2916   0.630   2.977   4.587
  984TIP3    H2 2917   0.581   2.878   4.690
  985TIP3   OH2 2918   3.903   3.401   0.850
  985TIP3    H1 2919   3.819   3.415   0.804
  985TIP3    H2 2920   3.896   3.453   0.930
  986TIP3   OH2 2921   2.936   1.873   4.457
  986TIP3    H1 2922   2.957   1.966   4.452
  986TIP3    H2 2923   2.852   1.871   4.503
  987TIP3   OH2 2924   1.919   5.994   4.748
  987TIP3    H1 2925   1.970   6.069   4.778
  987TIP3    H2 2926   1.958   5.919   4.792
  988TIP3   OH2 2927   2.820   0.074   5.213
  988TIP3    H1 2928   2.890   0.082   5.148
  988TIP3    H2 2929   2.850   0.006   5.272
  989TIP3   OH2 2930   4.516   5.404   3.834
  989TIP3    H1 2931   4.541   5.345   3.763
  989TIP3    H2 2932   4.517   5.491   3.794
  990TIP3   OH2 2933   6.069   2.162   0.143
  990TIP3    H1 2934   6.078   2.240   0.088
  990TIP3    H2 2935   6.028   2.097   0.086
  991TIP3   OH2 2936   4.236   5.223   4.559
  991TIP3    H1 2937   4.249   5.317   4.543
  991TIP3    H2 2938   4.303   5.200   4.624
  992TIP3   OH2 2939   6.073   3.807  -0.037
  992TIP3    H1 2940   6.020   3.811   0.043
  992TIP3    H2 2941   6.051   3.887  -0.085
  993TIP3   OH2 2942   2.019   6.496   0.467
  993TIP3    H1 2943   2.069   6.470   0.544
  993TIP3    H2 2944   2.077   6.479   0.393
  994TIP3   OH2 2945   4.732   2.107   1.971
  994TIP3    H1 2946   4.656   2.146   2.015
  994TIP3    H2 2947   4.804   2.168   1.989
  995TIP3   OH2 2948   6.945   5.015   5.814
  995TIP3    H1 2949   6.994   5.091   5.844
  995TIP3    H2 2950   6.921   5.036   5.724
  996TIP3   OH2 2951   0.795   1.558   5.161
  996TIP3    H1 2952   0.797   1.640   5.209
  996TIP3    H2 2953   0.876   1.514   5.185
  997TIP3   OH2 2954   1.281   4.568   4.484
  997TIP3    H1 2955   1.324   4.523   4.558
  997TIP3    H2 2956   1.210   4.509   4.459
  998TIP3   OH2 2957   5.282   3.759   5.902
  998TIP3    H1 2958   5.196   3.801   5.912
  998TIP3    H2 2959   5.265   3.683   5.846
  999TIP3   OH2 2960   2.976   3.533   1.934
  999TIP3    H1 2961   2.882   3.536   1.919
  999TIP3    H2 2962   2.991   3.596   2.005
 1000TIP3   OH2 2963   6.673   2.362   3.693
 1000TIP3    H1 2964   6.752   2.359   3.748
 1000TIP3    H2 2965   6.690   2.434   3.632
 1001TIP3   OH2 2966   1.427   0.856   2.283
 1001TIP3    H1 2967   1.379   0.810   2.214
 1001TIP3    H2 2968   1.398   0.947   2.275
 1002TIP3   OH2 2969   5.308   5.680   4.594
 1002TIP3    H1 2970   5.402   5.664   4.587
 1002TIP3    H2 2971   5.294   5.761   4.544
 1003TIP3   OH2 2972   3.689   2.172   0.593
 1003TIP3    H1 2973   3.738   2.220   0.526
 1003TIP3    H2 2974   3.735   2.089   0.601
 1004TIP3   OH2 2975   3.099   3.669   3.628
 1004TIP3    H1 2976   3.095   3.754   3.584
 1004TIP3    H2 2977   3.189   3.665   3.662
 1005TIP3   OH2 2978   5.084   6.601   0.778
 1005TIP3    H1 2979   4.988   6.605   0.781
 1005TIP3    H2 2980   5.112   6.639   0.861
 1006TIP3   OH2 2981   3.631   5.345   1.789
 1006TIP3    H1 2982   3.568   5.322   1.721
 1006TIP3    H2 2983   3.602   5.430   1.822
 1007TIP3   OH2 2984   2.157   1.231   1.922
 1007TIP3    H1 2985   2.200   1.317   1.920
 1007TIP3    H2 2986   2.112   1.229   2.007
 1008TIP3   OH2 2987   4.012   4.934   2.840
 1008TIP3    H1 2988   3.981   5.006   2.896
 1008TIP3    H2 2989   4.071   4.976   2.778
 1009TIP3   OH2 2990   4.316   5.750   5.815
 1009TIP3    H1 2991   4.284   5.663   5.795
 1009TIP3    H2 2992   4.377   5.770   5.744
 1010TIP3   OH2 2993   5.878   6.644   2.947
 1010TIP3    H1 2994   5.846   6.593   3.021
 1010TIP3    H2 2995   5.857   6.735   2.969
 1011TIP3   OH2 2996   0.810   3.947   4.243
 1011TIP3    H1 2997   0.829   3.882   4.176
 1011TIP3    H2 2998   0.797   4.028   4.194
 1012TIP3   OH2 2999   4.102   2.906   5.594
 1012TIP3    H1 3000   4.117   2.842   5.524
 1012TIP3    H2 3001   4.189   2.934   5.621
 1013TIP3   OH2 3002   4.997   0.673   1.023
 1013TIP3    H1 3003   4.960   0.660   1.110
 1013TIP3    H2 3004   5.092   0.669   1.036
 1014TIP3   OH2 3005   6.191   1.671   3.563
 1014TIP3    H1 3006   6.271   1.691   3.612
 1014TIP3    H2 3007   6.182   1.743   3.501
 1015TIP3   OH2 3008   4.825   3.159   1.112
 1015TIP3    H1 3009   4.854   3.116   1.031
 1015TIP3    H2 3010   4.742   3.200   1.089
 1016TIP3   OH2 3011   4.083   2.844   0.904
 1016TIP3    H1 3012   4.166   2.846   0.950
 1016TIP3    H2 3013   4.051   2.754   0.914
 1017TIP3   OH2 3014   7.202   3.370   1.414
 1017TIP3    H1 3015   7.194   3.347   1.322
 1017TIP3    H2 3016   7.112   3.378   1.445
 1018TIP3   OH2 3017   7.076   4.189   4.371
 1018TIP3    H1 3018   6.990   4.207   4.333
 1018TIP3    H2 3019   7.057   4.139   4.451
 1019TIP3   OH2 3020   4.298   3.410   2.140
 1019TIP3    H1 3021   4.389   3.424   2.113
 1019TIP3    H2 3022   4.261   3.355   2.072
 1020TIP3   OH2 3023   1.746   4.605   1.375
 1020TIP3    H1 3024   1.666   4.615   1.427
 1020TIP3    H2 3025   1.786   4.692   1.375
 1021TIP3   OH2 3026   5.066   4.480   2.029
 1021TIP3    H1 3027   5.105   4.496   1.943
 1021TIP3    H2 3028   5.092   4.556   2.081
 1022TIP3   OH2 3029   5.392   6.019   4.665
 1022TIP3    H1 3030   5.379   6.039   4.573
 1022TIP3    H2 3031   5.339   5.940   4.680
 1023TIP3   OH2 3032   2.851   5.618   1.799
 1023TIP3    H1 3033   2.778   5.564   1.832
 1023TIP3    H2 3034   2.924   5.556   1.790
 1024TIP3   OH2 3035   3.919   4.998   1.902
 1024TIP3    H1 3036   3.827   4.977   1.919
 1024TIP3    H2 3037   3.932   5.083   1.944
 1025TIP3   OH2 3038   2.552   1.981   0.520
 1025TIP3    H1 3039   2.602   2.011   0.596
 1025TIP3    H2 3040   2.553   2.056   0.460
 1026TIP3   OH2 3041   3.850   4.580   0.852
 1026TIP3    H1 3042   3.891   4.666   0.860
 1026TIP3    H2 3043   3.758   4.599   0.833
 1027TIP3   OH2 3044   3.605   1.303   3.035
 1027TIP3    H1 3045   3.526   1.258   3.007
 1027TIP3    H2 3046   3.672   1.276   2.972
 1028TIP3   OH2 3047   6.095   4.293   0.342
 1028TIP3    H1 3048   6.182   4.313   0.377
 1028TIP3    H2 3049   6.041   4.278   0.419
 1029TIP3   OH2 3050   3.845   6.413   0.600
 1029TIP3    H1 3051   3.787   6.487   0.583
 1029TIP3    H2 3052   3.813   6.375   0.681
 1030TIP3   OH2 3053   7.056   2.393   2.368
 1030TIP3    H1 3054   7.049   2.405   2.462
 1030TIP3    H2 3055   6.999   2.319   2.349
 1031TIP3   OH2 3056   1.140  -0.053   0.936
 1031TIP3    H1 3057   1.135  -0.049   1.032
 1031TIP3    H2 3058   1.079   0.014   0.906
 1032TIP3   OH2 3059   2.541   4.736   2.231
 1032TIP3    H1 3060   2.487   4.773   2.302
 1032TIP3    H2 3061   2.630   4.738   2.266
 1033TIP3   OH2 3062   3.677   0.447   5.066
 1033TIP3    H1 3063   3.641   0.535   5.059
 1033TIP3    H2 3064   3.667   0.424   5.158
 1034TIP3   OH2 3065   4.959   2.727   3.060
 1034TIP3    H1 3066   4.976   2.819   3.041
 1034TIP3    H2 3067   5.031   2.700   3.117
 1035TIP3   OH2 3068   4.053   1.103   5.213
 1035TIP3    H1 3069   4.129   1.065   5.168
 1035TIP3    H2 3070   4.077   1.100   5.306
 1036TIP3   OH2 3071   4.928   6.274   0.726
 1036TIP3    H1 3072   4.978   6.203   0.685
 1036TIP3    H2 3073   4.847   6.233   0.756
 1037TIP3   OH2 3074   5.994   5.493   4.601
 1037TIP3    H1 3075   5.967   5.410   4.563
 1037TIP3    H2 3076   5.955   5.559   4.544
 1038TIP3   OH2 3077   0.940   1.524   5.826
 1038TIP3    H1 3078   1.032   1.525   5.798
 1038TIP3    H2 3079   0.924   1.613   5.857
 1039TIP3   OH2 3080   4.114   3.664   2.968
 1039TIP3    H1 3081   4.093   3.581   2.925
 1039TIP3    H2 3082   4.204   3.652   2.999
 1040TIP3   OH2 3083   0.089   5.916   3.657
 1040TIP3    H1 3084   0.172   5.963   3.656
 1040TIP3    H2 3085   0.073   5.897   3.750
 1041TIP3   OH2 3086   4.901   4.383   0.422
 1041TIP3    H1 3087   4.915   4.379   0.328
 1041TIP3    H2 3088   4.866   4.296   0.445
 1042TIP3   OH2 3089   1.553   4.566   1.584
 1042TIP3    H1 3090   1.477   4.577   1.527
 1042TIP3    H2 3091   1.534   4.488   1.636
 1043TIP3   OH2 3092   2.320   0.202   2.926
 1043TIP3    H1 3093   2.392   0.264   2.915
 1043TIP3    H2 3094   2.349   0.124   2.880
 1044TIP3   OH2 3095   4.752   3.954   4.765
 1044TIP3    H1 3096   4.834   3.921   4.728
 1044TIP3    H2 3097   4.698   3.975   4.688
 1045TIP3   OH2 3098   1.099   6.221   3.975
 1045TIP3    H1 3099   1.100   6.126   3.962
 1045TIP3    H2 3100   1.191   6.245   3.988
 1046TIP3   OH2 3101   1.339   1.181   3.229
 1046TIP3    H1 3102   1.389   1.184   3.148
 1046TIP3    H2 3103   1.351   1.267   3.269
 1047TIP3   OH2 3104   5.644   3.750   2.805
 1047TIP3    H1 3105   5.721   3.760   2.861
 1047TIP3    H2 3106   5.579   3.808   2.843
 1048TIP3   OH2 3107   1.309   5.890   3.731
 1048TIP3    H1 3108   1.327   5.807   3.687
 1048TIP3    H2 3109   1.236   5.872   3.790
 1049TIP3   OH2 3110   5.069   5.829   1.041
 1049TIP3    H1 3111   5.042   5.779   1.118
 1049TIP3    H2 3112   5.164   5.837   1.051
 1050TIP3   OH2 3113   1.306   1.852   3.024
 1050TIP3    H1 3114   1.275   1.800   3.098
 1050TIP3    H2 3115   1.261   1.815   2.948
 1051TIP3   OH2 3116   0.428   3.053   5.618
 1051TIP3    H1 3117   0.412   3.041   5.712
 1051TIP3    H2 3118   0.475   2.975   5.591
 1052TIP3   OH2 3119   7.085   1.795   4.165
 1052TIP3    H1 3120   7.075   1.806   4.259
 1052TIP3    H2 3121   6.999   1.767   4.134
 1053TIP3   OH2 3122   4.474   1.923   5.899
 1053TIP3    H1 3123   4.538   1.954   5.834
 1053TIP3    H2 3124   4.495   1.831   5.912
 1054TIP3   OH2 3125   5.618   6.607   3.982
 1054TIP3    H1 3126   5.558   6.592   4.054
 1054TIP3    H2 3127   5.592   6.544   3.915
 1055TIP3   OH2 3128   3.135   2.688   3.944
 1055TIP3    H1 3129   3.220   2.654   3.918
 1055TIP3    H2 3130   3.072   2.625   3.908
 1056TIP3   OH2 3131   0.131   3.860   3.484
 1056TIP3    H1 3132   0.088   3.782   3.519
 1056TIP3    H2 3133   0.220   3.857   3.519
 1057TIP3   OH2 3134   1.154   0.775   3.799
 1057TIP3    H1 3135   1.223   0.710   3.810
 1057TIP3    H2 3136   1.116   0.784   3.887
 1058TIP3   OH2 3137   0.614   5.200   1.770
 1058TIP3    H1 3138   0.688   5.146   1.742
 1058TIP3    H2 3139   0.648   5.250   1.844
 1059TIP3   OH2 3140   0.537   0.453   0.367
 1059TIP3    H1 3141   0.488   0.535   0.366
 1059TIP3    H2 3142   0.625   0.478   0.396
 1060TIP3   OH2 3143   6.787   1.639   5.667
 1060TIP3    H1 3144   6.808   1.604   5.754
 1060TIP3    H2 3145   6.717   1.582   5.635
 1061TIP3   OH2 3146   5.540   2.738   1.066
 1061TIP3    H1 3147   5.455   2.779   1.085
 1061TIP3    H2 3148   5.535   2.652   1.109
 1062TIP3   OH2 3149   2.327   0.857   2.833
 1062TIP3    H1 3150   2.234   0.835   2.822
 1062TIP3    H2 3151   2.345   0.922   2.766
 1063TIP3   OH2 3152   6.446   1.922   3.117
 1063TIP3    H1 3153   6.454   1.932   3.212
 1063TIP3    H2 3154   6.428   2.011   3.085
 1064TIP3   OH2 3155   1.859   5.539   0.529
 1064TIP3    H1 3156   1.797   5.525   0.600
 1064TIP3    H2 3157   1.931   5.479   0.547
 1065TIP3   OH2 3158   2.229   6.425   3.302
 1065TIP3    H1 3159   2.181   6.497   3.261
 1065TIP3    H2 3160   2.287   6.393   3.233
 1066TIP3   OH2 3161   1.702   5.186   4.366
 1066TIP3    H1 3162   1.753   5.191   4.447
 1066TIP3    H2 3163   1.720   5.099   4.331
 1067TIP3   OH2 3164   0.038   1.135   4.770
 1067TIP3    H1 3165   0.085   1.218   4.762
 1067TIP3    H2 3166  -0.026   1.150   4.840
 1068TIP3   OH2 3167   0.118   0.717   1.473
 1068TIP3    H1 3168   0.084   0.637   1.432
 1068TIP3    H2 3169   0.108   0.785   1.406
 1069TIP3   OH2 3170   0.361   5.196   1.671
 1069TIP3    H1 3171   0.314   5.138   1.731
 1069TIP3    H2 3172   0.453   5.187   1.696
 1070TIP3   OH2 3173   6.353   2.623   0.898
 1070TIP3    H1 3174   6.305   2.680   0.957
 1070TIP3    H2 3175   6.443   2.657   0.899
 1071TIP3   OH2 3176   4.423   4.228   3.976
 1071TIP3    H1 3177   4.334   4.193   3.986
 1071TIP3    H2 3178   4.423   4.306   4.032
 1072TIP3   OH2 3179   0.614   6.105   5.649
 1072TIP3    H1 3180   0.563   6.043   5.700
 1072TIP3    H2 3181   0.638   6.058   5.570
 1073TIP3   OH2 3182   4.666   3.647   0.425
 1073TIP3    H1 3183   4.709   3.696   0.356
 1073TIP3    H2 3184   4.587   3.697   0.444
 1074TIP3   OH2 3185   1.435   0.044   1.017
 1074TIP3    H1 3186   1.351   0.013   0.983
 1074TIP3    H2 3187   1.472   0.095   0.945
 1075TIP3   OH2 3188   1.227   3.817   3.224
 1075TIP3    H1 3189   1.244   3.805   3.131
 1075TIP3    H2 3190   1.134   3.840   3.229
 1076TIP3   OH2 3191   0.437   6.094   1.438
 1076TIP3    H1 3192   0.361   6.132   1.482
 1076TIP3    H2 3193   0.495   6.067   1.510
 1077TIP3   OH2 3194   4.821   6.021   1.129
 1077TIP3    H1 3195   4.804   5.999   1.221
 1077TIP3    H2 3196   4.898   5.969   1.107
 1078TIP3   OH2 3197   4.231   1.665   2.065
 1078TIP3    H1 3198   4.259   1.589   2.013
 1078TIP3    H2 3199   4.194   1.627   2.145
 1079TIP3   OH2 3200   5.630   1.229   5.340
 1079TIP3    H1 3201   5.720   1.228   5.306
 1079TIP3    H2 3202   5.601   1.138   5.333
 1080TIP3   OH2 3203   0.025   0.864   2.398
 1080TIP3    H1 3204   0.101   0.883   2.453
 1080TIP3    H2 3205  -0.042   0.833   2.460
 1081TIP3   OH2 3206   4.804   6.547   4.820
 1081TIP3    H1 3207   4.806   6.621   4.881
 1081TIP3    H2 3208   4.874   6.489   4.850
 1082TIP3   OH2 3209   1.077   6.031   2.800
 1082TIP3    H1 3210   1.070   6.075   2.884
 1082TIP3    H2 3211   1.085   6.103   2.736
 1083TIP3   OH2 3212   2.480   3.835   1.329
 1083TIP3    H1 3213   2.446   3.814   1.416
 1083TIP3    H2 3214   2.402   3.851   1.276
 1084TIP3   OH2 3215   6.001   4.642   2.616
 1084TIP3    H1 3216   6.090   4.677   2.612
 1084TIP3    H2 3217   5.988   4.601   2.531
 1085TIP3   OH2 3218   3.180   4.609   3.423
 1085TIP3    H1 3219   3.248   4.581   3.484
 1085TIP3    H2 3220   3.182   4.705   3.427
 1086TIP3   OH2 3221   4.849   6.167   2.291
 1086TIP3    H1 3222   4.889   6.246   2.327
 1086TIP3    H2 3223   4.843   6.184   2.197
 1087TIP3   OH2 3224   0.181   4.183   4.926
 1087TIP3    H1 3225   0.144   4.096   4.911
 1087TIP3    H2 3226   0.106   4.242   4.921
 1088TIP3   OH2 3227   3.440   6.308   2.305
 1088TIP3    H1 3228   3.424   6.215   2.322
 1088TIP3    H2 3229   3.423   6.350   2.389
 1089TIP3   OH2 3230   1.113   1.029   2.639
 1089TIP3    H1 3231   1.093   1.052   2.730
 1089TIP3    H2 3232   1.058   1.087   2.586
 1090TIP3   OH2 3233   4.756   2.722   2.192
 1090TIP3    H1 3234   4.758   2.745   2.099
 1090TIP3    H2 3235   4.759   2.807   2.237
 1091TIP3   OH2 3236   4.936   6.734   1.504
 1091TIP3    H1 3237   4.872   6.704   1.569
 1091TIP3    H2 3238   4.968   6.653   1.463
 1092TIP3   OH2 3239   0.788   2.543   3.119
 1092TIP3    H1 3240   0.768   2.535   3.026
 1092TIP3    H2 3241   0.882   2.528   3.126
 1093TIP3   OH2 3242   1.332   1.922   2.615
 1093TIP3    H1 3243   1.263   1.887   2.672
 1093TIP3    H2 3244   1.342   1.856   2.546
 1094TIP3   OH2 3245   5.838   1.019   4.003
 1094TIP3    H1 3246   5.922   0.974   4.013
 1094TIP3    H2 3247   5.851   1.080   3.931
 1095TIP3   OH2 3248   4.718   5.478   0.407
 1095TIP3    H1 3249   4.688   5.454   0.319
 1095TIP3    H2 3250   4.723   5.395   0.454
 1096TIP3   OH2 3251   6.919   5.946   3.698
 1096TIP3    H1 3252   6.986   5.988   3.752
 1096TIP3    H2 3253   6.967   5.910   3.624
 1097TIP3   OH2 3254   4.453   2.243   1.195
 1097TIP3    H1 3255   4.543   2.211   1.204
 1097TIP3    H2 3256   4.408   2.209   1.272
 1098TIP3   OH2 3257   2.689   0.099   2.319
 1098TIP3    H1 3258   2.609   0.152   2.326
 1098TIP3    H2 3259   2.689   0.047   2.399
 1099TIP3   OH2 3260   4.644   0.678   5.822
 1099TIP3    H1 3261   4.699   0.600   5.821
 1099TIP3    H2 3262   4.569   0.655   5.766
 1100TIP3   OH2 3263   4.974   6.055   4.106
 1100TIP3    H1 3264   4.919   6.071   4.182
 1100TIP3    H2 3265   5.026   6.134   4.096
 1101TIP3   OH2 3266   3.183   3.077   0.257
 1101TIP3    H1 3267   3.091   3.065   0.234
 1101TIP3    H2 3268   3.214   2.989   0.280
 1102TIP3   OH2 3269   2.988   1.350   3.225
 1102TIP3    H1 3270   2.917   1.323   3.167
 1102TIP3    H2 3271   3.000   1.276   3.284
 1103TIP3   OH2 3272   1.520   2.333   5.173
 1103TIP3    H1 3273   1.471   2.252   5.192
 1103TIP3    H2 3274   1.490   2.395   5.239
 1104TIP3   OH2 3275   0.987   3.511   5.275
 1104TIP3    H1 3276   0.969   3.419   5.296
 1104TIP3    H2 3277   0.904   3.544   5.240
 1105TIP3   OH2 3278   0.778   5.305   4.164
 1105TIP3    H1 3279   0.838   5.240   4.201
 1105TIP3    H2 3280   0.835   5.366   4.117
 1106TIP3   OH2 3281   2.773   1.022   5.438
 1106TIP3    H1 3282   2.697   0.988   5.392
 1106TIP3    H2 3283   2.846   0.969   5.405
 1107TIP3   OH2 3284   4.046   4.694   5.195
 1107TIP3    H1 3285   3.959   4.714   5.229
 1107TIP3    H2 3286   4.033   4.619   5.137
 1108TIP3   OH2 3287   5.218   5.164   3.361
 1108TIP3    H1 3288   5.161   5.105   3.411
 1108TIP3    H2 3289   5.299   5.115   3.349
 1109TIP3   OH2 3290   3.147   3.602   1.727
 1109TIP3    H1 3291   3.093   3.586   1.805
 1109TIP3    H2 3292   3.148   3.519   1.680
 1110TIP3   OH2 3293   3.587   4.396   3.456
 1110TIP3    H1 3294   3.664   4.441   3.421
 1110TIP3    H2 3295   3.614   4.363   3.541
 1111TIP3   OH2 3296   1.282   6.301   1.141
 1111TIP3    H1 3297   1.230   6.232   1.101
 1111TIP3    H2 3298   1.261   6.296   1.234
 1112TIP3   OH2 3299   1.467   5.219   4.534
 1112TIP3    H1 3300   1.397   5.179   4.481
 1112TIP3    H2 3301   1.547   5.201   4.485
 1113TIP3   OH2 3302   3.006   1.578   1.675
 1113TIP3    H1 3303   2.987   1.486   1.694
 1113TIP3    H2 3304   2.940   1.603   1.611
 1114TIP3   OH2 3305   1.837   5.108   5.009
 1114TIP3    H1 3306   1.781   5.057   5.067
 1114TIP3    H2 3307   1.777   5.142   4.942
 1115TIP3   OH2 3308   0.986   3.360   5.613
 1115TIP3    H1 3309   1.001   3.362   5.518
 1115TIP3    H2 3310   1.048   3.295   5.645
 1116TIP3   OH2 3311   6.148   0.215   5.279
 1116TIP3    H1 3312   6.141   0.226   5.373
 1116TIP3    H2 3313   6.165   0.121   5.267
 1117TIP3   OH2 3314   5.781   4.985   4.040
 1117TIP3    H1 3315   5.815   5.066   4.001
 1117TIP3    H2 3316   5.688   5.001   4.053
 1118TIP3   OH2 3317   3.339   2.557   3.524
 1118TIP3    H1 3318   3.336   2.530   3.615
 1118TIP3    H2 3319   3.291   2.640   3.522
 1119TIP3   OH2 3320   3.496   5.268   1.546
 1119TIP3    H1 3321   3.462   5.346   1.502
 1119TIP3    H2 3322   3.443   5.196   1.513
 1120TIP3   OH2 3323   4.557   0.522   4.670
 1120TIP3    H1 3324   4.577   0.614   4.655
 1120TIP3    H2 3325   4.579   0.506   4.761
 1121TIP3   OH2 3326   2.893   0.236   3.523
 1121TIP3    H1 3327   2.842   0.312   3.551
 1121TIP3    H2 3328   2.964   0.230   3.586
 1122TIP3   OH2 3329   7.040   4.362   5.251
 1122TIP3    H1 3330   6.993   4.414   5.185
 1122TIP3    H2 3331   7.007   4.394   5.335
 1123TIP3   OH2 3332   3.439   3.943   5.764
 1123TIP3    H1 3333   3.463   3.853   5.789
 1123TIP3    H2 3334   3.497   3.963   5.691
 1124TIP3   OH2 3335   6.706   2.575   1.440
 1124TIP3    H1 3336   6.704   2.669   1.420
 1124TIP3    H2 3337   6.759   2.569   1.520
 1125TIP3   OH2 3338   7.225   4.667   3.062
 1125TIP3    H1 3339   7.141   4.676   3.018
 1125TIP3    H2 3340   7.237   4.751   3.108
 1126TIP3   OH2 3341   0.421   4.781   1.860
 1126TIP3    H1 3342   0.356   4.792   1.929
 1126TIP3    H2 3343   0.448   4.689   1.866
 1127TIP3   OH2 3344   0.247   2.373   3.913
 1127TIP3    H1 3345   0.191   2.450   3.910
 1127TIP3    H2 3346   0.200   2.307   3.862
 1128TIP3   OH2 3347   0.196   0.379   2.943
 1128TIP3    H1 3348   0.108   0.398   2.974
 1128TIP3    H2 3349   0.186   0.297   2.893
 1129TIP3   OH2 3350   3.682   3.042   4.232
 1129TIP3    H1 3351   3.636   2.976   4.180
 1129TIP3    H2 3352   3.759   2.997   4.266
 1130TIP3   OH2 3353   6.443   3.404   4.088
 1130TIP3    H1 3354   6.455   3.499   4.082
 1130TIP3    H2 3355   6.404   3.391   4.175
 1131TIP3   OH2 3356   4.389   4.677   5.412
 1131TIP3    H1 3357   4.461   4.648   5.468
 1131TIP3    H2 3358   4.341   4.597   5.391
 1132TIP3   OH2 3359   5.281   3.520   1.930
 1132TIP3    H1 3360   5.276   3.590   1.864
 1132TIP3    H2 3361   5.318   3.562   2.007
 1133TIP3   OH2 3362   6.348   5.930   2.137
 1133TIP3    H1 3363   6.355   6.021   2.165
 1133TIP3    H2 3364   6.365   5.879   2.216
 1134TIP3   OH2 3365   4.193   1.129   2.957
 1134TIP3    H1 3366   4.236   1.186   2.892
 1134TIP3    H2 3367   4.236   1.044   2.945
 1135TIP3   OH2 3368   5.371   5.978   3.058
 1135TIP3    H1 3369   5.331   6.012   3.137
 1135TIP3    H2 3370   5.301   5.928   3.015
 1136TIP3   OH2 3371   1.960   0.418   3.810
 1136TIP3    H1 3372   1.995   0.507   3.810
 1136TIP3    H2 3373   1.870   0.428   3.778
 1137TIP3   OH2 3374   0.386   0.479   5.537
 1137TIP3    H1 3375   0.472   0.458   5.501
 1137TIP3    H2 3376   0.386   0.574   5.547
 1138TIP3   OH2 3377   3.685   1.836   2.140
 1138TIP3    H1 3378   3.732   1.912   2.173
 1138TIP3    H2 3379   3.693   1.770   2.209
 1139TIP3   OH2 3380   2.141   6.029   4.491
 1139TIP3    H1 3381   2.097   6.109   4.463
 1139TIP3    H2 3382   2.069   5.973   4.522
 1140TIP3   OH2 3383   1.185   3.186  -0.030
 1140TIP3    H1 3384   1.242   3.211   0.042
 1140TIP3    H2 3385   1.234   3.119  -0.077
 1141TIP3   OH2 3386   1.259   0.610   1.582
 1141TIP3    H1 3387   1.344   0.654   1.585
 1141TIP3    H2 3388   1.252   0.564   1.665
 1142TIP3   OH2 3389   5.250   1.367   4.755
 1142TIP3    H1 3390   5.242   1.455   4.718
 1142TIP3    H2 3391   5.225   1.377   4.847
 1143TIP3   OH2 3392   2.418   5.177   2.342
 1143TIP3    H1 3393   2.472   5.146   2.270
 1143TIP3    H2 3394   2.470   5.157   2.421
 1144TIP3   OH2 3395   3.967   0.960   0.549
 1144TIP3    H1 3396   3.922   0.978   0.466
 1144TIP3    H2 3397   3.937   1.030   0.607
 1145TIP3   OH2 3398   2.261   4.995   4.040
 1145TIP3    H1 3399   2.167   5.011   4.042
 1145TIP3    H2 3400   2.270   4.900   4.044
 1146TIP3   OH2 3401   0.071   0.211   4.555
 1146TIP3    H1 3402   0.091   0.304   4.563
 1146TIP3    H2 3403   0.026   0.188   4.637
 1147TIP3   OH2 3404   2.127   6.666   3.777
 1147TIP3    H1 3405   2.042   6.624   3.792
 1147TIP3    H2 3406   2.190   6.599   3.803
 1148TIP3   OH2 3407   4.193   4.497   4.120
 1148TIP3    H1 3408   4.112   4.517   4.072
 1148TIP3    H2 3409   4.189   4.403   4.134
 1149TIP3   OH2 3410   0.726   5.415   5.175
 1149TIP3    H1 3411   0.817   5.389   5.179
 1149TIP3    H2 3412   0.681   5.343   5.131
 1150TIP3   OH2 3413   3.686   6.236   4.531
 1150TIP3    H1 3414   3.649   6.296   4.596
 1150TIP3    H2 3415   3.632   6.157   4.537
 1151TIP3   OH2 3416   6.512   3.395   0.158
 1151TIP3    H1 3417   6.494   3.322   0.097
 1151TIP3    H2 3418   6.431   3.445   0.158
 1152TIP3   OH2 3419   3.916   6.598   0.879
 1152TIP3    H1 3420   4.004   6.565   0.894
 1152TIP3    H2 3421   3.913   6.681   0.926
 1153TIP3   OH2 3422   2.650   1.357   0.265
 1153TIP3    H1 3423   2.616   1.401   0.188
 1153TIP3    H2 3424   2.589   1.381   0.335
 1154TIP3   OH2 3425   4.674   6.231   0.114
 1154TIP3    H1 3426   4.646   6.313   0.074
 1154TIP3    H2 3427   4.696   6.174   0.040
 1155TIP3   OH2 3428   5.812   6.706  -0.006
 1155TIP3    H1 3429   5.776   6.617  -0.002
 1155TIP3    H2 3430   5.829   6.730   0.085
 1156TIP3   OH2 3431   3.150   1.429   2.112
 1156TIP3    H1 3432   3.235   1.415   2.071
 1156TIP3    H2 3433   3.124   1.517   2.082
 1157TIP3   OH2 3434   2.939   2.092   3.760
 1157TIP3    H1 3435   2.881   2.167   3.746
 1157TIP3    H2 3436   2.987   2.083   3.677
 1158TIP3   OH2 3437   2.227   2.884   4.640
 1158TIP3    H1 3438   2.194   2.946   4.575
 1158TIP3    H2 3439   2.312   2.918   4.666
 1159TIP3   OH2 3440   3.918   0.735   0.130
 1159TIP3    H1 3441   3.869   0.764   0.053
 1159TIP3    H2 3442   3.866   0.664   0.166
 1160TIP3   OH2 3443   0.171   6.160   1.525
 1160TIP3    H1 3444   0.098   6.165   1.462
 1160TIP3    H2 3445   0.132   6.186   1.608
 1161TIP3   OH2 3446   6.487   3.717   1.483
 1161TIP3    H1 3447   6.574   3.757   1.486
 1161TIP3    H2 3448   6.499   3.639   1.428
 1162TIP3   OH2 3449   6.571   3.032   0.029
 1162TIP3    H1 3450   6.484   3.073   0.031
 1162TIP3    H2 3451   6.632   3.105   0.045
 1163TIP3   OH2 3452   3.653   3.885   1.340
 1163TIP3    H1 3453   3.720   3.854   1.401
 1163TIP3    H2 3454   3.699   3.898   1.257
 1164TIP3   OH2 3455   3.646   6.497   1.776
 1164TIP3    H1 3456   3.741   6.499   1.770
 1164TIP3    H2 3457   3.616   6.531   1.691
 1165TIP3   OH2 3458   5.445   0.287   5.100
 1165TIP3    H1 3459   5.410   0.201   5.124
 1165TIP3    H2 3460   5.368   0.339   5.078
 1166TIP3   OH2 3461   3.267   3.569   5.228
 1166TIP3    H1 3462   3.243   3.611   5.145
 1166TIP3    H2 3463   3.356   3.535   5.213
 1167TIP3   OH2 3464   4.569   1.185   3.932
 1167TIP3    H1 3465   4.599   1.217   4.017
 1167TIP3    H2 3466   4.484   1.229   3.920
 1168TIP3   OH2 3467   6.997   0.802   3.555
 1168TIP3    H1 3468   7.043   0.886   3.563
 1168TIP3    H2 3469   6.933   0.817   3.485
 1169TIP3   OH2 3470   6.267   4.954   3.176
 1169TIP3    H1 3471   6.306   4.905   3.103
 1169TIP3    H2 3472   6.254   4.889   3.245
 1170TIP3   OH2 3473   3.414   4.630   2.537
 1170TIP3    H1 3474   3.467   4.554   2.560
 1170TIP3    H2 3475   3.350   4.637   2.608
 1171TIP3   OH2 3476   3.619   0.237   2.939
 1171TIP3    H1 3477   3.535   0.200   2.966
 1171TIP3    H2 3478   3.612   0.330   2.959
 1172TIP3   OH2 3479   3.088   5.518   3.185
 1172TIP3    H1 3480   3.179   5.490   3.197
 1172TIP3    H2 3481   3.051   5.454   3.124
 1173TIP3   OH2 3482   1.924   3.953   5.303
 1173TIP3    H1 3483   1.848   4.002   5.335
 1173TIP3    H2 3484   1.899   3.925   5.215
 1174TIP3   OH2 3485   5.227   1.129   1.062
 1174TIP3    H1 3486   5.161   1.103   0.997
 1174TIP3    H2 3487   5.310   1.097   1.027
 1175TIP3   OH2 3488   0.898   1.984   4.195
 1175TIP3    H1 3489   0.963   1.943   4.252
 1175TIP3    H2 3490   0.912   1.944   4.109
 1176TIP3   OH2 3491   2.070   3.256   0.833
 1176TIP3    H1 3492   2.148   3.310   0.827
 1176TIP3    H2 3493   1.998   3.319   0.841
 1177TIP3   OH2 3494   3.137   0.108   4.563
 1177TIP3    H1 3495   3.214   0.161   4.583
 1177TIP3    H2 3496   3.064   0.155   4.605
 1178TIP3   OH2 3497   0.898   2.047   3.765
 1178TIP3    H1 3498   0.901   2.099   3.684
 1178TIP3    H2 3499   0.839   2.096   3.823
 1179TIP3   OH2 3500   4.252   5.754   0.030
 1179TIP3    H1 3501   4.247   5.693  -0.044
 1179TIP3    H2 3502   4.323   5.720   0.084
 1180TIP3   OH2 3503   0.399   4.010   5.619
 1180TIP3    H1 3504   0.430   3.955   5.546
 1180TIP3    H2 3505   0.443   4.094   5.606
 1181TIP3   OH2 3506   1.889   2.333   0.669
 1181TIP3    H1 3507   1.855   2.413   0.707
 1181TIP3    H2 3508   1.819   2.302   0.612
 1182TIP3   OH2 3509   5.080   5.256   1.940
 1182TIP3    H1 3510   5.044   5.260   1.851
 1182TIP3    H2 3511   5.175   5.261   1.927
 1183TIP3   OH2 3512   2.885   3.129   1.756
 1183TIP3    H1 3513   2.861   3.037   1.746
 1183TIP3    H2 3514   2.885   3.163   1.666
 1184TIP3   OH2 3515   7.083   2.991   2.145
 1184TIP3    H1 3516   7.094   2.936   2.222
 1184TIP3    H2 3517   7.152   3.056   2.151
 1185TIP3   OH2 3518   6.067   6.087   0.478
 1185TIP3    H1 3519   6.110   6.096   0.563
 1185TIP3    H2 3520   6.047   5.994   0.471
 1186TIP3   OH2 3521   6.059   2.632   5.229
 1186TIP3    H1 3522   6.023   2.691   5.162
 1186TIP3    H2 3523   6.079   2.689   5.303
 1187TIP3   OH2 3524   6.898   5.037   5.556
 1187TIP3    H1 3525   6.969   4.995   5.507
 1187TIP3    H2 3526   6.818   5.001   5.518
 1188TIP3   OH2 3527   5.610   5.128   3.807
 1188TIP3    H1 3528   5.593   5.170   3.723
 1188TIP3    H2 3529   5.645   5.041   3.784
 1189TIP3   OH2 3530   1.342   5.654   1.763
 1189TIP3    H1 3531   1.396   5.661   1.842
 1189TIP3    H2 3532   1.334   5.560   1.747
 1190TIP3   OH2 3533   2.737   2.203   1.305
 1190TIP3    H1 3534   2.655   2.157   1.288
 1190TIP3    H2 3535   2.790   2.190   1.226
 1191TIP3   OH2 3536   5.148   5.543   0.161
 1191TIP3    H1 3537   5.181   5.587   0.240
 1191TIP3    H2 3538   5.225   5.534   0.105
 1192TIP3   OH2 3539   5.071   1.904   1.792
 1192TIP3    H1 3540   4.991   1.929   1.837
 1192TIP3    H2 3541   5.093   1.981   1.739
 1193TIP3   OH2 3542   3.041   2.165   5.063
 1193TIP3    H1 3543   3.038   2.095   4.999
 1193TIP3    H2 3544   3.068   2.242   5.013
 1194TIP3   OH2 3545   5.300   4.287   0.867
 1194TIP3    H1 3546   5.370   4.223   0.875
 1194TIP3    H2 3547   5.293   4.326   0.954
 1195TIP3   OH2 3548   6.903   2.954   2.710
 1195TIP3    H1 3549   6.926   3.038   2.669
 1195TIP3    H2 3550   6.833   2.919   2.656
 1196TIP3   OH2 3551   6.507   0.967   1.758
 1196TIP3    H1 3552   6.527   0.881   1.794
 1196TIP3    H2 3553   6.418   0.986   1.788
 1197TIP3   OH2 3554   2.749   1.952   1.869
 1197TIP3    H1 3555   2.717   1.956   1.959
 1197TIP3    H2 3556   2.748   1.859   1.848
 1198TIP3   OH2 3557   2.369   3.731   1.570
 1198TIP3    H1 3558   2.276   3.754   1.567
 1198TIP3    H2 3559   2.372   3.640   1.540
 1199TIP3   OH2 3560   3.646   5.085   1.282
 1199TIP3    H1 3561   3.623   5.015   1.344
 1199TIP3    H2 3562   3.693   5.149   1.335
 1200TIP3   OH2 3563   7.101   3.478   2.884
 1200TIP3    H1 3564   7.151   3.397   2.875
 1200TIP3    H2 3565   7.037   3.460   2.952
 1201TIP3   OH2 3566   2.261   4.018   5.851
 1201TIP3    H1 3567   2.249   3.929   5.817
 1201TIP3    H2 3568   2.340   4.050   5.808
 1202TIP3   OH2 3569   3.131   5.302   0.760
 1202TIP3    H1 3570   3.176   5.319   0.677
 1202TIP3    H2 3571   3.186   5.239   0.805
 1203TIP3   OH2 3572   0.557   4.740   4.859
 1203TIP3    H1 3573   0.482   4.682   4.874
 1203TIP3    H2 3574   0.573   4.781   4.944
 1204TIP3   OH2 3575   5.019   3.537   0.418
 1204TIP3    H1 3576   5.047   3.607   0.359
 1204TIP3    H2 3577   5.097   3.516   0.469
 1205TIP3   OH2 3578   4.154   5.648   2.740
 1205TIP3    H1 3579   4.201   5.571   2.709
 1205TIP3    H2 3580   4.169   5.650   2.834
 1206TIP3   OH2 3581   2.910   4.266   2.549
 1206TIP3    H1 3582   2.864   4.290   2.469
 1206TIP3    H2 3583   2.992   4.314   2.546
 1207TIP3   OH2 3584   3.737   4.033   4.163
 1207TIP3    H1 3585   3.675   4.021   4.091
 1207TIP3    H2 3586   3.682   4.039   4.241
 1208TIP3   OH2 3587   0.132   2.059   5.852
 1208TIP3    H1 3588   0.223   2.080   5.832
 1208TIP3    H2 3589   0.104   2.003   5.779
 1209TIP3   OH2 3590   5.066   0.257   5.230
 1209TIP3    H1 3591   5.123   0.186   5.201
 1209TIP3    H2 3592   4.979   0.231   5.200
 1210TIP3   OH2 3593   4.529   3.081   5.017
 1210TIP3    H1 3594   4.606   3.024   5.015
 1210TIP3    H2 3595   4.516   3.100   5.110
 1211TIP3   OH2 3596   0.809   5.137   0.863
 1211TIP3    H1 3597   0.887   5.101   0.821
 1211TIP3    H2 3598   0.737   5.089   0.823
 1212TIP3   OH2 3599   5.987   0.428   4.748
 1212TIP3    H1 3600   5.968   0.351   4.695
 1212TIP3    H2 3601   5.903   0.474   4.754
 1213TIP3   OH2 3602   1.446   0.261   2.801
 1213TIP3    H1 3603   1.457   0.214   2.884
 1213TIP3    H2 3604   1.492   0.343   2.814
 1214TIP3   OH2 3605   4.209   4.836   4.805
 1214TIP3    H1 3606   4.170   4.913   4.846
 1214TIP3    H2 3607   4.200   4.851   4.711
 1215TIP3   OH2 3608   5.984   2.285   0.690
 1215TIP3    H1 3609   6.050   2.353   0.698
 1215TIP3    H2 3610   6.032   2.210   0.653
 1216TIP3   OH2 3611   2.910   6.162   1.286
 1216TIP3    H1 3612   2.887   6.253   1.268
 1216TIP3    H2 3613   3.006   6.160   1.280
 1217TIP3   OH2 3614   0.533   6.192   1.209
 1217TIP3    H1 3615   0.485   6.151   1.282
 1217TIP3    H2 3616   0.467   6.244   1.163
 1218TIP3   OH2 3617   3.711   5.844   2.081
 1218TIP3    H1 3618   3.628   5.891   2.074
 1218TIP3    H2 3619   3.714   5.813   2.171
 1219TIP3   OH2 3620   2.239   0.152   2.457
 1219TIP3    H1 3621   2.173   0.178   2.521
 1219TIP3    H2 3622   2.189   0.128   2.379
 1220TIP3   OH2 3623   2.040   5.353   0.874
 1220TIP3    H1 3624   2.037   5.388   0.785
 1220TIP3    H2 3625   1.948   5.350   0.901
 1221TIP3   OH2 3626   0.286   3.163   3.186
 1221TIP3    H1 3627   0.224   3.094   3.213
 1221TIP3    H2 3628   0.262   3.181   3.095
 1222TIP3   OH2 3629   5.729   3.926   4.861
 1222TIP3    H1 3630   5.791   3.954   4.794
 1222TIP3    H2 3631   5.702   4.007   4.904
 1223TIP3   OH2 3632   4.682   3.985   3.062
 1223TIP3    H1 3633   4.692   4.080   3.062
 1223TIP3    H2 3634   4.590   3.970   3.042
 1224TIP3   OH2 3635   2.861   4.869   1.486
 1224TIP3    H1 3636   2.828   4.942   1.434
 1224TIP3    H2 3637   2.951   4.857   1.457
 1225TIP3   OH2 3638   6.172   2.660   3.200
 1225TIP3    H1 3639   6.083   2.674   3.168
 1225TIP3    H2 3640   6.208   2.593   3.142
 1226TIP3   OH2 3641   2.707   5.486   2.747
 1226TIP3    H1 3642   2.792   5.502   2.707
 1226TIP3    H2 3643   2.649   5.552   2.709
 1227TIP3   OH2 3644   5.487   4.501   1.936
 1227TIP3    H1 3645   5.427   4.551   1.993
 1227TIP3    H2 3646   5.537   4.568   1.890
 1228TIP3   OH2 3647   4.185   6.237   5.874
 1228TIP3    H1 3648   4.122   6.241   5.947
 1228TIP3    H2 3649   4.163   6.156   5.828
 1229TIP3   OH2 3650   6.541   4.563   2.404
 1229TIP3    H1 3651   6.578   4.487   2.360
 1229TIP3    H2 3652   6.457   4.577   2.361
 1230TIP3   OH2 3653   3.429   1.122   3.787
 1230TIP3    H1 3654   3.495   1.178   3.828
 1230TIP3    H2 3655   3.468   1.094   3.705
 1231TIP3   OH2 3656   7.169   4.543   4.719
 1231TIP3    H1 3657   7.074   4.531   4.728
 1231TIP3    H2 3658   7.178   4.625   4.672
 1232TIP3   OH2 3659   2.361   5.245   1.374
 1232TIP3    H1 3660   2.420   5.320   1.383
 1232TIP3    H2 3661   2.282   5.281   1.335
 1233TIP3   OH2 3662   0.458   2.741   3.636
 1233TIP3    H1 3663   0.533   2.689   3.607
 1233TIP3    H2 3664   0.497   2.821   3.672
 1234TIP3   OH2 3665   6.616   1.499   5.526
 1234TIP3    H1 3666   6.622   1.565   5.457
 1234TIP3    H2 3667   6.528   1.462   5.517
 1235TIP3   OH2 3668   1.662   2.793   3.624
 1235TIP3    H1 3669   1.710   2.767   3.703
 1235TIP3    H2 3670   1.572   2.804   3.653
 1236TIP3   OH2 3671   4.847   2.825   0.884
 1236TIP3    H1 3672   4.933   2.790   0.906
 1236TIP3    H2 3673   4.859   2.920   0.886
 1237TIP3   OH2 3674   5.215   0.992   3.202
 1237TIP3    H1 3675   5.148   0.986   3.270
 1237TIP3    H2 3676   5.191   0.924   3.139
 1238TIP3   OH2 3677   2.404   4.883   2.505
 1238TIP3    H1 3678   2.466   4.954   2.521
 1238TIP3    H2 3679   2.368   4.863   2.591
 1239TIP3   OH2 3680   4.828   6.125   2.009
 1239TIP3    H1 3681   4.733   6.125   2.023
 1239TIP3    H2 3682   4.850   6.034   1.993
 1240TIP3   OH2 3683   1.136   5.047   5.390
 1240TIP3    H1 3684   1.216   5.021   5.435
 1240TIP3    H2 3685   1.073   5.063   5.461
 1241TIP3   OH2 3686   4.664   6.024   5.457
 1241TIP3    H1 3687   4.590   6.005   5.514
 1241TIP3    H2 3688   4.718   5.945   5.460
 1242TIP3   OH2 3689   3.424   0.586   1.995
 1242TIP3    H1 3690   3.471   0.649   1.940
 1242TIP3    H2 3691   3.492   0.539   2.042
 1243TIP3   OH2 3692   5.568   4.624   5.884
 1243TIP3    H1 3693   5.551   4.530   5.879
 1243TIP3    H2 3694   5.587   4.641   5.976
 1244TIP3   OH2 3695   0.768   4.565   5.815
 1244TIP3    H1 3696   0.700   4.591   5.752
 1244TIP3    H2 3697   0.742   4.607   5.897
 1245TIP3   OH2 3698   6.564   1.591   5.202
 1245TIP3    H1 3699   6.618   1.535   5.147
 1245TIP3    H2 3700   6.624   1.661   5.230
 1246TIP3   OH2 3701   2.948   2.981   1.426
 1246TIP3    H1 3702   2.873   3.023   1.384
 1246TIP3    H2 3703   3.013   2.971   1.356
 1247TIP3   OH2 3704   3.472   5.751   5.525
 1247TIP3    H1 3705   3.500   5.807   5.597
 1247TIP3    H2 3706   3.436   5.673   5.568
 1248TIP3   OH2 3707   4.655   3.360   0.100
 1248TIP3    H1 3708   4.710   3.405   0.036
 1248TIP3    H2 3709   4.716   3.316   0.158
 1249TIP3   OH2 3710   1.037   0.336   2.282
 1249TIP3    H1 3711   1.096   0.403   2.316
 1249TIP3    H2 3712   1.023   0.277   2.355
 1250TIP3   OH2 3713   6.151   6.484   4.706
 1250TIP3    H1 3714   6.204   6.542   4.762
 1250TIP3    H2 3715   6.195   6.487   4.621
 1251TIP3   OH2 3716   1.007   0.215   3.605
 1251TIP3    H1 3717   1.013   0.264   3.687
 1251TIP3    H2 3718   1.062   0.139   3.619
 1252TIP3   OH2 3719   6.233   4.193   0.724
 1252TIP3    H1 3720   6.235   4.276   0.677
 1252TIP3    H2 3721   6.161   4.203   0.787
 1253TIP3   OH2 3722   2.545   4.200   1.568
 1253TIP3    H1 3723   2.577   4.232   1.652
 1253TIP3    H2 3724   2.528   4.107   1.584
 1254TIP3   OH2 3725   4.293   4.969   0.810
 1254TIP3    H1 3726   4.339   4.944   0.730
 1254TIP3    H2 3727   4.221   4.907   0.817
 1255TIP3   OH2 3728   3.975   0.333   3.548
 1255TIP3    H1 3729   3.916   0.269   3.588
 1255TIP3    H2 3730   3.918   0.408   3.528
 1256TIP3   OH2 3731   3.550   0.520   0.507
 1256TIP3    H1 3732   3.637   0.503   0.543
 1256TIP3    H2 3733   3.501   0.439   0.524
 1257TIP3   OH2 3734   1.816   3.343   0.470
 1257TIP3    H1 3735   1.799   3.436   0.485
 1257TIP3    H2 3736   1.908   3.331   0.494
 1258TIP3   OH2 3737   1.364   0.178   4.096
 1258TIP3    H1 3738   1.298   0.110   4.085
 1258TIP3    H2 3739   1.368   0.222   4.011
 1259TIP3   OH2 3740   5.232   0.516   5.419
 1259TIP3    H1 3741   5.302   0.526   5.354
 1259TIP3    H2 3742   5.274   0.535   5.502
 1260TIP3   OH2 3743   3.975   5.733   4.453
 1260TIP3    H1 3744   4.047   5.686   4.496
 1260TIP3    H2 3745   4.019   5.801   4.401
 1261TIP3   OH2 3746   3.849   1.172   1.352
 1261TIP3    H1 3747   3.890   1.197   1.435
 1261TIP3    H2 3748   3.772   1.227   1.346
 1262TIP3   OH2 3749   6.291   0.592   0.769
 1262TIP3    H1 3750   6.255   0.633   0.691
 1262TIP3    H2 3751   6.246   0.634   0.842
 1263TIP3   OH2 3752   0.153   6.527   4.033
 1263TIP3    H1 3753   0.163   6.609   3.984
 1263TIP3    H2 3754   0.096   6.550   4.107
 1264TIP3   OH2 3755   1.452   1.348   0.115
 1264TIP3    H1 3756   1.513   1.386   0.051
 1264TIP3    H2 3757   1.388   1.418   0.131
 1265TIP3   OH2 3758   7.194   4.345   0.546
 1265TIP3    H1 3759   7.120   4.307   0.499
 1265TIP3    H2 3760   7.245   4.391   0.479
 1266TIP3   OH2 3761   4.912   2.567   4.335
 1266TIP3    H1 3762   4.879   2.653   4.362
 1266TIP3    H2 3763   4.834   2.519   4.307
 1267TIP3   OH2 3764   0.487   5.546   0.480
 1267TIP3    H1 3765   0.406   5.565   0.433
 1267TIP3    H2 3766   0.476   5.458   0.514
 1268TIP3   OH2 3767   1.956   1.538   0.091
 1268TIP3    H1 3768   2.023   1.498   0.035
 1268TIP3    H2 3769   1.958   1.486   0.171
 1269TIP3   OH2 3770   6.936   0.245   5.395
 1269TIP3    H1 3771   7.002   0.205   5.453
 1269TIP3    H2 3772   6.942   0.194   5.314
 1270TIP3   OH2 3773   2.553   0.993   2.690
 1270TIP3    H1 3774   2.595   0.947   2.762
 1270TIP3    H2 3775   2.591   1.081   2.692
 1271TIP3   OH2 3776   1.972   3.999   1.280
 1271TIP3    H1 3777   1.963   4.070   1.344
 1271TIP3    H2 3778   1.918   4.027   1.206
 1272TIP3   OH2 3779   4.726   4.880   5.239
 1272TIP3    H1 3780   4.657   4.946   5.251
 1272TIP3    H2 3781   4.680   4.801   5.211
 1273TIP3   OH2 3782   0.986   1.893   3.965
 1273TIP3    H1 3783   0.969   1.964   3.903
 1273TIP3    H2 3784   0.931   1.821   3.935
 1274TIP3   OH2 3785   5.986   2.004   5.061
 1274TIP3    H1 3786   6.041   2.081   5.047
 1274TIP3    H2 3787   6.043   1.929   5.044
 1275TIP3   OH2 3788   5.684   1.005   3.532
 1275TIP3    H1 3789   5.748   0.972   3.468
 1275TIP3    H2 3790   5.600   0.970   3.502
 1276TIP3   OH2 3791   3.428   2.348   3.725
 1276TIP3    H1 3792   3.512   2.353   3.679
 1276TIP3    H2 3793   3.406   2.255   3.725
 1277TIP3   OH2 3794   5.337   3.922   0.093
 1277TIP3    H1 3795   5.304   3.978   0.163
 1277TIP3    H2 3796   5.432   3.930   0.099
 1278TIP3   OH2 3797   3.495   5.430   4.770
 1278TIP3    H1 3798   3.476   5.366   4.839
 1278TIP3    H2 3799   3.409   5.457   4.738
 1279TIP3   OH2 3800   5.916   2.272   4.435
 1279TIP3    H1 3801   5.837   2.245   4.390
 1279TIP3    H2 3802   5.960   2.190   4.459
 1280TIP3   OH2 3803   0.885   1.705   0.079
 1280TIP3    H1 3804   0.835   1.677   0.156
 1280TIP3    H2 3805   0.974   1.672   0.095
 1281TIP3   OH2 3806   6.357   1.925   4.966
 1281TIP3    H1 3807   6.300   1.998   4.944
 1281TIP3    H2 3808   6.323   1.892   5.049
 1282TIP3   OH2 3809   3.103   2.538   3.711
 1282TIP3    H1 3810   3.104   2.477   3.638
 1282TIP3    H2 3811   3.050   2.612   3.680
 1283TIP3   OH2 3812   1.173   3.502   0.433
 1283TIP3    H1 3813   1.106   3.550   0.385
 1283TIP3    H2 3814   1.217   3.567   0.487
 1284TIP3   OH2 3815   0.118   3.565   4.290
 1284TIP3    H1 3816   0.167   3.565   4.373
 1284TIP3    H2 3817   0.183   3.592   4.225
 1285TIP3   OH2 3818   5.115   2.427   1.914
 1285TIP3    H1 3819   5.194   2.391   1.954
 1285TIP3    H2 3820   5.119   2.521   1.932
 1286TIP3   OH2 3821   1.247   4.162   1.507
 1286TIP3    H1 3822   1.324   4.169   1.564
 1286TIP3    H2 3823   1.281   4.178   1.419
 1287TIP3   OH2 3824   5.227   4.998   3.748
 1287TIP3    H1 3825   5.254   4.955   3.829
 1287TIP3    H2 3826   5.308   5.008   3.698
 1288TIP3   OH2 3827   6.583   5.429   0.371
 1288TIP3    H1 3828   6.608   5.517   0.398
 1288TIP3    H2 3829   6.634   5.371   0.428
 1289TIP3   OH2 3830   6.970   0.580   1.483
 1289TIP3    H1 3831   6.971   0.642   1.410
 1289TIP3    H2 3832   6.913   0.509   1.453
 1290TIP3   OH2 3833   6.648   2.051   3.666
 1290TIP3    H1 3834   6.659   2.144   3.684
 1290TIP3    H2 3835   6.601   2.017   3.741
 1291TIP3   OH2 3836   4.399   6.273   1.764
 1291TIP3    H1 3837   4.478   6.229   1.734
 1291TIP3    H2 3838   4.400   6.264   1.859
 1292TIP3   OH2 3839   1.883   4.944   0.131
 1292TIP3    H1 3840   1.826   4.972   0.060
 1292TIP3    H2 3841   1.956   4.899   0.087
 1293TIP3   OH2 3842   4.308   5.931   0.340
 1293TIP3    H1 3843   4.239   5.996   0.327
 1293TIP3    H2 3844   4.375   5.953   0.275
 1294TIP3   OH2 3845   2.552   2.761   0.214
 1294TIP3    H1 3846   2.548   2.787   0.122
 1294TIP3    H2 3847   2.475   2.803   0.254
 1295TIP3   OH2 3848   4.425   1.319   1.442
 1295TIP3    H1 3849   4.344   1.354   1.405
 1295TIP3    H2 3850   4.487   1.391   1.437
 1296TIP3   OH2 3851   0.570   6.262   0.366
 1296TIP3    H1 3852   0.578   6.333   0.429
 1296TIP3    H2 3853   0.623   6.291   0.291
 1297TIP3   OH2 3854   1.178   1.374   0.370
 1297TIP3    H1 3855   1.104   1.318   0.349
 1297TIP3    H2 3856   1.170   1.391   0.464
 1298TIP3   OH2 3857   5.784   2.714   4.749
 1298TIP3    H1 3858   5.689   2.721   4.764
 1298TIP3    H2 3859   5.794   2.631   4.703
 1299TIP3   OH2 3860   1.398   0.880   2.574
 1299TIP3    H1 3861   1.404   0.864   2.479
 1299TIP3    H2 3862   1.317   0.930   2.584
 1300TIP3   OH2 3863   3.487   1.143   1.299
 1300TIP3    H1 3864   3.410   1.174   1.252
 1300TIP3    H2 3865   3.530   1.222   1.331
 1301TIP3   OH2 3866   2.342   6.350   2.561
 1301TIP3    H1 3867   2.252   6.329   2.536
 1301TIP3    H2 3868   2.341   6.353   2.656
 1302TIP3   OH2 3869   5.998   4.701   5.207
 1302TIP3    H1 3870   5.986   4.700   5.112
 1302TIP3    H2 3871   5.910   4.715   5.242
 1303TIP3   OH2 3872   1.839   0.062   0.482
 1303TIP3    H1 3873   1.759   0.035   0.527
 1303TIP3    H2 3874   1.876  -0.020   0.447
 1304TIP3   OH2 3875   2.896   5.308   1.427
 1304TIP3    H1 3876   2.839   5.379   1.456
 1304TIP3    H2 3877   2.942   5.345   1.352
 1305TIP3   OH2 3878   0.471   1.307   2.805
 1305TIP3    H1 3879   0.517   1.381   2.844
 1305TIP3    H2 3880   0.513   1.230   2.843
 1306TIP3   OH2 3881   3.459   3.248   2.149
 1306TIP3    H1 3882   3.551   3.261   2.173
 1306TIP3    H2 3883   3.409   3.282   2.223
 1307TIP3   OH2 3884   6.624   3.131   0.995
 1307TIP3    H1 3885   6.540   3.146   1.038
 1307TIP3    H2 3886   6.605   3.139   0.902
 1308TIP3   OH2 3887   4.345   1.347   0.935
 1308TIP3    H1 3888   4.404   1.274   0.913
 1308TIP3    H2 3889   4.261   1.305   0.952
 1309TIP3   OH2 3890   5.123   4.353   3.563
 1309TIP3    H1 3891   5.206   4.380   3.525
 1309TIP3    H2 3892   5.099   4.274   3.515
 1310TIP3   OH2 3893   6.625   3.220   2.320
 1310TIP3    H1 3894   6.603   3.157   2.388
 1310TIP3    H2 3895   6.600   3.176   2.238
 1311TIP3   OH2 3896   6.282   5.375   3.228
 1311TIP3    H1 3897   6.256   5.367   3.320
 1311TIP3    H2 3898   6.272   5.287   3.192
 1312TIP3   OH2 3899   6.929   1.309   4.557
 1312TIP3    H1 3900   6.928   1.250   4.632
 1312TIP3    H2 3901   6.975   1.261   4.488
 1313TIP3   OH2 3902   0.795   5.613   3.404
 1313TIP3    H1 3903   0.847   5.667   3.464
 1313TIP3    H2 3904   0.817   5.523   3.428
 1314TIP3   OH2 3905   4.579   1.054   2.272
 1314TIP3    H1 3906   4.669   1.025   2.258
 1314TIP3    H2 3907   4.578   1.087   2.362
 1315TIP3   OH2 3908   1.288   5.571   3.928
 1315TIP3    H1 3909   1.214   5.591   3.986
 1315TIP3    H2 3910   1.363   5.564   3.986
 1316TIP3   OH2 3911   1.092   4.348   1.105
 1316TIP3    H1 3912   1.062   4.332   1.195
 1316TIP3    H2 3913   1.187   4.335   1.109
 1317TIP3   OH2 3914   0.804   5.241   1.311
 1317TIP3    H1 3915   0.727   5.193   1.342
 1317TIP3    H2 3916   0.878   5.185   1.334
 1318TIP3   OH2 3917   2.407   3.102   0.870
 1318TIP3    H1 3918   2.446   3.073   0.787
 1318TIP3    H2 3919   2.330   3.046   0.880
 1319TIP3   OH2 3920   0.965   3.913   1.787
 1319TIP3    H1 3921   0.981   3.884   1.698
 1319TIP3    H2 3922   0.898   3.852   1.820
 1320TIP3   OH2 3923   7.102   6.584   1.280
 1320TIP3    H1 3924   7.071   6.494   1.279
 1320TIP3    H2 3925   7.085   6.615   1.369
 1321TIP3   OH2 3926   3.213   2.469   2.906
 1321TIP3    H1 3927   3.283   2.455   2.842
 1321TIP3    H2 3928   3.251   2.438   2.989
 1322TIP3   OH2 3929   3.311   2.049   0.418
 1322TIP3    H1 3930   3.336   2.100   0.495
 1322TIP3    H2 3931   3.283   2.115   0.354
 1323TIP3   OH2 3932   5.863   3.783   2.584
 1323TIP3    H1 3933   5.783   3.753   2.626
 1323TIP3    H2 3934   5.880   3.718   2.516
 1324TIP3   OH2 3935   2.235   4.260   0.035
 1324TIP3    H1 3936   2.322   4.227   0.057
 1324TIP3    H2 3937   2.187   4.259   0.118
 1325TIP3   OH2 3938   1.045   3.291   0.571
 1325TIP3    H1 3939   1.047   3.368   0.515
 1325TIP3    H2 3940   1.069   3.323   0.658
 1326TIP3   OH2 3941   6.079   5.366   3.836
 1326TIP3    H1 3942   6.148   5.320   3.883
 1326TIP3    H2 3943   6.115   5.453   3.820
 1327TIP3   OH2 3944   1.772   2.537   5.077
 1327TIP3    H1 3945   1.799   2.446   5.088
 1327TIP3    H2 3946   1.833   2.573   5.013
 1328TIP3   OH2 3947   1.254   0.063   3.262
 1328TIP3    H1 3948   1.204   0.025   3.334
 1328TIP3    H2 3949   1.319  -0.004   3.240
 1329TIP3   OH2 3950   4.753   0.183   3.873
 1329TIP3    H1 3951   4.712   0.269   3.877
 1329TIP3    H2 3952   4.753   0.161   3.779
 1330TIP3   OH2 3953   2.496   0.063   3.556
 1330TIP3    H1 3954   2.545   0.118   3.616
 1330TIP3    H2 3955   2.513  -0.027   3.586
 1331TIP3   OH2 3956   1.518   3.148   2.068
 1331TIP3    H1 3957   1.507   3.054   2.053
 1331TIP3    H2 3958   1.431   3.178   2.092
 1332TIP3   OH2 3959   5.589   5.677   2.497
 1332TIP3    H1 3960   5.504   5.647   2.466
 1332TIP3    H2 3961   5.571   5.760   2.541
 1333TIP3   OH2 3962   2.360   5.739   0.789
 1333TIP3    H1 3963   2.412   5.801   0.841
 1333TIP3    H2 3964   2.389   5.753   0.699
 1334TIP3   OH2 3965   2.435   0.544   5.000
 1334TIP3    H1 3966   2.344   0.526   5.021
 1334TIP3    H2 3967   2.452   0.630   5.039
 1335TIP3   OH2 3968   3.975   2.849   4.789
 1335TIP3    H1 3969   3.906   2.790   4.760
 1335TIP3    H2 3970   4.008   2.890   4.709
 1336TIP3   OH2 3971   5.406   2.902   4.579
 1336TIP3    H1 3972   5.423   2.881   4.487
 1336TIP3    H2 3973   5.433   2.825   4.627
 1337TIP3   OH2 3974   5.858   3.120   2.313
 1337TIP3    H1 3975   5.824   3.139   2.401
 1337TIP3    H2 3976   5.819   3.188   2.258
 1338TIP3   OH2 3977   1.134   3.232   4.425
 1338TIP3    H1 3978   1.174   3.315   4.452
 1338TIP3    H2 3979   1.058   3.222   4.482
 1339TIP3   OH2 3980   1.753   5.404   3.621
 1339TIP3    H1 3981   1.848   5.412   3.622
 1339TIP3    H2 3982   1.728   5.411   3.714
 1340TIP3   OH2 3983   2.792   0.382   1.719
 1340TIP3    H1 3984   2.758   0.377   1.630
 1340TIP3    H2 3985   2.800   0.291   1.747
 1341TIP3   OH2 3986   1.781   1.740   0.177
 1341TIP3    H1 3987   1.694   1.733   0.140
 1341TIP3    H2 3988   1.830   1.666   0.141
 1342TIP3   OH2 3989   2.913   0.391   5.145
 1342TIP3    H1 3990   2.873   0.368   5.229
 1342TIP3    H2 3991   2.841   0.388   5.082
 1343TIP3   OH2 3992   4.554   1.105   1.619
 1343TIP3    H1 3993   4.503   1.175   1.577
 1343TIP3    H2 3994   4.494   1.067   1.683
 1344TIP3   OH2 3995   5.243   2.148   1.674
 1344TIP3    H1 3996   5.239   2.212   1.603
 1344TIP3    H2 3997   5.210   2.196   1.751
 1345TIP3   OH2 3998   3.932   3.099   0.649
 1345TIP3    H1 3999   4.012   3.141   0.617
 1345TIP3    H2 4000   3.862   3.138   0.597
 1346TIP3   OH2 4001   7.151   1.509   4.966
 1346TIP3    H1 4002   7.192   1.595   4.962
 1346TIP3    H2 4003   7.073   1.516   4.911
 1347TIP3   OH2 4004   0.091   3.865   0.593
 1347TIP3    H1 4005   0.140   3.940   0.559
 1347TIP3    H2 4006   0.023   3.850   0.527
 1348TIP3   OH2 4007   1.231   3.942   4.240
 1348TIP3    H1 4008   1.291   4.015   4.228
 1348TIP3    H2 4009   1.144   3.981   4.239
 1349TIP3   OH2 4010   2.312   3.045   4.257
 1349TIP3    H1 4011   2.226   3.047   4.214
 1349TIP3    H2 4012   2.302   3.102   4.333
 1350TIP3   OH2 4013   1.726   4.241   3.285
 1350TIP3    H1 4014   1.668   4.317   3.275
 1350TIP3    H2 4015   1.733   4.205   3.197
 1351TIP3   OH2 4016   6.037   6.056   4.957
 1351TIP3    H1 4017   5.948   6.023   4.966
 1351TIP3    H2 4018   6.026   6.145   4.923
 1352TIP3   OH2 4019   5.193   0.512   1.341
 1352TIP3    H1 4020   5.266   0.483   1.396
 1352TIP3    H2 4021   5.136   0.561   1.401
 1353TIP3   OH2 4022   4.586   2.885   3.622
 1353TIP3    H1 4023   4.495   2.856   3.612
 1353TIP3    H2 4024   4.637   2.828   3.565
 1354TIP3   OH2 4025   2.910   4.413   5.799
 1354TIP3    H1 4026   2.995   4.382   5.770
 1354TIP3    H2 4027   2.879   4.346   5.860
 1355TIP3   OH2 4028   4.393   2.488   2.894
 1355TIP3    H1 4029   4.320   2.549   2.905
 1355TIP3    H2 4030   4.384   2.458   2.803
 1356TIP3   OH2 4031   1.365   4.112   3.660
 1356TIP3    H1 4032   1.380   4.104   3.565
 1356TIP3    H2 4033   1.374   4.205   3.678
 1357TIP3   OH2 4034   0.541   4.343   1.410
 1357TIP3    H1 4035   0.518   4.436   1.416
 1357TIP3    H2 4036   0.560   4.330   1.317
 1358TIP3   OH2 4037   2.671   5.209   2.761
 1358TIP3    H1 4038   2.633   5.295   2.743
 1358TIP3    H2 4039   2.737   5.197   2.693
 1359TIP3   OH2 4040   0.143   3.006   4.619
 1359TIP3    H1 4041   0.179   3.020   4.707
 1359TIP3    H2 4042   0.050   2.988   4.634
 1360TIP3   OH2 4043   5.424   0.645   1.597
 1360TIP3    H1 4044   5.466   0.630   1.512
 1360TIP3    H2 4045   5.371   0.566   1.612
 1361TIP3   OH2 4046   5.867   2.067   2.333
 1361TIP3    H1 4047   5.832   1.980   2.315
 1361TIP3    H2 4048   5.876   2.070   2.428
 1362TIP3   OH2 4049   0.618   3.075   0.277
 1362TIP3    H1 4050   0.541   3.022   0.296
 1362TIP3    H2 4051   0.679   3.015   0.234
 1363TIP3   OH2 4052   0.293   3.604   3.815
 1363TIP3    H1 4053   0.334   3.518   3.823
 1363TIP3    H2 4054   0.365   3.666   3.823
 1364TIP3   OH2 4055   2.470   6.673   0.228
 1364TIP3    H1 4056   2.400   6.639   0.284
 1364TIP3    H2 4057   2.549   6.669   0.283
 1365TIP3   OH2 4058   1.763   2.846   2.092
 1365TIP3    H1 4059   1.788   2.901   2.167
 1365TIP3    H2 4060   1.843   2.841   2.039
 1366TIP3   OH2 4061   0.880   1.299   0.829
 1366TIP3    H1 4062   0.793   1.338   0.840
 1366TIP3    H2 4063   0.874   1.215   0.874
 1367TIP3   OH2 4064   5.166   0.171   3.263
 1367TIP3    H1 4065   5.161   0.266   3.276
 1367TIP3    H2 4066   5.260   0.154   3.251
 1368TIP3   OH2 4067   0.383   6.161   0.563
 1368TIP3    H1 4068   0.320   6.233   0.568
 1368TIP3    H2 4069   0.428   6.174   0.479
 1369TIP3   OH2 4070   5.107   4.923   3.447
 1369TIP3    H1 4071   5.101   4.850   3.385
 1369TIP3    H2 4072   5.184   4.903   3.501
 1370TIP3   OH2 4073   6.613   0.625   3.938
 1370TIP3    H1 4074   6.560   0.584   4.007
 1370TIP3    H2 4075   6.669   0.687   3.985
 1371TIP3   OH2 4076   2.870   4.776   4.979
 1371TIP3    H1 4077   2.781   4.804   4.956
 1371TIP3    H2 4078   2.918   4.858   4.990
 1372TIP3   OH2 4079   2.706   1.248   0.872
 1372TIP3    H1 4080   2.688   1.308   0.945
 1372TIP3    H2 4081   2.753   1.302   0.808
 1373TIP3   OH2 4082   0.353   4.575   4.938
 1373TIP3    H1 4083   0.304   4.540   4.864
 1373TIP3    H2 4084   0.352   4.505   5.003
 1374TIP3   OH2 4085   5.862   4.066   3.641
 1374TIP3    H1 4086   5.955   4.080   3.626
 1374TIP3    H2 4087   5.837   4.137   3.701
 1375TIP3   OH2 4088   1.507   6.473   5.266
 1375TIP3    H1 4089   1.529   6.433   5.182
 1375TIP3    H2 4090   1.445   6.412   5.306
 1376TIP3   OH2 4091   3.562   5.675   3.868
 1376TIP3    H1 4092   3.531   5.670   3.777
 1376TIP3    H2 4093   3.588   5.586   3.889
 1377TIP3   OH2 4094   0.170   4.261   3.004
 1377TIP3    H1 4095   0.209   4.292   3.085
 1377TIP3    H2 4096   0.182   4.166   3.007
 1378TIP3   OH2 4097   1.673   0.743   2.959
 1378TIP3    H1 4098   1.677   0.718   3.052
 1378TIP3    H2 4099   1.753   0.793   2.945
 1379TIP3   OH2 4100   2.687   3.733   3.532
 1379TIP3    H1 4101   2.734   3.795   3.589
 1379TIP3    H2 4102   2.752   3.707   3.467
 1380TIP3   OH2 4103   1.587   0.520   1.736
 1380TIP3    H1 4104   1.597   0.613   1.716
 1380TIP3    H2 4105   1.557   0.481   1.654
 1381TIP3   OH2 4106   4.619   4.422   4.408
 1381TIP3    H1 4107   4.574   4.438   4.325
 1381TIP3    H2 4108   4.584   4.487   4.468
 1382TIP3   OH2 4109   4.455   0.607   0.195
 1382TIP3    H1 4110   4.383   0.668   0.212
 1382TIP3    H2 4111   4.485   0.580   0.281
 1383TIP3   OH2 4112   0.806   6.325   2.287
 1383TIP3    H1 4113   0.737   6.383   2.321
 1383TIP3    H2 4114   0.828   6.268   2.360
 1384TIP3   OH2 4115   2.160   1.603   1.035
 1384TIP3    H1 4116   2.171   1.698   1.041
 1384TIP3    H2 4117   2.079   1.585   1.083
 1385TIP3   OH2 4118   0.772   6.390   0.942
 1385TIP3    H1 4119   0.686   6.349   0.954
 1385TIP3    H2 4120   0.804   6.405   1.031
 1386TIP3   OH2 4121   5.440   6.064   4.994
 1386TIP3    H1 4122   5.429   6.080   4.900
 1386TIP3    H2 4123   5.398   5.979   5.008
 1387TIP3   OH2 4124   6.632   0.743   2.880
 1387TIP3    H1 4125   6.596   0.745   2.791
 1387TIP3    H2 4126   6.559   0.715   2.935
 1388TIP3   OH2 4127   1.592   6.105   5.186
 1388TIP3    H1 4128   1.637   6.106   5.271
 1388TIP3    H2 4129   1.653   6.061   5.127
 1389TIP3   OH2 4130   0.430   2.343   1.578
 1389TIP3    H1 4131   0.415   2.256   1.616
 1389TIP3    H2 4132   0.508   2.331   1.524
 1390TIP3   OH2 4133   2.423   3.346   5.385
 1390TIP3    H1 4134   2.404   3.252   5.384
 1390TIP3    H2 4135   2.447   3.365   5.476
 1391TIP3   OH2 4136   5.581   6.170   5.498
 1391TIP3    H1 4137   5.565   6.212   5.413
 1391TIP3    H2 4138   5.541   6.084   5.490
 1392TIP3   OH2 4139   5.028   2.320   3.822
 1392TIP3    H1 4140   5.008   2.281   3.907
 1392TIP3    H2 4141   5.005   2.412   3.832
 1393TIP3   OH2 4142   6.219   1.278   5.741
 1393TIP3    H1 4143   6.149   1.320   5.792
 1393TIP3    H2 4144   6.177   1.200   5.704
 1394TIP3   OH2 4145   1.294   6.175   1.704
 1394TIP3    H1 4146   1.313   6.138   1.791
 1394TIP3    H2 4147   1.234   6.112   1.665
 1395TIP3   OH2 4148   6.061   4.772   1.085
 1395TIP3    H1 4149   6.033   4.729   1.166
 1395TIP3    H2 4150   6.139   4.821   1.110
 1396TIP3   OH2 4151   1.440   0.860   4.053
 1396TIP3    H1 4152   1.399   0.855   4.140
 1396TIP3    H2 4153   1.422   0.775   4.013
 1397TIP3   OH2 4154   2.625   6.583   0.887
 1397TIP3    H1 4155   2.638   6.668   0.929
 1397TIP3    H2 4156   2.629   6.520   0.959
 1398TIP3   OH2 4157   6.535   6.407   1.222
 1398TIP3    H1 4158   6.515   6.315   1.237
 1398TIP3    H2 4159   6.472   6.454   1.276
 1399TIP3   OH2 4160   3.488   4.079   4.829
 1399TIP3    H1 4161   3.488   3.983   4.827
 1399TIP3    H2 4162   3.497   4.102   4.921
 1400TIP3   OH2 4163   3.503   5.226   3.344
 1400TIP3    H1 4164   3.472   5.142   3.378
 1400TIP3    H2 4165   3.559   5.260   3.413
 1401TIP3   OH2 4166   0.199   6.202   3.657
 1401TIP3    H1 4167   0.151   6.228   3.736
 1401TIP3    H2 4168   0.135   6.209   3.587
 1402TIP3   OH2 4169   1.174   6.068   3.567
 1402TIP3    H1 4170   1.092   6.020   3.559
 1402TIP3    H2 4171   1.230   6.011   3.619
 1403TIP3   OH2 4172   6.919   5.439   1.698
 1403TIP3    H1 4173   6.847   5.501   1.707
 1403TIP3    H2 4174   6.937   5.409   1.788
 1404TIP3   OH2 4175   4.485   5.290   3.417
 1404TIP3    H1 4176   4.551   5.357   3.401
 1404TIP3    H2 4177   4.536   5.213   3.444
 1405TIP3   OH2 4178   6.727   0.761   4.763
 1405TIP3    H1 4179   6.809   0.778   4.717
 1405TIP3    H2 4180   6.701   0.846   4.799
 1406TIP3   OH2 4181   5.375   0.629   2.524
 1406TIP3    H1 4182   5.306   0.671   2.473
 1406TIP3    H2 4183   5.422   0.575   2.461
 1407TIP3   OH2 4184   1.313   4.871   2.401
 1407TIP3    H1 4185   1.333   4.782   2.372
 1407TIP3    H2 4186   1.324   4.867   2.497
 1408TIP3   OH2 4187   6.937   3.514   5.820
 1408TIP3    H1 4188   6.973   3.596   5.853
 1408TIP3    H2 4189   6.999   3.447   5.848
 1409TIP3   OH2 4190   3.961   6.125   4.049
 1409TIP3    H1 4191   3.951   6.155   4.140
 1409TIP3    H2 4192   3.974   6.031   4.057
 1410TIP3   OH2 4193   5.182   2.598   4.341
 1410TIP3    H1 4194   5.087   2.586   4.347
 1410TIP3    H2 4195   5.193   2.688   4.311
 1411TIP3   OH2 4196   6.113   2.676   4.093
 1411TIP3    H1 4197   6.085   2.590   4.061
 1411TIP3    H2 4198   6.123   2.728   4.014
 1412TIP3   OH2 4199   4.553   0.058   5.033
 1412TIP3    H1 4200   4.484   0.122   5.046
 1412TIP3    H2 4201   4.628   0.093   5.081
 1413TIP3   OH2 4202   3.772   0.058   4.258
 1413TIP3    H1 4203   3.744   0.148   4.251
 1413TIP3    H2 4204   3.832   0.057   4.333
 1414TIP3   OH2 4205   3.405   6.370   0.257
 1414TIP3    H1 4206   3.370   6.457   0.238
 1414TIP3    H2 4207   3.404   6.326   0.172
 1415TIP3   OH2 4208   6.642   0.445   1.334
 1415TIP3    H1 4209   6.622   0.533   1.303
 1415TIP3    H2 4210   6.582   0.388   1.286
 1416TIP3   OH2 4211   6.252   2.556   3.750
 1416TIP3    H1 4212   6.262   2.543   3.656
 1416TIP3    H2 4213   6.266   2.650   3.763
 1417TIP3   OH2 4214   3.281   1.318   0.688
 1417TIP3    H1 4215   3.239   1.342   0.771
 1417TIP3    H2 4216   3.208   1.297   0.630
 1418TIP3   OH2 4217   3.809   5.711   5.204
 1418TIP3    H1 4218   3.840   5.687   5.291
 1418TIP3    H2 4219   3.723   5.750   5.219
 1419TIP3   OH2 4220   6.571   2.842   4.808
 1419TIP3    H1 4221   6.628   2.768   4.831
 1419TIP3    H2 4222   6.581   2.852   4.714
 1420TIP3   OH2 4223   3.918   6.167   5.655
 1420TIP3    H1 4224   3.985   6.107   5.687
 1420TIP3    H2 4225   3.962   6.223   5.592
 1421TIP3   OH2 4226   5.902   5.880   1.387
 1421TIP3    H1 4227   5.978   5.896   1.331
 1421TIP3    H2 4228   5.889   5.963   1.433
 1422TIP3   OH2 4229   1.364   6.287   2.963
 1422TIP3    H1 4230   1.429   6.243   3.018
 1422TIP3    H2 4231   1.319   6.347   3.022
 1423TIP3   OH2 4232   1.668   5.894   4.654
 1423TIP3    H1 4233   1.622   5.924   4.732
 1423TIP3    H2 4234   1.758   5.924   4.664
 1424TIP3   OH2 4235   6.366   2.498   0.509
 1424TIP3    H1 4236   6.373   2.583   0.467
 1424TIP3    H2 4237   6.280   2.499   0.551
 1425TIP3   OH2 4238   2.015   3.433   5.070
 1425TIP3    H1 4239   2.007   3.338   5.062
 1425TIP3    H2 4240   2.023   3.449   5.164
 1426TIP3   OH2 4241   6.596   6.088   2.953
 1426TIP3    H1 4242   6.598   6.002   2.911
 1426TIP3    H2 4243   6.684   6.124   2.940
 1427TIP3   OH2 4244   5.951   1.829   3.959
 1427TIP3    H1 4245   6.017   1.773   3.918
 1427TIP3    H2 4246   5.940   1.793   4.046
 1428TIP3   OH2 4247   5.198   5.962   3.329
 1428TIP3    H1 4248   5.107   5.961   3.359
 1428TIP3    H2 4249   5.248   5.929   3.404
 1429TIP3   OH2 4250   2.582   1.530   5.214
 1429TIP3    H1 4251   2.558   1.602   5.156
 1429TIP3    H2 4252   2.631   1.469   5.159
 1430TIP3   OH2 4253   1.051   2.286   0.367
 1430TIP3    H1 4254   1.049   2.361   0.425
 1430TIP3    H2 4255   1.028   2.322   0.281
 1431TIP3   OH2 4256   0.853   5.809   5.815
 1431TIP3    H1 4257   0.866   5.741   5.749
 1431TIP3    H2 4258   0.940   5.848   5.827
 1432TIP3   OH2 4259   2.666   6.088   1.762
 1432TIP3    H1 4260   2.662   5.994   1.777
 1432TIP3    H2 4261   2.675   6.097   1.668
 1433TIP3   OH2 4262   0.178   5.452   1.187
 1433TIP3    H1 4263   0.179   5.532   1.239
 1433TIP3    H2 4264   0.254   5.402   1.219
 1434TIP3   OH2 4265   1.172   1.835   4.641
 1434TIP3    H1 4266   1.260   1.869   4.630
 1434TIP3    H2 4267   1.142   1.872   4.724
 1435TIP3   OH2 4268   3.280   1.884   5.651
 1435TIP3    H1 4269   3.235   1.911   5.570
 1435TIP3    H2 4270   3.278   1.962   5.706
 1436TIP3   OH2 4271   0.299   4.466   0.551
 1436TIP3    H1 4272   0.248   4.412   0.489
 1436TIP3    H2 4273   0.359   4.404   0.592
 1437TIP3   OH2 4274   2.583   5.144   0.409
 1437TIP3    H1 4275   2.678   5.151   0.403
 1437TIP3    H2 4276   2.568   5.053   0.436
 1438TIP3   OH2 4277   0.847   5.809   4.010
 1438TIP3    H1 4278   0.840   5.767   4.096
 1438TIP3    H2 4279   0.773   5.775   3.961
 1439TIP3   OH2 4280   2.323   2.805   2.256
 1439TIP3    H1 4281   2.400   2.841   2.299
 1439TIP3    H2 4282   2.341   2.711   2.249
 1440TIP3   OH2 4283   0.821   4.192   5.464
 1440TIP3    H1 4284   0.834   4.125   5.397
 1440TIP3    H2 4285   0.794   4.270   5.416
 1441TIP3   OH2 4286   0.547   4.495   2.208
 1441TIP3    H1 4287   0.494   4.476   2.285
 1441TIP3    H2 4288   0.600   4.417   2.196
 1442TIP3   OH2 4289   4.489   2.748   4.577
 1442TIP3    H1 4290   4.435   2.793   4.642
 1442TIP3    H2 4291   4.512   2.817   4.514
 1443TIP3   OH2 4292   3.497   0.838   1.446
 1443TIP3    H1 4293   3.540   0.870   1.367
 1443TIP3    H2 4294   3.547   0.877   1.518
 1444TIP3   OH2 4295   1.252   5.281   3.068
 1444TIP3    H1 4296   1.242   5.269   2.974
 1444TIP3    H2 4297   1.343   5.260   3.086
 1445TIP3   OH2 4298   3.834   0.831   4.764
 1445TIP3    H1 4299   3.916   0.876   4.744
 1445TIP3    H2 4300   3.843   0.805   4.856
 1446TIP3   OH2 4301   5.876   4.352   2.167
 1446TIP3    H1 4302   5.947   4.371   2.106
 1446TIP3    H2 4303   5.843   4.438   2.193
 1447TIP3   OH2 4304   4.570   5.877   4.565
 1447TIP3    H1 4305   4.528   5.821   4.499
 1447TIP3    H2 4306   4.561   5.828   4.647
 1448TIP3   OH2 4307   5.528   2.527   0.563
 1448TIP3    H1 4308   5.604   2.487   0.523
 1448TIP3    H2 4309   5.540   2.621   0.549
 1449TIP3   OH2 4310   1.306   0.867   0.502
 1449TIP3    H1 4311   1.328   0.842   0.413
 1449TIP3    H2 4312   1.260   0.790   0.538
 1450TIP3   OH2 4313   3.793   6.730   2.550
 1450TIP3    H1 4314   3.775   6.664   2.617
 1450TIP3    H2 4315   3.819   6.679   2.473
 1451TIP3   OH2 4316   0.794   3.117   3.663
 1451TIP3    H1 4317   0.869   3.079   3.708
 1451TIP3    H2 4318   0.826   3.200   3.628
 1452TIP3   OH2 4319   6.404   5.005   3.811
 1452TIP3    H1 4320   6.482   5.045   3.850
 1452TIP3    H2 4321   6.355   5.078   3.774
 1453TIP3   OH2 4322   2.991   6.499   1.587
 1453TIP3    H1 4323   2.944   6.420   1.612
 1453TIP3    H2 4324   2.977   6.559   1.660
 1454TIP3   OH2 4325   4.919   4.027   5.538
 1454TIP3    H1 4326   4.852   3.981   5.588
 1454TIP3    H2 4327   4.983   3.960   5.516
 1455TIP3   OH2 4328   0.205   4.091   0.350
 1455TIP3    H1 4329   0.283   4.038   0.339
 1455TIP3    H2 4330   0.224   4.172   0.304
 1456TIP3   OH2 4331   2.261   4.634   3.825
 1456TIP3    H1 4332   2.234   4.549   3.791
 1456TIP3    H2 4333   2.347   4.619   3.864
 1457TIP3   OH2 4334   3.606   6.059   5.733
 1457TIP3    H1 4335   3.617   6.076   5.827
 1457TIP3    H2 4336   3.695   6.066   5.698
 1458TIP3   OH2 4337   3.096   0.587   4.064
 1458TIP3    H1 4338   3.064   0.549   4.146
 1458TIP3    H2 4339   3.062   0.529   3.996
 1459TIP3   OH2 4340   5.914   0.075   0.884
 1459TIP3    H1 4341   5.904   0.170   0.883
 1459TIP3    H2 4342   6.006   0.060   0.905
 1460TIP3   OH2 4343   0.472   4.148   2.183
 1460TIP3    H1 4344   0.497   4.059   2.156
 1460TIP3    H2 4345   0.554   4.197   2.182
 1461TIP3   OH2 4346   0.705   1.825   5.040
 1461TIP3    H1 4347   0.755   1.880   5.101
 1461TIP3    H2 4348   0.628   1.798   5.091
 1462TIP3   OH2 4349   6.062   4.127   4.368
 1462TIP3    H1 4350   6.019   4.212   4.358
 1462TIP3    H2 4351   6.116   4.137   4.446
 1463TIP3   OH2 4352   6.949   1.507   4.786
 1463TIP3    H1 4353   6.988   1.432   4.740
 1463TIP3    H2 4354   6.939   1.574   4.717
 1464TIP3   OH2 4355   6.424   6.144   1.275
 1464TIP3    H1 4356   6.333   6.172   1.279
 1464TIP3    H2 4357   6.424   6.071   1.213
 1465TIP3   OH2 4358   3.621   2.920   3.237
 1465TIP3    H1 4359   3.575   2.940   3.155
 1465TIP3    H2 4360   3.567   2.960   3.305
 1466TIP3   OH2 4361   2.331   2.329   2.466
 1466TIP3    H1 4362   2.280   2.408   2.481
 1466TIP3    H2 4363   2.422   2.360   2.457
 1467TIP3   OH2 4364   2.254   1.127   2.266
 1467TIP3    H1 4365   2.348   1.140   2.271
 1467TIP3    H2 4366   2.243   1.050   2.211
 1468TIP3   OH2 4367   2.969   4.024   5.842
 1468TIP3    H1 4368   2.912   4.008   5.767
 1468TIP3    H2 4369   3.057   4.007   5.809
 1469TIP3   OH2 4370   6.812   0.799   3.121
 1469TIP3    H1 4371   6.750   0.769   3.054
 1469TIP3    H2 4372   6.796   0.742   3.196
 1470TIP3   OH2 4373   0.142   0.991   0.348
 1470TIP3    H1 4374   0.159   0.897   0.345
 1470TIP3    H2 4375   0.053   0.998   0.381
 1471TIP3   OH2 4376   5.501   4.656   0.467
 1471TIP3    H1 4377   5.477   4.664   0.560
 1471TIP3    H2 4378   5.418   4.652   0.421
 1472TIP3   OH2 4379   0.453   6.130   4.654
 1472TIP3    H1 4380   0.392   6.185   4.703
 1472TIP3    H2 4381   0.398   6.066   4.610
 1473TIP3   OH2 4382   5.335   4.643   2.829
 1473TIP3    H1 4383   5.399   4.712   2.847
 1473TIP3    H2 4384   5.251   4.689   2.821
 1474TIP3   OH2 4385   1.597   2.834   0.190
 1474TIP3    H1 4386   1.575   2.899   0.256
 1474TIP3    H2 4387   1.513   2.799   0.161
 1475TIP3   OH2 4388   0.861   2.873   4.270
 1475TIP3    H1 4389   0.826   2.931   4.338
 1475TIP3    H2 4390   0.886   2.793   4.317
 1476TIP3   OH2 4391   2.372   3.575   4.844
 1476TIP3    H1 4392   2.417   3.657   4.824
 1476TIP3    H2 4393   2.332   3.588   4.930
 1477TIP3   OH2 4394   2.125   4.910   2.934
 1477TIP3    H1 4395   2.072   4.963   2.873
 1477TIP3    H2 4396   2.071   4.903   3.012
 1478TIP3   OH2 4397   5.362   6.194   3.884
 1478TIP3    H1 4398   5.281   6.245   3.875
 1478TIP3    H2 4399   5.383   6.198   3.977
 1479TIP3   OH2 4400   5.652   3.061   4.826
 1479TIP3    H1 4401   5.590   2.993   4.853
 1479TIP3    H2 4402   5.723   3.056   4.890
 1480TIP3   OH2 4403   4.751   5.870   1.602
 1480TIP3    H1 4404   4.846   5.863   1.590
 1480TIP3    H2 4405   4.721   5.923   1.528
 1481TIP3   OH2 4406   1.336   0.266   1.601
 1481TIP3    H1 4407   1.378   0.351   1.586
 1481TIP3    H2 4408   1.406   0.209   1.631
 1482TIP3   OH2 4409   3.478   3.201   0.179
 1482TIP3    H1 4410   3.420   3.264   0.223
 1482TIP3    H2 4411   3.484   3.128   0.241
 1483TIP3   OH2 4412   6.702   6.137   0.075
 1483TIP3    H1 4413   6.693   6.077   0.149
 1483TIP3    H2 4414   6.717   6.079   0.000
 1484TIP3   OH2 4415   4.195   4.087   3.486
 1484TIP3    H1 4416   4.277   4.102   3.439
 1484TIP3    H2 4417   4.196   4.152   3.556
 1485TIP3   OH2 4418   0.975   3.578   4.611
 1485TIP3    H1 4419   0.964   3.575   4.706
 1485TIP3    H2 4420   1.068   3.597   4.598
 1486TIP3   OH2 4421   6.882   5.988   3.281
 1486TIP3    H1 4422   6.846   6.056   3.337
 1486TIP3    H2 4423   6.902   6.033   3.199
 1487TIP3   OH2 4424   2.869   6.008   3.319
 1487TIP3    H1 4425   2.851   6.034   3.229
 1487TIP3    H2 4426   2.862   5.913   3.320
 1488TIP3   OH2 4427   4.669   6.720   2.673
 1488TIP3    H1 4428   4.583   6.705   2.633
 1488TIP3    H2 4429   4.657   6.795   2.731
 1489TIP3   OH2 4430   2.575   2.585   5.169
 1489TIP3    H1 4431   2.662   2.552   5.191
 1489TIP3    H2 4432   2.565   2.664   5.222
 1490TIP3   OH2 4433   5.779   1.161   4.258
 1490TIP3    H1 4434   5.722   1.238   4.267
 1490TIP3    H2 4435   5.753   1.123   4.174
 1491TIP3   OH2 4436   6.107   2.370   3.887
 1491TIP3    H1 4437   6.074   2.306   3.824
 1491TIP3    H2 4438   6.143   2.441   3.833
 1492TIP3   OH2 4439   1.243   2.322   2.023
 1492TIP3    H1 4440   1.210   2.273   2.098
 1492TIP3    H2 4441   1.224   2.414   2.044
 1493TIP3   OH2 4442   1.116   2.235   2.256
 1493TIP3    H1 4443   1.053   2.179   2.300
 1493TIP3    H2 4444   1.201   2.210   2.293
 1494TIP3   OH2 4445   0.506   1.988   3.905
 1494TIP3    H1 4446   0.495   1.944   3.821
 1494TIP3    H2 4447   0.537   1.919   3.964
 1495TIP3   OH2 4448   3.761   5.711   4.136
 1495TIP3    H1 4449   3.707   5.678   4.208
 1495TIP3    H2 4450   3.723   5.672   4.058
 1496TIP3   OH2 4451   4.779   4.135   0.441
 1496TIP3    H1 4452   4.750   4.143   0.350
 1496TIP3    H2 4453   4.831   4.054   0.442
 1497TIP3   OH2 4454   2.974   4.189   0.979
 1497TIP3    H1 4455   3.002   4.161   1.066
 1497TIP3    H2 4456   2.913   4.260   0.996
 1498TIP3   OH2 4457   0.253   2.782   4.139
 1498TIP3    H1 4458   0.185   2.719   4.162
 1498TIP3    H2 4459   0.264   2.772   4.044
 1499TIP3   OH2 4460   3.786   1.633   1.112
 1499TIP3    H1 4461   3.769   1.652   1.020
 1499TIP3    H2 4462   3.702   1.649   1.156
 1500TIP3   OH2 4463   4.415   4.677   0.969
 1500TIP3    H1 4464   4.348   4.648   0.906
 1500TIP3    H2 4465   4.490   4.619   0.952
 1501TIP3   OH2 4466   6.826   2.256   4.887
 1501TIP3    H1 4467   6.833   2.226   4.978
 1501TIP3    H2 4468   6.906   2.306   4.871
 1502TIP3   OH2 4469   1.516   2.554   0.045
 1502TIP3    H1 4470   1.447   2.619   0.055
 1502TIP3    H2 4471   1.550   2.540   0.133
 1503TIP3   OH2 4472   0.836   6.301   1.603
 1503TIP3    H1 4473   0.860   6.210   1.584
 1503TIP3    H2 4474   0.920   6.345   1.619
 1504TIP3   OH2 4475   0.266   2.114   3.265
 1504TIP3    H1 4476   0.262   2.090   3.172
 1504TIP3    H2 4477   0.195   2.065   3.306
 1505TIP3   OH2 4478   1.739   2.137   0.844
 1505TIP3    H1 4479   1.752   2.200   0.774
 1505TIP3    H2 4480   1.815   2.079   0.840
 1506TIP3   OH2 4481   3.887   6.156   4.859
 1506TIP3    H1 4482   3.898   6.061   4.855
 1506TIP3    H2 4483   3.951   6.190   4.797
 1507TIP3   OH2 4484   6.879   4.735   1.720
 1507TIP3    H1 4485   6.850   4.708   1.633
 1507TIP3    H2 4486   6.807   4.710   1.779
 1508TIP3   OH2 4487   5.099   5.364   3.208
 1508TIP3    H1 4488   5.152   5.436   3.241
 1508TIP3    H2 4489   5.116   5.292   3.269
 1509TIP3   OH2 4490   0.327   5.695   3.212
 1509TIP3    H1 4491   0.357   5.771   3.163
 1509TIP3    H2 4492   0.279   5.642   3.149
 1510TIP3   OH2 4493   1.358   5.165   5.068
 1510TIP3    H1 4494   1.351   5.219   5.147
 1510TIP3    H2 4495   1.339   5.076   5.099
 1511TIP3   OH2 4496   2.726   3.352   0.226
 1511TIP3    H1 4497   2.761   3.361   0.315
 1511TIP3    H2 4498   2.682   3.435   0.210
 1512TIP3   OH2 4499   4.486   4.921   1.529
 1512TIP3    H1 4500   4.439   4.839   1.526
 1512TIP3    H2 4501   4.549   4.911   1.601
 1513TIP3   OH2 4502   6.725   0.925   1.127
 1513TIP3    H1 4503   6.749   0.964   1.211
 1513TIP3    H2 4504   6.679   0.844   1.150
 1514TIP3   OH2 4505   4.711   4.215   0.905
 1514TIP3    H1 4506   4.802   4.193   0.926
 1514TIP3    H2 4507   4.684   4.149   0.842
 1515TIP3   OH2 4508   4.010   1.522   1.970
 1515TIP3    H1 4509   4.092   1.479   1.993
 1515TIP3    H2 4510   3.943   1.474   2.020
 1516TIP3   OH2 4511   4.001   2.968   1.924
 1516TIP3    H1 4512   3.932   2.973   1.857
 1516TIP3    H2 4513   4.046   3.052   1.918
 1517TIP3   OH2 4514   5.549   4.495   4.196
 1517TIP3    H1 4515   5.502   4.457   4.122
 1517TIP3    H2 4516   5.622   4.542   4.156
 1518TIP3   OH2 4517   2.329   4.135   4.470
 1518TIP3    H1 4518   2.350   4.159   4.560
 1518TIP3    H2 4519   2.277   4.208   4.437
 1519TIP3   OH2 4520   4.044   6.360   4.359
 1519TIP3    H1 4521   4.097   6.384   4.283
 1519TIP3    H2 4522   4.013   6.271   4.340
 1520TIP3   OH2 4523   5.892   0.056   4.667
 1520TIP3    H1 4524   5.951   0.056   4.742
 1520TIP3    H2 4525   5.939   0.104   4.599
 1521TIP3   OH2 4526   4.630   5.209   4.552
 1521TIP3    H1 4527   4.625   5.244   4.464
 1521TIP3    H2 4528   4.653   5.117   4.540
 1522TIP3   OH2 4529   0.625   1.960   5.787
 1522TIP3    H1 4530   0.650   1.867   5.787
 1522TIP3    H2 4531   0.562   1.968   5.858
 1523TIP3   OH2 4532   2.624   2.770   5.384
 1523TIP3    H1 4533   2.642   2.854   5.427
 1523TIP3    H2 4534   2.691   2.711   5.419
 1524TIP3   OH2 4535   4.690   2.882   2.676
 1524TIP3    H1 4536   4.596   2.884   2.660
 1524TIP3    H2 4537   4.700   2.821   2.750
 1525TIP3   OH2 4538   2.474   5.699   1.799
 1525TIP3    H1 4539   2.379   5.696   1.804
 1525TIP3    H2 4540   2.492   5.738   1.713
 1526TIP3   OH2 4541   4.739   3.500   1.914
 1526TIP3    H1 4542   4.726   3.592   1.894
 1526TIP3    H2 4543   4.800   3.499   1.987
 1527TIP3   OH2 4544   1.658   4.901   5.711
 1527TIP3    H1 4545   1.692   4.895   5.800
 1527TIP3    H2 4546   1.639   4.810   5.686
 1528TIP3   OH2 4547   6.935   0.562   5.320
 1528TIP3    H1 4548   6.904   0.645   5.283
 1528TIP3    H2 4549   7.001   0.587   5.384
 1529TIP3   OH2 4550   0.911   0.996   5.669
 1529TIP3    H1 4551   0.933   0.934   5.599
 1529TIP3    H2 4552   0.926   1.082   5.630
 1530TIP3   OH2 4553   6.800   1.229   4.996
 1530TIP3    H1 4554   6.851   1.201   4.919
 1530TIP3    H2 4555   6.855   1.295   5.038
 1531TIP3   OH2 4556   5.954   5.814   1.806
 1531TIP3    H1 4557   5.885   5.778   1.861
 1531TIP3    H2 4558   6.021   5.844   1.868
 1532TIP3   OH2 4559   2.927   3.049   5.796
 1532TIP3    H1 4560   2.942   3.129   5.845
 1532TIP3    H2 4561   2.847   3.065   5.746
 1533TIP3   OH2 4562   6.131   0.724   2.894
 1533TIP3    H1 4563   6.165   0.669   2.824
 1533TIP3    H2 4564   6.048   0.758   2.860
 1534TIP3   OH2 4565   3.659   6.175   2.717
 1534TIP3    H1 4566   3.711   6.234   2.662
 1534TIP3    H2 4567   3.712   6.164   2.797
 1535TIP3   OH2 4568   4.681   2.673   1.499
 1535TIP3    H1 4569   4.594   2.666   1.539
 1535TIP3    H2 4570   4.665   2.680   1.405
 1536TIP3   OH2 4571   2.523   3.368   3.513
 1536TIP3    H1 4572   2.514   3.427   3.439
 1536TIP3    H2 4573   2.615   3.341   3.511
 1537TIP3   OH2 4574   6.182   0.726   2.437
 1537TIP3    H1 4575   6.191   0.818   2.412
 1537TIP3    H2 4576   6.252   0.681   2.391
 1538TIP3   OH2 4577   0.639   0.850   4.440
 1538TIP3    H1 4578   0.707   0.867   4.374
 1538TIP3    H2 4579   0.680   0.874   4.523
 1539TIP3   OH2 4580   2.239   0.982   0.135
 1539TIP3    H1 4581   2.159   0.936   0.110
 1539TIP3    H2 4582   2.299   0.966   0.062
 1540TIP3   OH2 4583   4.121   0.064   2.473
 1540TIP3    H1 4584   4.035   0.023   2.471
 1540TIP3    H2 4585   4.177   0.004   2.425
 1541TIP3   OH2 4586   1.538   3.031   0.380
 1541TIP3    H1 4587   1.572   3.064   0.463
 1541TIP3    H2 4588   1.446   3.058   0.380
 1542TIP3   OH2 4589   3.525   5.286   0.222
 1542TIP3    H1 4590   3.550   5.228   0.295
 1542TIP3    H2 4591   3.511   5.371   0.263
 1543TIP3   OH2 4592   2.099   5.856   1.118
 1543TIP3    H1 4593   2.128   5.895   1.200
 1543TIP3    H2 4594   2.136   5.912   1.050
 1544TIP3   OH2 4595   6.412   6.747   3.182
 1544TIP3    H1 4596   6.406   6.732   3.276
 1544TIP3    H2 4597   6.339   6.698   3.145
 1545TIP3   OH2 4598   4.849   0.422   5.439
 1545TIP3    H1 4599   4.766   0.468   5.457
 1545TIP3    H2 4600   4.884   0.466   5.362
 1546TIP3   OH2 4601   4.179   1.078   3.997
 1546TIP3    H1 4602   4.202   1.082   4.090
 1546TIP3    H2 4603   4.084   1.089   3.996
 1547TIP3   OH2 4604   2.857   0.667   3.723
 1547TIP3    H1 4605   2.855   0.701   3.634
 1547TIP3    H2 4606   2.932   0.607   3.725
 1548TIP3   OH2 4607   3.475   6.540   1.563
 1548TIP3    H1 4608   3.403   6.487   1.531
 1548TIP3    H2 4609   3.499   6.596   1.490
 1549TIP3   OH2 4610   5.295   2.607   3.924
 1549TIP3    H1 4611   5.377   2.570   3.890
 1549TIP3    H2 4612   5.323   2.659   4.001
 1550TIP3   OH2 4613   3.052   0.573   5.571
 1550TIP3    H1 4614   3.081   0.597   5.659
 1550TIP3    H2 4615   3.125   0.523   5.535
 1551TIP3   OH2 4616   4.068   0.095   5.493
 1551TIP3    H1 4617   4.079   0.114   5.586
 1551TIP3    H2 4618   4.110   0.168   5.448
 1552TIP3   OH2 4619   7.098   3.299   5.904
 1552TIP3    H1 4620   7.167   3.258   5.851
 1552TIP3    H2 4621   7.139   3.315   5.989
 1553TIP3   OH2 4622   6.384   3.657   5.347
 1553TIP3    H1 4623   6.417   3.672   5.436
 1553TIP3    H2 4624   6.355   3.565   5.348
 1554TIP3   OH2 4625   1.547   6.496   3.748
 1554TIP3    H1 4626   1.583   6.515   3.835
 1554TIP3    H2 4627   1.452   6.503   3.760
 1555TIP3   OH2 4628   5.072   5.683   2.390
 1555TIP3    H1 4629   5.072   5.779   2.391
 1555TIP3    H2 4630   5.084   5.658   2.481
 1556TIP3   OH2 4631   4.578   3.298   4.490
 1556TIP3    H1 4632   4.668   3.331   4.479
 1556TIP3    H2 4633   4.523   3.370   4.459
 1557TIP3   OH2 4634   2.897   4.438   0.484
 1557TIP3    H1 4635   2.891   4.374   0.555
 1557TIP3    H2 4636   2.883   4.386   0.405
 1558TIP3   OH2 4637   5.600   2.472   1.789
 1558TIP3    H1 4638   5.609   2.540   1.722
 1558TIP3    H2 4639   5.689   2.457   1.821
 1559TIP3   OH2 4640   2.209   6.541   4.876
 1559TIP3    H1 4641   2.119   6.511   4.885
 1559TIP3    H2 4642   2.252   6.472   4.825
 1560TIP3   OH2 4643   5.602   2.756   2.537
 1560TIP3    H1 4644   5.580   2.667   2.564
 1560TIP3    H2 4645   5.541   2.775   2.465
 1561TIP3   OH2 4646   3.130   1.157   1.873
 1561TIP3    H1 4647   3.174   1.084   1.917
 1561TIP3    H2 4648   3.107   1.122   1.786
 1562TIP3   OH2 4649   4.450   1.827   2.036
 1562TIP3    H1 4650   4.374   1.771   2.054
 1562TIP3    H2 4651   4.502   1.824   2.116
 1563TIP3   OH2 4652   2.717   4.857   1.168
 1563TIP3    H1 4653   2.729   4.932   1.226
 1563TIP3    H2 4654   2.788   4.865   1.105
 1564TIP3   OH2 4655   6.243   4.500   0.045
 1564TIP3    H1 4656   6.163   4.501   0.098
 1564TIP3    H2 4657   6.295   4.427   0.081
 1565TIP3   OH2 4658   5.584   4.890   2.147
 1565TIP3    H1 4659   5.566   4.961   2.085
 1565TIP3    H2 4660   5.580   4.932   2.233
 1566TIP3   OH2 4661   6.594   3.796   2.734
 1566TIP3    H1 4662   6.526   3.729   2.734
 1566TIP3    H2 4663   6.558   3.867   2.682
 1567TIP3   OH2 4664   4.092   2.860   3.657
 1567TIP3    H1 4665   4.021   2.900   3.607
 1567TIP3    H2 4666   4.049   2.823   3.734
 1568TIP3   OH2 4667   2.442   4.155   3.273
 1568TIP3    H1 4668   2.475   4.066   3.289
 1568TIP3    H2 4669   2.410   4.184   3.359
 1569TIP3   OH2 4670   5.551   0.374   2.691
 1569TIP3    H1 4671   5.504   0.392   2.610
 1569TIP3    H2 4672   5.566   0.279   2.690
 1570TIP3   OH2 4673   2.504   6.581   2.780
 1570TIP3    H1 4674   2.566   6.510   2.790
 1570TIP3    H2 4675   2.558   6.659   2.764
 1571TIP3   OH2 4676   1.747   3.912   4.438
 1571TIP3    H1 4677   1.770   4.005   4.445
 1571TIP3    H2 4678   1.805   3.868   4.500
 1572TIP3   OH2 4679   4.194   6.630   2.748
 1572TIP3    H1 4680   4.162   6.683   2.676
 1572TIP3    H2 4681   4.118   6.618   2.806
 1573TIP3   OH2 4682   2.143   0.127   2.202
 1573TIP3    H1 4683   2.155   0.098   2.112
 1573TIP3    H2 4684   2.118   0.219   2.194
 1574TIP3   OH2 4685   6.392   2.588   4.991
 1574TIP3    H1 4686   6.312   2.617   4.947
 1574TIP3    H2 4687   6.401   2.496   4.966
 1575TIP3   OH2 4688   1.708   5.739   0.836
 1575TIP3    H1 4689   1.633   5.786   0.799
 1575TIP3    H2 4690   1.714   5.771   0.926
 1576TIP3   OH2 4691   2.136  -0.016   5.299
 1576TIP3    H1 4692   2.135   0.013   5.208
 1576TIP3    H2 4693   2.226  -0.042   5.316
 1577TIP3   OH2 4694   1.198   1.304   2.138
 1577TIP3    H1 4695   1.110   1.265   2.133
 1577TIP3    H2 4696   1.196   1.356   2.219
 1578TIP3   OH2 4697   6.944   1.489   5.886
 1578TIP3    H1 4698   7.018   1.527   5.838
 1578TIP3    H2 4699   6.909   1.423   5.827
 1579TIP3   OH2 4700   3.096   4.617   5.268
 1579TIP3    H1 4701   3.064   4.644   5.354
 1579TIP3    H2 4702   3.167   4.679   5.248
 1580TIP3   OH2 4703   6.941   3.412   0.512
 1580TIP3    H1 4704   7.023   3.393   0.558
 1580TIP3    H2 4705   6.946   3.507   0.494
 1581TIP3   OH2 4706   7.126   2.878   4.621
 1581TIP3    H1 4707   7.153   2.825   4.547
 1581TIP3    H2 4708   7.038   2.846   4.643
 1582TIP3   OH2 4709   3.166   5.032   3.083
 1582TIP3    H1 4710   3.262   5.035   3.091
 1582TIP3    H2 4711   3.147   5.087   3.007
 1583TIP3   OH2 4712   6.670   5.800   3.713
 1583TIP3    H1 4713   6.739   5.865   3.697
 1583TIP3    H2 4714   6.592   5.838   3.672
 1584TIP3   OH2 4715   0.203   3.050   3.473
 1584TIP3    H1 4716   0.189   2.959   3.499
 1584TIP3    H2 4717   0.169   3.055   3.384
 1585TIP3   OH2 4718   3.241   4.046   4.338
 1585TIP3    H1 4719   3.302   4.112   4.304
 1585TIP3    H2 4720   3.274   4.027   4.426
 1586TIP3   OH2 4721   6.738   4.664   1.483
 1586TIP3    H1 4722   6.722   4.682   1.390
 1586TIP3    H2 4723   6.671   4.716   1.528
 1587TIP3   OH2 4724   6.337   2.079   0.172
 1587TIP3    H1 4725   6.390   2.145   0.127
 1587TIP3    H2 4726   6.258   2.127   0.198
 1588TIP3   OH2 4727   7.185   5.522   3.228
 1588TIP3    H1 4728   7.181   5.518   3.323
 1588TIP3    H2 4729   7.153   5.610   3.207
 1589TIP3   OH2 4730   1.274   6.754   2.139
 1589TIP3    H1 4731   1.345   6.777   2.078
 1589TIP3    H2 4732   1.236   6.838   2.164
 1590TIP3   OH2 4733   5.788   4.145   1.815
 1590TIP3    H1 4734   5.784   4.092   1.894
 1590TIP3    H2 4735   5.760   4.233   1.843
 1591TIP3   OH2 4736   2.641   0.205   3.753
 1591TIP3    H1 4737   2.664   0.283   3.703
 1591TIP3    H2 4738   2.582   0.237   3.821
 1592TIP3   OH2 4739   1.422   2.743   2.496
 1592TIP3    H1 4740   1.491   2.803   2.467
 1592TIP3    H2 4741   1.377   2.718   2.416
 1593TIP3   OH2 4742   4.653   5.975   1.366
 1593TIP3    H1 4743   4.627   5.887   1.340
 1593TIP3    H2 4744   4.570   6.021   1.379
 1594TIP3   OH2 4745   1.446   5.759   5.340
 1594TIP3    H1 4746   1.484   5.764   5.253
 1594TIP3    H2 4747   1.460   5.669   5.368
 1595TIP3   OH2 4748   6.025   3.590   5.015
 1595TIP3    H1 4749   6.060   3.572   5.102
 1595TIP3    H2 4750   6.068   3.671   4.987
 1596TIP3   OH2 4751   0.731   5.969   0.388
 1596TIP3    H1 4752   0.693   6.057   0.383
 1596TIP3    H2 4753   0.722   5.944   0.480
 1597TIP3   OH2 4754   2.943   6.077   5.750
 1597TIP3    H1 4755   2.992   6.061   5.669
 1597TIP3    H2 4756   3.007   6.064   5.820
 1598TIP3   OH2 4757   2.696   5.727   5.018
 1598TIP3    H1 4758   2.764   5.679   5.064
 1598TIP3    H2 4759   2.700   5.816   5.055
 1599TIP3   OH2 4760   0.483   1.966   2.230
 1599TIP3    H1 4761   0.495   1.938   2.321
 1599TIP3    H2 4762   0.569   2.001   2.205
 1600TIP3   OH2 4763   3.530   3.422   2.618
 1600TIP3    H1 4764   3.554   3.332   2.642
 1600TIP3    H2 4765   3.458   3.444   2.678
 1601TIP3   OH2 4766   4.066   5.511   0.671
 1601TIP3    H1 4767   4.160   5.503   0.689
 1601TIP3    H2 4768   4.051   5.605   0.663
 1602TIP3   OH2 4769   3.357   5.839   2.581
 1602TIP3    H1 4770   3.306   5.813   2.658
 1602TIP3    H2 4771   3.439   5.790   2.588
 1603TIP3   OH2 4772   5.483   5.787   5.026
 1603TIP3    H1 4773   5.400   5.742   5.012
 1603TIP3    H2 4774   5.533   5.771   4.946
 1604TIP3   OH2 4775   3.926   6.292   0.167
 1604TIP3    H1 4776   3.858   6.329   0.223
 1604TIP3    H2 4777   3.892   6.207   0.141
 1605TIP3   OH2 4778   4.624   2.690   0.796
 1605TIP3    H1 4779   4.700   2.747   0.810
 1605TIP3    H2 4780   4.556   2.725   0.854
 1606TIP3   OH2 4781   4.945   4.237   3.960
 1606TIP3    H1 4782   5.010   4.284   4.012
 1606TIP3    H2 4783   4.982   4.149   3.950
 1607TIP3   OH2 4784   1.479   5.889   1.193
 1607TIP3    H1 4785   1.459   5.917   1.104
 1607TIP3    H2 4786   1.571   5.864   1.190
 1608TIP3   OH2 4787   6.879   1.824   3.047
 1608TIP3    H1 4788   6.791   1.809   3.012
 1608TIP3    H2 4789   6.928   1.745   3.023
 1609TIP3   OH2 4790   6.604   0.994   3.254
 1609TIP3    H1 4791   6.618   0.974   3.162
 1609TIP3    H2 4792   6.598   1.090   3.258
 1610TIP3   OH2 4793   6.806   1.192   3.467
 1610TIP3    H1 4794   6.794   1.171   3.559
 1610TIP3    H2 4795   6.721   1.228   3.439
 1611TIP3   OH2 4796   4.860   2.107   1.636
 1611TIP3    H1 4797   4.799   2.039   1.606
 1611TIP3    H2 4798   4.890   2.149   1.556
 1612TIP3   OH2 4799   6.313   3.261   3.867
 1612TIP3    H1 4800   6.252   3.312   3.814
 1612TIP3    H2 4801   6.323   3.312   3.947
 1613TIP3   OH2 4802   6.965   1.239   2.393
 1613TIP3    H1 4803   6.897   1.281   2.445
 1613TIP3    H2 4804   7.046   1.285   2.416
 1614TIP3   OH2 4805   1.442   5.868   4.027
 1614TIP3    H1 4806   1.373   5.933   4.042
 1614TIP3    H2 4807   1.395   5.785   4.025
 1615TIP3   OH2 4808   1.749   6.085   1.459
 1615TIP3    H1 4809   1.706   6.009   1.498
 1615TIP3    H2 4810   1.780   6.137   1.533
 1616TIP3   OH2 4811   5.018   0.834   4.551
 1616TIP3    H1 4812   4.993   0.751   4.590
 1616TIP3    H2 4813   5.089   0.867   4.607
 1617TIP3   OH2 4814   1.713   5.872   5.750
 1617TIP3    H1 4815   1.660   5.873   5.670
 1617TIP3    H2 4816   1.722   5.964   5.774
 1618TIP3   OH2 4817   5.062   0.662   1.591
 1618TIP3    H1 4818   5.053   0.740   1.644
 1618TIP3    H2 4819   5.064   0.590   1.654
 1619TIP3   OH2 4820   4.077   1.219   0.995
 1619TIP3    H1 4821   4.001   1.271   1.019
 1619TIP3    H2 4822   4.049   1.170   0.917
 1620TIP3   OH2 4823   5.470   4.111   5.885
 1620TIP3    H1 4824   5.538   4.103   5.818
 1620TIP3    H2 4825   5.412   4.180   5.852
 1621TIP3   OH2 4826   4.768   0.607   4.328
 1621TIP3    H1 4827   4.682   0.566   4.325
 1621TIP3    H2 4828   4.815   0.570   4.253
 1622TIP3   OH2 4829   2.296   1.168   3.380
 1622TIP3    H1 4830   2.354   1.244   3.375
 1622TIP3    H2 4831   2.245   1.182   3.460
 1623TIP3   OH2 4832   1.016   0.171   3.182
 1623TIP3    H1 4833   1.037   0.264   3.172
 1623TIP3    H2 4834   1.090   0.136   3.231
 1624TIP3   OH2 4835   4.311   1.696   2.838
 1624TIP3    H1 4836   4.255   1.659   2.769
 1624TIP3    H2 4837   4.352   1.620   2.878
 1625TIP3   OH2 4838   2.781   6.667   4.905
 1625TIP3    H1 4839   2.787   6.685   4.811
 1625TIP3    H2 4840   2.700   6.710   4.933
 1626TIP3   OH2 4841   6.658   3.593   3.324
 1626TIP3    H1 4842   6.577   3.575   3.372
 1626TIP3    H2 4843   6.724   3.539   3.367
 1627TIP3   OH2 4844   4.186   4.993   0.387
 1627TIP3    H1 4845   4.173   5.080   0.423
 1627TIP3    H2 4846   4.265   4.960   0.430
 1628TIP3   OH2 4847   4.735   3.462   3.352
 1628TIP3    H1 4848   4.729   3.369   3.375
 1628TIP3    H2 4849   4.821   3.472   3.312
 1629TIP3   OH2 4850   0.694   2.640   5.278
 1629TIP3    H1 4851   0.676   2.591   5.197
 1629TIP3    H2 4852   0.710   2.572   5.344
 1630TIP3   OH2 4853   4.604   2.058   2.624
 1630TIP3    H1 4854   4.667   2.101   2.681
 1630TIP3    H2 4855   4.620   2.096   2.538
 1631TIP3   OH2 4856   4.399   3.697   3.104
 1631TIP3    H1 4857   4.457   3.673   3.031
 1631TIP3    H2 4858   4.399   3.620   3.161
 1632TIP3   OH2 4859   6.227   0.177   4.636
 1632TIP3    H1 4860   6.174   0.107   4.672
 1632TIP3    H2 4861   6.164   0.238   4.598
 1633TIP3   OH2 4862   1.768   1.327   4.771
 1633TIP3    H1 4863   1.743   1.419   4.759
 1633TIP3    H2 4864   1.760   1.313   4.865
 1634TIP3   OH2 4865   3.749   4.699   2.119
 1634TIP3    H1 4866   3.829   4.733   2.160
 1634TIP3    H2 4867   3.761   4.718   2.026
 1635TIP3   OH2 4868   2.421   6.441   3.071
 1635TIP3    H1 4869   2.461   6.414   2.989
 1635TIP3    H2 4870   2.327   6.450   3.051
 1636TIP3   OH2 4871   5.846   2.303   4.071
 1636TIP3    H1 4872   5.893   2.282   3.990
 1636TIP3    H2 4873   5.826   2.396   4.064
 1637TIP3   OH2 4874   3.254   2.291   4.102
 1637TIP3    H1 4875   3.226   2.202   4.122
 1637TIP3    H2 4876   3.350   2.287   4.104
 1638TIP3   OH2 4877   6.103   3.854   4.842
 1638TIP3    H1 4878   6.055   3.856   4.759
 1638TIP3    H2 4879   6.181   3.802   4.824
 1639TIP3   OH2 4880   3.521   0.449   2.183
 1639TIP3    H1 4881   3.517   0.477   2.274
 1639TIP3    H2 4882   3.434   0.413   2.165
 1640TIP3   OH2 4883   2.929   0.252   3.264
 1640TIP3    H1 4884   2.886   0.337   3.273
 1640TIP3    H2 4885   2.939   0.220   3.354
 1641TIP3   OH2 4886   2.208   4.844   1.724
 1641TIP3    H1 4887   2.204   4.762   1.674
 1641TIP3    H2 4888   2.118   4.860   1.752
 1642TIP3   OH2 4889   1.730   3.654   0.383
 1642TIP3    H1 4890   1.675   3.676   0.308
 1642TIP3    H2 4891   1.669   3.624   0.450
 1643TIP3   OH2 4892   0.128   5.885   0.294
 1643TIP3    H1 4893   0.134   5.805   0.347
 1643TIP3    H2 4894   0.092   5.855   0.210
 1644TIP3   OH2 4895   6.714   6.183   3.425
 1644TIP3    H1 4896   6.633   6.132   3.418
 1644TIP3    H2 4897   6.713   6.240   3.348
 1645TIP3   OH2 4898   4.598   4.135   1.797
 1645TIP3    H1 4899   4.641   4.096   1.873
 1645TIP3    H2 4900   4.609   4.229   1.809
 1646TIP3   OH2 4901   4.034   2.504   3.101
 1646TIP3    H1 4902   4.040   2.559   3.179
 1646TIP3    H2 4903   4.078   2.554   3.032
 1647TIP3   OH2 4904   1.578   0.234   1.933
 1647TIP3    H1 4905   1.538   0.215   1.848
 1647TIP3    H2 4906   1.600   0.148   1.968
 1648TIP3   OH2 4907   6.493   3.704   4.346
 1648TIP3    H1 4908   6.584   3.707   4.318
 1648TIP3    H2 4909   6.443   3.733   4.269
 1649TIP3   OH2 4910   0.417   3.160   3.579
 1649TIP3    H1 4911   0.471   3.168   3.501
 1649TIP3    H2 4912   0.339   3.111   3.550
 1650TIP3   OH2 4913   1.429   3.968   4.473
 1650TIP3    H1 4914   1.355   4.025   4.454
 1650TIP3    H2 4915   1.484   3.971   4.395
 1651TIP3   OH2 4916   5.041   0.197   1.895
 1651TIP3    H1 4917   5.108   0.157   1.951
 1651TIP3    H2 4918   4.960   0.150   1.917
 1652TIP3   OH2 4919   4.506   3.849   1.289
 1652TIP3    H1 4920   4.507   3.945   1.297
 1652TIP3    H2 4921   4.413   3.826   1.297
 1653TIP3   OH2 4922   4.152   5.591   4.735
 1653TIP3    H1 4923   4.190   5.552   4.657
 1653TIP3    H2 4924   4.088   5.527   4.766
 1654TIP3   OH2 4925   4.316   2.987   4.275
 1654TIP3    H1 4926   4.296   2.897   4.247
 1654TIP3    H2 4927   4.252   3.005   4.344
 1655TIP3   OH2 4928   4.601   2.524   3.079
 1655TIP3    H1 4929   4.517   2.510   3.035
 1655TIP3    H2 4930   4.625   2.613   3.056
 1656TIP3   OH2 4931   0.274   5.232   3.239
 1656TIP3    H1 4932   0.268   5.285   3.318
 1656TIP3    H2 4933   0.354   5.262   3.196
 1657TIP3   OH2 4934   5.234   1.270   4.256
 1657TIP3    H1 4935   5.203   1.179   4.246
 1657TIP3    H2 4936   5.273   1.272   4.344
 1658TIP3   OH2 4937   0.799   1.394   4.435
 1658TIP3    H1 4938   0.733   1.355   4.378
 1658TIP3    H2 4939   0.869   1.329   4.438
 1659TIP3   OH2 4940   2.619   1.350   2.490
 1659TIP3    H1 4941   2.621   1.332   2.584
 1659TIP3    H2 4942   2.620   1.264   2.449
 1660TIP3   OH2 4943   7.026   5.081   0.846
 1660TIP3    H1 4944   6.941   5.058   0.883
 1660TIP3    H2 4945   7.069   5.132   0.915
 1661TIP3   OH2 4946   7.144   1.507   3.203
 1661TIP3    H1 4947   7.206   1.447   3.161
 1661TIP3    H2 4948   7.181   1.522   3.290
 1662TIP3   OH2 4949   6.271   4.432   0.961
 1662TIP3    H1 4950   6.361   4.411   0.938
 1662TIP3    H2 4951   6.252   4.375   1.036
 1663TIP3   OH2 4952   3.421   3.545   0.217
 1663TIP3    H1 4953   3.366   3.471   0.243
 1663TIP3    H2 4954   3.359   3.615   0.197
 1664TIP3   OH2 4955   3.681   2.663   2.450
 1664TIP3    H1 4956   3.647   2.673   2.362
 1664TIP3    H2 4957   3.633   2.728   2.502
 1665TIP3   OH2 4958   6.094   2.994   2.196
 1665TIP3    H1 4959   6.024   3.051   2.228
 1665TIP3    H2 4960   6.125   3.036   2.116
 1666TIP3   OH2 4961   1.643   1.104   4.252
 1666TIP3    H1 4962   1.673   1.157   4.325
 1666TIP3    H2 4963   1.562   1.146   4.223
 1667TIP3   OH2 4964   3.675   1.270   4.855
 1667TIP3    H1 4965   3.740   1.210   4.893
 1667TIP3    H2 4966   3.709   1.290   4.768
 1668TIP3   OH2 4967   2.397   0.464   4.443
 1668TIP3    H1 4968   2.427   0.442   4.531
 1668TIP3    H2 4969   2.379   0.558   4.447
 1669TIP3   OH2 4970   1.899   0.837   1.617
 1669TIP3    H1 4971   1.904   0.816   1.524
 1669TIP3    H2 4972   1.983   0.878   1.638
 1670TIP3   OH2 4973   5.408   1.157   4.744
 1670TIP3    H1 4974   5.440   1.154   4.834
 1670TIP3    H2 4975   5.374   1.246   4.733
 1671TIP3   OH2 4976   0.957   3.865   3.225
 1671TIP3    H1 4977   0.907   3.821   3.156
 1671TIP3    H2 4978   0.933   3.958   3.217
 1672TIP3   OH2 4979   0.181   2.161   2.498
 1672TIP3    H1 4980   0.172   2.114   2.415
 1672TIP3    H2 4981   0.169   2.253   2.474
 1673TIP3   OH2 4982   3.611   5.171   2.710
 1673TIP3    H1 4983   3.553   5.144   2.638
 1673TIP3    H2 4984   3.681   5.220   2.666
 1674TIP3   OH2 4985   0.132   3.606   4.894
 1674TIP3    H1 4986   0.040   3.582   4.883
 1674TIP3    H2 4987   0.135   3.700   4.876
 1675TIP3   OH2 4988   0.548   1.731   0.792
 1675TIP3    H1 4989   0.455   1.726   0.814
 1675TIP3    H2 4990   0.557   1.810   0.740
 1676TIP3   OH2 4991   2.045   0.959   0.570
 1676TIP3    H1 4992   2.106   0.928   0.503
 1676TIP3    H2 4993   1.974   1.000   0.522
 1677TIP3   OH2 4994   3.559   1.465   5.568
 1677TIP3    H1 4995   3.536   1.441   5.658
 1677TIP3    H2 4996   3.655   1.462   5.567
 1678TIP3   OH2 4997   0.379   4.895   1.601
 1678TIP3    H1 4998   0.294   4.939   1.611
 1678TIP3    H2 4999   0.403   4.867   1.689
 1679TIP3   OH2 5000   4.326   4.248   5.165
 1679TIP3    H1 5001   4.374   4.315   5.213
 1679TIP3    H2 5002   4.329   4.276   5.074
 1680TIP3   OH2 5003   2.278   4.492   4.617
 1680TIP3    H1 5004   2.230   4.539   4.685
 1680TIP3    H2 5005   2.310   4.413   4.661
 1681TIP3   OH2 5006   4.834   6.635   4.046
 1681TIP3    H1 5007   4.807   6.695   4.115
 1681TIP3    H2 5008   4.866   6.692   3.975
 1682TIP3   OH2 5009   7.252   4.499   2.291
 1682TIP3    H1 5010   7.163   4.533   2.274
 1682TIP3    H2 5011   7.238   4.419   2.341
 1683TIP3   OH2 5012   5.355   1.039   5.062
 1683TIP3    H1 5013   5.364   0.945   5.048
 1683TIP3    H2 5014   5.275   1.049   5.113
 1684TIP3   OH2 5015   0.248   1.071   5.102
 1684TIP3    H1 5016   0.167   1.121   5.091
 1684TIP3    H2 5017   0.307   1.105   5.035
 1685TIP3   OH2 5018   6.012   0.905   1.896
 1685TIP3    H1 5019   6.026   0.989   1.852
 1685TIP3    H2 5020   5.934   0.918   1.949
 1686TIP3   OH2 5021   0.535   2.636   1.043
 1686TIP3    H1 5022   0.451   2.683   1.042
 1686TIP3    H2 5023   0.561   2.631   0.951
 1687TIP3   OH2 5024   5.925   0.730   3.527
 1687TIP3    H1 5025   5.940   0.725   3.622
 1687TIP3    H2 5026   6.008   0.706   3.488
 1688TIP3   OH2 5027   6.786   5.217   2.765
 1688TIP3    H1 5028   6.757   5.199   2.675
 1688TIP3    H2 5029   6.718   5.273   2.801
 1689TIP3   OH2 5030   6.685   6.752   1.106
 1689TIP3    H1 5031   6.753   6.818   1.099
 1689TIP3    H2 5032   6.614   6.783   1.050
 1690TIP3   OH2 5033   3.888   5.724   3.456
 1690TIP3    H1 5034   3.910   5.791   3.520
 1690TIP3    H2 5035   3.859   5.772   3.379
 1691TIP3   OH2 5036   1.251   1.836   4.141
 1691TIP3    H1 5037   1.199   1.769   4.096
 1691TIP3    H2 5038   1.209   1.844   4.227
 1692TIP3   OH2 5039   0.835   5.343   5.518
 1692TIP3    H1 5040   0.896   5.335   5.444
 1692TIP3    H2 5041   0.800   5.255   5.530
 1693TIP3   OH2 5042   6.078   1.021   2.336
 1693TIP3    H1 5043   6.117   1.100   2.299
 1693TIP3    H2 5044   5.988   1.020   2.303
 1694TIP3   OH2 5045   3.350   4.034   2.875
 1694TIP3    H1 5046   3.432   4.079   2.895
 1694TIP3    H2 5047   3.297   4.100   2.830
 1695TIP3   OH2 5048   3.567   5.565   5.330
 1695TIP3    H1 5049   3.549   5.471   5.337
 1695TIP3    H2 5050   3.553   5.598   5.418
 1696TIP3   OH2 5051   6.115   5.530   5.705
 1696TIP3    H1 5052   6.081   5.619   5.697
 1696TIP3    H2 5053   6.103   5.491   5.619
 1697TIP3   OH2 5054   1.928   2.784   0.268
 1697TIP3    H1 5055   1.992   2.850   0.295
 1697TIP3    H2 5056   1.843   2.827   0.279
 1698TIP3   OH2 5057   6.220   3.047   2.857
 1698TIP3    H1 5058   6.210   2.953   2.844
 1698TIP3    H2 5059   6.148   3.070   2.916
 1699TIP3   OH2 5060   5.298   0.427   3.099
 1699TIP3    H1 5061   5.357   0.469   3.037
 1699TIP3    H2 5062   5.352   0.360   3.142
 1700TIP3   OH2 5063   1.217   4.675   1.100
 1700TIP3    H1 5064   1.278   4.699   1.170
 1700TIP3    H2 5065   1.134   4.659   1.145
 1701TIP3   OH2 5066   2.200   2.077   0.311
 1701TIP3    H1 5067   2.123   2.048   0.262
 1701TIP3    H2 5068   2.275   2.042   0.262
 1702TIP3   OH2 5069   4.421   4.195   3.361
 1702TIP3    H1 5070   4.413   4.175   3.268
 1702TIP3    H2 5071   4.515   4.193   3.378
 1703TIP3   OH2 5072   6.843   5.241   1.247
 1703TIP3    H1 5073   6.820   5.155   1.283
 1703TIP3    H2 5074   6.777   5.256   1.179
 1704TIP3   OH2 5075   4.467   4.500   4.969
 1704TIP3    H1 5076   4.388   4.458   4.937
 1704TIP3    H2 5077   4.528   4.428   4.985
 1705TIP3   OH2 5078   1.906   0.296   5.120
 1705TIP3    H1 5079   1.955   0.215   5.106
 1705TIP3    H2 5080   1.889   0.328   5.032
 1706TIP3   OH2 5081   1.529   1.004   0.426
 1706TIP3    H1 5082   1.501   1.092   0.401
 1706TIP3    H2 5083   1.459   0.971   0.482
 1707TIP3   OH2 5084   1.093   4.372   4.354
 1707TIP3    H1 5085   1.082   4.397   4.262
 1707TIP3    H2 5086   1.004   4.351   4.383
 1708TIP3   OH2 5087   5.247   4.403   3.871
 1708TIP3    H1 5088   5.270   4.348   3.945
 1708TIP3    H2 5089   5.170   4.361   3.833
 1709TIP3   OH2 5090   5.677   3.626   1.233
 1709TIP3    H1 5091   5.732   3.547   1.236
 1709TIP3    H2 5092   5.672   3.655   1.324
 1710TIP3   OH2 5093   1.134   4.820   1.491
 1710TIP3    H1 5094   1.192   4.858   1.425
 1710TIP3    H2 5095   1.167   4.852   1.574
 1711TIP3   OH2 5096   4.731   5.841   0.821
 1711TIP3    H1 5097   4.697   5.775   0.760
 1711TIP3    H2 5098   4.678   5.829   0.900
 1712TIP3   OH2 5099   5.099   6.285   3.971
 1712TIP3    H1 5100   5.103   6.379   3.986
 1712TIP3    H2 5101   5.048   6.275   3.890
 1713TIP3   OH2 5102   3.125   4.889   1.557
 1713TIP3    H1 5103   3.209   4.930   1.536
 1713TIP3    H2 5104   3.080   4.953   1.613
 1714TIP3   OH2 5105   1.260   1.846   0.920
 1714TIP3    H1 5106   1.349   1.844   0.885
 1714TIP3    H2 5107   1.235   1.938   0.917
 1715TIP3   OH2 5108   2.702   2.187   0.630
 1715TIP3    H1 5109   2.747   2.240   0.696
 1715TIP3    H2 5110   2.759   2.192   0.553
 1716TIP3   OH2 5111   0.076   2.128   3.551
 1716TIP3    H1 5112   0.070   2.158   3.642
 1716TIP3    H2 5113   0.068   2.032   3.556
 1717TIP3   OH2 5114   1.866   0.555   0.279
 1717TIP3    H1 5115   1.826   0.572   0.365
 1717TIP3    H2 5116   1.906   0.469   0.287
 1718TIP3   OH2 5117   5.517   3.064   2.305
 1718TIP3    H1 5118   5.445   3.120   2.277
 1718TIP3    H2 5119   5.555   3.108   2.381
 1719TIP3   OH2 5120   5.732   6.076   0.837
 1719TIP3    H1 5121   5.799   6.144   0.841
 1719TIP3    H2 5122   5.696   6.072   0.926
 1720TIP3   OH2 5123   5.250   5.081   5.824
 1720TIP3    H1 5124   5.195   5.134   5.883
 1720TIP3    H2 5125   5.334   5.075   5.870
 1721TIP3   OH2 5126   2.176   3.937   2.079
 1721TIP3    H1 5127   2.202   3.851   2.046
 1721TIP3    H2 5128   2.256   3.988   2.079
 1722TIP3   OH2 5129   1.344   2.856   3.314
 1722TIP3    H1 5130   1.349   2.937   3.263
 1722TIP3    H2 5131   1.362   2.882   3.404
 1723TIP3   OH2 5132   2.818   2.013   3.253
 1723TIP3    H1 5133   2.900   2.050   3.219
 1723TIP3    H2 5134   2.801   2.063   3.333
 1724TIP3   OH2 5135   3.939   1.626   3.411
 1724TIP3    H1 5136   3.944   1.593   3.500
 1724TIP3    H2 5137   4.017   1.590   3.368
 1725TIP3   OH2 5138   6.104   6.203   5.803
 1725TIP3    H1 5139   6.016   6.180   5.834
 1725TIP3    H2 5140   6.121   6.140   5.733
 1726TIP3   OH2 5141   5.265   5.150   0.937
 1726TIP3    H1 5142   5.240   5.112   1.021
 1726TIP3    H2 5143   5.258   5.244   0.949
 1727TIP3   OH2 5144   3.000   5.809   2.205
 1727TIP3    H1 5145   2.920   5.855   2.180
 1727TIP3    H2 5146   3.001   5.813   2.301
 1728TIP3   OH2 5147   6.389   4.743   3.756
 1728TIP3    H1 5148   6.372   4.714   3.845
 1728TIP3    H2 5149   6.369   4.837   3.757
 1729TIP3   OH2 5150   4.690   1.792   1.675
 1729TIP3    H1 5151   4.728   1.815   1.760
 1729TIP3    H2 5152   4.757   1.740   1.632
 1730TIP3   OH2 5153   6.900   4.578   2.072
 1730TIP3    H1 5154   6.978   4.545   2.027
 1730TIP3    H2 5155   6.926   4.583   2.164
 1731TIP3   OH2 5156   5.880   4.027   4.656
 1731TIP3    H1 5157   5.821   4.090   4.614
 1731TIP3    H2 5158   5.937   4.081   4.711
 1732TIP3   OH2 5159   5.843   0.461   1.825
 1732TIP3    H1 5160   5.824   0.370   1.802
 1732TIP3    H2 5161   5.762   0.508   1.804
 1733TIP3   OH2 5162   2.276   1.358   1.068
 1733TIP3    H1 5163   2.242   1.447   1.061
 1733TIP3    H2 5164   2.326   1.358   1.149
 1734TIP3   OH2 5165   4.985   3.399   5.392
 1734TIP3    H1 5166   4.942   3.381   5.308
 1734TIP3    H2 5167   5.011   3.313   5.424
 1735TIP3   OH2 5168   2.188   3.671   3.932
 1735TIP3    H1 5169   2.221   3.587   3.899
 1735TIP3    H2 5170   2.104   3.650   3.972
 1736TIP3   OH2 5171   6.610   4.746   3.612
 1736TIP3    H1 5172   6.666   4.685   3.659
 1736TIP3    H2 5173   6.525   4.738   3.655
 1737TIP3   OH2 5174   5.153   0.750   4.192
 1737TIP3    H1 5175   5.169   0.663   4.230
 1737TIP3    H2 5176   5.237   0.795   4.199
 1738TIP3   OH2 5177   0.598   6.671   0.973
 1738TIP3    H1 5178   0.557   6.587   0.951
 1738TIP3    H2 5179   0.646   6.653   1.054
 1739TIP3   OH2 5180   5.973   0.039   1.519
 1739TIP3    H1 5181   6.060   0.002   1.534
 1739TIP3    H2 5182   5.960   0.031   1.424
 1740TIP3   OH2 5183   1.932   0.054   2.970
 1740TIP3    H1 5184   1.991   0.110   3.020
 1740TIP3    H2 5185   1.846   0.096   2.978
 1741TIP3   OH2 5186   4.118   6.676   4.736
 1741TIP3    H1 5187   4.159   6.663   4.822
 1741TIP3    H2 5188   4.112   6.588   4.699
 1742TIP3   OH2 5189   1.760   1.978   3.965
 1742TIP3    H1 5190   1.780   1.915   4.034
 1742TIP3    H2 5191   1.823   2.049   3.979
 1743TIP3   OH2 5192   0.304   5.513   2.636
 1743TIP3    H1 5193   0.384   5.505   2.584
 1743TIP3    H2 5194   0.253   5.435   2.613
 1744TIP3   OH2 5195   0.284   3.861   2.387
 1744TIP3    H1 5196   0.189   3.865   2.373
 1744TIP3    H2 5197   0.294   3.815   2.470
 1745TIP3   OH2 5198   6.298   5.597   0.894
 1745TIP3    H1 5199   6.231   5.537   0.928
 1745TIP3    H2 5200   6.249   5.663   0.845
 1746TIP3   OH2 5201   0.171   5.112   1.178
 1746TIP3    H1 5202   0.090   5.152   1.146
 1746TIP3    H2 5203   0.237   5.180   1.166
 1747TIP3   OH2 5204   2.694   5.072   4.876
 1747TIP3    H1 5205   2.610   5.108   4.906
 1747TIP3    H2 5206   2.690   5.079   4.781
 1748TIP3   OH2 5207   4.341   0.152   1.286
 1748TIP3    H1 5208   4.364   0.138   1.194
 1748TIP3    H2 5209   4.304   0.068   1.314
 1749TIP3   OH2 5210   6.428   1.679   2.225
 1749TIP3    H1 5211   6.470   1.718   2.148
 1749TIP3    H2 5212   6.336   1.667   2.198
 1750TIP3   OH2 5213   6.868   4.915   1.032
 1750TIP3    H1 5214   6.801   4.853   1.061
 1750TIP3    H2 5215   6.908   4.946   1.113
 1751TIP3   OH2 5216   1.741   0.646   1.324
 1751TIP3    H1 5217   1.816   0.587   1.331
 1751TIP3    H2 5218   1.779   0.732   1.309
 1752TIP3   OH2 5219   2.810   1.573   1.506
 1752TIP3    H1 5220   2.766   1.656   1.523
 1752TIP3    H2 5221   2.747   1.506   1.535
 1753TIP3   OH2 5222   0.916   2.384   5.850
 1753TIP3    H1 5223   0.991   2.363   5.906
 1753TIP3    H2 5224   0.955   2.413   5.767
 1754TIP3   OH2 5225   3.508   6.576   4.465
 1754TIP3    H1 5226   3.556   6.645   4.419
 1754TIP3    H2 5227   3.439   6.623   4.512
 1755TIP3   OH2 5228   4.262   0.954   0.582
 1755TIP3    H1 5229   4.289   1.033   0.536
 1755TIP3    H2 5230   4.167   0.958   0.584
 1756TIP3   OH2 5231   0.395   4.446   2.432
 1756TIP3    H1 5232   0.348   4.490   2.503
 1756TIP3    H2 5233   0.327   4.409   2.377
 1757TIP3   OH2 5234   7.029   5.963   1.257
 1757TIP3    H1 5235   6.951   5.997   1.212
 1757TIP3    H2 5236   7.091   5.944   1.187
 1758TIP3   OH2 5237   7.163   0.486   3.647
 1758TIP3    H1 5238   7.164   0.535   3.565
 1758TIP3    H2 5239   7.070   0.472   3.666
 1759TIP3   OH2 5240   4.640   6.763   2.123
 1759TIP3    H1 5241   4.588   6.706   2.066
 1759TIP3    H2 5242   4.722   6.775   2.075
 1760TIP3   OH2 5243   2.843   0.699   5.797
 1760TIP3    H1 5244   2.859   0.632   5.864
 1760TIP3    H2 5245   2.801   0.652   5.725
 1761TIP3   OH2 5246   2.993   1.732   5.887
 1761TIP3    H1 5247   2.982   1.729   5.792
 1761TIP3    H2 5248   3.064   1.670   5.905
 1762TIP3   OH2 5249   0.293   2.311   5.244
 1762TIP3    H1 5250   0.220   2.261   5.280
 1762TIP3    H2 5251   0.371   2.261   5.268
 1763TIP3   OH2 5252   4.455   4.522   0.582
 1763TIP3    H1 5253   4.521   4.528   0.651
 1763TIP3    H2 5254   4.492   4.461   0.519
 1764TIP3   OH2 5255   1.581   5.587   3.051
 1764TIP3    H1 5256   1.668   5.626   3.053
 1764TIP3    H2 5257   1.569   5.558   2.960
 1765TIP3   OH2 5258   2.617   5.564   4.382
 1765TIP3    H1 5259   2.536   5.609   4.407
 1765TIP3    H2 5260   2.667   5.629   4.332
 1766TIP3   OH2 5261   7.128   1.428   5.623
 1766TIP3    H1 5262   7.218   1.399   5.611
 1766TIP3    H2 5263   7.082   1.394   5.546
 1767TIP3   OH2 5264   3.648   4.069   2.932
 1767TIP3    H1 5265   3.707   4.044   2.861
 1767TIP3    H2 5266   3.671   4.011   3.005
 1768TIP3   OH2 5267   0.099   5.703   1.245
 1768TIP3    H1 5268   0.156   5.767   1.285
 1768TIP3    H2 5269   0.042   5.753   1.187
 1769TIP3   OH2 5270   6.608   4.179   2.933
 1769TIP3    H1 5271   6.547   4.140   2.996
 1769TIP3    H2 5272   6.657   4.243   2.986
 1770TIP3   OH2 5273   3.522   5.035   4.495
 1770TIP3    H1 5274   3.495   5.008   4.583
 1770TIP3    H2 5275   3.473   4.978   4.436
 1771TIP3   OH2 5276   2.085   0.654   0.786
 1771TIP3    H1 5277   2.070   0.673   0.878
 1771TIP3    H2 5278   2.027   0.715   0.740
 1772TIP3   OH2 5279   0.838   6.155   2.083
 1772TIP3    H1 5280   0.774   6.191   2.145
 1772TIP3    H2 5281   0.793   6.081   2.043
 1773TIP3   OH2 5282   3.540   2.148   2.521
 1773TIP3    H1 5283   3.508   2.120   2.607
 1773TIP3    H2 5284   3.528   2.243   2.521
 1774TIP3   OH2 5285   5.984   0.361   3.797
 1774TIP3    H1 5286   5.935   0.443   3.804
 1774TIP3    H2 5287   5.918   0.293   3.803
 1775TIP3   OH2 5288   5.271   6.770   2.030
 1775TIP3    H1 5289   5.220   6.797   1.953
 1775TIP3    H2 5290   5.303   6.852   2.067
 1776TIP3   OH2 5291   0.101   2.592   1.137
 1776TIP3    H1 5292   0.099   2.506   1.179
 1776TIP3    H2 5293   0.019   2.633   1.162
 1777TIP3   OH2 5294   1.296   5.486   4.932
 1777TIP3    H1 5295   1.286   5.557   4.994
 1777TIP3    H2 5296   1.347   5.420   4.978
 1778TIP3   OH2 5297   3.276   2.650   1.256
 1778TIP3    H1 5298   3.184   2.626   1.269
 1778TIP3    H2 5299   3.325   2.577   1.294
 1779TIP3   OH2 5300   5.014   6.423   2.393
 1779TIP3    H1 5301   4.923   6.438   2.421
 1779TIP3    H2 5302   5.019   6.462   2.306
 1780TIP3   OH2 5303   0.835   6.672   4.137
 1780TIP3    H1 5304   0.926   6.700   4.144
 1780TIP3    H2 5305   0.839   6.576   4.137
 1781TIP3   OH2 5306   5.533   2.171   2.814
 1781TIP3    H1 5307   5.560   2.214   2.895
 1781TIP3    H2 5308   5.588   2.093   2.810
 1782TIP3   OH2 5309   6.620   2.686   0.880
 1782TIP3    H1 5310   6.695   2.744   0.886
 1782TIP3    H2 5311   6.658   2.599   0.863
 1783TIP3   OH2 5312   2.967   0.976   3.062
 1783TIP3    H1 5313   3.050   0.967   3.016
 1783TIP3    H2 5314   2.924   0.891   3.051
 1784TIP3   OH2 5315   0.187   5.903   5.031
 1784TIP3    H1 5316   0.269   5.947   5.009
 1784TIP3    H2 5317   0.181   5.910   5.126
 1785TIP3   OH2 5318   3.071   2.665   4.937
 1785TIP3    H1 5319   3.098   2.645   5.026
 1785TIP3    H2 5320   2.985   2.705   4.945
 1786TIP3   OH2 5321   4.778   4.862   4.938
 1786TIP3    H1 5322   4.787   4.873   5.032
 1786TIP3    H2 5323   4.833   4.786   4.918
 1787TIP3   OH2 5324   3.507   6.316   1.035
 1787TIP3    H1 5325   3.422   6.308   1.080
 1787TIP3    H2 5326   3.505   6.246   0.970
 1788TIP3   OH2 5327   6.735   6.599   1.795
 1788TIP3    H1 5328   6.773   6.656   1.727
 1788TIP3    H2 5329   6.808   6.542   1.821
 1789TIP3   OH2 5330   6.747   6.449   4.484
 1789TIP3    H1 5331   6.842   6.452   4.482
 1789TIP3    H2 5332   6.726   6.362   4.517
 1790TIP3   OH2 5333   5.625   5.308   4.678
 1790TIP3    H1 5334   5.678   5.230   4.666
 1790TIP3    H2 5335   5.560   5.284   4.743
 1791TIP3   OH2 5336   1.367   4.401   4.679
 1791TIP3    H1 5337   1.462   4.411   4.688
 1791TIP3    H2 5338   1.355   4.311   4.650
 1792TIP3   OH2 5339   6.514   1.751   0.489
 1792TIP3    H1 5340   6.451   1.684   0.515
 1792TIP3    H2 5341   6.510   1.753   0.393
 1793TIP3   OH2 5342   3.314   0.996   0.181
 1793TIP3    H1 5343   3.409   1.002   0.169
 1793TIP3    H2 5344   3.302   0.991   0.276
 1794TIP3   OH2 5345   0.754   0.765   0.829
 1794TIP3    H1 5346   0.663   0.792   0.838
 1794TIP3    H2 5347   0.804   0.847   0.824
 1795TIP3   OH2 5348   3.429   0.084   2.202
 1795TIP3    H1 5349   3.346   0.038   2.194
 1795TIP3    H2 5350   3.453   0.107   2.113
 1796TIP3   OH2 5351   6.560   0.426   2.372
 1796TIP3    H1 5352   6.636   0.398   2.320
 1796TIP3    H2 5353   6.544   0.352   2.432
 1797TIP3   OH2 5354   6.912   6.694   0.705
 1797TIP3    H1 5355   6.849   6.766   0.705
 1797TIP3    H2 5356   6.996   6.735   0.728
 1798TIP3   OH2 5357   0.506   4.338   5.462
 1798TIP3    H1 5358   0.535   4.337   5.553
 1798TIP3    H2 5359   0.528   4.251   5.428
 1799TIP3   OH2 5360   6.125   0.808   3.805
 1799TIP3    H1 5361   6.077   0.881   3.768
 1799TIP3    H2 5362   6.132   0.828   3.898
 1800TIP3   OH2 5363   7.196   3.195   3.023
 1800TIP3    H1 5364   7.107   3.199   2.989
 1800TIP3    H2 5365   7.224   3.104   3.007
 1801TIP3   OH2 5366   2.071   4.996   4.702
 1801TIP3    H1 5367   2.066   4.979   4.796
 1801TIP3    H2 5368   2.149   5.051   4.692
 1802TIP3   OH2 5369   3.402   2.079   3.698
 1802TIP3    H1 5370   3.353   2.055   3.777
 1802TIP3    H2 5371   3.375   2.015   3.632
 1803TIP3   OH2 5372   3.217   4.223   2.717
 1803TIP3    H1 5373   3.139   4.178   2.750
 1803TIP3    H2 5374   3.186   4.270   2.640
 1804TIP3   OH2 5375   5.282   4.014   4.981
 1804TIP3    H1 5376   5.316   4.094   4.941
 1804TIP3    H2 5377   5.187   4.026   4.982
 1805TIP3   OH2 5378   5.130   4.560   2.458
 1805TIP3    H1 5379   5.121   4.559   2.363
 1805TIP3    H2 5380   5.211   4.610   2.474
 1806TIP3   OH2 5381   1.133   3.429   2.007
 1806TIP3    H1 5382   1.043   3.444   2.035
 1806TIP3    H2 5383   1.151   3.499   1.944
 1807TIP3   OH2 5384   5.219   0.040   1.398
 1807TIP3    H1 5385   5.288   0.106   1.397
 1807TIP3    H2 5386   5.262  -0.040   1.368
 1808TIP3   OH2 5387   1.611   0.551   4.839
 1808TIP3    H1 5388   1.694   0.572   4.796
 1808TIP3    H2 5389   1.587   0.632   4.884
 1809TIP3   OH2 5390   0.478   4.018   2.851
 1809TIP3    H1 5391   0.384   4.036   2.854
 1809TIP3    H2 5392   0.494   3.958   2.925
 1810TIP3   OH2 5393   2.299   2.708   5.776
 1810TIP3    H1 5394   2.243   2.676   5.706
 1810TIP3    H2 5395   2.374   2.649   5.776
 1811TIP3   OH2 5396   4.852   6.442  -0.018
 1811TIP3    H1 5397   4.930   6.480  -0.058
 1811TIP3    H2 5398   4.803   6.517   0.015
 1812TIP3   OH2 5399   1.551   6.276   4.917
 1812TIP3    H1 5400   1.589   6.218   4.852
 1812TIP3    H2 5401   1.609   6.268   4.993
 1813TIP3   OH2 5402   2.323   0.879   3.475
 1813TIP3    H1 5403   2.291   0.960   3.437
 1813TIP3    H2 5404   2.245   0.837   3.512
 1814TIP3   OH2 5405   1.860   4.141   4.027
 1814TIP3    H1 5406   1.844   4.188   3.946
 1814TIP3    H2 5407   1.777   4.144   4.074
 1815TIP3   OH2 5408   2.661   0.792   0.146
 1815TIP3    H1 5409   2.658   0.699   0.170
 1815TIP3    H2 5410   2.652   0.792   0.050
 1816TIP3   OH2 5411   1.528   5.676   1.999
 1816TIP3    H1 5412   1.585   5.600   2.013
 1816TIP3    H2 5413   1.578   5.750   2.031
 1817TIP3   OH2 5414   4.941   3.094   0.857
 1817TIP3    H1 5415   5.034   3.114   0.865
 1817TIP3    H2 5416   4.907   3.158   0.794
 1818TIP3   OH2 5417   4.732   3.140   5.664
 1818TIP3    H1 5418   4.698   3.051   5.673
 1818TIP3    H2 5419   4.827   3.129   5.666
 1819TIP3   OH2 5420   1.888   6.359   2.079
 1819TIP3    H1 5421   1.976   6.357   2.114
 1819TIP3    H2 5422   1.862   6.451   2.087
 1820TIP3   OH2 5423   6.605   2.343   2.779
 1820TIP3    H1 5424   6.522   2.384   2.754
 1820TIP3    H2 5425   6.671   2.407   2.755
 1821TIP3   OH2 5426   6.736   1.127   1.907
 1821TIP3    H1 5427   6.743   1.041   1.950
 1821TIP3    H2 5428   6.645   1.130   1.875
 1822TIP3   OH2 5429   6.473   2.650   2.770
 1822TIP3    H1 5430   6.469   2.676   2.678
 1822TIP3    H2 5431   6.493   2.731   2.817
 1823TIP3   OH2 5432   3.938   6.721   4.525
 1823TIP3    H1 5433   3.973   6.763   4.604
 1823TIP3    H2 5434   3.929   6.629   4.549
 1824TIP3   OH2 5435   7.022   3.428   1.769
 1824TIP3    H1 5436   7.057   3.517   1.770
 1824TIP3    H2 5437   6.941   3.433   1.819
 1825TIP3   OH2 5438   3.937   4.288   3.200
 1825TIP3    H1 5439   3.901   4.373   3.228
 1825TIP3    H2 5440   4.020   4.281   3.247
 1826TIP3   OH2 5441   5.524   2.684   3.073
 1826TIP3    H1 5442   5.552   2.773   3.090
 1826TIP3    H2 5443   5.568   2.631   3.140
 1827TIP3   OH2 5444   0.999   5.045   5.629
 1827TIP3    H1 5445   0.982   5.112   5.694
 1827TIP3    H2 5446   0.994   4.962   5.677
 1828TIP3   OH2 5447   2.839   0.513   3.398
 1828TIP3    H1 5448   2.783   0.498   3.474
 1828TIP3    H2 5449   2.779   0.511   3.323
 1829TIP3   OH2 5450   0.697   1.387   0.282
 1829TIP3    H1 5451   0.698   1.353   0.371
 1829TIP3    H2 5452   0.726   1.478   0.290
 1830TIP3   OH2 5453   1.143   6.621   4.843
 1830TIP3    H1 5454   1.214   6.608   4.780
 1830TIP3    H2 5455   1.117   6.532   4.869
 1831TIP3   OH2 5456   4.379   5.636   3.438
 1831TIP3    H1 5457   4.373   5.724   3.400
 1831TIP3    H2 5458   4.287   5.608   3.446
 1832TIP3   OH2 5459   3.390   4.798   1.922
 1832TIP3    H1 5460   3.415   4.771   2.010
 1832TIP3    H2 5461   3.401   4.720   1.868
 1833TIP3   OH2 5462   5.866   3.043   3.601
 1833TIP3    H1 5463   5.890   3.091   3.522
 1833TIP3    H2 5464   5.924   2.968   3.602
 1834TIP3   OH2 5465   1.193   2.331   3.059
 1834TIP3    H1 5466   1.226   2.389   2.991
 1834TIP3    H2 5467   1.181   2.388   3.136
 1835TIP3   OH2 5468   4.358   4.911   3.840
 1835TIP3    H1 5469   4.331   4.891   3.750
 1835TIP3    H2 5470   4.319   4.841   3.892
 1836TIP3   OH2 5471   0.332   4.763   0.420
 1836TIP3    H1 5472   0.393   4.836   0.436
 1836TIP3    H2 5473   0.372   4.714   0.348
 1837TIP3   OH2 5474   3.133   6.686   1.029
 1837TIP3    H1 5475   3.099   6.760   1.080
 1837TIP3    H2 5476   3.178   6.727   0.955
 1838TIP3   OH2 5477   1.115   3.975   5.265
 1838TIP3    H1 5478   1.191   3.993   5.209
 1838TIP3    H2 5479   1.125   4.035   5.339
 1839TIP3   OH2 5480   5.151   3.867   3.003
 1839TIP3    H1 5481   5.203   3.804   3.052
 1839TIP3    H2 5482   5.086   3.898   3.067
 1840TIP3   OH2 5483   6.501   5.612   3.459
 1840TIP3    H1 5484   6.438   5.667   3.504
 1840TIP3    H2 5485   6.574   5.671   3.436
 1841TIP3   OH2 5486   3.768   4.635   4.893
 1841TIP3    H1 5487   3.740   4.647   4.984
 1841TIP3    H2 5488   3.686   4.616   4.846
 1842TIP3   OH2 5489   5.527   4.487   0.947
 1842TIP3    H1 5490   5.486   4.450   1.025
 1842TIP3    H2 5491   5.508   4.581   0.951
 1843TIP3   OH2 5492   0.012   3.056   4.135
 1843TIP3    H1 5493  -0.007   2.976   4.087
 1843TIP3    H2 5494  -0.014   3.127   4.076
 1844TIP3   OH2 5495   1.965   4.468   4.603
 1844TIP3    H1 5496   2.057   4.477   4.626
 1844TIP3    H2 5497   1.935   4.558   4.588
 1845TIP3   OH2 5498   1.075   2.691   5.333
 1845TIP3    H1 5499   1.019   2.769   5.335
 1845TIP3    H2 5500   1.019   2.620   5.364
 1846TIP3   OH2 5501   6.183   0.522   1.197
 1846TIP3    H1 5502   6.278   0.526   1.207
 1846TIP3    H2 5503   6.163   0.586   1.130
 1847TIP3   OH2 5504   3.740   2.056   3.566
 1847TIP3    H1 5505   3.707   2.146   3.561
 1847TIP3    H2 5506   3.785   2.052   3.651
 1848TIP3   OH2 5507   3.965   3.398   1.969
 1848TIP3    H1 5508   3.899   3.331   1.989
 1848TIP3    H2 5509   4.048   3.356   1.991
 1849TIP3   OH2 5510   2.105   3.313   5.357
 1849TIP3    H1 5511   2.155   3.262   5.293
 1849TIP3    H2 5512   2.066   3.247   5.415
 1850TIP3   OH2 5513   3.483   2.092   1.767
 1850TIP3    H1 5514   3.527   2.158   1.821
 1850TIP3    H2 5515   3.398   2.079   1.808
 1851TIP3   OH2 5516   2.093   3.899   2.602
 1851TIP3    H1 5517   2.099   3.913   2.507
 1851TIP3    H2 5518   2.179   3.867   2.627
 1852TIP3   OH2 5519   2.866   1.348   5.680
 1852TIP3    H1 5520   2.848   1.264   5.724
 1852TIP3    H2 5521   2.954   1.371   5.708
 1853TIP3   OH2 5522   2.672   5.704   4.173
 1853TIP3    H1 5523   2.743   5.713   4.109
 1853TIP3    H2 5524   2.632   5.792   4.177
 1854TIP3   OH2 5525   5.718   5.336   0.279
 1854TIP3    H1 5526   5.777   5.261   0.275
 1854TIP3    H2 5527   5.694   5.342   0.372
 1855TIP3   OH2 5528   1.189   1.437   1.440
 1855TIP3    H1 5529   1.213   1.385   1.363
 1855TIP3    H2 5530   1.230   1.390   1.513
 1856TIP3   OH2 5531   7.091   2.130   1.212
 1856TIP3    H1 5532   7.056   2.051   1.171
 1856TIP3    H2 5533   7.107   2.106   1.303
 1857TIP3   OH2 5534   1.343   3.859   2.325
 1857TIP3    H1 5535   1.294   3.781   2.299
 1857TIP3    H2 5536   1.435   3.834   2.317
 1858TIP3   OH2 5537   6.026   0.399   0.632
 1858TIP3    H1 5538   5.972   0.339   0.581
 1858TIP3    H2 5539   5.990   0.486   0.613
 1859TIP3   OH2 5540   6.322   4.677   0.250
 1859TIP3    H1 5541   6.316   4.607   0.186
 1859TIP3    H2 5542   6.233   4.714   0.254
 1860TIP3   OH2 5543   4.128   3.971   1.759
 1860TIP3    H1 5544   4.190   3.991   1.829
 1860TIP3    H2 5545   4.054   3.930   1.804
 1861TIP3   OH2 5546   0.076   4.004   0.844
 1861TIP3    H1 5547   0.106   4.030   0.756
 1861TIP3    H2 5548   0.041   3.916   0.832
 1862TIP3   OH2 5549   2.073   5.074   5.923
 1862TIP3    H1 5550   2.114   5.111   6.001
 1862TIP3    H2 5551   2.106   4.984   5.919
 1863TIP3   OH2 5552   3.218   5.814   2.826
 1863TIP3    H1 5553   3.182   5.889   2.872
 1863TIP3    H2 5554   3.228   5.746   2.893
 1864TIP3   OH2 5555   3.513   0.533   3.577
 1864TIP3    H1 5556   3.483   0.532   3.667
 1864TIP3    H2 5557   3.600   0.574   3.581
 1865TIP3   OH2 5558   1.204   1.355   5.619
 1865TIP3    H1 5559   1.207   1.404   5.538
 1865TIP3    H2 5560   1.281   1.298   5.616
 1866TIP3   OH2 5561   6.918   0.370   1.322
 1866TIP3    H1 5562   6.823   0.359   1.316
 1866TIP3    H2 5563   6.951   0.282   1.337
 1867TIP3   OH2 5564   6.317   4.417   2.455
 1867TIP3    H1 5565   6.284   4.482   2.518
 1867TIP3    H2 5566   6.247   4.409   2.390
 1868TIP3   OH2 5567   1.735   2.930   4.564
 1868TIP3    H1 5568   1.647   2.932   4.602
 1868TIP3    H2 5569   1.732   2.857   4.501
 1869TIP3   OH2 5570   3.819   2.890   2.204
 1869TIP3    H1 5571   3.771   2.817   2.164
 1869TIP3    H2 5572   3.765   2.917   2.278
 1870TIP3   OH2 5573   2.544   1.491   0.083
 1870TIP3    H1 5574   2.485   1.546   0.134
 1870TIP3    H2 5575   2.487   1.445   0.022
 1871TIP3   OH2 5576   7.079   6.687   1.521
 1871TIP3    H1 5577   7.091   6.737   1.602
 1871TIP3    H2 5578   6.984   6.681   1.510
 1872TIP3   OH2 5579   0.210   4.699   3.986
 1872TIP3    H1 5580   0.205   4.650   4.067
 1872TIP3    H2 5581   0.124   4.741   3.978
 1873TIP3   OH2 5582   5.824   5.106   2.934
 1873TIP3    H1 5583   5.837   5.022   2.890
 1873TIP3    H2 5584   5.873   5.098   3.016
 1874TIP3   OH2 5585   2.272   2.051   0.907
 1874TIP3    H1 5586   2.176   2.059   0.905
 1874TIP3    H2 5587   2.304   2.139   0.886
 1875TIP3   OH2 5588   6.690   0.453   5.417
 1875TIP3    H1 5589   6.777   0.415   5.402
 1875TIP3    H2 5590   6.667   0.492   5.333
 1876TIP3   OH2 5591   6.026   1.378   5.188
 1876TIP3    H1 5592   6.053   1.433   5.262
 1876TIP3    H2 5593   6.108   1.339   5.157
 1877TIP3   OH2 5594   6.622   4.009   0.164
 1877TIP3    H1 5595   6.636   4.022   0.258
 1877TIP3    H2 5596   6.709   3.988   0.130
 1878TIP3   OH2 5597   3.268   5.697   2.344
 1878TIP3    H1 5598   3.302   5.748   2.417
 1878TIP3    H2 5599   3.292   5.747   2.266
 1879TIP3   OH2 5600   0.512   4.460   3.530
 1879TIP3    H1 5601   0.508   4.550   3.561
 1879TIP3    H2 5602   0.585   4.459   3.469
 1880TIP3   OH2 5603   5.746   2.497   3.681
 1880TIP3    H1 5604   5.773   2.406   3.697
 1880TIP3    H2 5605   5.714   2.496   3.591
 1881TIP3   OH2 5606   2.661   2.793   4.305
 1881TIP3    H1 5607   2.638   2.863   4.365
 1881TIP3    H2 5608   2.607   2.719   4.332
 1882TIP3   OH2 5609   0.540   3.179   1.674
 1882TIP3    H1 5610   0.552   3.088   1.701
 1882TIP3    H2 5611   0.485   3.217   1.742
 1883TIP3   OH2 5612   4.410   2.598   2.166
 1883TIP3    H1 5613   4.363   2.535   2.113
 1883TIP3    H2 5614   4.502   2.579   2.150
 1884TIP3   OH2 5615   2.521   2.483   5.552
 1884TIP3    H1 5616   2.605   2.526   5.538
 1884TIP3    H2 5617   2.517   2.470   5.647
 1885TIP3   OH2 5618   6.630   4.456   2.760
 1885TIP3    H1 5619   6.705   4.440   2.704
 1885TIP3    H2 5620   6.663   4.442   2.849
 1886TIP3   OH2 5621   5.994   5.138   3.216
 1886TIP3    H1 5622   5.956   5.217   3.255
 1886TIP3    H2 5623   6.064   5.171   3.159
 1887TIP3   OH2 5624   3.997   5.802   0.525
 1887TIP3    H1 5625   4.037   5.889   0.518
 1887TIP3    H2 5626   4.021   5.758   0.443
 1888TIP3   OH2 5627   3.660   2.578   5.018
 1888TIP3    H1 5628   3.716   2.561   4.943
 1888TIP3    H2 5629   3.572   2.586   4.981
 1889TIP3   OH2 5630   6.112   1.865   4.295
 1889TIP3    H1 5631   6.194   1.821   4.318
 1889TIP3    H2 5632   6.138   1.932   4.231
 1890TIP3   OH2 5633   0.871   1.203   1.104
 1890TIP3    H1 5634   0.930   1.158   1.164
 1890TIP3    H2 5635   0.926   1.269   1.062
 1891TIP3   OH2 5636   2.907   6.584   1.826
 1891TIP3    H1 5637   2.829   6.539   1.794
 1891TIP3    H2 5638   2.893   6.592   1.920
 1892TIP3   OH2 5639   0.075   1.603   4.412
 1892TIP3    H1 5640   0.119   1.637   4.491
 1892TIP3    H2 5641   0.104   1.661   4.342
 1893TIP3   OH2 5642   7.115   5.217   5.869
 1893TIP3    H1 5643   7.192   5.201   5.814
 1893TIP3    H2 5644   7.137   5.297   5.917
 1894TIP3   OH2 5645   6.616   2.811   1.536
 1894TIP3    H1 5646   6.660   2.868   1.599
 1894TIP3    H2 5647   6.570   2.871   1.477
 1895TIP3   OH2 5648   1.678   3.095   4.845
 1895TIP3    H1 5649   1.607   3.092   4.909
 1895TIP3    H2 5650   1.646   3.043   4.771
 1896TIP3   OH2 5651   4.962   5.900   3.461
 1896TIP3    H1 5652   4.890   5.940   3.411
 1896TIP3    H2 5653   4.918   5.849   3.529
 1897TIP3   OH2 5654   4.461   2.629   5.751
 1897TIP3    H1 5655   4.552   2.634   5.778
 1897TIP3    H2 5656   4.453   2.542   5.711
 1898TIP3   OH2 5657   0.098   0.422   0.078
 1898TIP3    H1 5658   0.019   0.443   0.028
 1898TIP3    H2 5659   0.167   0.421   0.012
 1899TIP3   OH2 5660   1.181   6.488   5.238
 1899TIP3    H1 5661   1.231   6.407   5.243
 1899TIP3    H2 5662   1.106   6.473   5.296
 1900TIP3   OH2 5663   5.340   5.747   4.206
 1900TIP3    H1 5664   5.319   5.654   4.215
 1900TIP3    H2 5665   5.317   5.784   4.292
 1901TIP3   OH2 5666   0.893   1.460   4.097
 1901TIP3    H1 5667   0.959   1.459   4.166
 1901TIP3    H2 5668   0.841   1.538   4.114
 1902TIP3   OH2 5669   4.786   2.483   1.121
 1902TIP3    H1 5670   4.723   2.464   1.052
 1902TIP3    H2 5671   4.773   2.575   1.141
 1903TIP3   OH2 5672   0.477   3.489   1.994
 1903TIP3    H1 5673   0.508   3.414   2.045
 1903TIP3    H2 5674   0.456   3.555   2.060
 1904TIP3   OH2 5675   0.238   2.922   2.484
 1904TIP3    H1 5676   0.221   2.971   2.403
 1904TIP3    H2 5677   0.262   2.989   2.548
 1905TIP3   OH2 5678   4.219   3.948   2.929
 1905TIP3    H1 5679   4.201   3.854   2.938
 1905TIP3    H2 5680   4.277   3.954   2.853
 1906TIP3   OH2 5681   0.104   4.859   1.314
 1906TIP3    H1 5682   0.149   4.937   1.283
 1906TIP3    H2 5683   0.099   4.871   1.409
 1907TIP3   OH2 5684   7.003   1.936   5.210
 1907TIP3    H1 5685   6.976   1.947   5.119
 1907TIP3    H2 5686   7.049   1.851   5.212
 1908TIP3   OH2 5687   6.368   3.151   1.129
 1908TIP3    H1 5688   6.331   3.189   1.209
 1908TIP3    H2 5689   6.294   3.112   1.084
 1909TIP3   OH2 5690   2.810   4.722   2.686
 1909TIP3    H1 5691   2.800   4.816   2.675
 1909TIP3    H2 5692   2.789   4.705   2.778
 1910TIP3   OH2 5693   5.881   0.327   2.748
 1910TIP3    H1 5694   5.856   0.306   2.658
 1910TIP3    H2 5695   5.816   0.391   2.776
 1911TIP3   OH2 5696   0.468   2.013   1.444
 1911TIP3    H1 5697   0.417   2.049   1.372
 1911TIP3    H2 5698   0.558   2.013   1.413
 1912TIP3   OH2 5699   0.976   5.305   5.248
 1912TIP3    H1 5700   1.041   5.374   5.262
 1912TIP3    H2 5701   1.027   5.224   5.243
 1913TIP3   OH2 5702   4.512   4.311   5.339
 1913TIP3    H1 5703   4.500   4.311   5.434
 1913TIP3    H2 5704   4.590   4.257   5.325
 1914TIP3   OH2 5705   2.700   1.583   5.782
 1914TIP3    H1 5706   2.738   1.590   5.869
 1914TIP3    H2 5707   2.730   1.499   5.749
 1915TIP3   OH2 5708   0.873   3.366   3.569
 1915TIP3    H1 5709   0.818   3.434   3.532
 1915TIP3    H2 5710   0.948   3.360   3.510
 1916TIP3   OH2 5711   4.080   3.007   2.217
 1916TIP3    H1 5712   4.076   3.066   2.142
 1916TIP3    H2 5713   4.003   2.950   2.207
 1917TIP3   OH2 5714   4.231   5.051   2.730
 1917TIP3    H1 5715   4.300   4.988   2.712
 1917TIP3    H2 5716   4.271   5.136   2.710
 1918TIP3   OH2 5717   4.215   2.145   2.966
 1918TIP3    H1 5718   4.162   2.113   3.039
 1918TIP3    H2 5719   4.160   2.134   2.889
 1919TIP3   OH2 5720   1.994   1.877   2.388
 1919TIP3    H1 5721   1.937   1.816   2.343
 1919TIP3    H2 5722   1.945   1.904   2.466
 1920TIP3   OH2 5723   1.018   3.674   4.225
 1920TIP3    H1 5724   1.012   3.712   4.137
 1920TIP3    H2 5725   1.097   3.714   4.263
 1921TIP3   OH2 5726   0.664   0.433   5.395
 1921TIP3    H1 5727   0.735   0.466   5.340
 1921TIP3    H2 5728   0.690   0.459   5.484
 1922TIP3   OH2 5729   4.053   5.200   2.011
 1922TIP3    H1 5730   4.142   5.202   2.046
 1922TIP3    H2 5731   4.030   5.292   1.998
 1923TIP3   OH2 5732   0.567   5.526   1.694
 1923TIP3    H1 5733   0.507   5.523   1.768
 1923TIP3    H2 5734   0.620   5.446   1.704
 1924TIP3   OH2 5735   0.717   4.159   2.923
 1924TIP3    H1 5736   0.632   4.135   2.886
 1924TIP3    H2 5737   0.773   4.176   2.847
 1925TIP3   OH2 5738   1.369   6.595   4.674
 1925TIP3    H1 5739   1.379   6.684   4.707
 1925TIP3    H2 5740   1.457   6.569   4.647
 1926TIP3   OH2 5741   6.433   3.160   3.165
 1926TIP3    H1 5742   6.378   3.236   3.179
 1926TIP3    H2 5743   6.372   3.090   3.143
 1927TIP3   OH2 5744   4.642   0.212   2.693
 1927TIP3    H1 5745   4.639   0.185   2.601
 1927TIP3    H2 5746   4.570   0.275   2.702
 1928TIP3   OH2 5747   3.121   6.251   4.047
 1928TIP3    H1 5748   3.203   6.205   4.066
 1928TIP3    H2 5749   3.126   6.331   4.100
 1929TIP3   OH2 5750   0.099   5.339   2.531
 1929TIP3    H1 5751   0.099   5.334   2.627
 1929TIP3    H2 5752   0.008   5.357   2.508
 1930TIP3   OH2 5753   3.127   3.578   5.450
 1930TIP3    H1 5754   3.186   3.568   5.374
 1930TIP3    H2 5755   3.122   3.491   5.488
 1931TIP3   OH2 5756   4.981   3.750   1.813
 1931TIP3    H1 5757   5.001   3.843   1.806
 1931TIP3    H2 5758   4.945   3.740   1.901
 1932TIP3   OH2 5759   5.726   4.969   1.644
 1932TIP3    H1 5760   5.668   4.912   1.695
 1932TIP3    H2 5761   5.678   4.986   1.564
 1933TIP3   OH2 5762   2.088   6.002   2.454
 1933TIP3    H1 5763   1.997   5.992   2.426
 1933TIP3    H2 5764   2.105   6.096   2.447
 1934TIP3   OH2 5765   3.516   3.666   1.469
 1934TIP3    H1 5766   3.584   3.714   1.420
 1934TIP3    H2 5767   3.522   3.576   1.437
 1935TIP3   OH2 5768   5.760   5.498   2.234
 1935TIP3    H1 5769   5.695   5.561   2.203
 1935TIP3    H2 5770   5.840   5.518   2.185
 1936TIP3   OH2 5771   6.759   5.131   0.494
 1936TIP3    H1 5772   6.762   5.035   0.500
 1936TIP3    H2 5773   6.687   5.156   0.553
 1937TIP3   OH2 5774   1.959   5.926   4.189
 1937TIP3    H1 5775   1.883   5.868   4.191
 1937TIP3    H2 5776   1.923   6.014   4.199
 1938TIP3   OH2 5777   4.159   6.346   2.762
 1938TIP3    H1 5778   4.210   6.426   2.748
 1938TIP3    H2 5779   4.217   6.275   2.733
 1939TIP3   OH2 5780   5.789   0.330   5.376
 1939TIP3    H1 5781   5.816   0.239   5.383
 1939TIP3    H2 5782   5.827   0.372   5.454
 1940TIP3   OH2 5783   4.111   4.400   3.371
 1940TIP3    H1 5784   4.197   4.443   3.372
 1940TIP3    H2 5785   4.078   4.410   3.461
 1941TIP3   OH2 5786   0.677   2.543   3.579
 1941TIP3    H1 5787   0.726   2.593   3.514
 1941TIP3    H2 5788   0.704   2.580   3.663
 1942TIP3   OH2 5789   2.825   1.079   5.723
 1942TIP3    H1 5790   2.808   1.050   5.634
 1942TIP3    H2 5791   2.903   1.032   5.750
 1943TIP3   OH2 5792   2.742   5.884   1.105
 1943TIP3    H1 5793   2.747   5.807   1.048
 1943TIP3    H2 5794   2.832   5.901   1.130
 1944TIP3   OH2 5795   7.136   1.099   0.454
 1944TIP3    H1 5796   7.116   1.159   0.526
 1944TIP3    H2 5797   7.053   1.058   0.432
 1945TIP3   OH2 5798   4.957   0.441   3.477
 1945TIP3    H1 5799   5.017   0.444   3.402
 1945TIP3    H2 5800   4.889   0.380   3.449
 1946TIP3   OH2 5801   0.832   3.250   1.346
 1946TIP3    H1 5802   0.815   3.200   1.425
 1946TIP3    H2 5803   0.757   3.231   1.288
 1947TIP3   OH2 5804   0.814   0.010   3.805
 1947TIP3    H1 5805   0.804  -0.065   3.864
 1947TIP3    H2 5806   0.807   0.086   3.863
 1948TIP3   OH2 5807   5.687   3.605   3.705
 1948TIP3    H1 5808   5.764   3.576   3.754
 1948TIP3    H2 5809   5.722   3.664   3.638
 1949TIP3   OH2 5810   1.262   1.560   2.691
 1949TIP3    H1 5811   1.298   1.475   2.714
 1949TIP3    H2 5812   1.314   1.589   2.616
 1950TIP3   OH2 5813   2.549   6.319   3.286
 1950TIP3    H1 5814   2.524   6.407   3.256
 1950TIP3    H2 5815   2.515   6.260   3.218
 1951TIP3   OH2 5816   4.884   3.348   3.046
 1951TIP3    H1 5817   4.910   3.433   3.082
 1951TIP3    H2 5818   4.897   3.286   3.118
 1952TIP3   OH2 5819   6.511   2.199   3.021
 1952TIP3    H1 5820   6.535   2.290   3.042
 1952TIP3    H2 5821   6.508   2.197   2.925
 1953TIP3   OH2 5822   5.147   2.297   0.362
 1953TIP3    H1 5823   5.055   2.306   0.388
 1953TIP3    H2 5824   5.190   2.261   0.440
 1954TIP3   OH2 5825   6.070   4.363   5.178
 1954TIP3    H1 5826   6.018   4.439   5.155
 1954TIP3    H2 5827   6.141   4.362   5.113
 1955TIP3   OH2 5828   6.691   4.563   0.476
 1955TIP3    H1 5829   6.618   4.621   0.455
 1955TIP3    H2 5830   6.676   4.485   0.422
 1956TIP3   OH2 5831   4.573   2.922   1.002
 1956TIP3    H1 5832   4.599   2.960   1.085
 1956TIP3    H2 5833   4.570   2.996   0.941
 1957TIP3   OH2 5834   6.100   5.645   3.280
 1957TIP3    H1 5835   6.083   5.596   3.199
 1957TIP3    H2 5836   6.171   5.597   3.323
 1958TIP3   OH2 5837   6.815   4.800   5.201
 1958TIP3    H1 5838   6.885   4.772   5.142
 1958TIP3    H2 5839   6.738   4.805   5.145
 1959TIP3   OH2 5840   3.864   3.248   0.226
 1959TIP3    H1 5841   3.829   3.163   0.252
 1959TIP3    H2 5842   3.882   3.240   0.133
 1960TIP3   OH2 5843   3.025   6.439   0.960
 1960TIP3    H1 5844   2.999   6.420   0.869
 1960TIP3    H2 5845   3.068   6.524   0.955
 1961TIP3   OH2 5846   5.236   1.889   4.675
 1961TIP3    H1 5847   5.315   1.865   4.724
 1961TIP3    H2 5848   5.221   1.980   4.697
 1962TIP3   OH2 5849   1.915   6.095   5.617
 1962TIP3    H1 5850   2.001   6.083   5.658
 1962TIP3    H2 5851   1.873   6.163   5.670
 1963TIP3   OH2 5852   5.035   2.569   1.378
 1963TIP3    H1 5853   5.043   2.660   1.409
 1963TIP3    H2 5854   5.091   2.566   1.300
 1964TIP3   OH2 5855   3.475   6.108   4.373
 1964TIP3    H1 5856   3.553   6.138   4.327
 1964TIP3    H2 5857   3.432   6.189   4.402
 1965TIP3   OH2 5858   5.374   3.835   5.617
 1965TIP3    H1 5859   5.369   3.830   5.712
 1965TIP3    H2 5860   5.364   3.927   5.596
 1966TIP3   OH2 5861   1.527   1.272   1.491
 1966TIP3    H1 5862   1.617   1.258   1.520
 1966TIP3    H2 5863   1.501   1.189   1.452
 1967TIP3   OH2 5864   3.273   0.772   0.916
 1967TIP3    H1 5865   3.232   0.706   0.860
 1967TIP3    H2 5866   3.367   0.758   0.903
 1968TIP3   OH2 5867   5.303   2.900   3.727
 1968TIP3    H1 5868   5.299   2.858   3.641
 1968TIP3    H2 5869   5.387   2.872   3.763
 1969TIP3   OH2 5870   2.720   3.721   4.375
 1969TIP3    H1 5871   2.632   3.709   4.339
 1969TIP3    H2 5872   2.737   3.640   4.423
 1970TIP3   OH2 5873   1.516   2.853   4.364
 1970TIP3    H1 5874   1.528   2.849   4.269
 1970TIP3    H2 5875   1.454   2.924   4.378
 1971TIP3   OH2 5876   6.487   1.342   5.787
 1971TIP3    H1 5877   6.509   1.434   5.797
 1971TIP3    H2 5878   6.392   1.341   5.775
 1972TIP3   OH2 5879   3.893   3.342   5.148
 1972TIP3    H1 5880   3.851   3.425   5.172
 1972TIP3    H2 5881   3.823   3.292   5.107
 1973TIP3   OH2 5882   7.182   6.293   2.004
 1973TIP3    H1 5883   7.224   6.275   1.920
 1973TIP3    H2 5884   7.242   6.351   2.049
 1974TIP3   OH2 5885   6.240   0.413   5.772
 1974TIP3    H1 5886   6.329   0.379   5.779
 1974TIP3    H2 5887   6.249   0.508   5.778
 1975TIP3   OH2 5888   2.745   3.957   4.255
 1975TIP3    H1 5889   2.747   3.868   4.289
 1975TIP3    H2 5890   2.705   3.948   4.168
 1976TIP3   OH2 5891   2.686   1.994   2.327
 1976TIP3    H1 5892   2.630   1.966   2.398
 1976TIP3    H2 5893   2.773   2.004   2.367
 1977TIP3   OH2 5894   3.440   1.294   5.012
 1977TIP3    H1 5895   3.526   1.278   4.974
 1977TIP3    H2 5896   3.428   1.389   5.005
 1978TIP3   OH2 5897   1.818   1.853   1.010
 1978TIP3    H1 5898   1.860   1.908   1.076
 1978TIP3    H2 5899   1.852   1.887   0.927
 1979TIP3   OH2 5900   2.950   2.859   5.212
 1979TIP3    H1 5901   3.020   2.909   5.170
 1979TIP3    H2 5902   2.982   2.769   5.215
 1980TIP3   OH2 5903   4.914   4.853   5.440
 1980TIP3    H1 5904   4.860   4.900   5.376
 1980TIP3    H2 5905   4.953   4.923   5.493
 1981TIP3   OH2 5906   6.210   4.557   1.938
 1981TIP3    H1 5907   6.252   4.575   1.854
 1981TIP3    H2 5908   6.152   4.631   1.953
 1982TIP3   OH2 5909   5.840   6.552   4.665
 1982TIP3    H1 5910   5.895   6.592   4.732
 1982TIP3    H2 5911   5.899   6.535   4.591
 1983TIP3   OH2 5912   3.799   1.896   0.620
 1983TIP3    H1 5913   3.881   1.911   0.667
 1983TIP3    H2 5914   3.824   1.900   0.527
 1984TIP3   OH2 5915   3.427   3.746   2.932
 1984TIP3    H1 5916   3.507   3.726   2.883
 1984TIP3    H2 5917   3.414   3.840   2.918
 1985TIP3   OH2 5918   2.446   1.717   3.027
 1985TIP3    H1 5919   2.410   1.733   3.114
 1985TIP3    H2 5920   2.466   1.804   2.993
 1986TIP3   OH2 5921   2.175   3.233   4.866
 1986TIP3    H1 5922   2.213   3.277   4.942
 1986TIP3    H2 5923   2.193   3.140   4.881
 1987TIP3   OH2 5924   6.577   2.238   4.091
 1987TIP3    H1 5925   6.520   2.296   4.040
 1987TIP3    H2 5926   6.519   2.171   4.126
 1988TIP3   OH2 5927   6.761   4.377   1.548
 1988TIP3    H1 5928   6.690   4.339   1.600
 1988TIP3    H2 5929   6.730   4.465   1.528
 1989TIP3   OH2 5930   5.337   4.411   3.366
 1989TIP3    H1 5931   5.274   4.397   3.296
 1989TIP3    H2 5932   5.415   4.363   3.338
 1990TIP3   OH2 5933   6.357   1.691   4.814
 1990TIP3    H1 5934   6.282   1.635   4.832
 1990TIP3    H2 5935   6.354   1.758   4.883
 1991TIP3   OH2 5936   5.066   3.931   4.151
 1991TIP3    H1 5937   5.096   3.859   4.206
 1991TIP3    H2 5938   4.975   3.944   4.175
 1992TIP3   OH2 5939   4.750   3.479   1.012
 1992TIP3    H1 5940   4.716   3.551   0.958
 1992TIP3    H2 5941   4.776   3.412   0.950
 1993TIP3   OH2 5942   1.034   4.979   0.232
 1993TIP3    H1 5943   1.030   5.014   0.320
 1993TIP3    H2 5944   1.115   4.928   0.230
 1994TIP3   OH2 5945   5.231   6.373   5.108
 1994TIP3    H1 5946   5.212   6.289   5.066
 1994TIP3    H2 5947   5.275   6.424   5.040
 1995TIP3   OH2 5948   0.018   4.386   4.398
 1995TIP3    H1 5949   0.068   4.364   4.476
 1995TIP3    H2 5950  -0.054   4.322   4.397
 1996TIP3   OH2 5951   1.234   6.420   3.758
 1996TIP3    H1 5952   1.249   6.378   3.843
 1996TIP3    H2 5953   1.234   6.348   3.696
 1997TIP3   OH2 5954   4.890   5.851   1.935
 1997TIP3    H1 5955   4.843   5.767   1.937
 1997TIP3    H2 5956   4.918   5.861   1.844
 1998TIP3   OH2 5957   4.749   4.312   2.656
 1998TIP3    H1 5958   4.717   4.369   2.726
 1998TIP3    H2 5959   4.842   4.300   2.676
 1999TIP3   OH2 5960   5.054   5.979   2.379
 1999TIP3    H1 5961   4.973   6.021   2.352
 1999TIP3    H2 5962   5.100   6.046   2.430
 2000TIP3   OH2 5963   3.037   2.614   0.550
 2000TIP3    H1 5964   2.969   2.621   0.483
 2000TIP3    H2 5965   3.025   2.527   0.588
 2001TIP3   OH2 5966   5.231   5.600   5.376
 2001TIP3    H1 5967   5.325   5.609   5.362
 2001TIP3    H2 5968   5.196   5.688   5.360
 2002TIP3   OH2 5969   4.655   1.697   0.347
 2002TIP3    H1 5970   4.722   1.633   0.369
 2002TIP3    H2 5971   4.700   1.760   0.290
 2003TIP3   OH2 5972   6.113   5.580   2.592
 2003TIP3    H1 5973   6.115   5.676   2.589
 2003TIP3    H2 5974   6.034   5.556   2.543
 2004TIP3   OH2 5975   2.057   3.133   3.159
 2004TIP3    H1 5976   1.977   3.130   3.106
 2004TIP3    H2 5977   2.042   3.206   3.219
 2005TIP3   OH2 5978   7.237   2.233   2.875
 2005TIP3    H1 5979   7.281   2.186   2.803
 2005TIP3    H2 5980   7.174   2.170   2.910
 2006TIP3   OH2 5981   4.909   4.814   3.842
 2006TIP3    H1 5982   4.845   4.791   3.909
 2006TIP3    H2 5983   4.914   4.910   3.846
 2007TIP3   OH2 5984   4.391   1.519   4.333
 2007TIP3    H1 5985   4.366   1.511   4.241
 2007TIP3    H2 5986   4.326   1.578   4.371
 2008TIP3   OH2 5987   5.588   0.078   2.986
 2008TIP3    H1 5988   5.559   0.075   2.895
 2008TIP3    H2 5989   5.683   0.063   2.981
 2009TIP3   OH2 5990   3.295   1.645   1.407
 2009TIP3    H1 5991   3.212   1.646   1.358
 2009TIP3    H2 5992   3.303   1.733   1.443
 2010TIP3   OH2 5993   3.161   6.549   2.326
 2010TIP3    H1 5994   3.195   6.468   2.363
 2010TIP3    H2 5995   3.102   6.521   2.256
 2011TIP3   OH2 5996   6.350   4.578   3.507
 2011TIP3    H1 5997   6.303   4.611   3.583
 2011TIP3    H2 5998   6.422   4.527   3.543
 2012TIP3   OH2 5999   2.974   4.431   5.478
 2012TIP3    H1 6000   2.945   4.444   5.388
 2012TIP3    H2 6001   2.897   4.449   5.531
 2013TIP3   OH2 6002   3.109   3.782   1.147
 2013TIP3    H1 6003   3.166   3.707   1.165
 2013TIP3    H2 6004   3.026   3.743   1.118
 2014TIP3   OH2 6005   5.591   5.442   5.629
 2014TIP3    H1 6006   5.665   5.393   5.663
 2014TIP3    H2 6007   5.566   5.501   5.700
 2015TIP3   OH2 6008   3.490   4.067   5.518
 2015TIP3    H1 6009   3.572   4.061   5.470
 2015TIP3    H2 6010   3.422   4.063   5.450
 2016TIP3   OH2 6011   2.445   6.122   3.139
 2016TIP3    H1 6012   2.353   6.148   3.145
 2016TIP3    H2 6013   2.453   6.087   3.050
 2017TIP3   OH2 6014   1.655   0.186   1.374
 2017TIP3    H1 6015   1.577   0.141   1.340
 2017TIP3    H2 6016   1.722   0.117   1.377
 2018TIP3   OH2 6017   3.771   4.168   3.553
 2018TIP3    H1 6018   3.795   4.096   3.494
 2018TIP3    H2 6019   3.755   4.126   3.637
 2019TIP3   OH2 6020   4.840   0.635   3.037
 2019TIP3    H1 6021   4.781   0.698   3.077
 2019TIP3    H2 6022   4.928   0.667   3.058
 2020TIP3   OH2 6023   4.127   1.537   2.288
 2020TIP3    H1 6024   4.049   1.500   2.246
 2020TIP3    H2 6025   4.126   1.500   2.376
 2021TIP3   OH2 6026   6.367   4.328   5.654
 2021TIP3    H1 6027   6.437   4.336   5.718
 2021TIP3    H2 6028   6.300   4.276   5.698
 2022TIP3   OH2 6029   5.291   5.945   3.746
 2022TIP3    H1 6030   5.325   6.030   3.774
 2022TIP3    H2 6031   5.197   5.952   3.756
 2023TIP3   OH2 6032   5.063   1.570   3.610
 2023TIP3    H1 6033   5.093   1.544   3.697
 2023TIP3    H2 6034   5.144   1.574   3.557
 2024TIP3   OH2 6035   2.281   6.132   0.403
 2024TIP3    H1 6036   2.346   6.063   0.395
 2024TIP3    H2 6037   2.227   6.125   0.324
 2025TIP3   OH2 6038   4.991   0.533   5.644
 2025TIP3    H1 6039   4.987   0.502   5.554
 2025TIP3    H2 6040   4.921   0.485   5.689
 2026TIP3   OH2 6041   0.423   2.477   2.829
 2026TIP3    H1 6042   0.355   2.433   2.881
 2026TIP3    H2 6043   0.375   2.520   2.758
 2027TIP3   OH2 6044   3.562   5.318   5.203
 2027TIP3    H1 6045   3.638   5.341   5.149
 2027TIP3    H2 6046   3.596   5.261   5.270
 2028TIP3   OH2 6047   5.748   4.124   3.235
 2028TIP3    H1 6048   5.658   4.153   3.220
 2028TIP3    H2 6049   5.795   4.151   3.156
 2029TIP3   OH2 6050   1.791   4.045   0.714
 2029TIP3    H1 6051   1.711   4.018   0.668
 2029TIP3    H2 6052   1.857   4.054   0.645
 2030TIP3   OH2 6053   5.975   0.304   2.024
 2030TIP3    H1 6054   5.980   0.387   1.976
 2030TIP3    H2 6055   5.886   0.303   2.060
 2031TIP3   OH2 6056   4.419   3.053   4.553
 2031TIP3    H1 6057   4.335   3.012   4.572
 2031TIP3    H2 6058   4.411   3.084   4.462
 2032TIP3   OH2 6059   1.866   6.682   5.737
 2032TIP3    H1 6060   1.905   6.769   5.748
 2032TIP3    H2 6061   1.941   6.625   5.718
 2033TIP3   OH2 6062   5.492   4.349   0.411
 2033TIP3    H1 6063   5.484   4.444   0.409
 2033TIP3    H2 6064   5.418   4.319   0.463
 2034TIP3   OH2 6065   3.713   1.795   5.001
 2034TIP3    H1 6066   3.777   1.736   4.962
 2034TIP3    H2 6067   3.741   1.882   4.973
 2035TIP3   OH2 6068   6.788   6.171   1.378
 2035TIP3    H1 6069   6.807   6.100   1.440
 2035TIP3    H2 6070   6.710   6.143   1.331
 2036TIP3   OH2 6071   6.009   6.228   4.404
 2036TIP3    H1 6072   5.978   6.154   4.457
 2036TIP3    H2 6073   6.105   6.222   4.410
 2037TIP3   OH2 6074   2.450   5.562   5.767
 2037TIP3    H1 6075   2.499   5.534   5.844
 2037TIP3    H2 6076   2.358   5.561   5.795
 2038TIP3   OH2 6077   5.310   3.264   1.763
 2038TIP3    H1 6078   5.279   3.346   1.802
 2038TIP3    H2 6079   5.289   3.197   1.828
 2039TIP3   OH2 6080   5.309   1.159   2.207
 2039TIP3    H1 6081   5.362   1.149   2.286
 2039TIP3    H2 6082   5.219   1.147   2.238
 2040TIP3   OH2 6083   2.065   5.942   2.056
 2040TIP3    H1 6084   2.058   5.975   1.966
 2040TIP3    H2 6085   1.998   5.988   2.105
 2041TIP3   OH2 6086   1.927   1.558   3.843
 2041TIP3    H1 6087   1.909   1.650   3.824
 2041TIP3    H2 6088   1.988   1.560   3.917
 2042TIP3   OH2 6089   2.248   5.387   0.140
 2042TIP3    H1 6090   2.248   5.403   0.235
 2042TIP3    H2 6091   2.333   5.419   0.110
 2043TIP3   OH2 6092   4.501   1.160   5.761
 2043TIP3    H1 6093   4.540   1.245   5.741
 2043TIP3    H2 6094   4.446   1.140   5.686
 2044TIP3   OH2 6095   0.058   0.075   5.389
 2044TIP3    H1 6096   0.095   0.124   5.316
 2044TIP3    H2 6097   0.105  -0.009   5.387
 2045TIP3   OH2 6098   6.859   4.720   3.320
 2045TIP3    H1 6099   6.864   4.816   3.321
 2045TIP3    H2 6100   6.931   4.692   3.376
 2046TIP3   OH2 6101   2.878   2.345   3.938
 2046TIP3    H1 6102   2.871   2.273   4.000
 2046TIP3    H2 6103   2.969   2.375   3.947
 2047TIP3   OH2 6104   5.017   4.133   0.141
 2047TIP3    H1 6105   5.059   4.219   0.142
 2047TIP3    H2 6106   5.050   4.089   0.219
 2048TIP3   OH2 6107   3.275   1.349   1.283
 2048TIP3    H1 6108   3.274   1.382   1.372
 2048TIP3    H2 6109   3.182   1.345   1.258
 2049TIP3   OH2 6110   2.479   0.904   3.707
 2049TIP3    H1 6111   2.477   1.000   3.703
 2049TIP3    H2 6112   2.423   0.876   3.634
 2050TIP3   OH2 6113   7.003   1.582   2.966
 2050TIP3    H1 6114   7.055   1.544   3.036
 2050TIP3    H2 6115   7.064   1.593   2.894
 2051TIP3   OH2 6116   6.113   5.807   5.735
 2051TIP3    H1 6117   6.140   5.825   5.825
 2051TIP3    H2 6118   6.095   5.893   5.698
 2052TIP3   OH2 6119   5.524   4.812   2.967
 2052TIP3    H1 6120   5.509   4.896   3.009
 2052TIP3    H2 6121   5.619   4.800   2.971
 2053TIP3   OH2 6122   5.812   5.742   2.887
 2053TIP3    H1 6123   5.888   5.795   2.909
 2053TIP3    H2 6124   5.745   5.806   2.861
 2054TIP3   OH2 6125   5.137   1.731   2.208
 2054TIP3    H1 6126   5.178   1.817   2.196
 2054TIP3    H2 6127   5.195   1.670   2.163
 2055TIP3   OH2 6128   2.423   5.027   1.190
 2055TIP3    H1 6129   2.449   5.099   1.133
 2055TIP3    H2 6130   2.386   5.069   1.268
 2056TIP3   OH2 6131   6.088   4.206   0.082
 2056TIP3    H1 6132   6.000   4.234   0.055
 2056TIP3    H2 6133   6.090   4.223   0.177
 2057TIP3   OH2 6134   4.680   3.746   3.810
 2057TIP3    H1 6135   4.654   3.739   3.718
 2057TIP3    H2 6136   4.625   3.816   3.845
 2058TIP3   OH2 6137   5.282   0.207   4.846
 2058TIP3    H1 6138   5.279   0.254   4.763
 2058TIP3    H2 6139   5.239   0.266   4.908
 2059TIP3   OH2 6140   3.162   0.698   4.907
 2059TIP3    H1 6141   3.136   0.687   4.816
 2059TIP3    H2 6142   3.140   0.614   4.948
 2060TIP3   OH2 6143   0.178   0.777   0.797
 2060TIP3    H1 6144   0.117   0.823   0.739
 2060TIP3    H2 6145   0.132   0.698   0.823
 2061TIP3   OH2 6146   0.822   4.776   0.428
 2061TIP3    H1 6147   0.859   4.862   0.444
 2061TIP3    H2 6148   0.862   4.748   0.346
 2062TIP3   OH2 6149   2.055   1.197   4.048
 2062TIP3    H1 6150   2.020   1.120   4.004
 2062TIP3    H2 6151   1.977   1.249   4.071
 2063TIP3   OH2 6152   4.265   6.701   1.736
 2063TIP3    H1 6153   4.255   6.680   1.829
 2063TIP3    H2 6154   4.351   6.744   1.731
 2064TIP3   OH2 6155   4.488   5.688   5.593
 2064TIP3    H1 6156   4.492   5.598   5.561
 2064TIP3    H2 6157   4.579   5.719   5.588
 2065TIP3   OH2 6158   5.878   6.221   1.880
 2065TIP3    H1 6159   5.938   6.201   1.952
 2065TIP3    H2 6160   5.846   6.309   1.899
 2066TIP3   OH2 6161   5.330   2.977   3.255
 2066TIP3    H1 6162   5.403   3.038   3.245
 2066TIP3    H2 6163   5.273   3.019   3.319
 2067TIP3   OH2 6164   6.462   0.257   4.754
 2067TIP3    H1 6165   6.374   0.229   4.731
 2067TIP3    H2 6166   6.454   0.289   4.844
 2068TIP3   OH2 6167   4.852   0.403   2.179
 2068TIP3    H1 6168   4.942   0.388   2.151
 2068TIP3    H2 6169   4.851   0.375   2.271
 2069TIP3   OH2 6170   5.905   0.727   1.160
 2069TIP3    H1 6171   5.864   0.808   1.189
 2069TIP3    H2 6172   5.854   0.658   1.201
 2070TIP3   OH2 6173   0.296   1.205   2.560
 2070TIP3    H1 6174   0.391   1.212   2.558
 2070TIP3    H2 6175   0.267   1.280   2.612
 2071TIP3   OH2 6176   3.831   6.254   2.478
 2071TIP3    H1 6177   3.864   6.165   2.482
 2071TIP3    H2 6178   3.773   6.255   2.401
 2072TIP3   OH2 6179   4.684   5.925   4.212
 2072TIP3    H1 6180   4.722   5.841   4.237
 2072TIP3    H2 6181   4.748   5.990   4.241
 2073TIP3   OH2 6182   3.912   1.177   0.755
 2073TIP3    H1 6183   3.855   1.238   0.802
 2073TIP3    H2 6184   3.973   1.234   0.708
 2074TIP3   OH2 6185   7.000   1.645   5.479
 2074TIP3    H1 6186   6.929   1.673   5.537
 2074TIP3    H2 6187   7.035   1.566   5.521
 2075TIP3   OH2 6188   5.556   2.944   0.744
 2075TIP3    H1 6189   5.647   2.948   0.715
 2075TIP3    H2 6190   5.519   3.029   0.718
 2076TIP3   OH2 6191   6.311   4.344   3.738
 2076TIP3    H1 6192   6.370   4.281   3.779
 2076TIP3    H2 6193   6.367   4.399   3.684
 2077TIP3   OH2 6194   6.935   5.145   5.236
 2077TIP3    H1 6195   7.027   5.132   5.258
 2077TIP3    H2 6196   6.898   5.056   5.237
 2078TIP3   OH2 6197   3.212   4.448   5.943
 2078TIP3    H1 6198   3.291   4.486   5.982
 2078TIP3    H2 6199   3.246   4.385   5.879
 2079TIP3   OH2 6200   5.040   4.989   2.430
 2079TIP3    H1 6201   5.015   4.972   2.521
 2079TIP3    H2 6202   5.018   4.908   2.384
 2080TIP3   OH2 6203   4.393   6.465   2.098
 2080TIP3    H1 6204   4.426   6.419   2.175
 2080TIP3    H2 6205   4.298   6.453   2.101
 2081TIP3   OH2 6206   3.034   6.734   2.499
 2081TIP3    H1 6207   2.949   6.735   2.456
 2081TIP3    H2 6208   3.088   6.677   2.444
 2082TIP3   OH2 6209   2.596   3.602   4.073
 2082TIP3    H1 6210   2.511   3.563   4.057
 2082TIP3    H2 6211   2.624   3.566   4.157
 2083TIP3   OH2 6212   2.526   5.483   1.365
 2083TIP3    H1 6213   2.544   5.576   1.376
 2083TIP3    H2 6214   2.586   5.439   1.425
 2084TIP3   OH2 6215   3.000   0.391   4.245
 2084TIP3    H1 6216   2.920   0.393   4.298
 2084TIP3    H2 6217   3.010   0.299   4.220
 2085TIP3   OH2 6218   0.354   5.185   0.841
 2085TIP3    H1 6219   0.263   5.162   0.857
 2085TIP3    H2 6220   0.386   5.215   0.926
 2086TIP3   OH2 6221   2.173   3.778   0.050
 2086TIP3    H1 6222   2.244   3.792  -0.012
 2086TIP3    H2 6223   2.215   3.738   0.126
 2087TIP3   OH2 6224   5.346   3.773   0.380
 2087TIP3    H1 6225   5.355   3.717   0.457
 2087TIP3    H2 6226   5.407   3.737   0.316
 2088TIP3   OH2 6227   2.191   2.840   3.249
 2088TIP3    H1 6228   2.111   2.790   3.269
 2088TIP3    H2 6229   2.159   2.928   3.228
 2089TIP3   OH2 6230   4.846   1.476   1.214
 2089TIP3    H1 6231   4.846   1.480   1.310
 2089TIP3    H2 6232   4.753   1.474   1.190
 2090TIP3   OH2 6233   2.902   6.091   0.666
 2090TIP3    H1 6234   2.894   6.104   0.572
 2090TIP3    H2 6235   2.926   6.177   0.701
 2091TIP3   OH2 6236   5.349   5.625   1.203
 2091TIP3    H1 6237   5.354   5.708   1.249
 2091TIP3    H2 6238   5.256   5.602   1.203
 2092TIP3   OH2 6239   2.767   0.999   0.652
 2092TIP3    H1 6240   2.707   1.025   0.581
 2092TIP3    H2 6241   2.709   0.981   0.726
 2093TIP3   OH2 6242   1.126   2.936   2.416
 2093TIP3    H1 6243   1.199   2.996   2.403
 2093TIP3    H2 6244   1.161   2.868   2.475
 2094TIP3   OH2 6245   7.016   1.382   0.351
 2094TIP3    H1 6246   6.968   1.310   0.393
 2094TIP3    H2 6247   6.994   1.459   0.403
 2095TIP3   OH2 6248   0.997   6.331   0.653
 2095TIP3    H1 6249   0.943   6.259   0.685
 2095TIP3    H2 6250   0.955   6.359   0.572
 2096TIP3   OH2 6251   5.499   3.760   0.740
 2096TIP3    H1 6252   5.499   3.732   0.832
 2096TIP3    H2 6253   5.407   3.774   0.719
 2097TIP3   OH2 6254   4.325   1.022   3.773
 2097TIP3    H1 6255   4.407   1.004   3.818
 2097TIP3    H2 6256   4.267   1.056   3.841
 2098TIP3   OH2 6257   2.070   2.869   3.894
 2098TIP3    H1 6258   2.117   2.788   3.911
 2098TIP3    H2 6259   2.125   2.915   3.830
 2099TIP3   OH2 6260   3.765   0.436   0.658
 2099TIP3    H1 6261   3.806   0.522   0.659
 2099TIP3    H2 6262   3.836   0.374   0.675
 2100TIP3   OH2 6263   5.839   6.723   5.393
 2100TIP3    H1 6264   5.746   6.707   5.374
 2100TIP3    H2 6265   5.882   6.641   5.374
 2101TIP3   OH2 6266   1.551   3.742   1.513
 2101TIP3    H1 6267   1.564   3.660   1.465
 2101TIP3    H2 6268   1.477   3.726   1.570
 2102TIP3   OH2 6269   6.533   0.693   0.999
 2102TIP3    H1 6270   6.508   0.760   1.064
 2102TIP3    H2 6271   6.488   0.614   1.028
 2103TIP3   OH2 6272   0.296   3.080   4.829
 2103TIP3    H1 6273   0.273   3.098   4.920
 2103TIP3    H2 6274   0.382   3.040   4.834
 2104TIP3   OH2 6275   4.393   0.873   0.986
 2104TIP3    H1 6276   4.342   0.870   1.067
 2104TIP3    H2 6277   4.473   0.824   1.006
 2105TIP3   OH2 6278   1.736   6.716   1.083
 2105TIP3    H1 6279   1.826   6.747   1.088
 2105TIP3    H2 6280   1.742   6.622   1.099
 2106TIP3   OH2 6281   1.362   2.225   4.212
 2106TIP3    H1 6282   1.405   2.308   4.192
 2106TIP3    H2 6283   1.405   2.161   4.155
 2107TIP3   OH2 6284   4.400   6.116   1.321
 2107TIP3    H1 6285   4.309   6.110   1.351
 2107TIP3    H2 6286   4.403   6.195   1.268
 2108TIP3   OH2 6287   3.009   3.446   0.095
 2108TIP3    H1 6288   3.006   3.478   0.005
 2108TIP3    H2 6289   2.933   3.389   0.103
 2109TIP3   OH2 6290   2.192   3.835   4.705
 2109TIP3    H1 6291   2.276   3.788   4.708
 2109TIP3    H2 6292   2.189   3.885   4.786
 2110TIP3   OH2 6293   5.835   6.536   0.841
 2110TIP3    H1 6294   5.880   6.608   0.886
 2110TIP3    H2 6295   5.785   6.579   0.771
 2111TIP3   OH2 6296   2.956   2.222   1.741
 2111TIP3    H1 6297   2.993   2.285   1.803
 2111TIP3    H2 6298   3.028   2.203   1.680
 2112TIP3   OH2 6299   2.863   4.951   5.886
 2112TIP3    H1 6300   2.785   4.902   5.860
 2112TIP3    H2 6301   2.937   4.894   5.861
 2113TIP3   OH2 6302   1.570   5.141   0.520
 2113TIP3    H1 6303   1.578   5.159   0.614
 2113TIP3    H2 6304   1.552   5.226   0.481
 2114TIP3   OH2 6305   4.852   3.752   1.141
 2114TIP3    H1 6306   4.911   3.715   1.076
 2114TIP3    H2 6307   4.878   3.709   1.223
 2115TIP3   OH2 6308   0.556   1.348   2.211
 2115TIP3    H1 6309   0.549   1.400   2.131
 2115TIP3    H2 6310   0.489   1.280   2.201
 2116TIP3   OH2 6311   1.359   1.143   3.996
 2116TIP3    H1 6312   1.299   1.135   4.070
 2116TIP3    H2 6313   1.411   1.063   3.999
 2117TIP3   OH2 6314   3.994   2.221   0.264
 2117TIP3    H1 6315   4.089   2.211   0.278
 2117TIP3    H2 6316   3.980   2.192   0.174
 2118TIP3   OH2 6317   3.378   4.385   3.277
 2118TIP3    H1 6318   3.364   4.480   3.269
 2118TIP3    H2 6319   3.444   4.376   3.345
 2119TIP3   OH2 6320   6.037   6.326   0.365
 2119TIP3    H1 6321   5.966   6.373   0.408
 2119TIP3    H2 6322   6.048   6.246   0.417
 2120TIP3   OH2 6323   1.281   2.933   2.852
 2120TIP3    H1 6324   1.197   2.946   2.896
 2120TIP3    H2 6325   1.317   3.022   2.842
 2121TIP3   OH2 6326   6.865   4.458   5.045
 2121TIP3    H1 6327   6.832   4.427   4.961
 2121TIP3    H2 6328   6.907   4.542   5.025
 2122TIP3   OH2 6329   7.169   0.830   5.254
 2122TIP3    H1 6330   7.117   0.832   5.174
 2122TIP3    H2 6331   7.231   0.902   5.244
 2123TIP3   OH2 6332   1.484   2.891   1.989
 2123TIP3    H1 6333   1.423   2.819   2.004
 2123TIP3    H2 6334   1.565   2.862   2.032
 2124TIP3   OH2 6335   5.151   2.613   0.355
 2124TIP3    H1 6336   5.069   2.607   0.307
 2124TIP3    H2 6337   5.177   2.522   0.371
 2125TIP3   OH2 6338   3.949   1.628   0.635
 2125TIP3    H1 6339   3.865   1.603   0.674
 2125TIP3    H2 6340   3.965   1.717   0.666
 2126TIP3   OH2 6341   1.220   4.788   0.233
 2126TIP3    H1 6342   1.173   4.778   0.316
 2126TIP3    H2 6343   1.299   4.734   0.244
 2127TIP3   OH2 6344   3.172   6.021   1.886
 2127TIP3    H1 6345   3.177   5.928   1.860
 2127TIP3    H2 6346   3.195   6.021   1.979
 2128TIP3   OH2 6347   2.150   6.070   5.201
 2128TIP3    H1 6348   2.226   6.128   5.196
 2128TIP3    H2 6349   2.133   6.061   5.295
 2129TIP3   OH2 6350   1.141   1.309   1.039
 2129TIP3    H1 6351   1.217   1.330   1.093
 2129TIP3    H2 6352   1.167   1.233   0.988
 2130TIP3   OH2 6353   0.738   4.918   5.865
 2130TIP3    H1 6354   0.797   4.979   5.909
 2130TIP3    H2 6355   0.784   4.895   5.784
 2131TIP3   OH2 6356   5.844   4.596   5.842
 2131TIP3    H1 6357   5.765   4.543   5.856
 2131TIP3    H2 6358   5.822   4.652   5.768
 2132TIP3   OH2 6359   6.837   0.571   5.028
 2132TIP3    H1 6360   6.909   0.512   5.008
 2132TIP3    H2 6361   6.879   0.650   5.063
 2133TIP3   OH2 6362   1.980   1.612   5.504
 2133TIP3    H1 6363   1.907   1.673   5.516
 2133TIP3    H2 6364   2.026   1.613   5.588
 2134TIP3   OH2 6365   0.565   1.176   0.998
 2134TIP3    H1 6366   0.523   1.254   1.033
 2134TIP3    H2 6367   0.627   1.150   1.065
 2135TIP3   OH2 6368   0.349   2.777   3.879
 2135TIP3    H1 6369   0.347   2.869   3.853
 2135TIP3    H2 6370   0.390   2.732   3.805
 2136TIP3   OH2 6371   2.683   1.675   5.487
 2136TIP3    H1 6372   2.759   1.723   5.454
 2136TIP3    H2 6373   2.686   1.688   5.582
 2137TIP3   OH2 6374   2.811   0.067   3.951
 2137TIP3    H1 6375   2.798   0.100   3.862
 2137TIP3    H2 6376   2.806  -0.028   3.942
 2138TIP3   OH2 6377   6.182   6.040   0.730
 2138TIP3    H1 6378   6.268   6.048   0.689
 2138TIP3    H2 6379   6.153   5.952   0.708
 2139TIP3   OH2 6380   4.384   1.477   2.950
 2139TIP3    H1 6381   4.390   1.421   2.872
 2139TIP3    H2 6382   4.400   1.417   3.023
 2140TIP3   OH2 6383   2.563   2.439   1.763
 2140TIP3    H1 6384   2.563   2.493   1.842
 2140TIP3    H2 6385   2.619   2.365   1.785
 2141TIP3   OH2 6386   1.555   0.407   1.472
 2141TIP3    H1 6387   1.571   0.317   1.442
 2141TIP3    H2 6388   1.571   0.461   1.395
 2142TIP3   OH2 6389   5.996   0.598   2.304
 2142TIP3    H1 6390   6.017   0.628   2.216
 2142TIP3    H2 6391   6.043   0.658   2.362
 2143TIP3   OH2 6392   0.672   2.294   3.712
 2143TIP3    H1 6393   0.691   2.302   3.806
 2143TIP3    H2 6394   0.671   2.385   3.680
 2144TIP3   OH2 6395   0.385   1.433   4.697
 2144TIP3    H1 6396   0.373   1.498   4.627
 2144TIP3    H2 6397   0.447   1.475   4.757
 2145TIP3   OH2 6398   2.415   6.316   5.815
 2145TIP3    H1 6399   2.388   6.238   5.766
 2145TIP3    H2 6400   2.356   6.317   5.891
 2146TIP3   OH2 6401   5.424   4.451   2.458
 2146TIP3    H1 6402   5.495   4.443   2.394
 2146TIP3    H2 6403   5.419   4.545   2.476
 2147TIP3   OH2 6404   2.638   0.933   4.280
 2147TIP3    H1 6405   2.669   1.012   4.325
 2147TIP3    H2 6406   2.582   0.889   4.344
 2148TIP3   OH2 6407   6.360   0.807   2.134
 2148TIP3    H1 6408   6.364   0.730   2.190
 2148TIP3    H2 6409   6.429   0.792   2.069
 2149TIP3   OH2 6410   1.090   6.311   2.901
 2149TIP3    H1 6411   1.167   6.323   2.847
 2149TIP3    H2 6412   1.116   6.340   2.988
 2150TIP3   OH2 6413   0.745   5.251   0.068
 2150TIP3    H1 6414   0.666   5.279   0.021
 2150TIP3    H2 6415   0.800   5.213   0.000
 2151TIP3   OH2 6416   6.964   2.923   5.613
 2151TIP3    H1 6417   6.926   2.970   5.538
 2151TIP3    H2 6418   6.891   2.874   5.650
 2152TIP3   OH2 6419   0.482   2.031   3.424
 2152TIP3    H1 6420   0.456   1.939   3.432
 2152TIP3    H2 6421   0.408   2.072   3.379
 2153TIP3   OH2 6422   2.286   4.722   3.373
 2153TIP3    H1 6423   2.376   4.693   3.390
 2153TIP3    H2 6424   2.273   4.797   3.431
 2154TIP3   OH2 6425   1.026   2.662   2.969
 2154TIP3    H1 6426   0.979   2.702   2.896
 2154TIP3    H2 6427   1.097   2.612   2.927
 2155TIP3   OH2 6428   3.882   4.159   1.909
 2155TIP3    H1 6429   3.794   4.187   1.934
 2155TIP3    H2 6430   3.875   4.064   1.898
 2156TIP3   OH2 6431   3.596   1.778   3.752
 2156TIP3    H1 6432   3.623   1.812   3.667
 2156TIP3    H2 6433   3.502   1.797   3.757
 2157TIP3   OH2 6434   3.642   1.819   3.118
 2157TIP3    H1 6435   3.738   1.825   3.108
 2157TIP3    H2 6436   3.619   1.739   3.071
 2158TIP3   OH2 6437   0.414   1.226   1.397
 2158TIP3    H1 6438   0.411   1.131   1.395
 2158TIP3    H2 6439   0.497   1.249   1.357
 2159TIP3   OH2 6440   4.421   0.376   2.787
 2159TIP3    H1 6441   4.415   0.355   2.880
 2159TIP3    H2 6442   4.378   0.303   2.742
 2160TIP3   OH2 6443   2.482   1.922   1.633
 2160TIP3    H1 6444   2.494   1.834   1.667
 2160TIP3    H2 6445   2.415   1.961   1.689
 2161TIP3   OH2 6446   3.294   1.619   1.793
 2161TIP3    H1 6447   3.292   1.712   1.769
 2161TIP3    H2 6448   3.225   1.580   1.738
 2162TIP3   OH2 6449   0.656   4.561   0.811
 2162TIP3    H1 6450   0.665   4.468   0.834
 2162TIP3    H2 6451   0.644   4.561   0.716
 2163TIP3   OH2 6452   5.392   2.921   4.891
 2163TIP3    H1 6453   5.439   2.867   4.828
 2163TIP3    H2 6454   5.337   2.860   4.940
 2164TIP3   OH2 6455   5.218   6.350   1.253
 2164TIP3    H1 6456   5.140   6.361   1.198
 2164TIP3    H2 6457   5.208   6.263   1.291
 2165TIP3   OH2 6458   6.839   2.041   4.509
 2165TIP3    H1 6459   6.782   1.989   4.453
 2165TIP3    H2 6460   6.817   2.132   4.489
 2166TIP3   OH2 6461   4.174   4.838   0.112
 2166TIP3    H1 6462   4.267   4.818   0.102
 2166TIP3    H2 6463   4.130   4.754   0.100
 2167TIP3   OH2 6464   1.324   5.831   2.098
 2167TIP3    H1 6465   1.369   5.879   2.168
 2167TIP3    H2 6466   1.388   5.766   2.069
 2168TIP3   OH2 6467   5.010   4.277   1.012
 2168TIP3    H1 6468   5.093   4.273   0.964
 2168TIP3    H2 6469   5.001   4.189   1.050
 2169TIP3   OH2 6470   0.866   2.020   0.808
 2169TIP3    H1 6471   0.945   2.018   0.755
 2169TIP3    H2 6472   0.880   2.090   0.871
 2170TIP3   OH2 6473   6.354   1.838   1.073
 2170TIP3    H1 6474   6.407   1.881   1.140
 2170TIP3    H2 6475   6.314   1.910   1.024
 2171TIP3   OH2 6476   2.339   3.437   1.487
 2171TIP3    H1 6477   2.406   3.369   1.478
 2171TIP3    H2 6478   2.265   3.405   1.437
 2172TIP3   OH2 6479   7.071   5.046   3.102
 2172TIP3    H1 6480   7.120   5.119   3.140
 2172TIP3    H2 6481   7.029   5.004   3.176
 2173TIP3   OH2 6482   5.799   1.501   3.889
 2173TIP3    H1 6483   5.820   1.522   3.979
 2173TIP3    H2 6484   5.850   1.563   3.837
 2174TIP3   OH2 6485   4.678   2.106   2.367
 2174TIP3    H1 6486   4.765   2.100   2.327
 2174TIP3    H2 6487   4.646   2.193   2.342
 2175TIP3   OH2 6488   2.858   0.441   0.564
 2175TIP3    H1 6489   2.787   0.504   0.550
 2175TIP3    H2 6490   2.817   0.370   0.613
 2176TIP3   OH2 6491   4.744   5.125   3.702
 2176TIP3    H1 6492   4.817   5.117   3.764
 2176TIP3    H2 6493   4.781   5.096   3.618
 2177TIP3   OH2 6494   4.931   6.208   1.385
 2177TIP3    H1 6495   4.891   6.198   1.472
 2177TIP3    H2 6496   5.019   6.170   1.394
 2178TIP3   OH2 6497   0.276   6.330   5.624
 2178TIP3    H1 6498   0.253   6.245   5.662
 2178TIP3    H2 6499   0.208   6.389   5.656
 2179TIP3   OH2 6500   6.800   4.552   3.699
 2179TIP3    H1 6501   6.844   4.479   3.655
 2179TIP3    H2 6502   6.864   4.624   3.696
 2180TIP3   OH2 6503   3.572   0.289   1.716
 2180TIP3    H1 6504   3.596   0.216   1.660
 2180TIP3    H2 6505   3.574   0.365   1.658
 2181TIP3   OH2 6506   3.699   3.009   2.411
 2181TIP3    H1 6507   3.724   3.098   2.436
 2181TIP3    H2 6508   3.665   2.969   2.491
 2182TIP3   OH2 6509   1.845   6.415   5.411
 2182TIP3    H1 6510   1.816   6.334   5.453
 2182TIP3    H2 6511   1.764   6.463   5.394
 2183TIP3   OH2 6512   5.556   2.038   2.422
 2183TIP3    H1 6513   5.602   2.122   2.413
 2183TIP3    H2 6514   5.574   2.011   2.512
 2184TIP3   OH2 6515   6.385   4.000   3.513
 2184TIP3    H1 6516   6.466   3.976   3.558
 2184TIP3    H2 6517   6.398   3.970   3.423
 2185TIP3   OH2 6518   5.542   5.024   1.126
 2185TIP3    H1 6519   5.615   5.035   1.187
 2185TIP3    H2 6520   5.468   5.068   1.168
 2186TIP3   OH2 6521   4.990   0.761   2.235
 2186TIP3    H1 6522   4.908   0.712   2.243
 2186TIP3    H2 6523   5.028   0.730   2.153
 2187TIP3   OH2 6524   5.007   5.179   4.543
 2187TIP3    H1 6525   4.979   5.126   4.468
 2187TIP3    H2 6526   4.953   5.148   4.615
 2188TIP3   OH2 6527   3.873   0.122   0.905
 2188TIP3    H1 6528   3.815   0.109   0.830
 2188TIP3    H2 6529   3.833   0.195   0.953
 2189TIP3   OH2 6530   4.557   3.260   1.011
 2189TIP3    H1 6531   4.539   3.209   0.933
 2189TIP3    H2 6532   4.516   3.345   0.994
 2190TIP3   OH2 6533   2.993   1.794   2.923
 2190TIP3    H1 6534   3.079   1.825   2.951
 2190TIP3    H2 6535   2.931   1.837   2.981
 2191TIP3   OH2 6536   0.341   2.492   5.526
 2191TIP3    H1 6537   0.354   2.507   5.432
 2191TIP3    H2 6538   0.280   2.419   5.531
 2192TIP3   OH2 6539   3.763   5.689   0.730
 2192TIP3    H1 6540   3.817   5.663   0.805
 2192TIP3    H2 6541   3.710   5.762   0.762
 2193TIP3   OH2 6542   4.941   5.754   0.625
 2193TIP3    H1 6543   4.863   5.796   0.662
 2193TIP3    H2 6544   4.925   5.751   0.531
 2194TIP3   OH2 6545   5.971   4.840   4.210
 2194TIP3    H1 6546   5.929   4.919   4.176
 2194TIP3    H2 6547   5.951   4.840   4.303
 2195TIP3   OH2 6548   3.097   0.183   5.306
 2195TIP3    H1 6549   3.170   0.122   5.317
 2195TIP3    H2 6550   3.067   0.168   5.216
 2196TIP3   OH2 6551   0.721   2.279   3.190
 2196TIP3    H1 6552   0.633   2.246   3.176
 2196TIP3    H2 6553   0.713   2.374   3.185
 2197TIP3   OH2 6554   7.144   3.588   5.115
 2197TIP3    H1 6555   7.146   3.683   5.110
 2197TIP3    H2 6556   7.137   3.569   5.209
 2198TIP3   OH2 6557   1.132   2.554   4.726
 2198TIP3    H1 6558   1.083   2.637   4.725
 2198TIP3    H2 6559   1.201   2.568   4.791
 2199TIP3   OH2 6560   3.999   2.800   5.852
 2199TIP3    H1 6561   3.999   2.828   5.760
 2199TIP3    H2 6562   4.062   2.858   5.895
 2200TIP3   OH2 6563   0.514   3.575   5.199
 2200TIP3    H1 6564   0.481   3.488   5.220
 2200TIP3    H2 6565   0.436   3.631   5.196
 2201TIP3   OH2 6566   0.334   0.855   2.301
 2201TIP3    H1 6567   0.363   0.764   2.310
 2201TIP3    H2 6568   0.277   0.854   2.224
 2202TIP3   OH2 6569   3.616   4.389   2.927
 2202TIP3    H1 6570   3.679   4.317   2.929
 2202TIP3    H2 6571   3.534   4.350   2.955
 2203TIP3   OH2 6572   1.054   5.321   1.173
 2203TIP3    H1 6573   1.099   5.377   1.237
 2203TIP3    H2 6574   0.998   5.264   1.226
 2204TIP3   OH2 6575   3.017   3.722   5.649
 2204TIP3    H1 6576   3.049   3.676   5.571
 2204TIP3    H2 6577   3.092   3.771   5.682
 2205TIP3   OH2 6578   3.769   0.340   2.062
 2205TIP3    H1 6579   3.860   0.367   2.073
 2205TIP3    H2 6580   3.718   0.420   2.073
 2206TIP3   OH2 6581   0.235   4.238   2.640
 2206TIP3    H1 6582   0.161   4.183   2.668
 2206TIP3    H2 6583   0.196   4.323   2.622
 2207TIP3   OH2 6584   0.817   1.799   3.579
 2207TIP3    H1 6585   0.823   1.705   3.564
 2207TIP3    H2 6586   0.823   1.809   3.674
 2208TIP3   OH2 6587   6.228   4.986   1.137
 2208TIP3    H1 6588   6.211   5.038   1.058
 2208TIP3    H2 6589   6.174   5.029   1.204
 2209TIP3   OH2 6590   5.395   1.934   3.514
 2209TIP3    H1 6591   5.319   1.922   3.458
 2209TIP3    H2 6592   5.456   1.987   3.462
 2210TIP3   OH2 6593   1.978   2.920   4.787
 2210TIP3    H1 6594   1.892   2.898   4.749
 2210TIP3    H2 6595   2.041   2.896   4.719
 2211TIP3   OH2 6596   3.156   4.921   1.111
 2211TIP3    H1 6597   3.119   5.009   1.108
 2211TIP3    H2 6598   3.122   4.878   1.032
 2212TIP3   OH2 6599   3.313   0.256   4.164
 2212TIP3    H1 6600   3.219   0.240   4.172
 2212TIP3    H2 6601   3.354   0.177   4.199
 2213TIP3   OH2 6602   2.003   1.212   1.019
 2213TIP3    H1 6603   2.081   1.264   1.039
 2213TIP3    H2 6604   2.034   1.146   0.957
 2214TIP3   OH2 6605   4.173   5.861   2.552
 2214TIP3    H1 6606   4.259   5.900   2.568
 2214TIP3    H2 6607   4.168   5.788   2.614
 2215TIP3   OH2 6608   5.436   2.557   4.157
 2215TIP3    H1 6609   5.356   2.581   4.205
 2215TIP3    H2 6610   5.416   2.471   4.120
 2216TIP3   OH2 6611   5.985   3.990   2.477
 2216TIP3    H1 6612   5.916   4.054   2.496
 2216TIP3    H2 6613   5.942   3.905   2.490
 2217TIP3   OH2 6614   0.479   2.035   0.927
 2217TIP3    H1 6615   0.558   2.087   0.915
 2217TIP3    H2 6616   0.469   1.987   0.844
 2218TIP3   OH2 6617   6.049   3.126   5.580
 2218TIP3    H1 6618   6.080   3.113   5.669
 2218TIP3    H2 6619   6.060   3.041   5.537
 2219TIP3   OH2 6620   4.452   2.682   2.541
 2219TIP3    H1 6621   4.398   2.607   2.513
 2219TIP3    H2 6622   4.535   2.642   2.567
 2220TIP3   OH2 6623   4.479   6.239   3.284
 2220TIP3    H1 6624   4.561   6.247   3.236
 2220TIP3    H2 6625   4.427   6.315   3.255
 2221TIP3   OH2 6626   5.498   4.189   5.256
 2221TIP3    H1 6627   5.459   4.270   5.223
 2221TIP3    H2 6628   5.485   4.192   5.351
 2222TIP3   OH2 6629   6.408   2.229   3.650
 2222TIP3    H1 6630   6.484   2.284   3.632
 2222TIP3    H2 6631   6.357   2.231   3.569
 2223TIP3   OH2 6632   5.189   1.325   0.821
 2223TIP3    H1 6633   5.115   1.331   0.882
 2223TIP3    H2 6634   5.266   1.317   0.877
 2224TIP3   OH2 6635   0.270   0.605   1.153
 2224TIP3    H1 6636   0.202   0.571   1.096
 2224TIP3    H2 6637   0.233   0.683   1.193
 2225TIP3   OH2 6638   3.798   3.182   2.060
 2225TIP3    H1 6639   3.781   3.234   2.138
 2225TIP3    H2 6640   3.833   3.100   2.092
 2226TIP3   OH2 6641   3.834   1.924   4.219
 2226TIP3    H1 6642   3.741   1.923   4.195
 2226TIP3    H2 6643   3.858   1.832   4.226
 2227TIP3   OH2 6644   0.037   6.312   3.911
 2227TIP3    H1 6645  -0.047   6.349   3.884
 2227TIP3    H2 6646   0.091   6.388   3.934
 2228TIP3   OH2 6647   6.060   5.894   3.358
 2228TIP3    H1 6648   6.041   5.925   3.270
 2228TIP3    H2 6649   6.080   5.801   3.348
 2229TIP3   OH2 6650   5.942   6.415   1.434
 2229TIP3    H1 6651   5.991   6.357   1.374
 2229TIP3    H2 6652   5.990   6.410   1.516
 2230TIP3   OH2 6653   1.817   2.549   2.526
 2230TIP3    H1 6654   1.857   2.488   2.464
 2230TIP3    H2 6655   1.769   2.611   2.471
 2231TIP3   OH2 6656   0.939   5.889   0.816
 2231TIP3    H1 6657   0.897   5.972   0.794
 2231TIP3    H2 6658   1.031   5.900   0.790
 2232TIP3   OH2 6659   3.172   1.078   2.663
 2232TIP3    H1 6660   3.162   1.007   2.726
 2232TIP3    H2 6661   3.171   1.158   2.716
 2233TIP3   OH2 6662   2.769   3.413   5.341
 2233TIP3    H1 6663   2.710   3.340   5.326
 2233TIP3    H2 6664   2.712   3.490   5.346
 2234TIP3   OH2 6665   2.486   6.380   5.446
 2234TIP3    H1 6666   2.460   6.419   5.362
 2234TIP3    H2 6667   2.582   6.382   5.445
 2235TIP3   OH2 6668   5.015   4.331   2.573
 2235TIP3    H1 6669   5.059   4.262   2.524
 2235TIP3    H2 6670   5.074   4.406   2.568
 2236TIP3   OH2 6671   4.299   0.358   1.461
 2236TIP3    H1 6672   4.262   0.333   1.546
 2236TIP3    H2 6673   4.277   0.285   1.403
 2237TIP3   OH2 6674   2.870   5.655   0.087
 2237TIP3    H1 6675   2.875   5.699   0.172
 2237TIP3    H2 6676   2.802   5.589   0.099
 2238TIP3   OH2 6677   0.697   5.640   3.860
 2238TIP3    H1 6678   0.736   5.627   3.773
 2238TIP3    H2 6679   0.612   5.595   3.856
 2239TIP3   OH2 6680   1.133   0.839   0.896
 2239TIP3    H1 6681   1.202   0.792   0.849
 2239TIP3    H2 6682   1.180   0.906   0.947
 2240TIP3   OH2 6683   5.035   1.857   2.710
 2240TIP3    H1 6684   5.057   1.924   2.645
 2240TIP3    H2 6685   4.964   1.896   2.762
 2241TIP3   OH2 6686   0.345   2.623   0.798
 2241TIP3    H1 6687   0.439   2.634   0.784
 2241TIP3    H2 6688   0.339   2.548   0.858
 2242TIP3   OH2 6689   3.273   1.546   3.019
 2242TIP3    H1 6690   3.258   1.588   3.103
 2242TIP3    H2 6691   3.365   1.563   2.999
 2243TIP3   OH2 6692   2.517   3.269   2.158
 2243TIP3    H1 6693   2.577   3.338   2.186
 2243TIP3    H2 6694   2.451   3.265   2.228
 2244TIP3   OH2 6695   2.492   6.705   2.167
 2244TIP3    H1 6696   2.469   6.627   2.217
 2244TIP3    H2 6697   2.411   6.756   2.164
 2245TIP3   OH2 6698   4.451   1.669   0.536
 2245TIP3    H1 6699   4.381   1.697   0.477
 2245TIP3    H2 6700   4.528   1.660   0.481
 2246TIP3   OH2 6701   1.791   0.920   1.002
 2246TIP3    H1 6702   1.876   0.878   1.016
 2246TIP3    H2 6703   1.797   0.959   0.915
 2247TIP3   OH2 6704   0.092   4.702   0.632
 2247TIP3    H1 6705   0.083   4.761   0.707
 2247TIP3    H2 6706   0.006   4.703   0.591
 2248TIP3   OH2 6707   7.117   6.081   3.869
 2248TIP3    H1 6708   7.203   6.041   3.859
 2248TIP3    H2 6709   7.134   6.166   3.910
 2249TIP3   OH2 6710   1.652   2.326   2.145
 2249TIP3    H1 6711   1.592   2.366   2.208
 2249TIP3    H2 6712   1.619   2.353   2.060
 2250TIP3   OH2 6713   5.515   0.561   1.355
 2250TIP3    H1 6714   5.529   0.650   1.323
 2250TIP3    H2 6715   5.603   0.525   1.366
 2251TIP3   OH2 6716   0.064   4.007   4.311
 2251TIP3    H1 6717   0.076   4.009   4.216
 2251TIP3    H2 6718   0.033   4.095   4.332
 2252TIP3   OH2 6719   6.475   6.325   4.874
 2252TIP3    H1 6720   6.542   6.306   4.939
 2252TIP3    H2 6721   6.392   6.317   4.922
 2253TIP3   OH2 6722   5.454   1.512   3.640
 2253TIP3    H1 6723   5.461   1.539   3.732
 2253TIP3    H2 6724   5.490   1.586   3.591
 2254TIP3   OH2 6725   3.092   2.088   4.500
 2254TIP3    H1 6726   3.075   2.181   4.481
 2254TIP3    H2 6727   3.186   2.084   4.516
 2255TIP3   OH2 6728   3.630   2.925   4.955
 2255TIP3    H1 6729   3.700   2.871   4.919
 2255TIP3    H2 6730   3.674   2.978   5.022
 2256TIP3   OH2 6731   1.293   4.518   3.122
 2256TIP3    H1 6732   1.260   4.467   3.048
 2256TIP3    H2 6733   1.320   4.601   3.084
 2257TIP3   OH2 6734   3.391   0.382   4.387
 2257TIP3    H1 6735   3.486   0.395   4.391
 2257TIP3    H2 6736   3.375   0.346   4.299
 2258TIP3   OH2 6737   2.303   5.392   2.958
 2258TIP3    H1 6738   2.331   5.466   2.904
 2258TIP3    H2 6739   2.297   5.319   2.897
 2259TIP3   OH2 6740   0.080   2.970   3.225
 2259TIP3    H1 6741   0.076   2.879   3.197
 2259TIP3    H2 6742  -0.011   2.996   3.238
 2260TIP3   OH2 6743   1.181   4.841   1.765
 2260TIP3    H1 6744   1.162   4.914   1.824
 2260TIP3    H2 6745   1.242   4.786   1.813
 2261TIP3   OH2 6746   5.300   0.417   1.672
 2261TIP3    H1 6747   5.274   0.425   1.764
 2261TIP3    H2 6748   5.362   0.344   1.670
 2262TIP3   OH2 6749   2.829   4.210   3.299
 2262TIP3    H1 6750   2.907   4.265   3.311
 2262TIP3    H2 6751   2.779   4.254   3.230
 2263TIP3   OH2 6752   5.772   2.826   1.435
 2263TIP3    H1 6753   5.746   2.853   1.347
 2263TIP3    H2 6754   5.725   2.886   1.493
 2264TIP3   OH2 6755   0.957   5.238   3.844
 2264TIP3    H1 6756   0.942   5.321   3.889
 2264TIP3    H2 6757   1.011   5.262   3.769
 2265TIP3   OH2 6758   0.938   5.696   3.617
 2265TIP3    H1 6759   0.929   5.792   3.615
 2265TIP3    H2 6760   1.027   5.682   3.649
 2266TIP3   OH2 6761   2.251   6.368   0.675
 2266TIP3    H1 6762   2.269   6.460   0.692
 2266TIP3    H2 6763   2.249   6.327   0.762
 2267TIP3   OH2 6764   5.591   5.099   5.858
 2267TIP3    H1 6765   5.649   5.167   5.822
 2267TIP3    H2 6766   5.568   5.045   5.783
 2268TIP3   OH2 6767   2.941   5.720   3.848
 2268TIP3    H1 6768   2.848   5.702   3.861
 2268TIP3    H2 6769   2.980   5.708   3.935
 2269TIP3   OH2 6770   6.195   4.963   0.499
 2269TIP3    H1 6771   6.127   5.029   0.516
 2269TIP3    H2 6772   6.241   4.954   0.583
 2270TIP3   OH2 6773   0.218   4.569   4.218
 2270TIP3    H1 6774   0.279   4.558   4.291
 2270TIP3    H2 6775   0.139   4.522   4.245
 2271TIP3   OH2 6776   5.778   3.470   2.620
 2271TIP3    H1 6777   5.785   3.374   2.616
 2271TIP3    H2 6778   5.795   3.491   2.711
 2272TIP3   OH2 6779   3.448   0.999   5.584
 2272TIP3    H1 6780   3.466   0.911   5.617
 2272TIP3    H2 6781   3.384   1.035   5.645
 2273TIP3   OH2 6782   4.473   1.254   4.297
 2273TIP3    H1 6783   4.446   1.343   4.316
 2273TIP3    H2 6784   4.527   1.262   4.218
 2274TIP3   OH2 6785   5.951   3.961   5.143
 2274TIP3    H1 6786   5.913   3.878   5.114
 2274TIP3    H2 6787   6.026   3.936   5.196
 2275TIP3   OH2 6788   3.577   4.432   2.609
 2275TIP3    H1 6789   3.579   4.338   2.588
 2275TIP3    H2 6790   3.540   4.436   2.697
 2276TIP3   OH2 6791   0.605   2.925   3.763
 2276TIP3    H1 6792   0.659   2.980   3.706
 2276TIP3    H2 6793   0.643   2.937   3.850
 2277TIP3   OH2 6794   4.656   0.242   4.709
 2277TIP3    H1 6795   4.582   0.273   4.762
 2277TIP3    H2 6796   4.648   0.290   4.626
 2278TIP3   OH2 6797   3.150   2.334   1.944
 2278TIP3    H1 6798   3.116   2.420   1.970
 2278TIP3    H2 6799   3.175   2.293   2.027
 2279TIP3   OH2 6800   2.322   6.349   1.134
 2279TIP3    H1 6801   2.315   6.283   1.204
 2279TIP3    H2 6802   2.297   6.302   1.055
 2280TIP3   OH2 6803   3.066   0.121   4.137
 2280TIP3    H1 6804   3.054   0.108   4.043
 2280TIP3    H2 6805   3.131   0.055   4.163
 2281TIP3   OH2 6806   2.153   4.991   2.442
 2281TIP3    H1 6807   2.144   4.916   2.384
 2281TIP3    H2 6808   2.247   4.998   2.458
 2282TIP3   OH2 6809   1.583   6.223   2.229
 2282TIP3    H1 6810   1.599   6.225   2.135
 2282TIP3    H2 6811   1.513   6.159   2.241
 2283TIP3   OH2 6812   6.098   3.285   5.066
 2283TIP3    H1 6813   6.052   3.228   5.128
 2283TIP3    H2 6814   6.029   3.338   5.026
 2284TIP3   OH2 6815   7.002   0.091   5.133
 2284TIP3    H1 6816   7.040   0.008   5.163
 2284TIP3    H2 6817   6.949   0.068   5.057
 2285TIP3   OH2 6818   5.396   3.463   3.246
 2285TIP3    H1 6819   5.446   3.391   3.208
 2285TIP3    H2 6820   5.444   3.486   3.326
 2286TIP3   OH2 6821   2.446   3.504   3.279
 2286TIP3    H1 6822   2.479   3.451   3.206
 2286TIP3    H2 6823   2.417   3.586   3.238
 2287TIP3   OH2 6824   7.142   2.450   0.642
 2287TIP3    H1 6825   7.077   2.383   0.663
 2287TIP3    H2 6826   7.179   2.475   0.726
 2288TIP3   OH2 6827   3.890   0.665   0.612
 2288TIP3    H1 6828   3.931   0.615   0.542
 2288TIP3    H2 6829   3.897   0.756   0.583
 2289TIP3   OH2 6830   7.269  -0.030   4.385
 2289TIP3    H1 6831   7.179  -0.060   4.400
 2289TIP3    H2 6832   7.283   0.036   4.453
 2290TIP3   OH2 6833   1.982   4.244   2.640
 2290TIP3    H1 6834   1.979   4.171   2.702
 2290TIP3    H2 6835   1.934   4.212   2.563
 2291TIP3   OH2 6836   1.010   5.946   4.757
 2291TIP3    H1 6837   0.938   5.904   4.710
 2291TIP3    H2 6838   0.989   6.039   4.755
 2292TIP3   OH2 6839   6.167   3.709   2.940
 2292TIP3    H1 6840   6.131   3.700   2.852
 2292TIP3    H2 6841   6.189   3.802   2.947
 2293TIP3   OH2 6842   6.744   0.283   4.201
 2293TIP3    H1 6843   6.732   0.194   4.234
 2293TIP3    H2 6844   6.825   0.313   4.242
 2294TIP3   OH2 6845   4.383   2.207   2.287
 2294TIP3    H1 6846   4.358   2.167   2.203
 2294TIP3    H2 6847   4.456   2.265   2.264
 2295TIP3   OH2 6848   4.111   6.289   2.120
 2295TIP3    H1 6849   4.074   6.346   2.187
 2295TIP3    H2 6850   4.121   6.346   2.043
 2296TIP3   OH2 6851   2.355   1.608   0.270
 2296TIP3    H1 6852   2.283   1.658   0.231
 2296TIP3    H2 6853   2.321   1.579   0.354
 2297TIP3   OH2 6854   4.825   0.397   1.276
 2297TIP3    H1 6855   4.836   0.413   1.183
 2297TIP3    H2 6856   4.730   0.384   1.287
 2298TIP3   OH2 6857   6.499   5.336   2.734
 2298TIP3    H1 6858   6.455   5.335   2.649
 2298TIP3    H2 6859   6.478   5.251   2.772
 2299TIP3   OH2 6860   5.283   5.149   3.032
 2299TIP3    H1 6861   5.223   5.153   3.106
 2299TIP3    H2 6862   5.359   5.100   3.065
 2300TIP3   OH2 6863   1.307   5.908   2.530
 2300TIP3    H1 6864   1.251   5.853   2.586
 2300TIP3    H2 6865   1.351   5.967   2.592
 2301TIP3   OH2 6866   2.006   5.221   0.319
 2301TIP3    H1 6867   2.029   5.237   0.227
 2301TIP3    H2 6868   1.969   5.133   0.320
 2302TIP3   OH2 6869   2.563   6.741   5.877
 2302TIP3    H1 6870   2.475   6.777   5.880
 2302TIP3    H2 6871   2.552   6.653   5.839
 2303TIP3   OH2 6872   5.117   2.845   5.521
 2303TIP3    H1 6873   5.048   2.799   5.569
 2303TIP3    H2 6874   5.182   2.778   5.501
 2304TIP3   OH2 6875   3.445   5.052   3.102
 2304TIP3    H1 6876   3.475   5.026   3.014
 2304TIP3    H2 6877   3.500   5.127   3.124
 2305TIP3   OH2 6878   0.144   3.874   4.844
 2305TIP3    H1 6879   0.236   3.902   4.850
 2305TIP3    H2 6880   0.124   3.879   4.751
 2306TIP3   OH2 6881   6.795   5.570   2.461
 2306TIP3    H1 6882   6.718   5.605   2.417
 2306TIP3    H2 6883   6.770   5.564   2.554
 2307TIP3   OH2 6884  -0.007   5.900   1.066
 2307TIP3    H1 6885   0.070   5.957   1.062
 2307TIP3    H2 6886  -0.010   5.857   0.981
 2308TIP3   OH2 6887   4.790   5.530   1.457
 2308TIP3    H1 6888   4.869   5.501   1.504
 2308TIP3    H2 6889   4.721   5.471   1.489
 2309TIP3   OH2 6890   6.083   5.405   1.830
 2309TIP3    H1 6891   6.123   5.321   1.807
 2309TIP3    H2 6892   5.990   5.394   1.810
 2310TIP3   OH2 6893   5.201   3.931   1.049
 2310TIP3    H1 6894   5.216   3.875   1.126
 2310TIP3    H2 6895   5.115   3.971   1.065
 2311TIP3   OH2 6896   7.256   0.008   0.027
 2311TIP3    H1 6897   7.243   0.074   0.095
 2311TIP3    H2 6898   7.171  -0.035   0.019
 2312TIP3   OH2 6899   2.226   4.157   3.904
 2312TIP3    H1 6900   2.179   4.123   3.828
 2312TIP3    H2 6901   2.200   4.099   3.975
 2313TIP3   OH2 6902   5.889   4.480   3.167
 2313TIP3    H1 6903   5.969   4.519   3.132
 2313TIP3    H2 6904   5.903   4.386   3.160
 2314TIP3   OH2 6905   1.830   3.814   2.100
 2314TIP3    H1 6906   1.841   3.725   2.069
 2314TIP3    H2 6907   1.740   3.837   2.076
 2315TIP3   OH2 6908   6.533   5.447   1.845
 2315TIP3    H1 6909   6.496   5.415   1.928
 2315TIP3    H2 6910   6.615   5.490   1.870
 2316TIP3   OH2 6911   5.129   3.441   2.864
 2316TIP3    H1 6912   5.156   3.530   2.839
 2316TIP3    H2 6913   5.169   3.384   2.798
 2317TIP3   OH2 6914   7.063   2.787   2.883
 2317TIP3    H1 6915   7.005   2.731   2.934
 2317TIP3    H2 6916   7.004   2.841   2.829
 2318TIP3   OH2 6917   4.328   0.221   2.587
 2318TIP3    H1 6918   4.270   0.150   2.562
 2318TIP3    H2 6919   4.367   0.250   2.505
 2319TIP3   OH2 6920   5.409   1.057   1.984
 2319TIP3    H1 6921   5.364   0.974   1.973
 2319TIP3    H2 6922   5.361   1.101   2.055
 2320TIP3   OH2 6923   2.177   0.131   1.870
 2320TIP3    H1 6924   2.092   0.166   1.843
 2320TIP3    H2 6925   2.189   0.052   1.817
 2321TIP3   OH2 6926   5.855   5.820   2.235
 2321TIP3    H1 6927   5.812   5.801   2.152
 2321TIP3    H2 6928   5.861   5.915   2.238
 2322TIP3   OH2 6929   0.037   3.563   3.203
 2322TIP3    H1 6930   0.026   3.471   3.226
 2322TIP3    H2 6931  -0.039   3.608   3.241
 2323TIP3   OH2 6932   7.195   5.315   4.196
 2323TIP3    H1 6933   7.166   5.325   4.287
 2323TIP3    H2 6934   7.221   5.403   4.170
 2324TIP3   OH2 6935   0.372   1.057   3.169
 2324TIP3    H1 6936   0.369   1.038   3.075
 2324TIP3    H2 6937   0.451   1.013   3.200
 2325TIP3   OH2 6938   5.094  -0.046   2.668
 2325TIP3    H1 6939   5.097  -0.029   2.574
 2325TIP3    H2 6940   5.155   0.016   2.706
 2326TIP3   OH2 6941   3.561   0.738   1.804
 2326TIP3    H1 6942   3.577   0.828   1.774
 2326TIP3    H2 6943   3.487   0.708   1.752
 2327TIP3   OH2 6944   5.331   4.165   0.231
 2327TIP3    H1 6945   5.407   4.224   0.232
 2327TIP3    H2 6946   5.268   4.206   0.291
 2328TIP3   OH2 6947   2.828   0.411   4.445
 2328TIP3    H1 6948   2.738   0.380   4.449
 2328TIP3    H2 6949   2.830   0.486   4.505
 2329TIP3   OH2 6950   2.559   1.133   2.337
 2329TIP3    H1 6951   2.563   1.038   2.349
 2329TIP3    H2 6952   2.555   1.145   2.243
 2330TIP3   OH2 6953   6.264   6.258   3.494
 2330TIP3    H1 6954   6.199   6.327   3.475
 2330TIP3    H2 6955   6.328   6.301   3.550
 2331TIP3   OH2 6956   1.909   2.016   2.635
 2331TIP3    H1 6957   2.002   2.030   2.651
 2331TIP3    H2 6958   1.876   1.976   2.715
 2332TIP3   OH2 6959   4.023   4.755   2.597
 2332TIP3    H1 6960   3.983   4.768   2.684
 2332TIP3    H2 6961   3.984   4.824   2.543
 2333TIP3   OH2 6962   2.925   1.218   2.060
 2333TIP3    H1 6963   3.019   1.201   2.062
 2333TIP3    H2 6964   2.892   1.159   1.991
 2334TIP3   OH2 6965   0.555   1.817   3.683
 2334TIP3    H1 6966   0.491   1.809   3.612
 2334TIP3    H2 6967   0.627   1.867   3.644
 2335TIP3   OH2 6968   4.632   5.548   1.065
 2335TIP3    H1 6969   4.559   5.505   1.110
 2335TIP3    H2 6970   4.591   5.594   0.992
 2336TIP3   OH2 6971   4.519   4.233   0.519
 2336TIP3    H1 6972   4.608   4.212   0.491
 2336TIP3    H2 6973   4.492   4.156   0.570
 2337TIP3   OH2 6974   0.530   0.525   4.721
 2337TIP3    H1 6975   0.539   0.606   4.771
 2337TIP3    H2 6976   0.532   0.553   4.629
 2338TIP3   OH2 6977   1.724   6.049   3.783
 2338TIP3    H1 6978   1.817   6.061   3.801
 2338TIP3    H2 6979   1.719   6.034   3.689
 2339TIP3   OH2 6980   2.051   1.854   1.411
 2339TIP3    H1 6981   2.110   1.907   1.464
 2339TIP3    H2 6982   1.967   1.900   1.415
 2340TIP3   OH2 6983   3.980   1.865   1.120
 2340TIP3    H1 6984   3.935   1.785   1.145
 2340TIP3    H2 6985   4.031   1.842   1.043
 2341TIP3   OH2 6986   5.630   3.072   0.357
 2341TIP3    H1 6987   5.594   3.045   0.441
 2341TIP3    H2 6988   5.586   3.155   0.337
 2342TIP3   OH2 6989   0.498   0.491   5.196
 2342TIP3    H1 6990   0.430   0.557   5.210
 2342TIP3    H2 6991   0.540   0.480   5.281
 2343TIP3   OH2 6992   4.628   3.409   1.243
 2343TIP3    H1 6993   4.595   3.332   1.196
 2343TIP3    H2 6994   4.683   3.454   1.179
 2344TIP3   OH2 6995   2.030   1.566   1.670
 2344TIP3    H1 6996   2.080   1.642   1.701
 2344TIP3    H2 6997   1.949   1.568   1.722
 2345TIP3   OH2 6998   6.403   6.574   3.397
 2345TIP3    H1 6999   6.413   6.545   3.488
 2345TIP3    H2 7000   6.486   6.551   3.355
 2346TIP3   OH2 7001   5.433   4.603   3.877
 2346TIP3    H1 7002   5.371   4.531   3.866
 2346TIP3    H2 7003   5.390   4.663   3.938
 2347TIP3   OH2 7004   4.000   4.140   1.127
 2347TIP3    H1 7005   3.941   4.212   1.105
 2347TIP3    H2 7006   4.061   4.136   1.053
 2348TIP3   OH2 7007   1.404   1.151   5.818
 2348TIP3    H1 7008   1.335   1.180   5.879
 2348TIP3    H2 7009   1.486   1.179   5.859
 2349TIP3   OH2 7010   0.212   3.616   3.553
 2349TIP3    H1 7011   0.285   3.637   3.495
 2349TIP3    H2 7012   0.250   3.620   3.641
 2350TIP3   OH2 7013   1.810   3.738   1.615
 2350TIP3    H1 7014   1.793   3.651   1.651
 2350TIP3    H2 7015   1.724   3.770   1.588
 2351TIP3   OH2 7016   1.600   5.193   5.668
 2351TIP3    H1 7017   1.622   5.101   5.656
 2351TIP3    H2 7018   1.648   5.219   5.747
 2352TIP3   OH2 7019   5.946   1.072   4.443
 2352TIP3    H1 7020   5.876   1.101   4.384
 2352TIP3    H2 7021   6.023   1.064   4.386
 2353TIP3   OH2 7022   5.425   5.757   3.229
 2353TIP3    H1 7023   5.392   5.669   3.252
 2353TIP3    H2 7024   5.350   5.814   3.243
 2354TIP3   OH2 7025   6.931   2.809   2.345
 2354TIP3    H1 7026   7.026   2.825   2.349
 2354TIP3    H2 7027   6.902   2.815   2.435
 2355TIP3   OH2 7028   1.417   3.556   3.079
 2355TIP3    H1 7029   1.446   3.613   3.151
 2355TIP3    H2 7030   1.323   3.572   3.073
 2356TIP3   OH2 7031   5.652   4.655   1.531
 2356TIP3    H1 7032   5.670   4.563   1.547
 2356TIP3    H2 7033   5.618   4.688   1.614
 2357TIP3   OH2 7034   3.122   5.165   1.387
 2357TIP3    H1 7035   3.030   5.189   1.382
 2357TIP3    H2 7036   3.138   5.151   1.480
 2358TIP3   OH2 7037   3.357   4.294   0.316
 2358TIP3    H1 7038   3.332   4.350   0.243
 2358TIP3    H2 7039   3.277   4.287   0.369
 2359TIP3   OH2 7040   5.545   0.458   3.960
 2359TIP3    H1 7041   5.467   0.481   3.909
 2359TIP3    H2 7042   5.528   0.369   3.991
 2360TIP3   OH2 7043   4.563   6.075   2.065
 2360TIP3    H1 7044   4.531   6.062   1.976
 2360TIP3    H2 7045   4.489   6.114   2.112
 2361TIP3   OH2 7046   5.337   4.162   3.538
 2361TIP3    H1 7047   5.417   4.109   3.538
 2361TIP3    H2 7048   5.363   4.246   3.502
 2362TIP3   OH2 7049   3.027   3.897   2.273
 2362TIP3    H1 7050   3.082   3.972   2.294
 2362TIP3    H2 7051   3.077   3.850   2.205
 2363TIP3   OH2 7052   1.130   4.124   2.608
 2363TIP3    H1 7053   1.224   4.112   2.620
 2363TIP3    H2 7054   1.121   4.147   2.515
 2364TIP3   OH2 7055   3.456   1.260   0.397
 2364TIP3    H1 7056   3.385   1.197   0.408
 2364TIP3    H2 7057   3.496   1.267   0.483
 2365TIP3   OH2 7058   1.973   6.811   5.357
 2365TIP3    H1 7059   1.965   6.901   5.389
 2365TIP3    H2 7060   1.926   6.812   5.274
 2366TIP3   OH2 7061   4.482   2.244   0.513
 2366TIP3    H1 7062   4.461   2.326   0.469
 2366TIP3    H2 7063   4.485   2.179   0.442
 2367TIP3   OH2 7064   2.363   4.683   5.767
 2367TIP3    H1 7065   2.269   4.680   5.785
 2367TIP3    H2 7066   2.401   4.623   5.831
 2368TIP3   OH2 7067   2.241   6.706   1.400
 2368TIP3    H1 7068   2.209   6.779   1.451
 2368TIP3    H2 7069   2.163   6.672   1.355
 2369TIP3   OH2 7070   6.931   5.768   0.528
 2369TIP3    H1 7071   6.849   5.786   0.574
 2369TIP3    H2 7072   6.998   5.809   0.583
 2370TIP3   OH2 7073   4.243   4.357   4.902
 2370TIP3    H1 7074   4.166   4.406   4.931
 2370TIP3    H2 7075   4.208   4.294   4.839
 2371TIP3   OH2 7076   5.237   5.823   0.606
 2371TIP3    H1 7077   5.157   5.796   0.651
 2371TIP3    H2 7078   5.246   5.760   0.534
 2372TIP3   OH2 7079   4.706   2.220   5.017
 2372TIP3    H1 7080   4.762   2.143   5.020
 2372TIP3    H2 7081   4.703   2.243   4.924
 2373TIP3   OH2 7082   6.351   6.644   5.819
 2373TIP3    H1 7083   6.440   6.645   5.785
 2373TIP3    H2 7084   6.311   6.566   5.782
 2374TIP3   OH2 7085   1.272   1.694   3.499
 2374TIP3    H1 7086   1.227   1.763   3.547
 2374TIP3    H2 7087   1.365   1.712   3.514
 2375TIP3   OH2 7088   2.189   3.406   4.550
 2375TIP3    H1 7089   2.262   3.466   4.534
 2375TIP3    H2 7090   2.205   3.372   4.638
 2376TIP3   OH2 7091   6.806   1.411   2.034
 2376TIP3    H1 7092   6.842   1.470   2.100
 2376TIP3    H2 7093   6.731   1.458   1.997
 2377TIP3   OH2 7094   4.093   0.567   5.537
 2377TIP3    H1 7095   4.149   0.490   5.540
 2377TIP3    H2 7096   4.078   0.590   5.628
 2378TIP3   OH2 7097   3.746   1.127   0.468
 2378TIP3    H1 7098   3.682   1.168   0.526
 2378TIP3    H2 7099   3.766   1.194   0.403
 2379TIP3   OH2 7100   1.154   6.706   2.944
 2379TIP3    H1 7101   1.089   6.776   2.955
 2379TIP3    H2 7102   1.227   6.732   3.000
 2380TIP3   OH2 7103   5.116   1.416   2.221
 2380TIP3    H1 7104   5.023   1.397   2.233
 2380TIP3    H2 7105   5.132   1.399   2.128
 2381TIP3   OH2 7106   1.334   4.883   5.858
 2381TIP3    H1 7107   1.362   4.817   5.921
 2381TIP3    H2 7108   1.357   4.966   5.898
 2382TIP3   OH2 7109   6.181   2.421   1.209
 2382TIP3    H1 7110   6.257   2.402   1.265
 2382TIP3    H2 7111   6.110   2.437   1.271
 2383TIP3   OH2 7112   6.985   2.011   5.767
 2383TIP3    H1 7113   6.967   2.004   5.861
 2383TIP3    H2 7114   6.907   1.976   5.724
 2384TIP3   OH2 7115   2.945   0.159   1.887
 2384TIP3    H1 7116   3.001   0.232   1.915
 2384TIP3    H2 7117   2.921   0.115   1.969
 2385TIP3   OH2 7118   5.730   0.271   2.152
 2385TIP3    H1 7119   5.668   0.209   2.190
 2385TIP3    H2 7120   5.683   0.310   2.078
 2386TIP3   OH2 7121   2.223   0.289   5.595
 2386TIP3    H1 7122   2.135   0.252   5.588
 2386TIP3    H2 7123   2.229   0.349   5.521
 2387TIP3   OH2 7124   2.526   5.505   0.831
 2387TIP3    H1 7125   2.463   5.577   0.840
 2387TIP3    H2 7126   2.526   5.483   0.738
 2388TIP3   OH2 7127   2.124   6.559   1.907
 2388TIP3    H1 7128   2.163   6.531   1.990
 2388TIP3    H2 7129   2.069   6.634   1.931
 2389TIP3   OH2 7130   2.979   6.123   2.327
 2389TIP3    H1 7131   2.984   6.055   2.394
 2389TIP3    H2 7132   2.921   6.087   2.260
 2390TIP3   OH2 7133   0.000   5.959   2.672
 2390TIP3    H1 7134   0.051   5.878   2.672
 2390TIP3    H2 7135  -0.075   5.940   2.728
 2391TIP3   OH2 7136   0.701   2.464   0.338
 2391TIP3    H1 7137   0.738   2.549   0.366
 2391TIP3    H2 7138   0.769   2.401   0.360
 2392TIP3   OH2 7139   5.527   0.869   2.552
 2392TIP3    H1 7140   5.476   0.798   2.589
 2392TIP3    H2 7141   5.534   0.848   2.459
 2393TIP3   OH2 7142   6.783   6.319   1.614
 2393TIP3    H1 7143   6.771   6.285   1.526
 2393TIP3    H2 7144   6.766   6.413   1.606
 2394TIP3   OH2 7145   1.610   4.816   4.097
 2394TIP3    H1 7146   1.698   4.812   4.134
 2394TIP3    H2 7147   1.552   4.818   4.173
 2395TIP3   OH2 7148   0.516   1.425   1.097
 2395TIP3    H1 7149   0.473   1.507   1.120
 2395TIP3    H2 7150   0.607   1.438   1.125
 2396TIP3   OH2 7151   5.949   3.528   3.412
 2396TIP3    H1 7152   5.855   3.521   3.393
 2396TIP3    H2 7153   5.987   3.562   3.331
 2397TIP3   OH2 7154   4.751   4.958   0.370
 2397TIP3    H1 7155   4.721   4.890   0.430
 2397TIP3    H2 7156   4.804   4.912   0.305
 2398TIP3   OH2 7157   4.046   3.007   3.027
 2398TIP3    H1 7158   3.985   2.985   3.098
 2398TIP3    H2 7159   4.018   3.093   2.997
 2399TIP3   OH2 7160   2.038   4.450   2.362
 2399TIP3    H1 7161   2.017   4.362   2.394
 2399TIP3    H2 7162   2.111   4.478   2.417
 2400TIP3   OH2 7163   2.979   5.570   4.644
 2400TIP3    H1 7164   3.019   5.637   4.588
 2400TIP3    H2 7165   3.024   5.489   4.619
 2401TIP3   OH2 7166   5.688   4.504   5.131
 2401TIP3    H1 7167   5.757   4.485   5.068
 2401TIP3    H2 7168   5.693   4.599   5.145
 2402TIP3   OH2 7169   6.393   5.358   0.745
 2402TIP3    H1 7170   6.462   5.420   0.766
 2402TIP3    H2 7171   6.341   5.402   0.677
 2403TIP3   OH2 7172   2.176   1.892   5.675
 2403TIP3    H1 7173   2.233   1.969   5.669
 2403TIP3    H2 7174   2.231   1.820   5.646
 2404TIP3   OH2 7175   3.152   5.113   4.087
 2404TIP3    H1 7176   3.114   5.082   4.169
 2404TIP3    H2 7177   3.175   5.204   4.105
 2405TIP3   OH2 7178   4.998   2.565   3.944
 2405TIP3    H1 7179   5.092   2.578   3.955
 2405TIP3    H2 7180   4.963   2.653   3.928
 2406TIP3   OH2 7181   6.738   0.562   3.272
 2406TIP3    H1 7182   6.721   0.483   3.221
 2406TIP3    H2 7183   6.792   0.533   3.345
 2407TIP3   OH2 7184   1.220   4.153   4.537
 2407TIP3    H1 7185   1.159   4.083   4.510
 2407TIP3    H2 7186   1.199   4.226   4.479
 2408TIP3   OH2 7187   0.749   0.245   2.487
 2408TIP3    H1 7188   0.776   0.290   2.567
 2408TIP3    H2 7189   0.706   0.313   2.435
 2409TIP3   OH2 7190   0.994   6.077   5.105
 2409TIP3    H1 7191   1.023   6.033   5.185
 2409TIP3    H2 7192   0.986   6.006   5.040
 2410TIP3   OH2 7193   2.121   2.577   5.639
 2410TIP3    H1 7194   2.027   2.591   5.650
 2410TIP3    H2 7195   2.132   2.559   5.546
 2411TIP3   OH2 7196   5.428   5.534   0.660
 2411TIP3    H1 7197   5.366   5.582   0.715
 2411TIP3    H2 7198   5.497   5.597   0.640
 2412TIP3   OH2 7199   6.911   6.171   4.360
 2412TIP3    H1 7200   6.946   6.133   4.440
 2412TIP3    H2 7201   6.972   6.143   4.291
 2413TIP3   OH2 7202   4.369   4.663   1.382
 2413TIP3    H1 7203   4.438   4.614   1.337
 2413TIP3    H2 7204   4.321   4.597   1.433
 2414TIP3   OH2 7205   2.477   2.280   1.530
 2414TIP3    H1 7206   2.515   2.327   1.604
 2414TIP3    H2 7207   2.385   2.307   1.530
 2415TIP3   OH2 7208   7.086   0.751   1.943
 2415TIP3    H1 7209   7.127   0.674   1.983
 2415TIP3    H2 7210   7.103   0.741   1.849
 2416TIP3   OH2 7211   1.720   2.800   2.773
 2416TIP3    H1 7212   1.702   2.803   2.679
 2416TIP3    H2 7213   1.635   2.817   2.814
 2417TIP3   OH2 7214   4.259   4.405   2.141
 2417TIP3    H1 7215   4.224   4.364   2.062
 2417TIP3    H2 7216   4.339   4.356   2.160
 2418TIP3   OH2 7217   6.567   0.234   3.728
 2418TIP3    H1 7218   6.636   0.242   3.794
 2418TIP3    H2 7219   6.524   0.151   3.748
 2419TIP3   OH2 7220   0.321   4.275   1.135
 2419TIP3    H1 7221   0.408   4.249   1.166
 2419TIP3    H2 7222   0.274   4.300   1.215
 2420TIP3   OH2 7223   6.503   4.490   1.201
 2420TIP3    H1 7224   6.502   4.400   1.169
 2420TIP3    H2 7225   6.556   4.538   1.137
 2421TIP3   OH2 7226   3.434   4.914   4.719
 2421TIP3    H1 7227   3.402   4.827   4.695
 2421TIP3    H2 7228   3.381   4.939   4.796
 2422TIP3   OH2 7229   0.323   5.911   2.155
 2422TIP3    H1 7230   0.259   5.839   2.157
 2422TIP3    H2 7231   0.369   5.899   2.071
 2423TIP3   OH2 7232   0.878   1.720   0.562
 2423TIP3    H1 7233   0.948   1.668   0.602
 2423TIP3    H2 7234   0.823   1.746   0.636
 2424TIP3   OH2 7235   5.105   1.359   1.947
 2424TIP3    H1 7236   5.068   1.442   1.918
 2424TIP3    H2 7237   5.028   1.304   1.965
 2425TIP3   OH2 7238   5.431   3.359   1.269
 2425TIP3    H1 7239   5.424   3.369   1.364
 2425TIP3    H2 7240   5.485   3.281   1.257
 2426TIP3   OH2 7241   3.256   1.084   1.497
 2426TIP3    H1 7242   3.311   1.124   1.429
 2426TIP3    H2 7243   3.315   1.024   1.543
 2427TIP3   OH2 7244   0.895   5.040   0.474
 2427TIP3    H1 7245   0.963   5.029   0.540
 2427TIP3    H2 7246   0.858   5.127   0.491
 2428TIP3   OH2 7247   6.402   4.967   5.695
 2428TIP3    H1 7248   6.332   5.020   5.658
 2428TIP3    H2 7249   6.434   4.915   5.621
 2429TIP3   OH2 7250   3.248   1.215   4.537
 2429TIP3    H1 7251   3.201   1.298   4.541
 2429TIP3    H2 7252   3.302   1.222   4.458
 2430TIP3   OH2 7253   3.189   5.506   4.318
 2430TIP3    H1 7254   3.249   5.534   4.249
 2430TIP3    H2 7255   3.231   5.535   4.399
 2431TIP3   OH2 7256   6.464   6.265   3.110
 2431TIP3    H1 7257   6.533   6.314   3.155
 2431TIP3    H2 7258   6.511   6.217   3.041
 2432TIP3   OH2 7259   3.481   3.772   4.063
 2432TIP3    H1 7260   3.388   3.769   4.085
 2432TIP3    H2 7261   3.497   3.863   4.040
 2433TIP3   OH2 7262   2.743   1.848   0.123
 2433TIP3    H1 7263   2.781   1.923   0.168
 2433TIP3    H2 7264   2.698   1.799   0.192
 2434TIP3   OH2 7265   0.156   6.306   3.352
 2434TIP3    H1 7266   0.201   6.232   3.311
 2434TIP3    H2 7267   0.087   6.266   3.404
 2435TIP3   OH2 7268   1.724   5.332   5.214
 2435TIP3    H1 7269   1.814   5.329   5.183
 2435TIP3    H2 7270   1.728   5.294   5.302
 2436TIP3   OH2 7271   0.550   2.681   5.854
 2436TIP3    H1 7272   0.591   2.600   5.825
 2436TIP3    H2 7273   0.465   2.683   5.810
 2437TIP3   OH2 7274   2.128   4.016   4.117
 2437TIP3    H1 7275   2.037   4.019   4.086
 2437TIP3    H2 7276   2.126   4.062   4.201
 2438TIP3   OH2 7277   2.804   4.371   1.082
 2438TIP3    H1 7278   2.824   4.464   1.090
 2438TIP3    H2 7279   2.775   4.345   1.170
 2439TIP3   OH2 7280   2.673   3.978   4.710
 2439TIP3    H1 7281   2.659   4.066   4.743
 2439TIP3    H2 7282   2.659   3.985   4.616
 2440TIP3   OH2 7283   2.560  -0.012   2.097
 2440TIP3    H1 7284   2.611   0.035   2.163
 2440TIP3    H2 7285   2.502   0.055   2.061
 2441TIP3   OH2 7286   0.014   0.152   1.028
 2441TIP3    H1 7287  -0.027   0.236   1.046
 2441TIP3    H2 7288  -0.030   0.120   0.950
 2442TIP3   OH2 7289   6.407   3.113   5.521
 2442TIP3    H1 7290   6.469   3.062   5.467
 2442TIP3    H2 7291   6.441   3.202   5.518
 2443TIP3   OH2 7292   7.076   6.587   3.438
 2443TIP3    H1 7293   6.991   6.596   3.482
 2443TIP3    H2 7294   7.137   6.567   3.509
 2444TIP3   OH2 7295   6.505   5.831   5.306
 2444TIP3    H1 7296   6.464   5.869   5.384
 2444TIP3    H2 7297   6.518   5.905   5.247
 2445TIP3   OH2 7298   5.696   4.547   3.830
 2445TIP3    H1 7299   5.607   4.581   3.826
 2445TIP3    H2 7300   5.750   4.623   3.849
 2446TIP3   OH2 7301   6.969   1.410   0.098
 2446TIP3    H1 7302   6.988   1.381   0.188
 2446TIP3    H2 7303   6.904   1.348   0.067
 2447TIP3   OH2 7304   6.249   4.190   1.175
 2447TIP3    H1 7305   6.213   4.104   1.153
 2447TIP3    H2 7306   6.338   4.172   1.206
 2448TIP3   OH2 7307   4.825   0.872   4.310
 2448TIP3    H1 7308   4.887   0.895   4.379
 2448TIP3    H2 7309   4.810   0.778   4.321
 2449TIP3   OH2 7310   5.411   3.847   4.784
 2449TIP3    H1 7311   5.365   3.920   4.826
 2449TIP3    H2 7312   5.461   3.807   4.854
 2450TIP3   OH2 7313   3.408   3.681   5.825
 2450TIP3    H1 7314   3.423   3.590   5.801
 2450TIP3    H2 7315   3.320   3.681   5.863
 2451TIP3   OH2 7316   2.978   5.642   4.109
 2451TIP3    H1 7317   2.939   5.554   4.111
 2451TIP3    H2 7318   3.041   5.642   4.180
 2452TIP3   OH2 7319   6.122   6.051   2.337
 2452TIP3    H1 7320   6.205   6.029   2.377
 2452TIP3    H2 7321   6.077   5.968   2.324
 2453TIP3   OH2 7322   0.536   0.903   0.914
 2453TIP3    H1 7323   0.448   0.891   0.950
 2453TIP3    H2 7324   0.563   0.990   0.942
 2454TIP3   OH2 7325   2.858   1.413   0.505
 2454TIP3    H1 7326   2.847   1.486   0.444
 2454TIP3    H2 7327   2.778   1.361   0.494
 2455TIP3   OH2 7328   2.583   2.167   4.380
 2455TIP3    H1 7329   2.562   2.122   4.461
 2455TIP3    H2 7330   2.525   2.243   4.378
 2456TIP3   OH2 7331   4.992   5.149   3.819
 2456TIP3    H1 7332   5.074   5.109   3.792
 2456TIP3    H2 7333   5.011   5.190   3.903
 2457TIP3   OH2 7334   7.212   3.924   5.312
 2457TIP3    H1 7335   7.125   3.934   5.274
 2457TIP3    H2 7336   7.258   4.005   5.290
 2458TIP3   OH2 7337   1.504   5.748   0.633
 2458TIP3    H1 7338   1.571   5.741   0.566
 2458TIP3    H2 7339   1.472   5.838   0.625
 2459TIP3   OH2 7340   0.543   1.442   2.513
 2459TIP3    H1 7341   0.559   1.451   2.419
 2459TIP3    H2 7342   0.552   1.348   2.529
 2460TIP3   OH2 7343   3.893   0.903   1.781
 2460TIP3    H1 7344   3.831   0.906   1.709
 2460TIP3    H2 7345   3.966   0.850   1.748
 2461TIP3   OH2 7346   5.299   2.490   4.761
 2461TIP3    H1 7347   5.322   2.459   4.673
 2461TIP3    H2 7348   5.204   2.503   4.758
 2462TIP3   OH2 7349   0.087   0.547   0.919
 2462TIP3    H1 7350   0.117   0.470   0.870
 2462TIP3    H2 7351   0.003   0.520   0.956
 2463TIP3   OH2 7352   0.884   4.464   3.087
 2463TIP3    H1 7353   0.868   4.375   3.120
 2463TIP3    H2 7354   0.853   4.521   3.157
 2464TIP3   OH2 7355   5.389   5.205   1.941
 2464TIP3    H1 7356   5.389   5.297   1.970
 2464TIP3    H2 7357   5.463   5.199   1.881
 2465TIP3   OH2 7358   0.412   3.207   4.591
 2465TIP3    H1 7359   0.376   3.168   4.671
 2465TIP3    H2 7360   0.336   3.224   4.536
 2466TIP3   OH2 7361   5.309   1.896   5.026
 2466TIP3    H1 7362   5.308   1.803   5.047
 2466TIP3    H2 7363   5.233   1.909   4.970
 2467TIP3   OH2 7364   3.304   3.054   5.893
 2467TIP3    H1 7365   3.214   3.084   5.881
 2467TIP3    H2 7366   3.299   2.959   5.881
 2468TIP3   OH2 7367   5.112   0.159   0.709
 2468TIP3    H1 7368   5.118   0.240   0.759
 2468TIP3    H2 7369   5.079   0.186   0.623
 2469TIP3   OH2 7370   6.764   4.195   5.811
 2469TIP3    H1 7371   6.850   4.236   5.821
 2469TIP3    H2 7372   6.771   4.143   5.731
 2470TIP3   OH2 7373   2.440   6.463   2.297
 2470TIP3    H1 7374   2.443   6.416   2.380
 2470TIP3    H2 7375   2.446   6.395   2.230
 2471TIP3   OH2 7376   5.859   4.256   4.141
 2471TIP3    H1 7377   5.922   4.185   4.128
 2471TIP3    H2 7378   5.903   4.316   4.201
 2472TIP3   OH2 7379   4.019   2.667   1.862
 2472TIP3    H1 7380   4.076   2.648   1.936
 2472TIP3    H2 7381   3.984   2.755   1.881
 2473TIP3   OH2 7382   3.981   5.044   5.355
 2473TIP3    H1 7383   4.029   5.080   5.280
 2473TIP3    H2 7384   3.893   5.027   5.322
 2474TIP3   OH2 7385   6.204   3.409   2.148
 2474TIP3    H1 7386   6.110   3.399   2.137
 2474TIP3    H2 7387   6.234   3.446   2.066
 2475TIP3   OH2 7388   2.649   4.226   2.300
 2475TIP3    H1 7389   2.622   4.176   2.377
 2475TIP3    H2 7390   2.710   4.168   2.254
 2476TIP3   OH2 7391   5.829   4.530   3.564
 2476TIP3    H1 7392   5.800   4.524   3.655
 2476TIP3    H2 7393   5.780   4.461   3.519
 2477TIP3   OH2 7394   4.096   4.730   5.873
 2477TIP3    H1 7395   4.162   4.795   5.895
 2477TIP3    H2 7396   4.134   4.647   5.900
 2478TIP3   OH2 7397   6.761   1.899   5.664
 2478TIP3    H1 7398   6.706   1.935   5.595
 2478TIP3    H2 7399   6.792   1.815   5.630
 2479TIP3   OH2 7400   1.463   2.585   0.328
 2479TIP3    H1 7401   1.415   2.632   0.397
 2479TIP3    H2 7402   1.551   2.572   0.365
 2480TIP3   OH2 7403   5.821   6.149   3.183
 2480TIP3    H1 7404   5.804   6.056   3.199
 2480TIP3    H2 7405   5.744   6.180   3.135
 2481TIP3   OH2 7406   6.358   4.002   2.789
 2481TIP3    H1 7407   6.280   4.057   2.782
 2481TIP3    H2 7408   6.356   3.969   2.879
 2482TIP3   OH2 7409   1.298   1.360   3.820
 2482TIP3    H1 7410   1.307   1.276   3.866
 2482TIP3    H2 7411   1.242   1.341   3.745
 2483TIP3   OH2 7412   3.771   5.448   5.531
 2483TIP3    H1 7413   3.804   5.532   5.501
 2483TIP3    H2 7414   3.680   5.465   5.556
 2484TIP3   OH2 7415   3.668   2.167   2.190
 2484TIP3    H1 7416   3.640   2.104   2.124
 2484TIP3    H2 7417   3.684   2.113   2.268
 2485TIP3   OH2 7418   7.051   0.733   2.557
 2485TIP3    H1 7419   7.132   0.740   2.608
 2485TIP3    H2 7420   6.981   0.755   2.618
 2486TIP3   OH2 7421   1.994   0.560   2.435
 2486TIP3    H1 7422   2.049   0.566   2.513
 2486TIP3    H2 7423   1.905   0.574   2.468
 2487TIP3   OH2 7424   2.223   1.344   5.563
 2487TIP3    H1 7425   2.249   1.284   5.493
 2487TIP3    H2 7426   2.135   1.317   5.587
 2488TIP3   OH2 7427  -0.035   1.357   2.161
 2488TIP3    H1 7428   0.037   1.317   2.210
 2488TIP3    H2 7429   0.008   1.401   2.087
 2489TIP3   OH2 7430   1.111   5.647   4.124
 2489TIP3    H1 7431   1.140   5.598   4.200
 2489TIP3    H2 7432   1.108   5.738   4.154
 2490TIP3   OH2 7433   0.252   4.325   3.500
 2490TIP3    H1 7434   0.326   4.377   3.532
 2490TIP3    H2 7435   0.175   4.377   3.522
 2491TIP3   OH2 7436   1.715   2.190   5.405
 2491TIP3    H1 7437   1.670   2.226   5.328
 2491TIP3    H2 7438   1.731   2.098   5.383
 2492TIP3   OH2 7439   5.010   3.888   4.607
 2492TIP3    H1 7440   5.044   3.976   4.588
 2492TIP3    H2 7441   5.088   3.832   4.607
 2493TIP3   OH2 7442   5.921   3.886   0.701
 2493TIP3    H1 7443   5.899   3.934   0.780
 2493TIP3    H2 7444   5.980   3.816   0.730
 2494TIP3   OH2 7445   4.868   1.586   5.772
 2494TIP3    H1 7446   4.951   1.613   5.813
 2494TIP3    H2 7447   4.884   1.596   5.678
 2495TIP3   OH2 7448   2.528   0.531   1.148
 2495TIP3    H1 7449   2.472   0.453   1.143
 2495TIP3    H2 7450   2.469   0.604   1.134
 2496TIP3   OH2 7451   6.091   3.614   3.195
 2496TIP3    H1 7452   6.095   3.696   3.244
 2496TIP3    H2 7453   6.121   3.638   3.107
 2497TIP3   OH2 7454   6.422   0.963   2.340
 2497TIP3    H1 7455   6.409   0.896   2.272
 2497TIP3    H2 7456   6.402   1.046   2.295
 2498TIP3   OH2 7457   4.796   0.150   5.130
 2498TIP3    H1 7458   4.805   0.122   5.221
 2498TIP3    H2 7459   4.751   0.234   5.135
 2499TIP3   OH2 7460   5.797   0.775   1.762
 2499TIP3    H1 7461   5.845   0.819   1.832
 2499TIP3    H2 7462   5.844   0.798   1.682
 2500TIP3   OH2 7463   4.641   3.985   5.089
 2500TIP3    H1 7464   4.693   4.013   5.164
 2500TIP3    H2 7465   4.576   3.925   5.126
 2501TIP3   OH2 7466   3.295   4.289   3.941
 2501TIP3    H1 7467   3.211   4.313   3.903
 2501TIP3    H2 7468   3.347   4.255   3.868
 2502TIP3   OH2 7469   0.707   2.504   2.858
 2502TIP3    H1 7470   0.612   2.498   2.847
 2502TIP3    H2 7471   0.742   2.430   2.808
 2503TIP3   OH2 7472   5.811   0.663   4.723
 2503TIP3    H1 7473   5.742   0.652   4.658
 2503TIP3    H2 7474   5.766   0.686   4.804
 2504TIP3   OH2 7475   4.843   6.789   0.556
 2504TIP3    H1 7476   4.883   6.741   0.484
 2504TIP3    H2 7477   4.906   6.859   0.576
 2505TIP3   OH2 7478   6.992   4.563   2.324
 2505TIP3    H1 7479   6.933   4.522   2.387
 2505TIP3    H2 7480   7.026   4.640   2.369
 2506TIP3   OH2 7481   0.624   0.415   1.066
 2506TIP3    H1 7482   0.708   0.371   1.052
 2506TIP3    H2 7483   0.582   0.364   1.136
 2507TIP3   OH2 7484   6.351   2.113   1.050
 2507TIP3    H1 7485   6.400   2.194   1.055
 2507TIP3    H2 7486   6.273   2.135   0.998
 2508TIP3   OH2 7487   5.218   0.042   0.297
 2508TIP3    H1 7488   5.258   0.014   0.214
 2508TIP3    H2 7489   5.272   0.115   0.326
 2509TIP3   OH2 7490   5.629   0.748   4.893
 2509TIP3    H1 7491   5.638   0.814   4.824
 2509TIP3    H2 7492   5.536   0.748   4.914
 2510TIP3   OH2 7493   7.029   2.541   4.237
 2510TIP3    H1 7494   6.958   2.505   4.185
 2510TIP3    H2 7495   6.986   2.575   4.316
 2511TIP3   OH2 7496   3.959   4.765   1.738
 2511TIP3    H1 7497   3.999   4.828   1.799
 2511TIP3    H2 7498   3.876   4.742   1.779
 2512TIP3   OH2 7499   1.766   2.364   2.984
 2512TIP3    H1 7500   1.680   2.402   3.003
 2512TIP3    H2 7501   1.762   2.276   3.021
 2513TIP3   OH2 7502   6.548   1.463   4.784
 2513TIP3    H1 7503   6.591   1.492   4.865
 2513TIP3    H2 7504   6.480   1.528   4.769
 2514TIP3   OH2 7505   5.404   1.566   4.612
 2514TIP3    H1 7506   5.499   1.559   4.624
 2514TIP3    H2 7507   5.394   1.595   4.521
 2515TIP3   OH2 7508   6.319   6.598   1.157
 2515TIP3    H1 7509   6.369   6.634   1.230
 2515TIP3    H2 7510   6.279   6.675   1.115
 2516TIP3   OH2 7511   6.193   6.223   5.382
 2516TIP3    H1 7512   6.146   6.149   5.346
 2516TIP3    H2 7513   6.177   6.295   5.321
 2517TIP3   OH2 7514   2.226   4.830   0.881
 2517TIP3    H1 7515   2.249   4.835   0.974
 2517TIP3    H2 7516   2.196   4.918   0.859
 2518TIP3   OH2 7517   3.371   2.379   0.498
 2518TIP3    H1 7518   3.435   2.450   0.505
 2518TIP3    H2 7519   3.400   2.313   0.561
 2519TIP3   OH2 7520   5.696   1.741   4.989
 2519TIP3    H1 7521   5.774   1.748   5.044
 2519TIP3    H2 7522   5.638   1.682   5.037
 2520TIP3   OH2 7523   2.427   5.952   4.220
 2520TIP3    H1 7524   2.486   5.997   4.160
 2520TIP3    H2 7525   2.339   5.975   4.190
 2521TIP3   OH2 7526   2.027   5.475   3.573
 2521TIP3    H1 7527   2.049   5.484   3.480
 2521TIP3    H2 7528   2.037   5.381   3.590
 2522TIP3   OH2 7529   6.444   6.661   1.389
 2522TIP3    H1 7530   6.495   6.617   1.457
 2522TIP3    H2 7531   6.362   6.684   1.433
 2523TIP3   OH2 7532   7.094   0.762   2.914
 2523TIP3    H1 7533   7.151   0.752   2.838
 2523TIP3    H2 7534   7.155   0.770   2.988
 2524TIP3   OH2 7535   5.443   5.849   3.979
 2524TIP3    H1 7536   5.411   5.806   4.059
 2524TIP3    H2 7537   5.368   5.900   3.949
 2525TIP3   OH2 7538   3.712   4.182   1.308
 2525TIP3    H1 7539   3.805   4.173   1.288
 2525TIP3    H2 7540   3.686   4.096   1.342
 2526TIP3   OH2 7541   0.133   1.699   2.648
 2526TIP3    H1 7542   0.163   1.614   2.615
 2526TIP3    H2 7543   0.204   1.760   2.626
 2527TIP3   OH2 7544   1.262   3.909   4.727
 2527TIP3    H1 7545   1.353   3.888   4.749
 2527TIP3    H2 7546   1.262   4.004   4.711
 2528TIP3   OH2 7547   4.057   0.994   4.725
 2528TIP3    H1 7548   4.090   1.080   4.752
 2528TIP3    H2 7549   4.126   0.932   4.750
 2529TIP3   OH2 7550   6.124   0.943   3.087
 2529TIP3    H1 7551   6.117   0.871   3.024
 2529TIP3    H2 7552   6.044   0.993   3.076
 2530TIP3   OH2 7553   1.614   3.715   4.297
 2530TIP3    H1 7554   1.672   3.788   4.318
 2530TIP3    H2 7555   1.636   3.692   4.207
 2531TIP3   OH2 7556   5.074   1.571   1.018
 2531TIP3    H1 7557   5.087   1.479   0.996
 2531TIP3    H2 7558   5.026   1.569   1.100
 2532TIP3   OH2 7559   1.750   6.186   5.843
 2532TIP3    H1 7560   1.743   6.281   5.857
 2532TIP3    H2 7561   1.803   6.155   5.916
 2533TIP3   OH2 7562   4.391   6.392   5.062
 2533TIP3    H1 7563   4.484   6.397   5.083
 2533TIP3    H2 7564   4.353   6.340   5.133
 2534TIP3   OH2 7565   6.487   0.506   3.378
 2534TIP3    H1 7566   6.438   0.530   3.299
 2534TIP3    H2 7567   6.567   0.557   3.373
 2535TIP3   OH2 7568   3.200   5.322   3.722
 2535TIP3    H1 7569   3.192   5.412   3.754
 2535TIP3    H2 7570   3.292   5.300   3.737
 2536TIP3   OH2 7571   6.511   3.206   3.685
 2536TIP3    H1 7572   6.466   3.206   3.770
 2536TIP3    H2 7573   6.577   3.136   3.693
 2537TIP3   OH2 7574   6.603   5.380   3.984
 2537TIP3    H1 7575   6.682   5.389   4.038
 2537TIP3    H2 7576   6.623   5.430   3.905
 2538TIP3   OH2 7577   1.226   6.083   5.505
 2538TIP3    H1 7578   1.241   5.995   5.472
 2538TIP3    H2 7579   1.230   6.075   5.600
 2539TIP3   OH2 7580   3.971   3.996   3.217
 2539TIP3    H1 7581   4.052   3.993   3.269
 2539TIP3    H2 7582   3.946   4.088   3.218
 2540TIP3   OH2 7583   5.416   2.896   1.697
 2540TIP3    H1 7584   5.347   2.958   1.673
 2540TIP3    H2 7585   5.408   2.825   1.633
 2541TIP3   OH2 7586   2.118   2.339   4.406
 2541TIP3    H1 7587   2.090   2.427   4.380
 2541TIP3    H2 7588   2.139   2.348   4.499
 2542TIP3   OH2 7589   3.378   6.671   0.234
 2542TIP3    H1 7590   3.444   6.716   0.182
 2542TIP3    H2 7591   3.414   6.670   0.323
 2543TIP3   OH2 7592   4.961   0.008   4.636
 2543TIP3    H1 7593   5.025  -0.061   4.651
 2543TIP3    H2 7594   4.879  -0.026   4.671
 2544TIP3   OH2 7595   5.307   2.256   2.594
 2544TIP3    H1 7596   5.357   2.213   2.664
 2544TIP3    H2 7597   5.273   2.336   2.633
 2545TIP3   OH2 7598   1.036   1.117   4.875
 2545TIP3    H1 7599   0.989   1.198   4.855
 2545TIP3    H2 7600   1.011   1.096   4.965
 2546TIP3   OH2 7601   0.597   2.371   0.077
 2546TIP3    H1 7602   0.549   2.314   0.138
 2546TIP3    H2 7603   0.660   2.417   0.132
 2547TIP3   OH2 7604   0.773   5.674   1.912
 2547TIP3    H1 7605   0.736   5.681   1.824
 2547TIP3    H2 7606   0.868   5.678   1.898
 2548TIP3   OH2 7607   1.767   5.203   5.445
 2548TIP3    H1 7608   1.695   5.193   5.507
 2548TIP3    H2 7609   1.846   5.186   5.497
 2549TIP3   OH2 7610   0.999   4.164   0.323
 2549TIP3    H1 7611   0.955   4.097   0.271
 2549TIP3    H2 7612   1.057   4.209   0.262
 2550TIP3   OH2 7613   0.232   3.130   2.918
 2550TIP3    H1 7614   0.273   3.051   2.883
 2550TIP3    H2 7615   0.150   3.137   2.869
 2551TIP3   OH2 7616   2.620   0.875   2.938
 2551TIP3    H1 7617   2.605   0.780   2.943
 2551TIP3    H2 7618   2.532   0.913   2.936
 2552TIP3   OH2 7619   1.263   0.807   5.214
 2552TIP3    H1 7620   1.277   0.901   5.229
 2552TIP3    H2 7621   1.341   0.779   5.165
 2553TIP3   OH2 7622   5.393   3.834   3.413
 2553TIP3    H1 7623   5.370   3.853   3.504
 2553TIP3    H2 7624   5.456   3.762   3.419
 2554TIP3   OH2 7625   3.722  -0.021   1.211
 2554TIP3    H1 7626   3.781  -0.060   1.146
 2554TIP3    H2 7627   3.642  -0.073   1.206
 2555TIP3   OH2 7628   7.083   3.393   1.155
 2555TIP3    H1 7629   6.996   3.355   1.147
 2555TIP3    H2 7630   7.112   3.404   1.064
 2556TIP3   OH2 7631   2.256   5.635   0.458
 2556TIP3    H1 7632   2.228   5.613   0.547
 2556TIP3    H2 7633   2.340   5.590   0.448
 2557TIP3   OH2 7634   0.251  -0.015   3.923
 2557TIP3    H1 7635   0.298   0.044   3.863
 2557TIP3    H2 7636   0.241   0.036   4.003
 2558TIP3   OH2 7637   0.780   3.660   5.214
 2558TIP3    H1 7638   0.700   3.612   5.238
 2558TIP3    H2 7639   0.759   3.698   5.128
 2559TIP3   OH2 7640   2.092   0.688   2.049
 2559TIP3    H1 7641   2.109   0.651   1.962
 2559TIP3    H2 7642   1.996   0.688   2.056
 2560TIP3   OH2 7643   0.839   5.001   1.765
 2560TIP3    H1 7644   0.811   4.919   1.806
 2560TIP3    H2 7645   0.849   4.979   1.672
 2561TIP3   OH2 7646   5.358   5.232   0.658
 2561TIP3    H1 7647   5.352   5.328   0.663
 2561TIP3    H2 7648   5.354   5.203   0.750
 2562TIP3   OH2 7649   1.014   2.948   2.996
 2562TIP3    H1 7650   1.027   2.876   3.058
 2562TIP3    H2 7651   0.924   2.976   3.009
 2563TIP3   OH2 7652   1.157   4.703   2.818
 2563TIP3    H1 7653   1.247   4.693   2.787
 2563TIP3    H2 7654   1.113   4.623   2.791
 2564TIP3   OH2 7655   3.612   4.145   2.041
 2564TIP3    H1 7656   3.580   4.179   2.125
 2564TIP3    H2 7657   3.652   4.061   2.063
 2565TIP3   OH2 7658   3.909   4.854   1.174
 2565TIP3    H1 7659   3.903   4.868   1.269
 2565TIP3    H2 7660   3.824   4.818   1.149
 2566TIP3   OH2 7661   2.814   2.384   0.381
 2566TIP3    H1 7662   2.827   2.379   0.286
 2566TIP3    H2 7663   2.729   2.426   0.392
 2567TIP3   OH2 7664   3.483   6.680   5.080
 2567TIP3    H1 7665   3.431   6.758   5.103
 2567TIP3    H2 7666   3.495   6.635   5.164
 2568TIP3   OH2 7667   0.866   6.298   4.998
 2568TIP3    H1 7668   0.912   6.245   5.061
 2568TIP3    H2 7669   0.778   6.261   4.994
 2569TIP3   OH2 7670   6.595   1.002   0.534
 2569TIP3    H1 7671   6.610   1.096   0.521
 2569TIP3    H2 7672   6.604   0.965   0.446
 2570TIP3   OH2 7673   0.217   3.629   4.582
 2570TIP3    H1 7674   0.150   3.583   4.633
 2570TIP3    H2 7675   0.188   3.720   4.582
 2571TIP3   OH2 7676   2.745   2.354   3.596
 2571TIP3    H1 7677   2.735   2.421   3.527
 2571TIP3    H2 7678   2.796   2.397   3.664
 2572TIP3   OH2 7679   1.908   1.914   0.494
 2572TIP3    H1 7680   1.832   1.856   0.500
 2572TIP3    H2 7681   1.982   1.855   0.479
 2573TIP3   OH2 7682   5.402   0.510   4.684
 2573TIP3    H1 7683   5.365   0.586   4.728
 2573TIP3    H2 7684   5.490   0.501   4.721
 2574TIP3   OH2 7685   5.574   0.600   0.661
 2574TIP3    H1 7686   5.612   0.684   0.634
 2574TIP3    H2 7687   5.483   0.605   0.634
 2575TIP3   OH2 7688   3.881   3.979   5.271
 2575TIP3    H1 7689   3.913   3.965   5.182
 2575TIP3    H2 7690   3.945   3.935   5.327
 2576TIP3   OH2 7691   4.539   5.047   0.214
 2576TIP3    H1 7692   4.455   5.070   0.254
 2576TIP3    H2 7693   4.592   5.014   0.287
 2577TIP3   OH2 7694   4.669   1.790   3.029
 2577TIP3    H1 7695   4.632   1.836   2.953
 2577TIP3    H2 7696   4.762   1.779   3.007
 2578TIP3   OH2 7697   1.834   5.184   5.838
 2578TIP3    H1 7698   1.837   5.277   5.860
 2578TIP3    H2 7699   1.916   5.148   5.873
 2579TIP3   OH2 7700   4.723   4.283   3.371
 2579TIP3    H1 7701   4.793   4.324   3.422
 2579TIP3    H2 7702   4.695   4.209   3.425
 2580TIP3   OH2 7703   3.533   0.999   2.541
 2580TIP3    H1 7704   3.477   1.066   2.500
 2580TIP3    H2 7705   3.602   0.984   2.477
 2581TIP3   OH2 7706   7.179   0.464   0.307
 2581TIP3    H1 7707   7.237   0.440   0.234
 2581TIP3    H2 7708   7.096   0.422   0.286
 2582TIP3   OH2 7709   6.486   6.015   4.563
 2582TIP3    H1 7710   6.481   6.008   4.468
 2582TIP3    H2 7711   6.500   6.108   4.579
 2583TIP3   OH2 7712   3.788   5.552   0.490
 2583TIP3    H1 7713   3.829   5.591   0.567
 2583TIP3    H2 7714   3.837   5.472   0.474
 2584TIP3   OH2 7715   5.058   1.156   2.365
 2584TIP3    H1 7716   4.991   1.172   2.299
 2584TIP3    H2 7717   5.034   1.211   2.439
 2585TIP3   OH2 7718   0.991   3.294   2.604
 2585TIP3    H1 7719   0.927   3.355   2.566
 2585TIP3    H2 7720   0.948   3.209   2.602
 2586TIP3   OH2 7721   3.221   6.783   3.690
 2586TIP3    H1 7722   3.162   6.741   3.626
 2586TIP3    H2 7723   3.202   6.739   3.773
 2587TIP3   OH2 7724   0.770   1.638   0.319
 2587TIP3    H1 7725   0.676   1.653   0.312
 2587TIP3    H2 7726   0.789   1.648   0.413
 2588TIP3   OH2 7727   3.150   5.169   4.899
 2588TIP3    H1 7728   3.229   5.199   4.945
 2588TIP3    H2 7729   3.184   5.115   4.827
 2589TIP3   OH2 7730   0.492   4.612   1.349
 2589TIP3    H1 7731   0.543   4.686   1.318
 2589TIP3    H2 7732   0.411   4.614   1.297
 2590TIP3   OH2 7733   1.287   0.979   4.884
 2590TIP3    H1 7734   1.193   0.975   4.902
 2590TIP3    H2 7735   1.307   1.073   4.880
 2591TIP3   OH2 7736   2.070   3.565   3.189
 2591TIP3    H1 7737   2.065   3.660   3.203
 2591TIP3    H2 7738   2.024   3.551   3.106
 2592TIP3   OH2 7739   6.553   4.575   3.176
 2592TIP3    H1 7740   6.575   4.648   3.234
 2592TIP3    H2 7741   6.468   4.544   3.207
 2593TIP3   OH2 7742   5.923   2.464   1.304
 2593TIP3    H1 7743   5.918   2.439   1.396
 2593TIP3    H2 7744   5.852   2.415   1.262
 2594TIP3   OH2 7745   5.694   5.774   1.239
 2594TIP3    H1 7746   5.631   5.845   1.229
 2594TIP3    H2 7747   5.769   5.814   1.284
 2595TIP3   OH2 7748   3.636   3.539   4.934
 2595TIP3    H1 7749   3.612   3.477   5.003
 2595TIP3    H2 7750   3.670   3.485   4.863
 2596TIP3   OH2 7751   3.202   4.028   5.677
 2596TIP3    H1 7752   3.295   4.012   5.696
 2596TIP3    H2 7753   3.190   3.998   5.587
 2597TIP3   OH2 7754   6.525   0.079   3.069
 2597TIP3    H1 7755   6.511  -0.003   3.022
 2597TIP3    H2 7756   6.442   0.126   3.062
 2598TIP3   OH2 7757   3.453   1.114   3.247
 2598TIP3    H1 7758   3.406   1.180   3.196
 2598TIP3    H2 7759   3.541   1.149   3.257
 2599TIP3   OH2 7760   2.108   2.095   2.264
 2599TIP3    H1 7761   2.081   2.081   2.174
 2599TIP3    H2 7762   2.083   2.015   2.310
 2600TIP3   OH2 7763   5.380   1.065   0.613
 2600TIP3    H1 7764   5.365   1.114   0.532
 2600TIP3    H2 7765   5.386   1.133   0.681
 2601TIP3   OH2 7766   4.632   3.506   5.066
 2601TIP3    H1 7767   4.550   3.542   5.100
 2601TIP3    H2 7768   4.652   3.560   4.989
 2602TIP3   OH2 7769   1.894   2.759   3.230
 2602TIP3    H1 7770   1.879   2.722   3.143
 2602TIP3    H2 7771   1.853   2.697   3.291
 2603TIP3   OH2 7772   4.985   3.555   4.869
 2603TIP3    H1 7773   5.065   3.571   4.919
 2603TIP3    H2 7774   4.948   3.642   4.854
 2604TIP3   OH2 7775   5.909   4.853   3.567
 2604TIP3    H1 7776   5.996   4.886   3.587
 2604TIP3    H2 7777   5.890   4.889   3.480
 2605TIP3   OH2 7778   6.184   0.544   4.908
 2605TIP3    H1 7779   6.110   0.514   4.855
 2605TIP3    H2 7780   6.146   0.607   4.969
 2606TIP3   OH2 7781   4.073   5.306   1.604
 2606TIP3    H1 7782   4.121   5.301   1.687
 2606TIP3    H2 7783   3.986   5.271   1.624
 2607TIP3   OH2 7784   2.418   4.254   2.779
 2607TIP3    H1 7785   2.492   4.311   2.798
 2607TIP3    H2 7786   2.417   4.191   2.851
 2608TIP3   OH2 7787   5.731   6.096   5.854
 2608TIP3    H1 7788   5.735   6.041   5.776
 2608TIP3    H2 7789   5.761   6.182   5.825
 2609TIP3   OH2 7790   6.654   5.369   2.976
 2609TIP3    H1 7791   6.575   5.318   2.959
 2609TIP3    H2 7792   6.630   5.427   3.049
 2610TIP3   OH2 7793   2.804   2.147   4.119
 2610TIP3    H1 7794   2.747   2.140   4.043
 2610TIP3    H2 7795   2.752   2.111   4.191
 2611TIP3   OH2 7796   5.054   0.797   5.594
 2611TIP3    H1 7797   5.116   0.832   5.659
 2611TIP3    H2 7798   5.027   0.712   5.630
 2612TIP3   OH2 7799   4.521   4.578   4.682
 2612TIP3    H1 7800   4.513   4.659   4.733
 2612TIP3    H2 7801   4.590   4.597   4.618
 2613TIP3   OH2 7802   4.458   5.667   0.913
 2613TIP3    H1 7803   4.364   5.661   0.930
 2613TIP3    H2 7804   4.481   5.757   0.934
 2614TIP3   OH2 7805   0.506   0.973   0.419
 2614TIP3    H1 7806   0.491   1.027   0.497
 2614TIP3    H2 7807   0.533   1.035   0.352
 2615TIP3   OH2 7808   4.720   5.255   0.152
 2615TIP3    H1 7809   4.777   5.214   0.088
 2615TIP3    H2 7810   4.657   5.187   0.176
 2616TIP3   OH2 7811   3.646   5.877   2.568
 2616TIP3    H1 7812   3.740   5.873   2.557
 2616TIP3    H2 7813   3.633   5.929   2.647
 2617TIP3   OH2 7814   1.304   5.586   2.512
 2617TIP3    H1 7815   1.220   5.545   2.491
 2617TIP3    H2 7816   1.282   5.649   2.581
 2618TIP3   OH2 7817   4.635   3.148   3.461
 2618TIP3    H1 7818   4.636   3.229   3.513
 2618TIP3    H2 7819   4.653   3.079   3.524
 2619TIP3   OH2 7820   4.549   1.111   1.311
 2619TIP3    H1 7821   4.476   1.050   1.326
 2619TIP3    H2 7822   4.527   1.187   1.365
 2620TIP3   OH2 7823   0.200   1.217   2.260
 2620TIP3    H1 7824   0.200   1.185   2.350
 2620TIP3    H2 7825   0.263   1.161   2.214
 2621TIP3   OH2 7826   5.895   4.794   1.449
 2621TIP3    H1 7827   5.858   4.869   1.495
 2621TIP3    H2 7828   5.828   4.726   1.455
 2622TIP3   OH2 7829   6.644   5.271   1.020
 2622TIP3    H1 7830   6.619   5.183   0.990
 2622TIP3    H2 7831   6.674   5.316   0.941
 2623TIP3   OH2 7832   0.675   1.225   1.285
 2623TIP3    H1 7833   0.702   1.143   1.326
 2623TIP3    H2 7834   0.742   1.242   1.218
 2624TIP3   OH2 7835   1.474   0.521   4.450
 2624TIP3    H1 7836   1.419   0.591   4.486
 2624TIP3    H2 7837   1.413   0.449   4.433
 2625TIP3   OH2 7838   3.792   4.469   0.485
 2625TIP3    H1 7839   3.753   4.473   0.398
 2625TIP3    H2 7840   3.800   4.561   0.511
 2626TIP3   OH2 7841   1.978   4.310   4.835
 2626TIP3    H1 7842   2.033   4.369   4.886
 2626TIP3    H2 7843   1.935   4.367   4.771
 2627TIP3   OH2 7844   2.319   6.726   2.990
 2627TIP3    H1 7845   2.356   6.814   2.985
 2627TIP3    H2 7846   2.301   6.713   3.083
 2628TIP3   OH2 7847   2.538   0.804   2.049
 2628TIP3    H1 7848   2.537   0.789   1.955
 2628TIP3    H2 7849   2.629   0.827   2.069
 2629TIP3   OH2 7850   6.519   0.430   0.599
 2629TIP3    H1 7851   6.423   0.426   0.607
 2629TIP3    H2 7852   6.551   0.401   0.684
 2630TIP3   OH2 7853   0.207   5.760   1.777
 2630TIP3    H1 7854   0.139   5.826   1.763
 2630TIP3    H2 7855   0.234   5.735   1.689
 2631TIP3   OH2 7856   2.789   5.770   0.361
 2631TIP3    H1 7857   2.830   5.794   0.444
 2631TIP3    H2 7858   2.718   5.833   0.351
 2632TIP3   OH2 7859   6.664   1.714   3.528
 2632TIP3    H1 7860   6.734   1.719   3.593
 2632TIP3    H2 7861   6.700   1.758   3.451
 2633TIP3   OH2 7862   0.639   1.072   5.586
 2633TIP3    H1 7863   0.712   1.050   5.644
 2633TIP3    H2 7864   0.562   1.036   5.630
 2634TIP3   OH2 7865   6.818   0.615   5.676
 2634TIP3    H1 7866   6.788   0.591   5.588
 2634TIP3    H2 7867   6.844   0.532   5.716
 2635TIP3   OH2 7868   7.101   0.360   5.173
 2635TIP3    H1 7869   7.085   0.266   5.168
 2635TIP3    H2 7870   7.029   0.395   5.226
 2636TIP3   OH2 7871   4.566   1.383   4.703
 2636TIP3    H1 7872   4.598   1.320   4.638
 2636TIP3    H2 7873   4.571   1.468   4.658
 2637TIP3   OH2 7874   3.125   0.442   4.495
 2637TIP3    H1 7875   3.202   0.390   4.472
 2637TIP3    H2 7876   3.072   0.442   4.415
 2638TIP3   OH2 7877   1.668   4.952   1.737
 2638TIP3    H1 7878   1.575   4.952   1.715
 2638TIP3    H2 7879   1.687   5.043   1.762
 2639TIP3   OH2 7880   0.797   1.926   1.739
 2639TIP3    H1 7881   0.772   1.875   1.816
 2639TIP3    H2 7882   0.882   1.964   1.761
 2640TIP3   OH2 7883   4.579   0.180   4.393
 2640TIP3    H1 7884   4.570   0.212   4.304
 2640TIP3    H2 7885   4.489   0.170   4.424
 2641TIP3   OH2 7886   1.736   1.938   4.731
 2641TIP3    H1 7887   1.753   2.032   4.733
 2641TIP3    H2 7888   1.777   1.908   4.650
 2642TIP3   OH2 7889   0.938   6.495   0.128
 2642TIP3    H1 7890   0.988   6.420   0.160
 2642TIP3    H2 7891   1.002   6.550   0.084
 2643TIP3   OH2 7892   6.674   1.529   3.277
 2643TIP3    H1 7893   6.748   1.469   3.289
 2643TIP3    H2 7894   6.709   1.615   3.300
 2644TIP3   OH2 7895   4.617   6.655   0.072
 2644TIP3    H1 7896   4.576   6.702   0.144
 2644TIP3    H2 7897   4.554   6.659   0.000
 2645TIP3   OH2 7898   7.201   5.900   1.654
 2645TIP3    H1 7899   7.119   5.927   1.614
 2645TIP3    H2 7900   7.264   5.898   1.582
 2646TIP3   OH2 7901   6.990   6.015   5.248
 2646TIP3    H1 7902   6.983   5.920   5.236
 2646TIP3    H2 7903   7.065   6.040   5.194
 2647TIP3   OH2 7904   6.134   3.820   3.383
 2647TIP3    H1 7905   6.206   3.760   3.402
 2647TIP3    H2 7906   6.140   3.886   3.452
 2648TIP3   OH2 7907   5.915   1.738   3.685
 2648TIP3    H1 7908   5.903   1.771   3.774
 2648TIP3    H2 7909   6.008   1.751   3.667
 2649TIP3   OH2 7910   5.223   2.732   4.963
 2649TIP3    H1 7911   5.206   2.649   5.007
 2649TIP3    H2 7912   5.191   2.718   4.874
 2650TIP3   OH2 7913   5.256   3.717   1.248
 2650TIP3    H1 7914   5.166   3.691   1.267
 2650TIP3    H2 7915   5.305   3.695   1.328
 2651TIP3   OH2 7916   6.611   0.492   4.889
 2651TIP3    H1 7917   6.609   0.559   4.820
 2651TIP3    H2 7918   6.698   0.499   4.927
 2652TIP3   OH2 7919   5.097   4.363   4.138
 2652TIP3    H1 7920   5.153   4.437   4.115
 2652TIP3    H2 7921   5.073   4.378   4.229
 2653TIP3   OH2 7922   6.805   6.044   1.072
 2653TIP3    H1 7923   6.832   6.135   1.061
 2653TIP3    H2 7924   6.816   6.005   0.986
 2654TIP3   OH2 7925   0.865   0.066   2.708
 2654TIP3    H1 7926   0.831   0.152   2.686
 2654TIP3    H2 7927   0.884   0.070   2.802
 2655TIP3   OH2 7928   6.514   3.416   4.517
 2655TIP3    H1 7929   6.515   3.512   4.512
 2655TIP3    H2 7930   6.506   3.397   4.611
 2656TIP3   OH2 7931   6.906   5.788   0.255
 2656TIP3    H1 7932   6.934   5.780   0.346
 2656TIP3    H2 7933   6.931   5.877   0.230
 2657TIP3   OH2 7934   4.504   6.109   4.107
 2657TIP3    H1 7935   4.536   6.041   4.166
 2657TIP3    H2 7936   4.410   6.093   4.102
 2658TIP3   OH2 7937   5.126   4.801   2.846
 2658TIP3    H1 7938   5.081   4.834   2.923
 2658TIP3    H2 7939   5.124   4.874   2.784
 2659TIP3   OH2 7940   1.791   1.758   4.448
 2659TIP3    H1 7941   1.803   1.665   4.428
 2659TIP3    H2 7942   1.714   1.784   4.397
 2660TIP3   OH2 7943   4.925   1.903   4.422
 2660TIP3    H1 7944   4.941   1.821   4.468
 2660TIP3    H2 7945   4.924   1.970   4.490
 2661TIP3   OH2 7946   2.062   4.373   1.061
 2661TIP3    H1 7947   2.110   4.439   1.110
 2661TIP3    H2 7948   1.970   4.400   1.067
 2662TIP3   OH2 7949   5.139   2.389   1.587
 2662TIP3    H1 7950   5.108   2.454   1.650
 2662TIP3    H2 7951   5.079   2.398   1.512
 2663TIP3   OH2 7952   5.883   4.956   2.050
 2663TIP3    H1 7953   5.952   5.002   2.002
 2663TIP3    H2 7954   5.815   5.022   2.063
 2664TIP3   OH2 7955   0.598   1.008   3.871
 2664TIP3    H1 7956   0.543   0.930   3.871
 2664TIP3    H2 7957   0.555   1.067   3.932
 2665TIP3   OH2 7958   6.411   3.874   3.250
 2665TIP3    H1 7959   6.403   3.803   3.313
 2665TIP3    H2 7960   6.438   3.832   3.168
 2666TIP3   OH2 7961   2.655   5.996   4.027
 2666TIP3    H1 7962   2.612   6.069   3.983
 2666TIP3    H2 7963   2.747   6.006   4.006
 2667TIP3   OH2 7964   6.809   2.084   0.254
 2667TIP3    H1 7965   6.893   2.128   0.259
 2667TIP3    H2 7966   6.795   2.071   0.160
 2668TIP3   OH2 7967   0.095   4.863   0.875
 2668TIP3    H1 7968   0.149   4.844   0.952
 2668TIP3    H2 7969   0.110   4.956   0.858
 2669TIP3   OH2 7970   3.834   0.705   5.012
 2669TIP3    H1 7971   3.840   0.767   5.085
 2669TIP3    H2 7972   3.877   0.626   5.045
 2670TIP3   OH2 7973   1.201   1.415   3.085
 2670TIP3    H1 7974   1.177   1.454   3.169
 2670TIP3    H2 7975   1.289   1.447   3.068
 2671TIP3   OH2 7976   6.172   1.527   4.487
 2671TIP3    H1 7977   6.238   1.534   4.418
 2671TIP3    H2 7978   6.156   1.618   4.513
 2672TIP3   OH2 7979   5.391   6.509   1.146
 2672TIP3    H1 7980   5.470   6.469   1.110
 2672TIP3    H2 7981   5.345   6.437   1.188
 2673TIP3   OH2 7982   2.751   1.336   3.433
 2673TIP3    H1 7983   2.655   1.341   3.432
 2673TIP3    H2 7984   2.779   1.415   3.387
 2674TIP3   OH2 7985   4.265   0.866   2.870
 2674TIP3    H1 7986   4.341   0.809   2.877
 2674TIP3    H2 7987   4.192   0.813   2.902
 2675TIP3   OH2 7988   6.726   3.053   3.809
 2675TIP3    H1 7989   6.691   3.085   3.892
 2675TIP3    H2 7990   6.808   3.101   3.797
 2676TIP3   OH2 7991   2.556   1.993   1.256
 2676TIP3    H1 7992   2.631   1.934   1.245
 2676TIP3    H2 7993   2.544   2.032   1.170
 2677TIP3   OH2 7994   5.750   6.195   0.151
 2677TIP3    H1 7995   5.787   6.146   0.225
 2677TIP3    H2 7996   5.714   6.274   0.192
 2678TIP3   OH2 7997   3.687   1.088   3.668
 2678TIP3    H1 7998   3.660   1.025   3.601
 2678TIP3    H2 7999   3.782   1.079   3.674
 2679TIP3   OH2 8000   3.635   5.996   3.622
 2679TIP3    H1 8001   3.598   6.035   3.543
 2679TIP3    H2 8002   3.584   6.034   3.694
 2680TIP3   OH2 8003   6.663   1.199   4.198
 2680TIP3    H1 8004   6.708   1.283   4.204
 2680TIP3    H2 8005   6.733   1.134   4.207
 2681TIP3   OH2 8006   4.087   5.104   4.007
 2681TIP3    H1 8007   4.089   5.200   4.005
 2681TIP3    H2 8008   4.055   5.079   3.920
 2682TIP3   OH2 8009   3.941   0.815   2.615
 2682TIP3    H1 8010   3.883   0.739   2.611
 2682TIP3    H2 8011   4.029   0.777   2.615
 2683TIP3   OH2 8012   4.889   6.762   1.835
 2683TIP3    H1 8013   4.951   6.791   1.902
 2683TIP3    H2 8014   4.925   6.679   1.804
 2684TIP3   OH2 8015   6.081   3.858   4.425
 2684TIP3    H1 8016   6.004   3.823   4.469
 2684TIP3    H2 8017   6.074   3.953   4.435
 2685TIP3   OH2 8018   0.523   4.671   0.260
 2685TIP3    H1 8019   0.556   4.586   0.232
 2685TIP3    H2 8020   0.557   4.733   0.195
 2686TIP3   OH2 8021   6.797   6.454   5.064
 2686TIP3    H1 8022   6.870   6.490   5.014
 2686TIP3    H2 8023   6.818   6.474   5.155
 2687TIP3   OH2 8024   5.915   1.314   0.510
 2687TIP3    H1 8025   5.876   1.233   0.541
 2687TIP3    H2 8026   5.938   1.362   0.589
 2688TIP3   OH2 8027   0.279   3.027   4.259
 2688TIP3    H1 8028   0.369   3.003   4.279
 2688TIP3    H2 8029   0.239   2.947   4.227
 2689TIP3   OH2 8030   3.632   1.576   3.983
 2689TIP3    H1 8031   3.639   1.517   3.908
 2689TIP3    H2 8032   3.606   1.660   3.946
 2690TIP3   OH2 8033   1.062  -0.032   2.318
 2690TIP3    H1 8034   1.066   0.041   2.380
 2690TIP3    H2 8035   0.978  -0.022   2.273
 2691TIP3   OH2 8036   1.683   0.173   3.040
 2691TIP3    H1 8037   1.661   0.094   3.089
 2691TIP3    H2 8038   1.622   0.239   3.073
 2692TIP3   OH2 8039   2.702   5.923   3.072
 2692TIP3    H1 8040   2.641   5.926   3.146
 2692TIP3    H2 8041   2.750   5.841   3.084
 2693TIP3   OH2 8042   2.577   2.952   4.502
 2693TIP3    H1 8043   2.536   2.958   4.588
 2693TIP3    H2 8044   2.561   3.038   4.462
 2694TIP3   OH2 8045   2.968   3.033   4.705
 2694TIP3    H1 8046   2.982   3.127   4.695
 2694TIP3    H2 8047   3.056   2.997   4.713
 2695TIP3   OH2 8048   1.863   0.033   3.412
 2695TIP3    H1 8049   1.930   0.026   3.344
 2695TIP3    H2 8050   1.782   0.006   3.369
 2696TIP3   OH2 8051   5.132   0.384   0.907
 2696TIP3    H1 8052   5.060   0.445   0.924
 2696TIP3    H2 8053   5.119   0.314   0.970
 2697TIP3   OH2 8054   3.220   0.277   3.480
 2697TIP3    H1 8055   3.157   0.318   3.540
 2697TIP3    H2 8056   3.299   0.265   3.534
 2698TIP3   OH2 8057   3.155   3.037   5.108
 2698TIP3    H1 8058   3.077   3.091   5.092
 2698TIP3    H2 8059   3.215   3.095   5.154
 2699TIP3   OH2 8060   5.554   3.734   5.954
 2699TIP3    H1 8061   5.578   3.808   5.897
 2699TIP3    H2 8062   5.458   3.733   5.952
 2700TIP3   OH2 8063   4.396   2.044   0.946
 2700TIP3    H1 8064   4.382   2.107   1.017
 2700TIP3    H2 8065   4.319   2.054   0.890
 2701TIP3   OH2 8066   2.403   5.739   5.157
 2701TIP3    H1 8067   2.450   5.805   5.107
 2701TIP3    H2 8068   2.422   5.760   5.248
 2702TIP3   OH2 8069   4.636   3.679   0.087
 2702TIP3    H1 8070   4.546   3.652   0.065
 2702TIP3    H2 8071   4.691   3.624   0.031
 2703TIP3   OH2 8072   0.700   3.262   3.895
 2703TIP3    H1 8073   0.781   3.310   3.877
 2703TIP3    H2 8074   0.705   3.183   3.842
 2704TIP3   OH2 8075   4.103   3.918   1.258
 2704TIP3    H1 8076   4.143   3.878   1.181
 2704TIP3    H2 8077   4.079   4.007   1.229
 2705TIP3   OH2 8078   6.272   1.617   5.669
 2705TIP3    H1 8079   6.266   1.636   5.763
 2705TIP3    H2 8080   6.261   1.702   5.627
 2706TIP3   OH2 8081   1.205   2.326   5.410
 2706TIP3    H1 8082   1.243   2.319   5.322
 2706TIP3    H2 8083   1.224   2.415   5.438
 2707TIP3   OH2 8084   7.083   3.414   3.952
 2707TIP3    H1 8085   7.079   3.360   4.031
 2707TIP3    H2 8086   7.163   3.386   3.908
 2708TIP3   OH2 8087   4.636   0.109   0.933
 2708TIP3    H1 8088   4.707   0.104   0.869
 2708TIP3    H2 8089   4.564   0.152   0.886
 2709TIP3   OH2 8090   3.511   5.010   5.063
 2709TIP3    H1 8091   3.598   5.001   5.023
 2709TIP3    H2 8092   3.454   4.957   5.007
 2710TIP3   OH2 8093   3.771   3.908   2.074
 2710TIP3    H1 8094   3.776   3.925   2.168
 2710TIP3    H2 8095   3.714   3.832   2.067
 2711TIP3   OH2 8096   0.432   2.231   0.238
 2711TIP3    H1 8097   0.379   2.193   0.308
 2711TIP3    H2 8098   0.404   2.185   0.159
 2712TIP3   OH2 8099   4.257   0.565   2.032
 2712TIP3    H1 8100   4.328   0.554   1.968
 2712TIP3    H2 8101   4.299   0.604   2.108
 2713TIP3   OH2 8102   0.664   4.285   0.525
 2713TIP3    H1 8103   0.644   4.368   0.481
 2713TIP3    H2 8104   0.581   4.258   0.565
 2714TIP3   OH2 8105   6.869   0.827   2.757
 2714TIP3    H1 8106   6.945   0.823   2.816
 2714TIP3    H2 8107   6.799   0.785   2.807
 2715TIP3   OH2 8108   3.670   5.396   4.531
 2715TIP3    H1 8109   3.727   5.472   4.519
 2715TIP3    H2 8110   3.597   5.428   4.584
 2716TIP3   OH2 8111   2.856   5.602   0.677
 2716TIP3    H1 8112   2.917   5.535   0.646
 2716TIP3    H2 8113   2.893   5.684   0.646
 2717TIP3   OH2 8114   1.376   3.185   2.857
 2717TIP3    H1 8115   1.440   3.221   2.796
 2717TIP3    H2 8116   1.314   3.257   2.872
 2718TIP3   OH2 8117   0.166   1.604   1.498
 2718TIP3    H1 8118   0.155   1.651   1.581
 2718TIP3    H2 8119   0.164   1.672   1.431
 2719TIP3   OH2 8120   0.072   4.162   5.188
 2719TIP3    H1 8121   0.135   4.186   5.119
 2719TIP3    H2 8122   0.006   4.231   5.186
 2720TIP3   OH2 8123   3.755   1.655   4.670
 2720TIP3    H1 8124   3.774   1.743   4.702
 2720TIP3    H2 8125   3.803   1.597   4.729
 2721TIP3   OH2 8126   6.172   0.160   2.765
 2721TIP3    H1 8127   6.169   0.122   2.677
 2721TIP3    H2 8128   6.094   0.216   2.769
 2722TIP3   OH2 8129   5.260   2.799   2.042
 2722TIP3    H1 8130   5.316   2.725   2.063
 2722TIP3    H2 8131   5.211   2.816   2.123
 2723TIP3   OH2 8132   0.146   6.662   3.200
 2723TIP3    H1 8133   0.075   6.647   3.138
 2723TIP3    H2 8134   0.212   6.596   3.177
 2724TIP3   OH2 8135   5.034   3.221   0.124
 2724TIP3    H1 8136   5.101   3.187   0.184
 2724TIP3    H2 8137   5.084   3.254   0.049
 2725TIP3   OH2 8138   0.714   5.785   2.716
 2725TIP3    H1 8139   0.734   5.815   2.804
 2725TIP3    H2 8140   0.723   5.863   2.661
 2726TIP3   OH2 8141   4.545   0.407   1.324
 2726TIP3    H1 8142   4.468   0.372   1.369
 2726TIP3    H2 8143   4.546   0.500   1.348
 2727TIP3   OH2 8144   2.589   2.195   5.664
 2727TIP3    H1 8145   2.569   2.235   5.580
 2727TIP3    H2 8146   2.646   2.258   5.708
 2728TIP3   OH2 8147   3.149   4.034   3.074
 2728TIP3    H1 8148   3.224   4.023   3.133
 2728TIP3    H2 8149   3.170   3.981   2.998
 2729TIP3   OH2 8150   4.145   2.980   2.470
 2729TIP3    H1 8151   4.100   2.993   2.386
 2729TIP3    H2 8152   4.118   2.893   2.498
 2730TIP3   OH2 8153   2.160   1.879   1.149
 2730TIP3    H1 8154   2.161   1.864   1.243
 2730TIP3    H2 8155   2.106   1.957   1.137
 2731TIP3   OH2 8156   1.069   1.046   3.690
 2731TIP3    H1 8157   0.979   1.040   3.722
 2731TIP3    H2 8158   1.119   0.992   3.750
 2732TIP3   OH2 8159   4.284   4.304   0.418
 2732TIP3    H1 8160   4.370   4.318   0.456
 2732TIP3    H2 8161   4.291   4.339   0.329
 2733TIP3   OH2 8162   3.501   0.587   2.439
 2733TIP3    H1 8163   3.425   0.632   2.477
 2733TIP3    H2 8164   3.507   0.506   2.489
 2734TIP3   OH2 8165   3.667   0.736   3.372
 2734TIP3    H1 8166   3.630   0.813   3.415
 2734TIP3    H2 8167   3.629   0.736   3.285
 2735TIP3   OH2 8168   4.045   0.416   2.141
 2735TIP3    H1 8169   4.106   0.343   2.128
 2735TIP3    H2 8170   4.081   0.486   2.086
 2736TIP3   OH2 8171   4.674   3.324   2.886
 2736TIP3    H1 8172   4.713   3.283   2.808
 2736TIP3    H2 8173   4.747   3.336   2.946
 2737TIP3   OH2 8174   6.047   5.468   3.039
 2737TIP3    H1 8175   6.033   5.453   2.946
 2737TIP3    H2 8176   6.127   5.420   3.060
 2738TIP3   OH2 8177   6.294   6.312   2.021
 2738TIP3    H1 8178   6.262   6.381   1.962
 2738TIP3    H2 8179   6.389   6.320   2.017
 2739TIP3   OH2 8180   0.586   1.138   0.177
 2739TIP3    H1 8181   0.659   1.089   0.140
 2739TIP3    H2 8182   0.625   1.218   0.211
 2740TIP3   OH2 8183   2.971   5.662   1.420
 2740TIP3    H1 8184   3.009   5.750   1.419
 2740TIP3    H2 8185   2.991   5.627   1.507
 2741TIP3   OH2 8186   2.745   6.724   5.370
 2741TIP3    H1 8187   2.752   6.723   5.466
 2741TIP3    H2 8188   2.673   6.664   5.351
 2742TIP3   OH2 8189   4.843   4.971   3.476
 2742TIP3    H1 8190   4.827   5.019   3.395
 2742TIP3    H2 8191   4.937   4.953   3.475
 2743TIP3   OH2 8192   1.998   5.514   3.297
 2743TIP3    H1 8193   1.921   5.562   3.325
 2743TIP3    H2 8194   1.976   5.482   3.209
 2744TIP3   OH2 8195   5.387   0.789   4.016
 2744TIP3    H1 8196   5.458   0.734   3.982
 2744TIP3    H2 8197   5.422   0.878   4.012
 2745TIP3   OH2 8198   2.148   6.428   0.212
 2745TIP3    H1 8199   2.137   6.468   0.126
 2745TIP3    H2 8200   2.139   6.334   0.196
 2746TIP3   OH2 8201   6.667   6.096   5.906
 2746TIP3    H1 8202   6.652   6.019   5.962
 2746TIP3    H2 8203   6.717   6.062   5.832
 2747TIP3   OH2 8204   1.541   5.512   5.459
 2747TIP3    H1 8205   1.510   5.553   5.540
 2747TIP3    H2 8206   1.636   5.525   5.461
 2748TIP3   OH2 8207   1.847   4.375   1.531
 2748TIP3    H1 8208   1.924   4.342   1.485
 2748TIP3    H2 8209   1.825   4.457   1.487
 2749TIP3   OH2 8210   6.283   0.287   4.292
 2749TIP3    H1 8211   6.235   0.205   4.281
 2749TIP3    H2 8212   6.347   0.268   4.361
 2750TIP3   OH2 8213   6.731   4.443   3.038
 2750TIP3    H1 8214   6.796   4.411   3.100
 2750TIP3    H2 8215   6.673   4.498   3.091
 2751TIP3   OH2 8216   6.240   5.563   2.156
 2751TIP3    H1 8217   6.151   5.528   2.158
 2751TIP3    H2 8218   6.237   5.641   2.211
 2752TIP3   OH2 8219   0.879   5.564   5.682
 2752TIP3    H1 8220   0.837   5.537   5.764
 2752TIP3    H2 8221   0.864   5.491   5.623
 2753TIP3   OH2 8222   5.559   6.333   3.255
 2753TIP3    H1 8223   5.497   6.374   3.194
 2753TIP3    H2 8224   5.585   6.252   3.211
 2754TIP3   OH2 8225   6.425   5.100   1.637
 2754TIP3    H1 8226   6.382   5.184   1.651
 2754TIP3    H2 8227   6.493   5.096   1.704
 2755TIP3   OH2 8228   4.415   3.063   1.523
 2755TIP3    H1 8229   4.363   3.143   1.510
 2755TIP3    H2 8230   4.353   2.992   1.507
 2756TIP3   OH2 8231   6.825   4.323   1.043
 2756TIP3    H1 8232   6.875   4.241   1.041
 2756TIP3    H2 8233   6.845   4.361   1.128
 2757TIP3   OH2 8234   4.381   1.096   3.272
 2757TIP3    H1 8235   4.411   1.048   3.194
 2757TIP3    H2 8236   4.434   1.176   3.273
 2758TIP3   OH2 8237   6.270   0.195   3.015
 2758TIP3    H1 8238   6.250   0.210   2.922
 2758TIP3    H2 8239   6.199   0.138   3.045
 2759TIP3   OH2 8240   3.570   4.426   1.253
 2759TIP3    H1 8241   3.587   4.418   1.160
 2759TIP3    H2 8242   3.612   4.349   1.292
 2760TIP3   OH2 8243   2.151   2.018   1.610
 2760TIP3    H1 8244   2.070   2.054   1.645
 2760TIP3    H2 8245   2.175   1.949   1.672
 2761TIP3   OH2 8246   3.339   0.651   2.987
 2761TIP3    H1 8247   3.352   0.720   3.051
 2761TIP3    H2 8248   3.383   0.682   2.908
 2762TIP3   OH2 8249   6.205   0.612   3.571
 2762TIP3    H1 8250   6.261   0.664   3.513
 2762TIP3    H2 8251   6.259   0.539   3.599
 2763TIP3   OH2 8252   1.634   0.781   1.706
 2763TIP3    H1 8253   1.723   0.806   1.683
 2763TIP3    H2 8254   1.588   0.774   1.623
 2764TIP3   OH2 8255   6.695   6.800   1.384
 2764TIP3    H1 8256   6.706   6.797   1.289
 2764TIP3    H2 8257   6.682   6.709   1.410
 2765TIP3   OH2 8258   0.456   2.660   5.010
 2765TIP3    H1 8259   0.475   2.752   4.989
 2765TIP3    H2 8260   0.462   2.614   4.927
 2766TIP3   OH2 8261   4.062   0.360   0.228
 2766TIP3    H1 8262   4.064   0.299   0.154
 2766TIP3    H2 8263   4.088   0.308   0.303
 2767TIP3   OH2 8264   2.493   2.959   4.061
 2767TIP3    H1 8265   2.425   2.967   4.127
 2767TIP3    H2 8266   2.557   3.027   4.084
 2768TIP3   OH2 8267   2.220   3.338   2.437
 2768TIP3    H1 8268   2.300   3.286   2.432
 2768TIP3    H2 8269   2.150   3.274   2.443
 2769TIP3   OH2 8270   0.488   3.560   0.981
 2769TIP3    H1 8271   0.462   3.633   1.038
 2769TIP3    H2 8272   0.416   3.497   0.988
 2770TIP3   OH2 8273   4.665   5.870   3.492
 2770TIP3    H1 8274   4.591   5.919   3.528
 2770TIP3    H2 8275   4.705   5.827   3.568
 2771TIP3   OH2 8276   3.347   0.325   5.100
 2771TIP3    H1 8277   3.305   0.243   5.072
 2771TIP3    H2 8278   3.411   0.344   5.031
 2772TIP3   OH2 8279   1.593   0.806   0.211
 2772TIP3    H1 8280   1.500   0.793   0.197
 2772TIP3    H2 8281   1.602   0.900   0.231
 2773TIP3   OH2 8282   3.847   4.266   3.903
 2773TIP3    H1 8283   3.790   4.191   3.883
 2773TIP3    H2 8284   3.936   4.230   3.897
 2774TIP3   OH2 8285   2.369   0.301   0.845
 2774TIP3    H1 8286   2.368   0.290   0.940
 2774TIP3    H2 8287   2.458   0.277   0.819
 2775TIP3   OH2 8288   5.479   3.651   0.176
 2775TIP3    H1 8289   5.448   3.650   0.085
 2775TIP3    H2 8290   5.552   3.588   0.177
 2776TIP3   OH2 8291   2.483   6.306   0.117
 2776TIP3    H1 8292   2.429   6.229   0.098
 2776TIP3    H2 8293   2.503   6.299   0.210
 2777TIP3   OH2 8294   1.745   4.878   4.370
 2777TIP3    H1 8295   1.654   4.847   4.376
 2777TIP3    H2 8296   1.775   4.883   4.460
 2778TIP3   OH2 8297   3.984   4.337   2.432
 2778TIP3    H1 8298   3.956   4.378   2.514
 2778TIP3    H2 8299   4.075   4.311   2.449
 2779TIP3   OH2 8300   2.477   4.766   0.740
 2779TIP3    H1 8301   2.402   4.795   0.792
 2779TIP3    H2 8302   2.481   4.671   0.755
 2780TIP3   OH2 8303   3.624   2.441   1.080
 2780TIP3    H1 8304   3.537   2.404   1.067
 2780TIP3    H2 8305   3.656   2.399   1.160
 2781TIP3   OH2 8306   5.087   4.154   5.349
 2781TIP3    H1 8307   5.139   4.078   5.324
 2781TIP3    H2 8308   5.026   4.121   5.415
 2782TIP3   OH2 8309   5.400   6.738   0.093
 2782TIP3    H1 8310   5.458   6.769   0.163
 2782TIP3    H2 8311   5.440   6.771   0.012
 2783TIP3   OH2 8312   4.538   5.395   1.993
 2783TIP3    H1 8313   4.536   5.489   2.008
 2783TIP3    H2 8314   4.547   5.385   1.898
 2784TIP3   OH2 8315   6.380   0.888   5.652
 2784TIP3    H1 8316   6.309   0.951   5.636
 2784TIP3    H2 8317   6.368   0.821   5.585
 2785TIP3   OH2 8318   3.523   2.055   3.017
 2785TIP3    H1 8319   3.537   2.064   2.922
 2785TIP3    H2 8320   3.585   1.988   3.044
 2786TIP3   OH2 8321   3.504   6.211   4.962
 2786TIP3    H1 8322   3.422   6.177   4.998
 2786TIP3    H2 8323   3.534   6.275   5.025
 2787TIP3   OH2 8324   6.883   4.851   3.999
 2787TIP3    H1 8325   6.829   4.893   4.066
 2787TIP3    H2 8326   6.848   4.762   3.992
 2788TIP3   OH2 8327   5.586   1.149   2.386
 2788TIP3    H1 8328   5.578   1.058   2.355
 2788TIP3    H2 8329   5.507   1.162   2.439
 2789TIP3   OH2 8330   5.788   4.661   2.156
 2789TIP3    H1 8331   5.801   4.643   2.063
 2789TIP3    H2 8332   5.736   4.741   2.157
 2790TIP3   OH2 8333   3.584   1.573   3.004
 2790TIP3    H1 8334   3.597   1.488   3.046
 2790TIP3    H2 8335   3.596   1.556   2.911
 2791TIP3   OH2 8336   4.837   0.149   5.398
 2791TIP3    H1 8337   4.798   0.097   5.468
 2791TIP3    H2 8338   4.822   0.240   5.425
 2792TIP3   OH2 8339   6.642   5.362   4.647
 2792TIP3    H1 8340   6.690   5.401   4.573
 2792TIP3    H2 8341   6.683   5.400   4.725
 2793TIP3   OH2 8342   1.349   2.802   0.059
 2793TIP3    H1 8343   1.280   2.833   0.118
 2793TIP3    H2 8344   1.376   2.879   0.009
 2794TIP3   OH2 8345   6.378   3.003   3.897
 2794TIP3    H1 8346   6.340   3.089   3.878
 2794TIP3    H2 8347   6.398   3.005   3.991
 2795TIP3   OH2 8348   4.759   1.866   0.727
 2795TIP3    H1 8349   4.766   1.871   0.823
 2795TIP3    H2 8350   4.746   1.773   0.709
 2796TIP3   OH2 8351   3.570   3.029   1.106
 2796TIP3    H1 8352   3.593   3.095   1.040
 2796TIP3    H2 8353   3.489   3.062   1.145
 2797TIP3   OH2 8354   0.743   0.570   5.672
 2797TIP3    H1 8355   0.774   0.487   5.709
 2797TIP3    H2 8356   0.809   0.634   5.698
 2798TIP3   OH2 8357   4.310   2.905   3.132
 2798TIP3    H1 8358   4.347   2.959   3.201
 2798TIP3    H2 8359   4.247   2.961   3.087
 2799TIP3   OH2 8360   3.122   3.936   4.116
 2799TIP3    H1 8361   3.148   3.844   4.121
 2799TIP3    H2 8362   3.159   3.976   4.195
 2800TIP3   OH2 8363   0.613   0.290   3.067
 2800TIP3    H1 8364   0.573   0.209   3.036
 2800TIP3    H2 8365   0.589   0.295   3.160
 2801TIP3   OH2 8366   4.997   6.346   3.003
 2801TIP3    H1 8367   4.987   6.264   3.051
 2801TIP3    H2 8368   5.029   6.320   2.916
 2802TIP3   OH2 8369   1.313   0.289   3.863
 2802TIP3    H1 8370   1.227   0.313   3.829
 2802TIP3    H2 8371   1.352   0.237   3.793
 2803TIP3   OH2 8372   1.405   0.396   4.883
 2803TIP3    H1 8373   1.475   0.462   4.873
 2803TIP3    H2 8374   1.417   0.362   4.972
 2804TIP3   OH2 8375   1.023   6.232   1.036
 2804TIP3    H1 8376   0.967   6.159   1.062
 2804TIP3    H2 8377   0.977   6.310   1.069
 2805TIP3   OH2 8378   0.912   3.501   3.844
 2805TIP3    H1 8379   0.904   3.595   3.830
 2805TIP3    H2 8380   0.896   3.463   3.757
 2806TIP3   OH2 8381   4.121   0.593   4.739
 2806TIP3    H1 8382   4.075   0.633   4.666
 2806TIP3    H2 8383   4.086   0.504   4.744
 2807TIP3   OH2 8384   5.106   5.027   5.587
 2807TIP3    H1 8385   5.126   5.013   5.679
 2807TIP3    H2 8386   5.167   5.097   5.560
 2808TIP3   OH2 8387   1.331   2.721   0.525
 2808TIP3    H1 8388   1.313   2.708   0.618
 2808TIP3    H2 8389   1.358   2.813   0.519
 2809TIP3   OH2 8390   0.614   3.604   2.904
 2809TIP3    H1 8391   0.548   3.583   2.969
 2809TIP3    H2 8392   0.659   3.521   2.887
 2810TIP3   OH2 8393   2.449   2.258   0.759
 2810TIP3    H1 8394   2.415   2.232   0.674
 2810TIP3    H2 8395   2.540   2.227   0.759
 2811TIP3   OH2 8396   6.905   3.426   1.493
 2811TIP3    H1 8397   6.875   3.418   1.583
 2811TIP3    H2 8398   6.827   3.409   1.439
 2812TIP3   OH2 8399   5.369   5.897   0.968
 2812TIP3    H1 8400   5.401   5.807   0.965
 2812TIP3    H2 8401   5.373   5.920   1.061
 2813TIP3   OH2 8402   6.910   3.249   4.563
 2813TIP3    H1 8403   6.941   3.311   4.497
 2813TIP3    H2 8404   6.893   3.168   4.515
 2814TIP3   OH2 8405   1.404   5.904   2.925
 2814TIP3    H1 8406   1.492   5.869   2.911
 2814TIP3    H2 8407   1.397   5.976   2.863
 2815TIP3   OH2 8408   6.505   4.729   4.747
 2815TIP3    H1 8409   6.504   4.634   4.757
 2815TIP3    H2 8410   6.596   4.754   4.762
 2816TIP3   OH2 8411   0.451   5.512   2.893
 2816TIP3    H1 8412   0.369   5.535   2.850
 2816TIP3    H2 8413   0.457   5.571   2.968
 2817TIP3   OH2 8414   5.161   2.235   1.184
 2817TIP3    H1 8415   5.125   2.147   1.168
 2817TIP3    H2 8416   5.095   2.294   1.148
 2818TIP3   OH2 8417   1.454   6.128   3.801
 2818TIP3    H1 8418   1.542   6.092   3.790
 2818TIP3    H2 8419   1.396   6.053   3.791
 2819TIP3   OH2 8420   2.906   4.645   1.945
 2819TIP3    H1 8421   2.887   4.645   1.851
 2819TIP3    H2 8422   2.907   4.552   1.968
 2820TIP3   OH2 8423   3.098   5.308   5.486
 2820TIP3    H1 8424   3.093   5.293   5.391
 2820TIP3    H2 8425   3.007   5.319   5.513
 2821TIP3   OH2 8426   2.266   1.218   4.212
 2821TIP3    H1 8427   2.315   1.261   4.143
 2821TIP3    H2 8428   2.177   1.211   4.177
 2822TIP3   OH2 8429   3.510   3.768   2.050
 2822TIP3    H1 8430   3.503   3.778   1.955
 2822TIP3    H2 8431   3.458   3.690   2.070
 2823TIP3   OH2 8432   0.234   4.163   2.306
 2823TIP3    H1 8433   0.317   4.180   2.261
 2823TIP3    H2 8434   0.260   4.129   2.391
 2824TIP3   OH2 8435   1.533   1.708   0.056
 2824TIP3    H1 8436   1.452   1.715   0.106
 2824TIP3    H2 8437   1.513   1.646  -0.014
 2825TIP3   OH2 8438   1.957   5.082   1.509
 2825TIP3    H1 8439   2.049   5.077   1.533
 2825TIP3    H2 8440   1.918   5.140   1.575
 2826TIP3   OH2 8441   6.377   0.966   2.946
 2826TIP3    H1 8442   6.406   0.879   2.972
 2826TIP3    H2 8443   6.305   0.986   3.006
 2827TIP3   OH2 8444   6.246   4.677   4.852
 2827TIP3    H1 8445   6.224   4.769   4.841
 2827TIP3    H2 8446   6.340   4.672   4.836
 2828TIP3   OH2 8447   1.611   0.638   0.458
 2828TIP3    H1 8448   1.647   0.681   0.536
 2828TIP3    H2 8449   1.606   0.708   0.393
 2829TIP3   OH2 8450   3.725   5.122   1.033
 2829TIP3    H1 8451   3.808   5.168   1.045
 2829TIP3    H2 8452   3.706   5.084   1.119
 2830TIP3   OH2 8453   5.378   2.312   0.204
 2830TIP3    H1 8454   5.282   2.318   0.201
 2830TIP3    H2 8455   5.397   2.265   0.285
 2831TIP3   OH2 8456   6.827   0.842   1.965
 2831TIP3    H1 8457   6.919   0.827   1.945
 2831TIP3    H2 8458   6.810   0.788   2.042
 2832TIP3   OH2 8459   5.488   3.529   3.503
 2832TIP3    H1 8460   5.517   3.459   3.561
 2832TIP3    H2 8461   5.495   3.609   3.556
 2833TIP3   OH2 8462   3.547   5.709   0.123
 2833TIP3    H1 8463   3.639   5.685   0.134
 2833TIP3    H2 8464   3.500   5.652   0.184
 2834TIP3   OH2 8465   0.380   2.142   1.834
 2834TIP3    H1 8466   0.435   2.072   1.797
 2834TIP3    H2 8467   0.311   2.097   1.882
 2835TIP3   OH2 8468   5.623   3.868   5.212
 2835TIP3    H1 8469   5.610   3.947   5.158
 2835TIP3    H2 8470   5.697   3.823   5.171
 2836TIP3   OH2 8471   1.953   3.424   0.164
 2836TIP3    H1 8472   2.012   3.349   0.174
 2836TIP3    H2 8473   1.866   3.390   0.186
 2837TIP3   OH2 8474   2.397   0.571   0.074
 2837TIP3    H1 8475   2.481   0.548   0.112
 2837TIP3    H2 8476   2.332   0.529   0.131
 2838TIP3   OH2 8477   3.804   2.393   4.850
 2838TIP3    H1 8478   3.813   2.340   4.929
 2838TIP3    H2 8479   3.783   2.330   4.781
 2839TIP3   OH2 8480   2.536   4.184   3.785
 2839TIP3    H1 8481   2.515   4.094   3.811
 2839TIP3    H2 8482   2.606   4.175   3.721
 2840TIP3   OH2 8483   1.567   3.352   2.777
 2840TIP3    H1 8484   1.543   3.442   2.756
 2840TIP3    H2 8485   1.614   3.359   2.861
 2841TIP3   OH2 8486   5.555   1.685   2.633
 2841TIP3    H1 8487   5.589   1.655   2.548
 2841TIP3    H2 8488   5.463   1.705   2.616
 2842TIP3   OH2 8489   2.138   0.792   5.229
 2842TIP3    H1 8490   2.152   0.829   5.316
 2842TIP3    H2 8491   2.043   0.775   5.225
 2843TIP3   OH2 8492   2.607   3.027   2.092
 2843TIP3    H1 8493   2.702   3.030   2.103
 2843TIP3    H2 8494   2.577   3.115   2.116
 2844TIP3   OH2 8495   4.968   6.676   2.869
 2844TIP3    H1 8496   5.024   6.635   2.935
 2844TIP3    H2 8497   4.999   6.641   2.786
 2845TIP3   OH2 8498   4.454   1.064   3.542
 2845TIP3    H1 8499   4.398   1.088   3.468
 2845TIP3    H2 8500   4.392   1.046   3.613
 2846TIP3   OH2 8501   6.294   2.319   5.624
 2846TIP3    H1 8502   6.343   2.374   5.685
 2846TIP3    H2 8503   6.323   2.229   5.644
 2847TIP3   OH2 8504   6.020   0.904   0.487
 2847TIP3    H1 8505   5.974   0.983   0.459
 2847TIP3    H2 8506   5.988   0.835   0.429
 2848TIP3   OH2 8507   5.345   1.426   5.929
 2848TIP3    H1 8508   5.341   1.410   5.835
 2848TIP3    H2 8509   5.427   1.472   5.942
 2849TIP3   OH2 8510   6.417   3.165   5.182
 2849TIP3    H1 8511   6.346   3.101   5.184
 2849TIP3    H2 8512   6.459   3.151   5.098
 2850TIP3   OH2 8513   2.341   3.096   2.725
 2850TIP3    H1 8514   2.296   3.051   2.796
 2850TIP3    H2 8515   2.296   3.180   2.717
 2851TIP3   OH2 8516   4.656   2.645   5.443
 2851TIP3    H1 8517   4.723   2.639   5.375
 2851TIP3    H2 8518   4.679   2.575   5.505
 2852TIP3   OH2 8519   4.878   3.296   4.865
 2852TIP3    H1 8520   4.808   3.348   4.827
 2852TIP3    H2 8521   4.940   3.361   4.899
 2853TIP3   OH2 8522   0.249   0.707   3.427
 2853TIP3    H1 8523   0.267   0.613   3.439
 2853TIP3    H2 8524   0.335   0.748   3.427
 2854TIP3   OH2 8525   0.597   2.279   2.124
 2854TIP3    H1 8526   0.672   2.232   2.086
 2854TIP3    H2 8527   0.630   2.314   2.206
 2855TIP3   OH2 8528   5.091   1.443   1.469
 2855TIP3    H1 8529   5.076   1.348   1.463
 2855TIP3    H2 8530   5.157   1.461   1.403
 2856TIP3   OH2 8531   3.371   3.408   2.351
 2856TIP3    H1 8532   3.394   3.343   2.418
 2856TIP3    H2 8533   3.296   3.455   2.387
 2857TIP3   OH2 8534   2.256   4.820   5.258
 2857TIP3    H1 8535   2.216   4.857   5.337
 2857TIP3    H2 8536   2.275   4.895   5.202
 2858TIP3   OH2 8537   3.893   1.405   2.902
 2858TIP3    H1 8538   3.947   1.370   2.973
 2858TIP3    H2 8539   3.855   1.327   2.861
 2859TIP3   OH2 8540   6.002   1.197   1.825
 2859TIP3    H1 8541   5.915   1.237   1.833
 2859TIP3    H2 8542   6.025   1.208   1.733
 2860TIP3   OH2 8543   2.503   5.317   4.031
 2860TIP3    H1 8544   2.498   5.408   4.061
 2860TIP3    H2 8545   2.554   5.322   3.950
 2861TIP3   OH2 8546   0.307   6.508   4.941
 2861TIP3    H1 8547   0.257   6.451   5.000
 2861TIP3    H2 8548   0.241   6.549   4.885
 2862TIP3   OH2 8549   0.936   1.265   5.671
 2862TIP3    H1 8550   1.027   1.291   5.654
 2862TIP3    H2 8551   0.903   1.333   5.731
 2863TIP3   OH2 8552   3.462   4.299   5.693
 2863TIP3    H1 8553   3.458   4.362   5.621
 2863TIP3    H2 8554   3.481   4.216   5.650
 2864TIP3   OH2 8555   5.750   5.065   0.510
 2864TIP3    H1 8556   5.737   5.001   0.580
 2864TIP3    H2 8557   5.665   5.068   0.465
 2865TIP3   OH2 8558   1.556   3.534   1.816
 2865TIP3    H1 8559   1.475   3.577   1.788
 2865TIP3    H2 8560   1.563   3.458   1.759
 2866TIP3   OH2 8561   6.859   1.689   3.720
 2866TIP3    H1 8562   6.868   1.599   3.689
 2866TIP3    H2 8563   6.899   1.689   3.807
 2867TIP3   OH2 8564   3.223   5.905   5.180
 2867TIP3    H1 8565   3.306   5.873   5.145
 2867TIP3    H2 8566   3.173   5.934   5.104
 2868TIP3   OH2 8567   0.174   5.085   4.250
 2868TIP3    H1 8568   0.109   5.144   4.211
 2868TIP3    H2 8569   0.121   5.013   4.286
 2869TIP3   OH2 8570   4.359   4.686   1.889
 2869TIP3    H1 8571   4.430   4.708   1.950
 2869TIP3    H2 8572   4.287   4.743   1.915
 2870TIP3   OH2 8573  -0.012   6.699   5.100
 2870TIP3    H1 8574   0.027   6.679   5.185
 2870TIP3    H2 8575   0.035   6.777   5.070
 2871TIP3   OH2 8576   5.637   5.021   4.700
 2871TIP3    H1 8577   5.697   5.009   4.773
 2871TIP3    H2 8578   5.676   4.972   4.628
 2872TIP3   OH2 8579   2.473   3.906   3.846
 2872TIP3    H1 8580   2.436   3.894   3.934
 2872TIP3    H2 8581   2.421   3.849   3.790
 2873TIP3   OH2 8582   5.462   2.068   2.027
 2873TIP3    H1 8583   5.448   2.038   1.937
 2873TIP3    H2 8584   5.513   1.998   2.068
 2874TIP3   OH2 8585   1.746   6.045   2.637
 2874TIP3    H1 8586   1.706   5.991   2.705
 2874TIP3    H2 8587   1.814   6.094   2.682
 2875TIP3   OH2 8588   1.747   4.395   2.460
 2875TIP3    H1 8589   1.744   4.353   2.375
 2875TIP3    H2 8590   1.829   4.364   2.500
 2876TIP3   OH2 8591   3.828   5.836   1.466
 2876TIP3    H1 8592   3.772   5.890   1.411
 2876TIP3    H2 8593   3.889   5.897   1.506
 2877TIP3   OH2 8594   2.703   5.651   5.394
 2877TIP3    H1 8595   2.631   5.713   5.379
 2877TIP3    H2 8596   2.751   5.649   5.311
 2878TIP3   OH2 8597   4.381   6.552   1.459
 2878TIP3    H1 8598   4.297   6.556   1.413
 2878TIP3    H2 8599   4.400   6.643   1.481
 2879TIP3   OH2 8600   5.865   0.610   0.674
 2879TIP3    H1 8601   5.898   0.648   0.755
 2879TIP3    H2 8602   5.776   0.581   0.695
 2880TIP3   OH2 8603   3.684   3.802   4.666
 2880TIP3    H1 8604   3.623   3.777   4.736
 2880TIP3    H2 8605   3.763   3.752   4.685
 2881TIP3   OH2 8606   4.089   6.510   0.029
 2881TIP3    H1 8607   4.028   6.464   0.086
 2881TIP3    H2 8608   4.127   6.579   0.084
 2882TIP3   OH2 8609   4.566  -0.004   4.016
 2882TIP3    H1 8610   4.583  -0.045   3.932
 2882TIP3    H2 8611   4.629   0.068   4.021
 2883TIP3   OH2 8612   1.792   3.006   3.513
 2883TIP3    H1 8613   1.733   3.081   3.512
 2883TIP3    H2 8614   1.737   2.934   3.545
 2884TIP3   OH2 8615   1.216   5.817   5.462
 2884TIP3    H1 8616   1.198   5.739   5.515
 2884TIP3    H2 8617   1.287   5.791   5.404
 2885TIP3   OH2 8618   4.243   5.915   4.613
 2885TIP3    H1 8619   4.317   5.948   4.664
 2885TIP3    H2 8620   4.233   5.824   4.641
 2886TIP3   OH2 8621   6.088   1.262   2.823
 2886TIP3    H1 8622   6.099   1.172   2.793
 2886TIP3    H2 8623   6.016   1.296   2.771
 2887TIP3   OH2 8624   2.196   4.171   3.129
 2887TIP3    H1 8625   2.167   4.091   3.087
 2887TIP3    H2 8626   2.291   4.160   3.141
 2888TIP3   OH2 8627   6.626   3.887   5.042
 2888TIP3    H1 8628   6.581   3.971   5.043
 2888TIP3    H2 8629   6.618   3.854   5.132
 2889TIP3   OH2 8630   6.059   2.060   4.507
 2889TIP3    H1 8631   6.114   2.058   4.585
 2889TIP3    H2 8632   6.079   1.979   4.461
 2890TIP3   OH2 8633   3.875   2.513   2.569
 2890TIP3    H1 8634   3.795   2.557   2.541
 2890TIP3    H2 8635   3.862   2.421   2.544
 2891TIP3   OH2 8636   1.900   4.768   4.046
 2891TIP3    H1 8637   1.926   4.697   4.106
 2891TIP3    H2 8638   1.938   4.847   4.085
 2892TIP3   OH2 8639   0.188   3.647   0.769
 2892TIP3    H1 8640   0.163   3.709   0.701
 2892TIP3    H2 8641   0.254   3.591   0.727
 2893TIP3   OH2 8642   6.521   1.814   4.635
 2893TIP3    H1 8643   6.555   1.897   4.670
 2893TIP3    H2 8644   6.495   1.765   4.713
 2894TIP3   OH2 8645   5.758   4.341   5.414
 2894TIP3    H1 8646   5.762   4.317   5.322
 2894TIP3    H2 8647   5.835   4.298   5.453
 2895TIP3   OH2 8648   4.677   4.882   0.740
 2895TIP3    H1 8649   4.771   4.900   0.751
 2895TIP3    H2 8650   4.640   4.892   0.828
 2896TIP3   OH2 8651   3.394   6.102   3.201
 2896TIP3    H1 8652   3.423   6.142   3.119
 2896TIP3    H2 8653   3.305   6.072   3.183
 2897TIP3   OH2 8654   1.281   5.056   1.048
 2897TIP3    H1 8655   1.247   5.141   1.020
 2897TIP3    H2 8656   1.211   4.994   1.027
 2898TIP3   OH2 8657   3.127   0.969   3.609
 2898TIP3    H1 8658   3.202   0.910   3.596
 2898TIP3    H2 8659   3.061   0.937   3.548
 2899TIP3   OH2 8660   4.732   2.643   4.649
 2899TIP3    H1 8661   4.647   2.684   4.637
 2899TIP3    H2 8662   4.713   2.550   4.660
 2900TIP3   OH2 8663   6.626   0.911   4.320
 2900TIP3    H1 8664   6.682   0.884   4.248
 2900TIP3    H2 8665   6.578   0.986   4.286
 2901TIP3   OH2 8666   3.303   5.039   1.920
 2901TIP3    H1 8667   3.363   5.111   1.941
 2901TIP3    H2 8668   3.355   4.960   1.935
 2902TIP3   OH2 8669   4.393   4.913   5.314
 2902TIP3    H1 8670   4.324   4.901   5.249
 2902TIP3    H2 8671   4.395   4.830   5.363
 2903TIP3   OH2 8672   5.639   0.690   3.580
 2903TIP3    H1 8673   5.724   0.726   3.557
 2903TIP3    H2 8674   5.622   0.623   3.515
 2904TIP3   OH2 8675   5.059   3.870   2.401
 2904TIP3    H1 8676   5.140   3.824   2.421
 2904TIP3    H2 8677   4.991   3.823   2.450
 2905TIP3   OH2 8678   6.752   2.220   5.761
 2905TIP3    H1 8679   6.818   2.281   5.794
 2905TIP3    H2 8680   6.754   2.147   5.824
 2906TIP3   OH2 8681   5.072   5.155   2.216
 2906TIP3    H1 8682   5.164   5.175   2.199
 2906TIP3    H2 8683   5.073   5.106   2.299
 2907TIP3   OH2 8684   1.641   1.135   5.000
 2907TIP3    H1 8685   1.725   1.114   5.040
 2907TIP3    H2 8686   1.632   1.071   4.929
 2908TIP3   OH2 8687   2.253   2.416   3.547
 2908TIP3    H1 8688   2.289   2.465   3.621
 2908TIP3    H2 8689   2.158   2.424   3.556
 2909TIP3   OH2 8690   6.274   0.327   0.837
 2909TIP3    H1 8691   6.186   0.310   0.803
 2909TIP3    H2 8692   6.290   0.420   0.817
 2910TIP3   OH2 8693   2.688   4.769   5.401
 2910TIP3    H1 8694   2.675   4.847   5.347
 2910TIP3    H2 8695   2.635   4.785   5.480
 2911TIP3   OH2 8696   0.020   6.013   3.261
 2911TIP3    H1 8697   0.006   6.042   3.352
 2911TIP3    H2 8698   0.111   6.038   3.243
 2912TIP3   OH2 8699   6.441   1.408   1.800
 2912TIP3    H1 8700   6.485   1.344   1.744
 2912TIP3    H2 8701   6.507   1.475   1.815
 2913TIP3   OH2 8702   3.570   5.835   5.272
 2913TIP3    H1 8703   3.553   5.766   5.336
 2913TIP3    H2 8704   3.546   5.916   5.318
 2914TIP3   OH2 8705   0.161   0.097   5.840
 2914TIP3    H1 8706   0.148   0.024   5.779
 2914TIP3    H2 8707   0.074   0.116   5.873
 2915TIP3   OH2 8708   7.029   1.734   2.154
 2915TIP3    H1 8709   7.023   1.640   2.172
 2915TIP3    H2 8710   6.939   1.764   2.150
 2916TIP3   OH2 8711   6.045   3.809   5.438
 2916TIP3    H1 8712   6.127   3.855   5.455
 2916TIP3    H2 8713   5.977   3.869   5.470
 2917TIP3   OH2 8714   0.489   5.027   5.795
 2917TIP3    H1 8715   0.532   5.112   5.800
 2917TIP3    H2 8716   0.560   4.963   5.798
 2918TIP3   OH2 8717   0.450   5.574   4.921
 2918TIP3    H1 8718   0.451   5.594   5.015
 2918TIP3    H2 8719   0.502   5.494   4.913
 2919TIP3   OH2 8720   0.492   0.090   3.809
 2919TIP3    H1 8721   0.500  -0.002   3.783
 2919TIP3    H2 8722   0.509   0.089   3.904
 2920TIP3   OH2 8723   2.387   2.404   5.096
 2920TIP3    H1 8724   2.378   2.363   5.182
 2920TIP3    H2 8725   2.457   2.469   5.108
 2921TIP3   OH2 8726   3.071   4.736   1.302
 2921TIP3    H1 8727   3.108   4.747   1.390
 2921TIP3    H2 8728   3.120   4.798   1.248
 2922TIP3   OH2 8729   4.550   1.833   2.776
 2922TIP3    H1 8730   4.458   1.835   2.801
 2922TIP3    H2 8731   4.559   1.905   2.713
 2923TIP3   OH2 8732   6.548   4.267   1.023
 2923TIP3    H1 8733   6.604   4.242   1.097
 2923TIP3    H2 8734   6.610   4.285   0.951
 2924TIP3   OH2 8735   0.165   0.034   2.111
 2924TIP3    H1 8736   0.235   0.082   2.067
 2924TIP3    H2 8737   0.136   0.092   2.181
 2925TIP3   OH2 8738   1.081   5.712   2.125
 2925TIP3    H1 8739   1.174   5.732   2.135
 2925TIP3    H2 8740   1.036   5.774   2.183
 2926TIP3   OH2 8741   2.903   2.675   0.307
 2926TIP3    H1 8742   2.968   2.672   0.237
 2926TIP3    H2 8743   2.829   2.724   0.270
 2927TIP3   OH2 8744   2.290   3.456   3.031
 2927TIP3    H1 8745   2.361   3.518   3.018
 2927TIP3    H2 8746   2.255   3.476   3.118
 2928TIP3   OH2 8747   5.610   3.875   1.710
 2928TIP3    H1 8748   5.667   3.920   1.772
 2928TIP3    H2 8749   5.521   3.889   1.745
 2929TIP3   OH2 8750   4.650   6.655   5.250
 2929TIP3    H1 8751   4.645   6.639   5.344
 2929TIP3    H2 8752   4.720   6.597   5.220
 2930TIP3   OH2 8753   6.641   5.157   5.707
 2930TIP3    H1 8754   6.721   5.115   5.675
 2930TIP3    H2 8755   6.594   5.087   5.752
 2931TIP3   OH2 8756   1.401   0.866   4.341
 2931TIP3    H1 8757   1.477   0.830   4.386
 2931TIP3    H2 8758   1.394   0.956   4.373
 2932TIP3   OH2 8759   3.167   1.334   2.787
 2932TIP3    H1 8760   3.172   1.383   2.869
 2932TIP3    H2 8761   3.105   1.383   2.734
 2933TIP3   OH2 8762   1.884   6.031   0.282
 2933TIP3    H1 8763   1.919   6.005   0.367
 2933TIP3    H2 8764   1.793   6.053   0.300
 2934TIP3   OH2 8765   5.042   2.086   2.526
 2934TIP3    H1 8766   5.097   2.093   2.447
 2934TIP3    H2 8767   5.017   2.176   2.545
 2935TIP3   OH2 8768   4.567   3.316   5.531
 2935TIP3    H1 8769   4.644   3.281   5.575
 2935TIP3    H2 8770   4.493   3.283   5.582
 2936TIP3   OH2 8771   2.590   1.531   3.201
 2936TIP3    H1 8772   2.669   1.564   3.243
 2936TIP3    H2 8773   2.575   1.589   3.127
 2937TIP3   OH2 8774   6.875   0.510   3.959
 2937TIP3    H1 8775   6.816   0.524   4.033
 2937TIP3    H2 8776   6.962   0.534   3.993
 2938TIP3   OH2 8777   2.821   2.997   3.682
 2938TIP3    H1 8778   2.731   2.995   3.713
 2938TIP3    H2 8779   2.852   3.085   3.703
 2939TIP3   OH2 8780   3.332   2.504   3.923
 2939TIP3    H1 8781   3.307   2.449   3.997
 2939TIP3    H2 8782   3.368   2.444   3.858
 2940TIP3   OH2 8783   4.505   4.854   5.764
 2940TIP3    H1 8784   4.440   4.914   5.727
 2940TIP3    H2 8785   4.561   4.831   5.690
 2941TIP3   OH2 8786   7.175   5.464   0.238
 2941TIP3    H1 8787   7.125   5.407   0.296
 2941TIP3    H2 8788   7.109   5.516   0.192
 2942TIP3   OH2 8789   1.725   5.561   1.194
 2942TIP3    H1 8790   1.754   5.506   1.122
 2942TIP3    H2 8791   1.667   5.505   1.246
 2943TIP3   OH2 8792   2.861   3.942   3.664
 2943TIP3    H1 8793   2.901   3.959   3.750
 2943TIP3    H2 8794   2.935   3.920   3.608
 2944TIP3   OH2 8795   4.667   4.767   5.545
 2944TIP3    H1 8796   4.743   4.812   5.509
 2944TIP3    H2 8797   4.661   4.685   5.495
 2945TIP3   OH2 8798   5.620   6.056   1.093
 2945TIP3    H1 8799   5.527   6.046   1.070
 2945TIP3    H2 8800   5.627   6.016   1.180
 2946TIP3   OH2 8801   6.474   1.655   3.945
 2946TIP3    H1 8802   6.500   1.663   4.037
 2946TIP3    H2 8803   6.390   1.608   3.948
 2947TIP3   OH2 8804   0.826   3.773   4.039
 2947TIP3    H1 8805   0.850   3.769   3.947
 2947TIP3    H2 8806   0.748   3.718   4.046
 2948TIP3   OH2 8807   0.761   6.659   4.719
 2948TIP3    H1 8808   0.723   6.738   4.682
 2948TIP3    H2 8809   0.851   6.658   4.688
 2949TIP3   OH2 8810   5.986   5.439   2.088
 2949TIP3    H1 8811   6.035   5.426   2.007
 2949TIP3    H2 8812   5.920   5.369   2.088
 2950TIP3   OH2 8813   2.450   1.880   4.334
 2950TIP3    H1 8814   2.496   1.858   4.415
 2950TIP3    H2 8815   2.477   1.970   4.315
 2951TIP3   OH2 8816   6.407   4.929   2.265
 2951TIP3    H1 8817   6.459   4.928   2.346
 2951TIP3    H2 8818   6.464   4.973   2.202
 2952TIP3   OH2 8819   3.065   1.488   2.597
 2952TIP3    H1 8820   3.060   1.450   2.510
 2952TIP3    H2 8821   3.133   1.555   2.591
 2953TIP3   OH2 8822   0.270   6.452   1.489
 2953TIP3    H1 8823   0.198   6.480   1.545
 2953TIP3    H2 8824   0.234   6.381   1.436
 2954TIP3   OH2 8825   1.769   5.175   2.468
 2954TIP3    H1 8826   1.749   5.082   2.485
 2954TIP3    H2 8827   1.833   5.197   2.536
 2955TIP3   OH2 8828   6.377   2.284   5.362
 2955TIP3    H1 8829   6.466   2.248   5.356
 2955TIP3    H2 8830   6.362   2.294   5.456
 2956TIP3   OH2 8831   2.086   3.336   0.538
 2956TIP3    H1 8832   2.153   3.318   0.473
 2956TIP3    H2 8833   2.121   3.301   0.620
 2957TIP3   OH2 8834   3.387   2.299   1.085
 2957TIP3    H1 8835   3.346   2.214   1.067
 2957TIP3    H2 8836   3.360   2.320   1.174
 2958TIP3   OH2 8837   6.830   1.651   1.103
 2958TIP3    H1 8838   6.735   1.642   1.112
 2958TIP3    H2 8839   6.848   1.627   1.012
 2959TIP3   OH2 8840   5.945   0.504   4.346
 2959TIP3    H1 8841   6.010   0.553   4.296
 2959TIP3    H2 8842   5.957   0.533   4.436
 2960TIP3   OH2 8843   5.552   4.862   2.677
 2960TIP3    H1 8844   5.583   4.923   2.744
 2960TIP3    H2 8845   5.531   4.781   2.725
 2961TIP3   OH2 8846   5.728   1.320   1.170
 2961TIP3    H1 8847   5.725   1.347   1.262
 2961TIP3    H2 8848   5.685   1.234   1.169
 2962TIP3   OH2 8849   6.126   1.913   1.482
 2962TIP3    H1 8850   6.132   1.823   1.452
 2962TIP3    H2 8851   6.039   1.942   1.453
 2963TIP3   OH2 8852   3.888   2.870   4.338
 2963TIP3    H1 8853   3.978   2.896   4.359
 2963TIP3    H2 8854   3.895   2.779   4.309
 2964TIP3   OH2 8855   3.303   2.335   5.226
 2964TIP3    H1 8856   3.395   2.361   5.235
 2964TIP3    H2 8857   3.255   2.417   5.214
 2965TIP3   OH2 8858   4.423   1.187   2.117
 2965TIP3    H1 8859   4.486   1.132   2.163
 2965TIP3    H2 8860   4.461   1.275   2.119
 2966TIP3   OH2 8861   6.772   1.455   2.460
 2966TIP3    H1 8862   6.769   1.506   2.541
 2966TIP3    H2 8863   6.681   1.453   2.430
 2967TIP3   OH2 8864   2.358   6.604   5.079
 2967TIP3    H1 8865   2.327   6.682   5.125
 2967TIP3    H2 8866   2.302   6.599   5.001
 2968TIP3   OH2 8867   3.599   3.167   4.465
 2968TIP3    H1 8868   3.574   3.188   4.375
 2968TIP3    H2 8869   3.631   3.077   4.461
 2969TIP3   OH2 8870   6.030   2.958   3.320
 2969TIP3    H1 8871   6.093   2.932   3.387
 2969TIP3    H2 8872   6.033   3.054   3.320
 2970TIP3   OH2 8873   0.478   3.370   3.796
 2970TIP3    H1 8874   0.550   3.337   3.850
 2970TIP3    H2 8875   0.466   3.302   3.729
 2971TIP3   OH2 8876   5.257   2.241   5.791
 2971TIP3    H1 8877   5.307   2.322   5.781
 2971TIP3    H2 8878   5.294   2.201   5.870
 2972TIP3   OH2 8879   1.588   6.580   3.462
 2972TIP3    H1 8880   1.598   6.569   3.557
 2972TIP3    H2 8881   1.639   6.508   3.425
 2973TIP3   OH2 8882   3.224   4.824   0.514
 2973TIP3    H1 8883   3.293   4.889   0.528
 2973TIP3    H2 8884   3.260   4.764   0.449
 2974TIP3   OH2 8885   3.333   1.604   2.565
 2974TIP3    H1 8886   3.361   1.554   2.488
 2974TIP3    H2 8887   3.404   1.593   2.628
 2975TIP3   OH2 8888   5.425   0.529   0.049
 2975TIP3    H1 8889   5.442   0.560  -0.040
 2975TIP3    H2 8890   5.460   0.440   0.051
 2976TIP3   OH2 8891   0.475   5.506   0.128
 2976TIP3    H1 8892   0.388   5.526   0.163
 2976TIP3    H2 8893   0.535   5.556   0.183
 2977TIP3   OH2 8894   2.180   5.718   4.134
 2977TIP3    H1 8895   2.136   5.646   4.088
 2977TIP3    H2 8896   2.109   5.779   4.155
 2978TIP3   OH2 8897   5.579   5.476   1.904
 2978TIP3    H1 8898   5.661   5.430   1.924
 2978TIP3    H2 8899   5.539   5.493   1.990
 2979TIP3   OH2 8900   6.884   6.469   2.899
 2979TIP3    H1 8901   6.938   6.478   2.977
 2979TIP3    H2 8902   6.903   6.547   2.847
 2980TIP3   OH2 8903   6.962   2.595   1.591
 2980TIP3    H1 8904   7.040   2.568   1.638
 2980TIP3    H2 8905   6.923   2.663   1.645
 2981TIP3   OH2 8906   0.048   4.916   4.524
 2981TIP3    H1 8907   0.007   4.893   4.440
 2981TIP3    H2 8908   0.140   4.892   4.513
 2982TIP3   OH2 8909   5.831   6.254   4.005
 2982TIP3    H1 8910   5.921   6.251   4.039
 2982TIP3    H2 8911   5.841   6.274   3.912
 2983TIP3   OH2 8912   0.313   0.957   1.733
 2983TIP3    H1 8913   0.379   1.026   1.730
 2983TIP3    H2 8914   0.345   0.891   1.671
 2984TIP3   OH2 8915   4.914   4.639   4.621
 2984TIP3    H1 8916   4.957   4.724   4.616
 2984TIP3    H2 8917   4.903   4.623   4.715
 2985TIP3   OH2 8918   5.270   6.642   1.755
 2985TIP3    H1 8919   5.329   6.597   1.695
 2985TIP3    H2 8920   5.245   6.575   1.818
 2986TIP3   OH2 8921   1.333   0.498   0.048
 2986TIP3    H1 8922   1.326   0.587   0.013
 2986TIP3    H2 8923   1.421   0.494   0.085
 2987TIP3   OH2 8924   3.470   6.492   3.118
 2987TIP3    H1 8925   3.428   6.460   3.198
 2987TIP3    H2 8926   3.422   6.573   3.097
 2988TIP3   OH2 8927   3.390   2.079   5.148
 2988TIP3    H1 8928   3.444   2.084   5.227
 2988TIP3    H2 8929   3.356   2.168   5.136
 2989TIP3   OH2 8930   3.979   6.780   3.673
 2989TIP3    H1 8931   4.050   6.718   3.658
 2989TIP3    H2 8932   3.936   6.748   3.753
 2990TIP3   OH2 8933   2.519   0.692   1.708
 2990TIP3    H1 8934   2.575   0.647   1.771
 2990TIP3    H2 8935   2.500   0.626   1.641
 2991TIP3   OH2 8936   1.040   4.426   5.411
 2991TIP3    H1 8937   0.962   4.398   5.363
 2991TIP3    H2 8938   1.016   4.510   5.450
 2992TIP3   OH2 8939   6.899   4.458   4.748
 2992TIP3    H1 8940   6.832   4.395   4.718
 2992TIP3    H2 8941   6.890   4.532   4.689
 2993TIP3   OH2 8942   5.965   2.596   3.406
 2993TIP3    H1 8943   6.059   2.589   3.391
 2993TIP3    H2 8944   5.937   2.507   3.429
 2994TIP3   OH2 8945   4.744   5.779   2.999
 2994TIP3    H1 8946   4.829   5.749   3.033
 2994TIP3    H2 8947   4.691   5.793   3.078
 2995TIP3   OH2 8948   1.609   1.540   4.719
 2995TIP3    H1 8949   1.561   1.599   4.661
 2995TIP3    H2 8950   1.688   1.590   4.743
 2996TIP3   OH2 8951   2.458   0.739   3.266
 2996TIP3    H1 8952   2.414   0.757   3.349
 2996TIP3    H2 8953   2.511   0.817   3.250
 2997TIP3   OH2 8954   0.489   1.673   0.335
 2997TIP3    H1 8955   0.465   1.765   0.322
 2997TIP3    H2 8956   0.411   1.624   0.309
 2998TIP3   OH2 8957   3.021   1.720   1.909
 2998TIP3    H1 8958   2.941   1.680   1.942
 2998TIP3    H2 8959   3.041   1.672   1.830
 2999TIP3   OH2 8960   2.879   1.522   2.056
 2999TIP3    H1 8961   2.854   1.552   2.143
 2999TIP3    H2 8962   2.928   1.441   2.072
 3000TIP3   OH2 8963   5.118   4.161   4.540
 3000TIP3    H1 8964   5.170   4.126   4.467
 3000TIP3    H2 8965   5.074   4.237   4.504
 3001TIP3   OH2 8966   4.788   2.141   0.989
 3001TIP3    H1 8967   4.724   2.155   0.920
 3001TIP3    H2 8968   4.859   2.202   0.970
 3002TIP3   OH2 8969   3.346   2.591   3.228
 3002TIP3    H1 8970   3.359   2.590   3.323
 3002TIP3    H2 8971   3.277   2.527   3.213
 3003TIP3   OH2 8972   6.257   3.785   4.219
 3003TIP3    H1 8973   6.224   3.791   4.308
 3003TIP3    H2 8974   6.182   3.756   4.167
 3004TIP3   OH2 8975   2.382   2.527   3.779
 3004TIP3    H1 8976   2.444   2.476   3.832
 3004TIP3    H2 8977   2.433   2.602   3.748
 3005TIP3   OH2 8978   2.845   5.193   0.467
 3005TIP3    H1 8979   2.872   5.223   0.554
 3005TIP3    H2 8980   2.881   5.105   0.459
 3006TIP3   OH2 8981   5.150   3.731   4.326
 3006TIP3    H1 8982   5.243   3.733   4.303
 3006TIP3    H2 8983   5.149   3.734   4.422
 3007TIP3   OH2 8984   5.814   6.413   0.513
 3007TIP3    H1 8985   5.762   6.334   0.511
 3007TIP3    H2 8986   5.845   6.419   0.604
 3008TIP3   OH2 8987   7.078   1.181   1.997
 3008TIP3    H1 8988   7.146   1.158   1.935
 3008TIP3    H2 8989   7.118   1.250   2.052
 3009TIP3   OH2 8990   0.225   5.631   1.539
 3009TIP3    H1 8991   0.185   5.705   1.493
 3009TIP3    H2 8992   0.298   5.605   1.483
 3010TIP3   OH2 8993   5.907   6.449   5.627
 3010TIP3    H1 8994   5.982   6.497   5.661
 3010TIP3    H2 8995   5.858   6.423   5.704
 3011TIP3   OH2 8996   4.912   0.152   2.794
 3011TIP3    H1 8997   4.967   0.094   2.741
 3011TIP3    H2 8998   4.825   0.144   2.755
 3012TIP3   OH2 8999   6.283   2.460   1.799
 3012TIP3    H1 9000   6.294   2.515   1.877
 3012TIP3    H2 9001   6.314   2.515   1.727
 3013TIP3   OH2 9002   4.502   0.734   4.910
 3013TIP3    H1 9003   4.519   0.821   4.946
 3013TIP3    H2 9004   4.516   0.744   4.816
 3014TIP3   OH2 9005   6.284   2.097   3.894
 3014TIP3    H1 9006   6.188   2.095   3.898
 3014TIP3    H2 9007   6.303   2.171   3.836
 3015TIP3   OH2 9008   2.521   0.006   4.132
 3015TIP3    H1 9009   2.602   0.039   4.172
 3015TIP3    H2 9010   2.532   0.024   4.039
 3016TIP3   OH2 9011   0.069   5.541   2.306
 3016TIP3    H1 9012   0.122   5.511   2.379
 3016TIP3    H2 9013  -0.019   5.508   2.326
 3017TIP3   OH2 9014   7.195   3.047   5.549
 3017TIP3    H1 9015   7.114   2.997   5.542
 3017TIP3    H2 9016   7.199   3.072   5.641
 3018TIP3   OH2 9017   3.521   6.360   4.731
 3018TIP3    H1 9018   3.517   6.338   4.824
 3018TIP3    H2 9019   3.431   6.384   4.708
 3019TIP3   OH2 9020   6.632   6.230   4.650
 3019TIP3    H1 9021   6.573   6.255   4.721
 3019TIP3    H2 9022   6.687   6.162   4.689
 3020TIP3   OH2 9023   5.553   4.320   3.243
 3020TIP3    H1 9024   5.602   4.360   3.315
 3020TIP3    H2 9025   5.577   4.373   3.166
 3021TIP3   OH2 9026   6.636   6.152   5.473
 3021TIP3    H1 9027   6.576   6.226   5.463
 3021TIP3    H2 9028   6.653   6.123   5.383
 3022TIP3   OH2 9029   4.177   3.695   3.816
 3022TIP3    H1 9030   4.128   3.685   3.734
 3022TIP3    H2 9031   4.231   3.616   3.822
 3023TIP3   OH2 9032   0.101   5.210   3.517
 3023TIP3    H1 9033   0.017   5.197   3.471
 3023TIP3    H2 9034   0.118   5.304   3.508
 3024TIP3   OH2 9035   1.363   2.945   5.823
 3024TIP3    H1 9036   1.419   2.965   5.897
 3024TIP3    H2 9037   1.296   2.886   5.858
 3025TIP3   OH2 9038   5.753   0.205   3.758
 3025TIP3    H1 9039   5.746   0.258   3.679
 3025TIP3    H2 9040   5.685   0.138   3.748
 3026TIP3   OH2 9041   1.597   4.832   1.124
 3026TIP3    H1 9042   1.538   4.758   1.114
 3026TIP3    H2 9043   1.627   4.851   1.035
 3027TIP3   OH2 9044   0.959   0.918   0.514
 3027TIP3    H1 9045   0.961   0.968   0.432
 3027TIP3    H2 9046   0.876   0.871   0.512
 3028TIP3   OH2 9047   5.930   3.377   2.084
 3028TIP3    H1 9048   5.922   3.329   2.001
 3028TIP3    H2 9049   5.845   3.366   2.126
 3029TIP3   OH2 9050   3.507   3.989   2.641
 3029TIP3    H1 9051   3.440   3.955   2.701
 3029TIP3    H2 9052   3.590   3.969   2.684
 3030TIP3   OH2 9053   0.299   1.479   3.890
 3030TIP3    H1 9054   0.257   1.408   3.843
 3030TIP3    H2 9055   0.356   1.436   3.953
 3031TIP3   OH2 9056   1.790   0.848   2.530
 3031TIP3    H1 9057   1.793   0.935   2.569
 3031TIP3    H2 9058   1.724   0.801   2.581
 3032TIP3   OH2 9059   6.246   2.166   3.387
 3032TIP3    H1 9060   6.239   2.164   3.292
 3032TIP3    H2 9061   6.292   2.084   3.409
 3033TIP3   OH2 9062   1.893   5.781   3.889
 3033TIP3    H1 9063   1.925   5.722   3.821
 3033TIP3    H2 9064   1.939   5.863   3.873
 3034TIP3   OH2 9065   5.786   2.071   0.423
 3034TIP3    H1 9066   5.731   2.143   0.453
 3034TIP3    H2 9067   5.875   2.103   0.434
 3035TIP3   OH2 9068   3.582   5.646   4.338
 3035TIP3    H1 9069   3.525   5.621   4.266
 3035TIP3    H2 9070   3.528   5.700   4.394
 3036TIP3   OH2 9071   6.345   0.002   1.105
 3036TIP3    H1 9072   6.328  -0.065   1.171
 3036TIP3    H2 9073   6.438  -0.007   1.085
 3037TIP3   OH2 9074   3.928   6.674   3.929
 3037TIP3    H1 9075   3.955   6.582   3.922
 3037TIP3    H2 9076   3.834   6.670   3.945
 3038TIP3   OH2 9077   0.980   1.779   5.907
 3038TIP3    H1 9078   1.009   1.837   5.837
 3038TIP3    H2 9079   1.021   1.814   5.986
 3039TIP3   OH2 9080   1.405   4.833   4.813
 3039TIP3    H1 9081   1.472   4.797   4.756
 3039TIP3    H2 9082   1.453   4.865   4.889
 3040TIP3   OH2 9083   0.539   6.437   5.054
 3040TIP3    H1 9084   0.460   6.467   5.008
 3040TIP3    H2 9085   0.609   6.494   5.021
 3041TIP3   OH2 9086   0.947   6.117   3.054
 3041TIP3    H1 9087   1.036   6.108   3.087
 3041TIP3    H2 9088   0.947   6.200   3.006
 3042TIP3   OH2 9089   1.202   4.421   5.732
 3042TIP3    H1 9090   1.247   4.368   5.799
 3042TIP3    H2 9091   1.113   4.387   5.731
 3043TIP3   OH2 9092   5.466   6.550   4.212
 3043TIP3    H1 9093   5.540   6.582   4.264
 3043TIP3    H2 9094   5.436   6.473   4.260
 3044TIP3   OH2 9095   1.479   6.670   1.022
 3044TIP3    H1 9096   1.468   6.758   0.987
 3044TIP3    H2 9097   1.573   6.655   1.020
 3045TIP3   OH2 9098   6.818   2.522   2.718
 3045TIP3    H1 9099   6.843   2.574   2.795
 3045TIP3    H2 9100   6.880   2.449   2.718
 3046TIP3   OH2 9101   1.146   2.105   2.866
 3046TIP3    H1 9102   1.238   2.101   2.842
 3046TIP3    H2 9103   1.101   2.130   2.785
 3047TIP3   OH2 9104   7.089   4.739   1.551
 3047TIP3    H1 9105   7.009   4.734   1.603
 3047TIP3    H2 9106   7.104   4.832   1.537
 3048TIP3   OH2 9107   3.687   3.225   1.314
 3048TIP3    H1 9108   3.672   3.264   1.228
 3048TIP3    H2 9109   3.622   3.267   1.371
 3049TIP3   OH2 9110   2.063   4.249   1.408
 3049TIP3    H1 9111   2.098   4.269   1.322
 3049TIP3    H2 9112   2.139   4.221   1.459
 3050TIP3   OH2 9113   1.087   4.929   2.696
 3050TIP3    H1 9114   1.030   4.888   2.631
 3050TIP3    H2 9115   1.122   4.856   2.747
 3051TIP3   OH2 9116   2.697   2.952   2.658
 3051TIP3    H1 9117   2.610   2.935   2.622
 3051TIP3    H2 9118   2.738   3.011   2.595
 3052TIP3   OH2 9119   6.764   3.546   1.723
 3052TIP3    H1 9120   6.786   3.606   1.794
 3052TIP3    H2 9121   6.751   3.603   1.647
 3053TIP3   OH2 9122   5.060   5.057   0.332
 3053TIP3    H1 9123   5.144   5.093   0.302
 3053TIP3    H2 9124   5.014   5.133   0.367
 3054TIP3   OH2 9125   1.455   4.696   3.297
 3054TIP3    H1 9126   1.379   4.750   3.321
 3054TIP3    H2 9127   1.492   4.668   3.380
 3055TIP3   OH2 9128   5.887   4.465   1.826
 3055TIP3    H1 9129   5.945   4.499   1.758
 3055TIP3    H2 9130   5.852   4.542   1.870
 3056TIP3   OH2 9131   4.747   5.494   2.626
 3056TIP3    H1 9132   4.734   5.584   2.596
 3056TIP3    H2 9133   4.802   5.454   2.559
 3057TIP3   OH2 9134   7.030   2.208   5.116
 3057TIP3    H1 9135   7.025   2.301   5.135
 3057TIP3    H2 9136   7.123   2.192   5.101
 3058TIP3   OH2 9137   1.294   5.940   5.071
 3058TIP3    H1 9138   1.293   6.026   5.114
 3058TIP3    H2 9139   1.253   5.955   4.986
 3059TIP3   OH2 9140   6.671   3.016   0.706
 3059TIP3    H1 9141   6.593   3.067   0.728
 3059TIP3    H2 9142   6.686   3.035   0.613
 3060TIP3   OH2 9143   5.669   0.318   3.257
 3060TIP3    H1 9144   5.736   0.299   3.191
 3060TIP3    H2 9145   5.642   0.408   3.239
 3061TIP3   OH2 9146   6.701   4.794   1.232
 3061TIP3    H1 9147   6.644   4.862   1.195
 3061TIP3    H2 9148   6.698   4.723   1.168
 3062TIP3   OH2 9149   5.416   2.795   2.337
 3062TIP3    H1 9150   5.432   2.888   2.318
 3062TIP3    H2 9151   5.332   2.795   2.382
 3063TIP3   OH2 9152   2.083   6.714   3.501
 3063TIP3    H1 9153   2.104   6.689   3.591
 3063TIP3    H2 9154   1.999   6.759   3.508
 3064TIP3   OH2 9155   5.074   4.974   1.438
 3064TIP3    H1 9156   5.140   4.910   1.465
 3064TIP3    H2 9157   5.016   4.925   1.380
 3065TIP3   OH2 9158   2.608   4.270   5.258
 3065TIP3    H1 9159   2.523   4.311   5.274
 3065TIP3    H2 9160   2.672   4.336   5.286
 3066TIP3   OH2 9161   0.995   3.878   4.788
 3066TIP3    H1 9162   1.072   3.871   4.733
 3066TIP3    H2 9163   1.017   3.829   4.868
 3067TIP3   OH2 9164   0.178   2.849   5.551
 3067TIP3    H1 9165   0.255   2.894   5.584
 3067TIP3    H2 9166   0.108   2.914   5.554
 3068TIP3   OH2 9167   4.122   3.544   0.684
 3068TIP3    H1 9168   4.216   3.543   0.700
 3068TIP3    H2 9169   4.085   3.492   0.755
 3069TIP3   OH2 9170   4.004   1.515   5.395
 3069TIP3    H1 9171   3.993   1.455   5.469
 3069TIP3    H2 9172   4.051   1.464   5.329
 3070TIP3   OH2 9173   4.067   3.691   1.626
 3070TIP3    H1 9174   4.045   3.601   1.602
 3070TIP3    H2 9175   4.130   3.682   1.698
 3071TIP3   OH2 9176   1.324   6.666   3.247
 3071TIP3    H1 9177   1.386   6.594   3.260
 3071TIP3    H2 9178   1.240   6.631   3.274
 3072TIP3   OH2 9179   0.854   0.104   3.004
 3072TIP3    H1 9180   0.815   0.191   3.000
 3072TIP3    H2 9181   0.934   0.116   3.055
 3073TIP3   OH2 9182   4.160   1.745   3.075
 3073TIP3    H1 9183   4.247   1.781   3.096
 3073TIP3    H2 9184   4.165   1.725   2.982
 3074TIP3   OH2 9185   4.743   0.871   5.239
 3074TIP3    H1 9186   4.815   0.871   5.175
 3074TIP3    H2 9187   4.682   0.937   5.206
 3075TIP3   OH2 9188   3.398   2.506   2.695
 3075TIP3    H1 9189   3.424   2.596   2.676
 3075TIP3    H2 9190   3.472   2.468   2.741
 3076TIP3   OH2 9191   1.892   1.957   5.756
 3076TIP3    H1 9192   1.894   1.947   5.851
 3076TIP3    H2 9193   1.978   1.927   5.727
 3077TIP3   OH2 9194   3.052   6.368   3.136
 3077TIP3    H1 9195   3.075   6.460   3.146
 3077TIP3    H2 9196   2.963   6.362   3.170
 3078TIP3   OH2 9197   5.811   1.114   2.534
 3078TIP3    H1 9198   5.739   1.127   2.471
 3078TIP3    H2 9199   5.767   1.088   2.615
 3079TIP3   OH2 9200   1.149   1.436   3.579
 3079TIP3    H1 9201   1.066   1.471   3.613
 3079TIP3    H2 9202   1.198   1.513   3.551
 3080TIP3   OH2 9203   5.167   0.957   2.614
 3080TIP3    H1 9204   5.103   0.894   2.648
 3080TIP3    H2 9205   5.124   1.042   2.622
 3081TIP3   OH2 9206   0.487   1.641   1.969
 3081TIP3    H1 9207   0.558   1.696   1.936
 3081TIP3    H2 9208   0.517   1.552   1.955
 3082TIP3   OH2 9209   3.111   5.214   2.886
 3082TIP3    H1 9210   3.027   5.256   2.903
 3082TIP3    H2 9211   3.163   5.280   2.840
 3083TIP3   OH2 9212   1.722   4.118   5.454
 3083TIP3    H1 9213   1.679   4.203   5.461
 3083TIP3    H2 9214   1.650   4.055   5.455
 3084TIP3   OH2 9215   6.217   6.359   3.209
 3084TIP3    H1 9216   6.296   6.333   3.161
 3084TIP3    H2 9217   6.223   6.313   3.292
 3085TIP3   OH2 9218   4.799   0.418   0.297
 3085TIP3    H1 9219   4.854   0.416   0.375
 3085TIP3    H2 9220   4.782   0.511   0.282
 3086TIP3   OH2 9221   3.810   6.172   2.926
 3086TIP3    H1 9222   3.892   6.215   2.949
 3086TIP3    H2 9223   3.805   6.098   2.986
 3087TIP3   OH2 9224   7.150   3.434   0.317
 3087TIP3    H1 9225   7.230   3.400   0.357
 3087TIP3    H2 9226   7.080   3.405   0.375
 3088TIP3   OH2 9227   5.396   1.172   4.468
 3088TIP3    H1 9228   5.419   1.173   4.561
 3088TIP3    H2 9229   5.432   1.089   4.435
 3089TIP3   OH2 9230   3.191   2.681   5.669
 3089TIP3    H1 9231   3.169   2.734   5.593
 3089TIP3    H2 9232   3.152   2.727   5.743
 3090TIP3   OH2 9233   2.920   0.121   1.010
 3090TIP3    H1 9234   2.957   0.033   1.003
 3090TIP3    H2 9235   2.956   0.168   0.935
 3091TIP3   OH2 9236   4.822   0.674   1.220
 3091TIP3    H1 9237   4.813   0.760   1.262
 3091TIP3    H2 9238   4.806   0.611   1.290
 3092TIP3   OH2 9239   2.515   5.810   5.683
 3092TIP3    H1 9240   2.523   5.716   5.703
 3092TIP3    H2 9241   2.478   5.848   5.763
 3093TIP3   OH2 9242   4.031   0.318   2.406
 3093TIP3    H1 9243   4.040   0.317   2.311
 3093TIP3    H2 9244   4.080   0.240   2.435
 3094TIP3   OH2 9245   6.903   0.127   3.649
 3094TIP3    H1 9246   6.859   0.172   3.722
 3094TIP3    H2 9247   6.958   0.061   3.692
 3095TIP3   OH2 9248   2.640   6.456   1.692
 3095TIP3    H1 9249   2.654   6.453   1.597
 3095TIP3    H2 9250   2.699   6.390   1.727
 3096TIP3   OH2 9251   0.658   2.123   0.414
 3096TIP3    H1 9252   0.703   2.207   0.403
 3096TIP3    H2 9253   0.700   2.064   0.352
 3097TIP3   OH2 9254   5.010   5.578   5.198
 3097TIP3    H1 9255   4.929   5.527   5.206
 3097TIP3    H2 9256   5.060   5.553   5.276
 3098TIP3   OH2 9257   5.685   6.179   4.998
 3098TIP3    H1 9258   5.590   6.178   5.004
 3098TIP3    H2 9259   5.704   6.240   4.927
 3099TIP3   OH2 9260   1.987   0.964   3.630
 3099TIP3    H1 9261   2.037   1.033   3.587
 3099TIP3    H2 9262   2.001   0.980   3.724
 3100TIP3   OH2 9263   0.185   5.148   4.734
 3100TIP3    H1 9264   0.247   5.095   4.784
 3100TIP3    H2 9265   0.138   5.084   4.679
 3101TIP3   OH2 9266   3.122   5.610   5.194
 3101TIP3    H1 9267   3.144   5.694   5.233
 3101TIP3    H2 9268   3.205   5.576   5.162
 3102TIP3   OH2 9269   2.575   0.884   2.428
 3102TIP3    H1 9270   2.576   0.932   2.511
 3102TIP3    H2 9271   2.487   0.848   2.422
 3103TIP3   OH2 9272   2.336   1.414   2.279
 3103TIP3    H1 9273   2.299   1.327   2.293
 3103TIP3    H2 9274   2.421   1.398   2.239
 3104TIP3   OH2 9275   6.977   2.411   3.745
 3104TIP3    H1 9276   7.003   2.352   3.674
 3104TIP3    H2 9277   7.003   2.365   3.825
 3105TIP3   OH2 9278   5.633   2.435   0.201
 3105TIP3    H1 9279   5.578   2.364   0.235
 3105TIP3    H2 9280   5.646   2.414   0.108
 3106TIP3   OH2 9281   1.765   0.865   3.536
 3106TIP3    H1 9282   1.847   0.909   3.558
 3106TIP3    H2 9283   1.733   0.909   3.457
 3107TIP3   OH2 9284   1.266   6.563   0.314
 3107TIP3    H1 9285   1.205   6.636   0.328
 3107TIP3    H2 9286   1.311   6.585   0.233
 3108TIP3   OH2 9287   3.112   4.072   1.190
 3108TIP3    H1 9288   3.124   3.983   1.158
 3108TIP3    H2 9289   3.199   4.101   1.217
 3109TIP3   OH2 9290   3.296   4.247   5.391
 3109TIP3    H1 9291   3.364   4.301   5.432
 3109TIP3    H2 9292   3.259   4.302   5.322
 3110TIP3   OH2 9293   4.081   5.563   4.241
 3110TIP3    H1 9294   4.034   5.616   4.305
 3110TIP3    H2 9295   4.019   5.495   4.216
 3111TIP3   OH2 9296   4.362   1.912   0.154
 3111TIP3    H1 9297   4.401   1.966   0.085
 3111TIP3    H2 9298   4.389   1.822   0.132
 3112TIP3   OH2 9299  -0.002   4.184   1.117
 3112TIP3    H1 9300   0.041   4.151   1.039
 3112TIP3    H2 9301   0.018   4.278   1.118
 3113TIP3   OH2 9302   4.386   3.387   5.863
 3113TIP3    H1 9303   4.360   3.323   5.796
 3113TIP3    H2 9304   4.472   3.417   5.834
 3114TIP3   OH2 9305   6.360   2.071   2.309
 3114TIP3    H1 9306   6.442   2.078   2.261
 3114TIP3    H2 9307   6.343   1.977   2.315
 3115TIP3   OH2 9308   1.116   2.624   0.395
 3115TIP3    H1 9309   1.193   2.657   0.441
 3115TIP3    H2 9310   1.071   2.569   0.460
 3116TIP3   OH2 9311   3.281   6.490   1.191
 3116TIP3    H1 9312   3.341   6.557   1.223
 3116TIP3    H2 9313   3.198   6.535   1.181
 3117TIP3   OH2 9314   5.502   1.772   0.953
 3117TIP3    H1 9315   5.411   1.800   0.953
 3117TIP3    H2 9316   5.540   1.810   1.032
 3118TIP3   OH2 9317   0.769   3.049   4.495
 3118TIP3    H1 9318   0.838   3.012   4.551
 3118TIP3    H2 9319   0.792   3.142   4.488
 3119TIP3   OH2 9320   7.005   2.185   3.569
 3119TIP3    H1 9321   6.965   2.099   3.577
 3119TIP3    H2 9322   7.094   2.168   3.540
 3120TIP3   OH2 9323   4.461   5.083   2.301
 3120TIP3    H1 9324   4.479   5.000   2.344
 3120TIP3    H2 9325   4.504   5.075   2.216
 3121TIP3   OH2 9326   4.120   0.131   0.096
 3121TIP3    H1 9327   4.189   0.128   0.029
 3121TIP3    H2 9328   4.154   0.078   0.168
 3122TIP3   OH2 9329   3.725   4.181   2.362
 3122TIP3    H1 9330   3.746   4.117   2.430
 3122TIP3    H2 9331   3.633   4.165   2.341
 3123TIP3   OH2 9332   0.907   3.263   4.880
 3123TIP3    H1 9333   0.826   3.238   4.835
 3123TIP3    H2 9334   0.891   3.351   4.913
 3124TIP3   OH2 9335  -0.030   1.472   2.450
 3124TIP3    H1 9336   0.066   1.469   2.446
 3124TIP3    H2 9337  -0.054   1.546   2.395
 3125TIP3   OH2 9338   1.128   4.100   4.879
 3125TIP3    H1 9339   1.068   4.137   4.943
 3125TIP3    H2 9340   1.081   4.026   4.841
 3126TIP3   OH2 9341   6.742   1.567   4.959
 3126TIP3    H1 9342   6.741   1.662   4.971
 3126TIP3    H2 9343   6.813   1.552   4.896
 3127TIP3   OH2 9344   4.449   6.044   1.577
 3127TIP3    H1 9345   4.391   5.974   1.546
 3127TIP3    H2 9346   4.443   6.112   1.510
 3128TIP3   OH2 9347   0.610   4.126   5.052
 3128TIP3    H1 9348   0.611   4.218   5.027
 3128TIP3    H2 9349   0.680   4.087   4.999
 3129TIP3   OH2 9350   4.459   5.197   0.499
 3129TIP3    H1 9351   4.438   5.118   0.550
 3129TIP3    H2 9352   4.551   5.215   0.518
 3130TIP3   OH2 9353   0.954   2.809   3.471
 3130TIP3    H1 9354   0.868   2.781   3.440
 3130TIP3    H2 9355   1.003   2.827   3.390
 3131TIP3   OH2 9356   2.757   5.414   3.235
 3131TIP3    H1 9357   2.821   5.348   3.260
 3131TIP3    H2 9358   2.693   5.367   3.182
 3132TIP3   OH2 9359   4.932   2.932   2.514
 3132TIP3    H1 9360   4.858   2.942   2.573
 3132TIP3    H2 9361   5.009   2.951   2.568
 3133TIP3   OH2 9362   0.238   1.734   5.422
 3133TIP3    H1 9363   0.322   1.772   5.448
 3133TIP3    H2 9364   0.253   1.699   5.334
 3134TIP3   OH2 9365   4.481   6.502   4.294
 3134TIP3    H1 9366   4.494   6.495   4.200
 3134TIP3    H2 9367   4.454   6.414   4.321
 3135TIP3   OH2 9368   2.051   3.050   1.049
 3135TIP3    H1 9369   2.107   3.067   1.125
 3135TIP3    H2 9370   2.076   3.117   0.985
 3136TIP3   OH2 9371   2.357   1.673   4.157
 3136TIP3    H1 9372   2.397   1.744   4.208
 3136TIP3    H2 9373   2.426   1.644   4.097
 3137TIP3   OH2 9374   4.882   0.342   3.079
 3137TIP3    H1 9375   4.818   0.285   3.037
 3137TIP3    H2 9376   4.858   0.430   3.051
 3138TIP3   OH2 9377   6.734   4.805   2.112
 3138TIP3    H1 9378   6.784   4.723   2.111
 3138TIP3    H2 9379   6.653   4.783   2.159
 3139TIP3   OH2 9380   0.674   4.007   4.825
 3139TIP3    H1 9381   0.711   3.936   4.773
 3139TIP3    H2 9382   0.698   4.087   4.777
 3140TIP3   OH2 9383   3.264   5.462   1.834
 3140TIP3    H1 9384   3.295   5.396   1.896
 3140TIP3    H2 9385   3.334   5.527   1.832
 3141TIP3   OH2 9386   0.131   2.039   2.738
 3141TIP3    H1 9387   0.163   2.075   2.656
 3141TIP3    H2 9388   0.048   1.998   2.715
 3142TIP3   OH2 9389   3.167   4.189   3.420
 3142TIP3    H1 9390   3.246   4.149   3.382
 3142TIP3    H2 9391   3.149   4.264   3.363
 3143TIP3   OH2 9392   6.997   1.098   3.308
 3143TIP3    H1 9393   6.941   1.132   3.377
 3143TIP3    H2 9394   6.937   1.073   3.237
 3144TIP3   OH2 9395   1.096   0.194   5.355
 3144TIP3    H1 9396   1.082   0.099   5.359
 3144TIP3    H2 9397   1.141   0.216   5.436
 3145TIP3   OH2 9398   0.139   0.310   2.163
 3145TIP3    H1 9399   0.076   0.299   2.235
 3145TIP3    H2 9400   0.108   0.388   2.117
 3146TIP3   OH2 9401   4.078   0.108   1.491
 3146TIP3    H1 9402   3.984   0.110   1.472
 3146TIP3    H2 9403   4.103   0.017   1.479
 3147TIP3   OH2 9404   5.865   2.739   2.757
 3147TIP3    H1 9405   5.885   2.802   2.688
 3147TIP3    H2 9406   5.849   2.657   2.711
 3148TIP3   OH2 9407   1.439   5.205   4.050
 3148TIP3    H1 9408   1.480   5.281   4.093
 3148TIP3    H2 9409   1.460   5.216   3.957
 3149TIP3   OH2 9410   4.054   3.402   1.290
 3149TIP3    H1 9411   4.103   3.455   1.227
 3149TIP3    H2 9412   4.013   3.334   1.236
 3150TIP3   OH2 9413   4.975   3.345   1.310
 3150TIP3    H1 9414   4.983   3.308   1.222
 3150TIP3    H2 9415   4.895   3.306   1.345
 3151TIP3   OH2 9416   5.083   6.724   5.263
 3151TIP3    H1 9417   5.176   6.704   5.261
 3151TIP3    H2 9418   5.040   6.642   5.242
 3152TIP3   OH2 9419   5.523   4.300   3.769
 3152TIP3    H1 9420   5.580   4.368   3.804
 3152TIP3    H2 9421   5.440   4.312   3.815
 3153TIP3   OH2 9422   6.409   5.893   1.878
 3153TIP3    H1 9423   6.354   5.821   1.848
 3153TIP3    H2 9424   6.380   5.909   1.968
 3154TIP3   OH2 9425   0.361   3.157   1.309
 3154TIP3    H1 9426   0.352   3.108   1.391
 3154TIP3    H2 9427   0.420   3.103   1.256
 3155TIP3   OH2 9428   0.544   3.383   0.243
 3155TIP3    H1 9429   0.456   3.384   0.279
 3155TIP3    H2 9430   0.563   3.290   0.231
 3156TIP3   OH2 9431   6.601   3.957   3.667
 3156TIP3    H1 9432   6.634   3.873   3.697
 3156TIP3    H2 9433   6.680   4.007   3.644
 3157TIP3   OH2 9434   0.645   0.042   1.593
 3157TIP3    H1 9435   0.560   0.005   1.618
 3157TIP3    H2 9436   0.658   0.012   1.503
 3158TIP3   OH2 9437   6.578   4.910   2.467
 3158TIP3    H1 9438   6.669   4.937   2.480
 3158TIP3    H2 9439   6.566   4.837   2.528
 3159TIP3   OH2 9440   1.536   5.668   3.559
 3159TIP3    H1 9441   1.557   5.700   3.646
 3159TIP3    H2 9442   1.508   5.578   3.572
 3160TIP3   OH2 9443   7.150   3.665   2.003
 3160TIP3    H1 9444   7.243   3.646   1.996
 3160TIP3    H2 9445   7.118   3.662   1.913
 3161TIP3   OH2 9446   5.728   1.873   1.804
 3161TIP3    H1 9447   5.793   1.805   1.822
 3161TIP3    H2 9448   5.764   1.952   1.845
 3162TIP3   OH2 9449   4.250   3.067   4.919
 3162TIP3    H1 9450   4.214   3.154   4.933
 3162TIP3    H2 9451   4.345   3.079   4.925
 3163TIP3   OH2 9452   0.472   1.345   4.282
 3163TIP3    H1 9453   0.428   1.427   4.260
 3163TIP3    H2 9454   0.405   1.293   4.327
 3164TIP3   OH2 9455   5.644   0.409   0.355
 3164TIP3    H1 9456   5.565   0.365   0.324
 3164TIP3    H2 9457   5.616   0.498   0.374
 3165TIP3   OH2 9458   0.403   4.734   3.339
 3165TIP3    H1 9459   0.480   4.677   3.338
 3165TIP3    H2 9460   0.435   4.819   3.308
 3166TIP3   OH2 9461   3.208   0.645   0.511
 3166TIP3    H1 9462   3.209   0.681   0.422
 3166TIP3    H2 9463   3.161   0.711   0.563
 3167TIP3   OH2 9464   4.390   2.560   1.301
 3167TIP3    H1 9465   4.380   2.613   1.380
 3167TIP3    H2 9466   4.478   2.522   1.309
 3168TIP3   OH2 9467   5.227   0.416   1.948
 3168TIP3    H1 9468   5.162   0.351   1.921
 3168TIP3    H2 9469   5.220   0.419   2.043
 3169TIP3   OH2 9470   6.528   5.537   4.361
 3169TIP3    H1 9471   6.464   5.530   4.432
 3169TIP3    H2 9472   6.612   5.522   4.404
 3170TIP3   OH2 9473   0.714   6.302   0.144
 3170TIP3    H1 9474   0.786   6.350   0.102
 3170TIP3    H2 9475   0.733   6.210   0.127
 3171TIP3   OH2 9476   6.809   3.811   1.276
 3171TIP3    H1 9477   6.894   3.812   1.231
 3171TIP3    H2 9478   6.805   3.896   1.320
 3172TIP3   OH2 9479   5.674   3.480   4.274
 3172TIP3    H1 9480   5.705   3.528   4.197
 3172TIP3    H2 9481   5.754   3.455   4.320
 3173TIP3   OH2 9482   6.242   0.940   0.009
 3173TIP3    H1 9483   6.325   0.969   0.047
 3173TIP3    H2 9484   6.176   0.960   0.077
 3174TIP3   OH2 9485   0.264   3.731   3.155
 3174TIP3    H1 9486   0.226   3.818   3.162
 3174TIP3    H2 9487   0.199   3.672   3.192
 3175TIP3   OH2 9488   4.436   2.368   5.672
 3175TIP3    H1 9489   4.401   2.382   5.584
 3175TIP3    H2 9490   4.359   2.358   5.728
 3176TIP3   OH2 9491   1.238   1.837   1.278
 3176TIP3    H1 9492   1.300   1.907   1.300
 3176TIP3    H2 9493   1.291   1.773   1.230
 3177TIP3   OH2 9494   0.280   5.705   3.490
 3177TIP3    H1 9495   0.286   5.794   3.524
 3177TIP3    H2 9496   0.310   5.711   3.400
 3178TIP3   OH2 9497   5.226   4.326   5.569
 3178TIP3    H1 9498   5.317   4.357   5.571
 3178TIP3    H2 9499   5.174   4.405   5.580
 3179TIP3   OH2 9500   1.531   0.926   3.724
 3179TIP3    H1 9501   1.578   0.900   3.646
 3179TIP3    H2 9502   1.438   0.922   3.700
 3180TIP3   OH2 9503   4.175   6.003   1.778
 3180TIP3    H1 9504   4.254   6.029   1.826
 3180TIP3    H2 9505   4.182   5.908   1.771
 3181TIP3   OH2 9506   3.052   5.241   3.500
 3181TIP3    H1 9507   3.110   5.178   3.458
 3181TIP3    H2 9508   3.109   5.288   3.562
 3182TIP3   OH2 9509   2.793   1.522   3.662
 3182TIP3    H1 9510   2.714   1.575   3.667
 3182TIP3    H2 9511   2.770   1.450   3.603
 3183TIP3   OH2 9512   6.145   1.498   4.844
 3183TIP3    H1 9513   6.065   1.450   4.864
 3183TIP3    H2 9514   6.213   1.430   4.839
 3184TIP3   OH2 9515   2.873   0.371   2.188
 3184TIP3    H1 9516   2.783   0.361   2.219
 3184TIP3    H2 9517   2.866   0.432   2.115
 3185TIP3   OH2 9518   4.859   3.311   0.291
 3185TIP3    H1 9519   4.892   3.399   0.308
 3185TIP3    H2 9520   4.921   3.272   0.230
 3186TIP3   OH2 9521   1.369   1.118   2.238
 3186TIP3    H1 9522   1.452   1.154   2.208
 3186TIP3    H2 9523   1.303   1.159   2.181
 3187TIP3   OH2 9524   2.143   4.893   2.127
 3187TIP3    H1 9525   2.051   4.870   2.113
 3187TIP3    H2 9526   2.168   4.846   2.206
 3188TIP3   OH2 9527   0.569   6.278   5.301
 3188TIP3    H1 9528   0.653   6.305   5.338
 3188TIP3    H2 9529   0.564   6.324   5.217
 3189TIP3   OH2 9530   5.700   0.060   5.179
 3189TIP3    H1 9531   5.633  -0.006   5.160
 3189TIP3    H2 9532   5.685   0.083   5.271
 3190TIP3   OH2 9533   4.699   6.498   3.174
 3190TIP3    H1 9534   4.661   6.539   3.251
 3190TIP3    H2 9535   4.711   6.569   3.112
 3191TIP3   OH2 9536   4.569   5.742   1.761
 3191TIP3    H1 9537   4.544   5.832   1.783
 3191TIP3    H2 9538   4.645   5.752   1.703
 3192TIP3   OH2 9539   4.532   0.730   2.909
 3192TIP3    H1 9540   4.521   0.684   2.826
 3192TIP3    H2 9541   4.605   0.686   2.952
 3193TIP3   OH2 9542   2.819   3.827   4.892
 3193TIP3    H1 9543   2.830   3.883   4.969
 3193TIP3    H2 9544   2.790   3.887   4.823
 3194TIP3   OH2 9545   5.217   3.240   4.366
 3194TIP3    H1 9546   5.128   3.260   4.395
 3194TIP3    H2 9547   5.207   3.213   4.275
 3195TIP3   OH2 9548   6.298   4.006   0.080
 3195TIP3    H1 9549   6.221   4.062   0.091
 3195TIP3    H2 9550   6.317   3.974   0.168
 3196TIP3   OH2 9551   6.910   2.805   4.784
 3196TIP3    H1 9552   6.958   2.778   4.862
 3196TIP3    H2 9553   6.904   2.900   4.791
 3197TIP3   OH2 9554   4.776   3.898   1.495
 3197TIP3    H1 9555   4.763   3.814   1.451
 3197TIP3    H2 9556   4.691   3.918   1.533
 3198TIP3   OH2 9557   3.419   0.239   1.131
 3198TIP3    H1 9558   3.437   0.145   1.125
 3198TIP3    H2 9559   3.357   0.256   1.060
 3199TIP3   OH2 9560   1.832   2.796   1.571
 3199TIP3    H1 9561   1.854   2.884   1.602
 3199TIP3    H2 9562   1.911   2.766   1.525
 3200TIP3   OH2 9563   7.132   1.114   5.792
 3200TIP3    H1 9564   7.199   1.050   5.817
 3200TIP3    H2 9565   7.059   1.097   5.852
 3201TIP3   OH2 9566   1.479   5.930   0.172
 3201TIP3    H1 9567   1.545   5.959   0.235
 3201TIP3    H2 9568   1.487   5.991   0.099
 3202TIP3   OH2 9569   6.324   4.810   4.086
 3202TIP3    H1 9570   6.257   4.750   4.053
 3202TIP3    H2 9571   6.298   4.827   4.176
 3203TIP3   OH2 9572   6.253   3.595   5.648
 3203TIP3    H1 9573   6.198   3.645   5.588
 3203TIP3    H2 9574   6.304   3.661   5.694
 3204TIP3   OH2 9575   2.351   6.827   1.154
 3204TIP3    H1 9576   2.288   6.791   1.217
 3204TIP3    H2 9577   2.296   6.861   1.083
 3205TIP3   OH2 9578   2.747   3.333   4.923
 3205TIP3    H1 9579   2.716   3.408   4.873
 3205TIP3    H2 9580   2.668   3.294   4.959
 3206TIP3   OH2 9581   5.528   1.570   3.896
 3206TIP3    H1 9582   5.477   1.530   3.967
 3206TIP3    H2 9583   5.613   1.527   3.901
 3207TIP3   OH2 9584   0.939   0.837   5.435
 3207TIP3    H1 9585   0.928   0.814   5.342
 3207TIP3    H2 9586   1.024   0.801   5.459
 3208TIP3   OH2 9587   4.298   2.006   2.634
 3208TIP3    H1 9588   4.238   2.008   2.708
 3208TIP3    H2 9589   4.355   2.082   2.646
 3209TIP3   OH2 9590   3.545   5.877   4.518
 3209TIP3    H1 9591   3.540   5.945   4.451
 3209TIP3    H2 9592   3.545   5.925   4.601
 3210TIP3   OH2 9593   2.558   3.896   0.967
 3210TIP3    H1 9594   2.550   3.982   1.008
 3210TIP3    H2 9595   2.597   3.840   1.034
 3211TIP3   OH2 9596   0.929   3.508   1.396
 3211TIP3    H1 9597   0.987   3.549   1.332
 3211TIP3    H2 9598   0.935   3.414   1.378
 3212TIP3   OH2 9599   1.340   4.523   1.420
 3212TIP3    H1 9600   1.340   4.428   1.408
 3212TIP3    H2 9601   1.260   4.553   1.378
 3213TIP3   OH2 9602   0.745   0.712   2.907
 3213TIP3    H1 9603   0.786   0.644   2.961
 3213TIP3    H2 9604   0.651   0.704   2.927
 3214TIP3   OH2 9605   0.832   3.989   5.277
 3214TIP3    H1 9606   0.789   3.904   5.278
 3214TIP3    H2 9607   0.926   3.970   5.278
 3215TIP3   OH2 9608   0.787   5.658   0.711
 3215TIP3    H1 9609   0.711   5.703   0.675
 3215TIP3    H2 9610   0.841   5.727   0.748
 3216TIP3   OH2 9611   5.375   0.216   5.408
 3216TIP3    H1 9612   5.295   0.216   5.461
 3216TIP3    H2 9613   5.349   0.175   5.325
 3217TIP3   OH2 9614   3.484   3.369   1.547
 3217TIP3    H1 9615   3.413   3.334   1.493
 3217TIP3    H2 9616   3.440   3.412   1.620
 3218TIP3   OH2 9617   4.997   0.308   4.599
 3218TIP3    H1 9618   5.025   0.219   4.577
 3218TIP3    H2 9619   4.918   0.321   4.547
 3219TIP3   OH2 9620   0.177   6.734   3.804
 3219TIP3    H1 9621   0.210   6.823   3.813
 3219TIP3    H2 9622   0.231   6.695   3.735
 3220TIP3   OH2 9623   0.520   2.973   0.748
 3220TIP3    H1 9624   0.538   3.065   0.767
 3220TIP3    H2 9625   0.440   2.953   0.797
 3221TIP3   OH2 9626   3.222   1.335   3.724
 3221TIP3    H1 9627   3.237   1.309   3.633
 3221TIP3    H2 9628   3.145   1.286   3.751
 3222TIP3   OH2 9629   6.277   4.422   4.477
 3222TIP3    H1 9630   6.303   4.330   4.485
 3222TIP3    H2 9631   6.340   4.459   4.415
 3223TIP3   OH2 9632   5.275   0.146   4.268
 3223TIP3    H1 9633   5.305   0.195   4.345
 3223TIP3    H2 9634   5.185   0.122   4.289
 3224TIP3   OH2 9635   4.731   5.136   5.490
 3224TIP3    H1 9636   4.704   5.155   5.579
 3224TIP3    H2 9637   4.652   5.104   5.447
 3225TIP3   OH2 9638   1.426   2.211   2.846
 3225TIP3    H1 9639   1.472   2.153   2.907
 3225TIP3    H2 9640   1.426   2.296   2.889
 3226TIP3   OH2 9641   1.476   3.746   3.267
 3226TIP3    H1 9642   1.399   3.795   3.238
 3226TIP3    H2 9643   1.476   3.755   3.362
 3227TIP3   OH2 9644   1.504   0.534   3.556
 3227TIP3    H1 9645   1.592   0.539   3.594
 3227TIP3    H2 9646   1.473   0.625   3.554
 3228TIP3   OH2 9647   3.478   1.066   4.116
 3228TIP3    H1 9648   3.467   0.972   4.106
 3228TIP3    H2 9649   3.546   1.089   4.052
 3229TIP3   OH2 9650   1.201   3.082   4.726
 3229TIP3    H1 9651   1.290   3.112   4.743
 3229TIP3    H2 9652   1.163   3.070   4.813
 3230TIP3   OH2 9653   4.468   4.051   1.042
 3230TIP3    H1 9654   4.553   4.064   1.001
 3230TIP3    H2 9655   4.440   4.140   1.067
 3231TIP3   OH2 9656   1.345   4.271   4.989
 3231TIP3    H1 9657   1.296   4.196   4.956
 3231TIP3    H2 9658   1.392   4.304   4.913
 3232TIP3   OH2 9659   6.050   0.694   5.608
 3232TIP3    H1 9660   6.085   0.680   5.520
 3232TIP3    H2 9661   6.127   0.712   5.662
 3233TIP3   OH2 9662   3.615   6.702   5.394
 3233TIP3    H1 9663   3.583   6.613   5.378
 3233TIP3    H2 9664   3.709   6.697   5.373
 3234TIP3   OH2 9665   4.937   5.476   2.848
 3234TIP3    H1 9666   4.856   5.449   2.805
 3234TIP3    H2 9667   5.007   5.434   2.798
 3235TIP3   OH2 9668   3.348   4.263   3.030
 3235TIP3    H1 9669   3.273   4.204   3.030
 3235TIP3    H2 9670   3.350   4.299   3.119
 3236TIP3   OH2 9671   0.175   3.241   4.461
 3236TIP3    H1 9672   0.167   3.154   4.499
 3236TIP3    H2 9673   0.119   3.296   4.516
 3237TIP3   OH2 9674   6.488   5.737   3.921
 3237TIP3    H1 9675   6.482   5.641   3.923
 3237TIP3    H2 9676   6.565   5.755   3.868
 3238TIP3   OH2 9677   1.795   5.965   2.392
 3238TIP3    H1 9678   1.768   5.965   2.483
 3238TIP3    H2 9679   1.726   5.918   2.346
 3239TIP3   OH2 9680   1.849   5.911   3.363
 3239TIP3    H1 9681   1.828   5.990   3.313
 3239TIP3    H2 9682   1.944   5.905   3.359
 3240TIP3   OH2 9683   1.228   2.040   3.932
 3240TIP3    H1 9684   1.257   2.035   4.024
 3240TIP3    H2 9685   1.161   1.972   3.925
 3241TIP3   OH2 9686   5.826   2.046   4.649
 3241TIP3    H1 9687   5.908   2.055   4.600
 3241TIP3    H2 9688   5.821   2.124   4.703
 3242TIP3   OH2 9689   1.040   0.776   1.289
 3242TIP3    H1 9690   1.014   0.713   1.222
 3242TIP3    H2 9691   0.992   0.749   1.368
 3243TIP3   OH2 9692   6.641   3.085   4.550
 3243TIP3    H1 9693   6.545   3.091   4.548
 3243TIP3    H2 9694   6.666   3.131   4.630
 3244TIP3   OH2 9695   5.420   1.094   5.603
 3244TIP3    H1 9696   5.509   1.080   5.635
 3244TIP3    H2 9697   5.412   1.033   5.530
 3245TIP3   OH2 9698   4.306   0.405   4.527
 3245TIP3    H1 9699   4.275   0.485   4.484
 3245TIP3    H2 9700   4.368   0.436   4.593
 3246TIP3   OH2 9701   6.590   2.748   4.319
 3246TIP3    H1 9702   6.511   2.702   4.344
 3246TIP3    H2 9703   6.622   2.702   4.241
 3247TIP3   OH2 9704   1.520   3.770   4.944
 3247TIP3    H1 9705   1.532   3.777   4.849
 3247TIP3    H2 9706   1.558   3.850   4.979
 3248TIP3   OH2 9707   0.191   5.472   4.106
 3248TIP3    H1 9708   0.254   5.412   4.065
 3248TIP3    H2 9709   0.242   5.520   4.170
 3249TIP3   OH2 9710   5.727   4.406   1.609
 3249TIP3    H1 9711   5.788   4.343   1.570
 3249TIP3    H2 9712   5.770   4.433   1.691
 3250TIP3   OH2 9713   6.999   3.873   2.933
 3250TIP3    H1 9714   6.915   3.917   2.917
 3250TIP3    H2 9715   7.053   3.940   2.975
 3251TIP3   OH2 9716   6.880   1.639   4.525
 3251TIP3    H1 9717   6.945   1.599   4.468
 3251TIP3    H2 9718   6.807   1.576   4.527
 3252TIP3   OH2 9719   3.678   4.867   0.900
 3252TIP3    H1 9720   3.679   4.958   0.930
 3252TIP3    H2 9721   3.668   4.816   0.981
 3253TIP3   OH2 9722   4.156   2.864   0.343
 3253TIP3    H1 9723   4.121   2.950   0.322
 3253TIP3    H2 9724   4.137   2.852   0.436
 3254TIP3   OH2 9725   1.459   0.270   0.765
 3254TIP3    H1 9726   1.507   0.344   0.803
 3254TIP3    H2 9727   1.369   0.281   0.795
 3255TIP3   OH2 9728   5.834   3.796   3.584
 3255TIP3    H1 9729   5.885   3.749   3.519
 3255TIP3    H2 9730   5.880   3.879   3.595
 3256TIP3   OH2 9731   2.574   1.525   4.372
 3256TIP3    H1 9732   2.663   1.497   4.349
 3256TIP3    H2 9733   2.585   1.579   4.450
 3257TIP3   OH2 9734   2.308   4.682   5.037
 3257TIP3    H1 9735   2.381   4.622   5.052
 3257TIP3    H2 9736   2.290   4.720   5.123
 3258TIP3   OH2 9737   4.598   5.448   5.511
 3258TIP3    H1 9738   4.692   5.463   5.520
 3258TIP3    H2 9739   4.591   5.359   5.474
 3259TIP3   OH2 9740   6.224   6.398   1.007
 3259TIP3    H1 9741   6.164   6.451   1.060
 3259TIP3    H2 9742   6.311   6.429   1.030
 3260TIP3   OH2 9743   1.305   0.868   1.325
 3260TIP3    H1 9744   1.216   0.893   1.348
 3260TIP3    H2 9745   1.295   0.797   1.261
 3261TIP3   OH2 9746   0.406   2.396   1.279
 3261TIP3    H1 9747   0.353   2.391   1.359
 3261TIP3    H2 9748   0.490   2.357   1.303
 3262TIP3   OH2 9749   6.869   6.336   1.027
 3262TIP3    H1 9750   6.919   6.347   0.947
 3262TIP3    H2 9751   6.798   6.399   1.021
 3263TIP3   OH2 9752   2.738   3.300   0.771
 3263TIP3    H1 9753   2.756   3.361   0.699
 3263TIP3    H2 9754   2.683   3.232   0.731
 3264TIP3   OH2 9755   2.361   5.719   3.887
 3264TIP3    H1 9756   2.366   5.659   3.961
 3264TIP3    H2 9757   2.290   5.779   3.910
 3265TIP3   OH2 9758   5.426   1.475   2.809
 3265TIP3    H1 9759   5.442   1.519   2.892
 3265TIP3    H2 9760   5.481   1.522   2.746
 3266TIP3   OH2 9761   4.041   6.407   3.406
 3266TIP3    H1 9762   3.955   6.438   3.435
 3266TIP3    H2 9763   4.076   6.479   3.353
 3267TIP3   OH2 9764   6.917   0.760   0.767
 3267TIP3    H1 9765   6.904   0.671   0.733
 3267TIP3    H2 9766   6.952   0.809   0.692
 3268TIP3   OH2 9767   0.083   2.586   4.259
 3268TIP3    H1 9768   0.131   2.505   4.272
 3268TIP3    H2 9769  -0.008   2.563   4.279
 3269TIP3   OH2 9770   1.940   0.966   3.934
 3269TIP3    H1 9771   1.860   0.931   3.895
 3269TIP3    H2 9772   1.946   0.923   4.020
 3270TIP3   OH2 9773   2.479   4.846   5.592
 3270TIP3    H1 9774   2.423   4.923   5.584
 3270TIP3    H2 9775   2.442   4.797   5.665
 3271TIP3   OH2 9776   4.023   1.254   3.134
 3271TIP3    H1 9777   4.096   1.206   3.094
 3271TIP3    H2 9778   3.983   1.190   3.194
 3272TIP3   OH2 9779   4.532   0.918   3.965
 3272TIP3    H1 9780   4.532   1.014   3.958
 3272TIP3    H2 9781   4.621   0.892   3.943
 3273TIP3   OH2 9782   3.882   5.685   5.466
 3273TIP3    H1 9783   3.865   5.750   5.535
 3273TIP3    H2 9784   3.977   5.672   5.468
 3274TIP3   OH2 9785   1.209   5.526   4.349
 3274TIP3    H1 9786   1.296   5.505   4.383
 3274TIP3    H2 9787   1.150   5.463   4.392
 3275TIP3   OH2 9788   0.515   6.612   4.230
 3275TIP3    H1 9789   0.609   6.631   4.230
 3275TIP3    H2 9790   0.503   6.550   4.157
 3276TIP3   OH2 9791   2.389   4.033   4.992
 3276TIP3    H1 9792   2.404   4.128   4.994
 3276TIP3    H2 9793   2.310   4.021   5.045
 3277TIP3   OH2 9794   6.287   2.805   4.443
 3277TIP3    H1 9795   6.301   2.898   4.463
 3277TIP3    H2 9796   6.195   2.789   4.463
 3278TIP3   OH2 9797   3.607   4.400   0.998
 3278TIP3    H1 9798   3.656   4.398   0.916
 3278TIP3    H2 9799   3.566   4.314   1.004
 3279TIP3   OH2 9800   5.039   1.002   0.849
 3279TIP3    H1 9801   4.980   0.981   0.922
 3279TIP3    H2 9802   5.061   0.917   0.811
 3280TIP3   OH2 9803   4.482   5.668   3.713
 3280TIP3    H1 9804   4.413   5.711   3.763
 3280TIP3    H2 9805   4.461   5.688   3.621
 3281TIP3   OH2 9806   5.068   6.129   5.092
 3281TIP3    H1 9807   5.134   6.118   5.160
 3281TIP3    H2 9808   5.085   6.059   5.029
 3282TIP3   OH2 9809   6.571   3.102   2.105
 3282TIP3    H1 9810   6.647   3.069   2.058
 3282TIP3    H2 9811   6.523   3.154   2.040
 3283TIP3   OH2 9812   5.802   5.509   2.748
 3283TIP3    H1 9813   5.825   5.584   2.803
 3283TIP3    H2 9814   5.884   5.462   2.735
 3284TIP3   OH2 9815   3.022   4.970   2.747
 3284TIP3    H1 9816   3.082   5.022   2.801
 3284TIP3    H2 9817   2.944   4.960   2.800
 3285TIP3   OH2 9818   1.410   4.219   0.393
 3285TIP3    H1 9819   1.431   4.307   0.364
 3285TIP3    H2 9820   1.377   4.174   0.315
 3286TIP3   OH2 9821   1.687   4.613   0.952
 3286TIP3    H1 9822   1.699   4.697   0.906
 3286TIP3    H2 9823   1.634   4.561   0.892
 3287TIP3   OH2 9824   3.898   2.864   3.177
 3287TIP3    H1 9825   3.901   2.804   3.103
 3287TIP3    H2 9826   3.805   2.868   3.200
 3288TIP3   OH2 9827   0.625   3.664   2.524
 3288TIP3    H1 9828   0.575   3.695   2.600
 3288TIP3    H2 9829   0.655   3.744   2.481
 3289TIP3   OH2 9830   4.822   4.595   1.147
 3289TIP3    H1 9831   4.898   4.576   1.092
 3289TIP3    H2 9832   4.750   4.606   1.085
 3290TIP3   OH2 9833   3.397   4.727   4.214
 3290TIP3    H1 9834   3.329   4.700   4.153
 3290TIP3    H2 9835   3.470   4.667   4.197
 3291TIP3   OH2 9836   1.928   0.577   1.784
 3291TIP3    H1 9837   1.896   0.503   1.836
 3291TIP3    H2 9838   1.862   0.645   1.796
 3292TIP3   OH2 9839   2.900   4.611   1.129
 3292TIP3    H1 9840   2.959   4.648   1.194
 3292TIP3    H2 9841   2.885   4.682   1.067
 3293TIP3   OH2 9842   1.146   2.962   5.140
 3293TIP3    H1 9843   1.073   2.966   5.202
 3293TIP3    H2 9844   1.123   3.024   5.071
 3294TIP3   OH2 9845   4.034   2.269   2.097
 3294TIP3    H1 9846   4.032   2.178   2.127
 3294TIP3    H2 9847   3.965   2.274   2.031
 3295TIP3   OH2 9848   2.731   6.582   3.400
 3295TIP3    H1 9849   2.677   6.613   3.328
 3295TIP3    H2 9850   2.786   6.658   3.423
 3296TIP3   OH2 9851   0.042   4.454   1.076
 3296TIP3    H1 9852   0.011   4.462   0.986
 3296TIP3    H2 9853   0.040   4.543   1.110
 3297TIP3   OH2 9854   0.299   2.060   2.977
 3297TIP3    H1 9855   0.357   2.120   2.930
 3297TIP3    H2 9856   0.217   2.063   2.929
 3298TIP3   OH2 9857   5.833   2.559   5.452
 3298TIP3    H1 9858   5.891   2.537   5.525
 3298TIP3    H2 9859   5.765   2.492   5.455
 3299TIP3   OH2 9860   5.978   1.284   2.194
 3299TIP3    H1 9861   6.016   1.318   2.275
 3299TIP3    H2 9862   5.967   1.361   2.139
 3300TIP3   OH2 9863   1.788   0.157   4.074
 3300TIP3    H1 9864   1.719   0.190   4.016
 3300TIP3    H2 9865   1.849   0.231   4.082
 3301TIP3   OH2 9866   0.731   6.021   2.527
 3301TIP3    H1 9867   0.724   6.114   2.549
 3301TIP3    H2 9868   0.646   5.999   2.489
 3302TIP3   OH2 9869   3.728   2.589   2.029
 3302TIP3    H1 9870   3.703   2.642   1.954
 3302TIP3    H2 9871   3.807   2.542   2.002
 3303TIP3   OH2 9872   6.852   2.794   5.199
 3303TIP3    H1 9873   6.778   2.749   5.158
 3303TIP3    H2 9874   6.885   2.731   5.263
 3304TIP3   OH2 9875   6.229   1.319   1.349
 3304TIP3    H1 9876   6.315   1.282   1.326
 3304TIP3    H2 9877   6.236   1.412   1.326
 3305TIP3   OH2 9878   4.237   0.792   0.788
 3305TIP3    H1 9879   4.278   0.837   0.714
 3305TIP3    H2 9880   4.287   0.821   0.864
 3306TIP3   OH2 9881   1.188   5.655   4.614
 3306TIP3    H1 9882   1.236   5.575   4.637
 3306TIP3    H2 9883   1.183   5.653   4.519
 3307TIP3   OH2 9884   3.824   3.211   1.561
 3307TIP3    H1 9885   3.785   3.293   1.592
 3307TIP3    H2 9886   3.824   3.220   1.466
 3308TIP3   OH2 9887   3.144   5.021   4.644
 3308TIP3    H1 9888   3.123   4.932   4.617
 3308TIP3    H2 9889   3.222   5.044   4.594
 3309TIP3   OH2 9890   4.239   0.617   2.668
 3309TIP3    H1 9891   4.312   0.573   2.626
 3309TIP3    H2 9892   4.194   0.548   2.718
 3310TIP3   OH2 9893   1.486   4.640   2.369
 3310TIP3    H1 9894   1.534   4.623   2.288
 3310TIP3    H2 9895   1.554   4.657   2.434
 3311TIP3   OH2 9896   3.547   3.495   4.121
 3311TIP3    H1 9897   3.512   3.584   4.117
 3311TIP3    H2 9898   3.641   3.507   4.109
 3312TIP3   OH2 9899   4.781   0.969   1.344
 3312TIP3    H1 9900   4.704   1.026   1.340
 3312TIP3    H2 9901   4.831   1.001   1.419
 3313TIP3   OH2 9902   1.898   3.485   5.309
 3313TIP3    H1 9903   1.965   3.451   5.368
 3313TIP3    H2 9904   1.843   3.410   5.289
 3314TIP3   OH2 9905   3.988   4.263   0.128
 3314TIP3    H1 9906   3.904   4.219   0.134
 3314TIP3    H2 9907   4.010   4.285   0.219
 3315TIP3   OH2 9908   5.057   2.966   2.936
 3315TIP3    H1 9909   5.147   2.997   2.948
 3315TIP3    H2 9910   5.011   3.042   2.899
 3316TIP3   OH2 9911   1.785   3.394   3.539
 3316TIP3    H1 9912   1.768   3.449   3.616
 3316TIP3    H2 9913   1.698   3.364   3.512
 3317TIP3   OH2 9914   2.714   0.293   4.699
 3317TIP3    H1 9915   2.684   0.230   4.633
 3317TIP3    H2 9916   2.808   0.276   4.708
 3318TIP3   OH2 9917   3.521   3.748   1.746
 3318TIP3    H1 9918   3.558   3.833   1.720
 3318TIP3    H2 9919   3.502   3.704   1.663
 3319TIP3   OH2 9920   3.732   0.658   2.725
 3319TIP3    H1 9921   3.767   0.569   2.726
 3319TIP3    H2 9922   3.638   0.646   2.715
 3320TIP3   OH2 9923   6.522   4.018   4.089
 3320TIP3    H1 9924   6.578   4.089   4.121
 3320TIP3    H2 9925   6.572   3.938   4.106
 3321TIP3   OH2 9926   4.319   3.937   3.776
 3321TIP3    H1 9927   4.359   3.928   3.689
 3321TIP3    H2 9928   4.267   3.857   3.787
 3322TIP3   OH2 9929   0.102   6.574   2.472
 3322TIP3    H1 9930   0.117   6.591   2.565
 3322TIP3    H2 9931   0.007   6.584   2.461
 3323TIP3   OH2 9932   0.158   2.279   4.214
 3323TIP3    H1 9933   0.156   2.309   4.123
 3323TIP3    H2 9934   0.224   2.210   4.214
 3324TIP3   OH2 9935   5.635   0.303   4.654
 3324TIP3    H1 9936   5.630   0.211   4.680
 3324TIP3    H2 9937   5.637   0.351   4.737
 3325TIP3   OH2 9938   5.812   1.236   0.104
 3325TIP3    H1 9939   5.783   1.291   0.176
 3325TIP3    H2 9940   5.734   1.223   0.050
 3326TIP3   OH2 9941   6.055   5.698   0.764
 3326TIP3    H1 9942   5.993   5.652   0.707
 3326TIP3    H2 9943   6.001   5.756   0.817
 3327TIP3   OH2 9944   2.778   0.494   0.887
 3327TIP3    H1 9945   2.805   0.450   0.968
 3327TIP3    H2 9946   2.751   0.422   0.829
 3328TIP3   OH2 9947   1.226   3.822   1.525
 3328TIP3    H1 9948   1.242   3.842   1.433
 3328TIP3    H2 9949   1.138   3.856   1.542
 3329TIP3   OH2 9950   3.968   3.553   2.414
 3329TIP3    H1 9951   3.934   3.525   2.499
 3329TIP3    H2 9952   4.055   3.513   2.409
 3330TIP3   OH2 9953   2.171   2.956   2.921
 3330TIP3    H1 9954   2.154   2.970   3.014
 3330TIP3    H2 9955   2.092   2.912   2.889
 3331TIP3   OH2 9956   0.886   2.697   4.046
 3331TIP3    H1 9957   0.849   2.754   4.114
 3331TIP3    H2 9958   0.918   2.620   4.094
 3332TIP3   OH2 9959   6.963   0.766   2.297
 3332TIP3    H1 9960   6.997   0.853   2.275
 3332TIP3    H2 9961   7.002   0.746   2.382
 3333TIP3   OH2 9962   5.514   2.955   2.702
 3333TIP3    H1 9963   5.567   3.027   2.666
 3333TIP3    H2 9964   5.557   2.876   2.670
 3334TIP3   OH2 9965   6.435   2.982   4.176
 3334TIP3    H1 9966   6.490   3.041   4.227
 3334TIP3    H2 9967   6.462   2.894   4.203
 3335TIP3   OH2 9968   2.982   5.981   2.917
 3335TIP3    H1 9969   3.040   6.018   2.984
 3335TIP3    H2 9970   2.902   6.033   2.925
 3336TIP3   OH2 9971   1.004   4.510   2.024
 3336TIP3    H1 9972   1.005   4.551   1.937
 3336TIP3    H2 9973   0.996   4.584   2.084
 3337TIP3   OH2 9974   3.709   6.414   0.305
 3337TIP3    H1 9975   3.720   6.457   0.390
 3337TIP3    H2 9976   3.624   6.444   0.273
 3338TIP3   OH2 9977   3.709   1.039   4.606
 3338TIP3    H1 9978   3.740   0.996   4.686
 3338TIP3    H2 9979   3.739   1.130   4.614
 3339TIP3   OH2 9980   6.340   5.371   4.875
 3339TIP3    H1 9981   6.403   5.421   4.927
 3339TIP3    H2 9982   6.308   5.432   4.810
 3340TIP3   OH2 9983   3.007   1.329   1.272
 3340TIP3    H1 9984   2.990   1.400   1.335
 3340TIP3    H2 9985   2.921   1.290   1.256
 3341TIP3   OH2 9986   0.060   3.713   5.743
 3341TIP3    H1 9987   0.135   3.665   5.708
 3341TIP3    H2 9988   0.022   3.654   5.808
 3342TIP3   OH2 9989   6.425   6.192   2.233
 3342TIP3    H1 9990   6.375   6.239   2.166
 3342TIP3    H2 9991   6.514   6.188   2.199
 3343TIP3   OH2 9992   1.961   0.207   5.590
 3343TIP3    H1 9993   1.976   0.291   5.547
 3343TIP3    H2 9994   1.868   0.188   5.574
 3344TIP3   OH2 9995   3.245   6.095   5.424
 3344TIP3    H1 9996   3.281   6.045   5.351
 3344TIP3    H2 9997   3.322   6.131   5.469
 3345TIP3   OH2 9998   7.033   1.448   2.672
 3345TIP3    H1 9999   7.075   1.451   2.586
 3345TIP3    H210000   7.100   1.412   2.730
 3346TIP3   OH210001   2.460   3.228   2.464
 3346TIP3    H110002   2.550   3.198   2.471
 3346TIP3    H210003   2.465   3.322   2.477
 3347TIP3   OH210004   0.194   4.867   3.452
 3347TIP3    H110005   0.235   4.949   3.480
 3347TIP3    H210006   0.267   4.808   3.436
 3348TIP3   OH210007   0.058   1.761   5.035
 3348TIP3    H110008   0.033   1.730   5.122
 3348TIP3    H210009   0.150   1.787   5.044
 3349TIP3   OH210010   5.055   0.087   4.393
 3349TIP3    H110011   5.038   0.039   4.474
 3349TIP3    H210012   4.972   0.129   4.372
 3350TIP3   OH210013   2.082   0.122   4.624
 3350TIP3    H110014   2.051   0.031   4.620
 3350TIP3    H210015   2.136   0.125   4.704
 3351TIP3   OH210016   5.878   6.219   5.201
 3351TIP3    H110017   5.809   6.217   5.134
 3351TIP3    H210018   5.918   6.133   5.197
 3352TIP3   OH210019   6.499   0.717   4.468
 3352TIP3    H110020   6.567   0.649   4.472
 3352TIP3    H210021   6.543   0.793   4.431
 3353TIP3   OH210022   5.603   5.320   2.897
 3353TIP3    H110023   5.655   5.241   2.910
 3353TIP3    H210024   5.657   5.376   2.841
 3354TIP3   OH210025   2.027   5.631   0.324
 3354TIP3    H110026   2.105   5.651   0.376
 3354TIP3    H210027   1.956   5.623   0.389
 3355TIP3   OH210028   3.147   3.227   3.110
 3355TIP3    H110029   3.117   3.290   3.045
 3355TIP3    H210030   3.238   3.210   3.087
 3356TIP3   OH210031   4.943   0.721   0.769
 3356TIP3    H110032   4.848   0.727   0.775
 3356TIP3    H210033   4.973   0.717   0.860
 3357TIP3   OH210034   0.257   1.715   3.733
 3357TIP3    H110035   0.214   1.678   3.656
 3357TIP3    H210036   0.283   1.638   3.785
 3358TIP3   OH210037   0.967   6.682   5.117
 3358TIP3    H110038   0.898   6.637   5.068
 3358TIP3    H210039   1.029   6.612   5.140
 3359TIP3   OH210040   5.058   3.799   5.545
 3359TIP3    H110041   5.014   3.728   5.498
 3359TIP3    H210042   5.143   3.763   5.568
 3360TIP3   OH210043   0.730   2.474   1.116
 3360TIP3    H110044   0.722   2.407   1.048
 3360TIP3    H210045   0.652   2.528   1.106
 3361TIP3   OH210046   3.409   3.143   2.727
 3361TIP3    H110047   3.435   3.080   2.795
 3361TIP3    H210048   3.392   3.224   2.775
 3362TIP3   OH210049   0.066   2.244   1.544
 3362TIP3    H110050   0.020   2.238   1.627
 3362TIP3    H210051   0.021   2.181   1.487
 3363TIP3   OH210052   6.542   1.989   0.851
 3363TIP3    H110053   6.529   2.006   0.758
 3363TIP3    H210054   6.463   2.023   0.893
 3364TIP3   OH210055   7.032   3.885   2.076
 3364TIP3    H110056   7.071   3.801   2.051
 3364TIP3    H210057   6.967   3.902   2.009
 3365TIP3   OH210058   3.201   1.596   0.856
 3365TIP3    H110059   3.211   1.656   0.782
 3365TIP3    H210060   3.131   1.537   0.830
 3366TIP3   OH210061   1.717   4.520   0.521
 3366TIP3    H110062   1.770   4.593   0.554
 3366TIP3    H210063   1.637   4.524   0.573
 3367TIP3   OH210064   2.815   6.304   4.206
 3367TIP3    H110065   2.873   6.380   4.214
 3367TIP3    H210066   2.838   6.265   4.122
 3368TIP3   OH210067   1.301   4.664   3.588
 3368TIP3    H110068   1.319   4.570   3.590
 3368TIP3    H210069   1.371   4.703   3.641
 3369TIP3   OH210070   0.242   1.428   1.313
 3369TIP3    H110071   0.316   1.374   1.342
 3369TIP3    H210072   0.222   1.484   1.388
 3370TIP3   OH210073   6.967   4.089   1.081
 3370TIP3    H110074   6.990   4.001   1.054
 3370TIP3    H210075   7.038   4.115   1.140
 3371TIP3   OH210076   2.196   1.540   5.848
 3371TIP3    H110077   2.227   1.609   5.789
 3371TIP3    H210078   2.190   1.583   5.933
 3372TIP3   OH210079   3.552   0.442   0.975
 3372TIP3    H110080   3.495   0.383   1.025
 3372TIP3    H210081   3.533   0.422   0.884
 3373TIP3   OH210082   0.161   1.810   4.149
 3373TIP3    H110083   0.177   1.869   4.075
 3373TIP3    H210084   0.066   1.795   4.147
 3374TIP3   OH210085   4.558   1.156   0.580
 3374TIP3    H110086   4.598   1.216   0.643
 3374TIP3    H210087   4.481   1.204   0.548
 3375TIP3   OH210088   3.472   1.276   2.668
 3375TIP3    H110089   3.438   1.228   2.744
 3375TIP3    H210090   3.407   1.263   2.600
 3376TIP3   OH210091   0.592   1.166   2.522
 3376TIP3    H110092   0.607   1.084   2.474
 3376TIP3    H210093   0.657   1.165   2.593
 3377TIP3   OH210094   2.439   6.058   2.878
 3377TIP3    H110095   2.352   6.068   2.840
 3377TIP3    H210096   2.496   6.110   2.821
 3378TIP3   OH210097   3.843   2.003   3.821
 3378TIP3    H110098   3.896   2.074   3.857
 3378TIP3    H210099   3.756   2.018   3.858
 3379TIP3   OH210100   6.973   6.435   0.760
 3379TIP3    H110101   6.940   6.524   0.763
 3379TIP3    H210102   7.046   6.438   0.698
 3380TIP3   OH210103   3.883   1.154   2.562
 3380TIP3    H110104   3.834   1.177   2.641
 3380TIP3    H210105   3.820   1.105   2.508
 3381TIP3   OH210106   4.458   5.164   2.562
 3381TIP3    H110107   4.425   5.252   2.546
 3381TIP3    H210108   4.452   5.120   2.477
 3382TIP3   OH210109   6.961   0.523   3.416
 3382TIP3    H110110   6.932   0.526   3.508
 3382TIP3    H210111   7.043   0.572   3.416
 3383TIP3   OH210112   1.677   3.993   0.216
 3383TIP3    H110113   1.683   4.073   0.164
 3383TIP3    H210114   1.762   3.950   0.205
 3384TIP3   OH210115   0.369   2.875   2.865
 3384TIP3    H110116   0.353   2.784   2.887
 3384TIP3    H210117   0.464   2.884   2.864
 3385TIP3   OH210118   7.171   1.975   2.098
 3385TIP3    H110119   7.191   2.031   2.173
 3385TIP3    H210120   7.127   1.899   2.135
 3386TIP3   OH210121   4.664   5.200   1.174
 3386TIP3    H110122   4.756   5.209   1.198
 3386TIP3    H210123   4.666   5.182   1.080
 3387TIP3   OH210124   2.870   4.717   4.267
 3387TIP3    H110125   2.781   4.686   4.282
 3387TIP3    H210126   2.906   4.658   4.202
 3388TIP3   OH210127   3.742   6.408   0.836
 3388TIP3    H110128   3.814   6.470   0.850
 3388TIP3    H210129   3.710   6.388   0.924
 3389TIP3   OH210130   4.098   5.052   4.957
 3389TIP3    H110131   4.162   5.105   5.005
 3389TIP3    H210132   4.067   5.109   4.887
 3390TIP3   OH210133   5.471   3.789   3.666
 3390TIP3    H110134   5.541   3.736   3.705
 3390TIP3    H210135   5.406   3.797   3.736
 3391TIP3   OH210136   6.395   3.734   3.996
 3391TIP3    H110137   6.437   3.818   3.978
 3391TIP3    H210138   6.358   3.743   4.083
 3392TIP3   OH210139   1.553   2.501   1.913
 3392TIP3    H110140   1.475   2.540   1.872
 3392TIP3    H210141   1.624   2.560   1.890
 3393TIP3   OH210142   1.687   3.173   1.160
 3393TIP3    H110143   1.616   3.119   1.194
 3393TIP3    H210144   1.766   3.138   1.202
 3394TIP3   OH210145   7.078   1.027   2.558
 3394TIP3    H110146   7.026   1.054   2.482
 3394TIP3    H210147   7.163   1.002   2.520
 3395TIP3   OH210148   6.017   0.938   0.754
 3395TIP3    H110149   6.037   0.907   0.666
 3395TIP3    H210150   5.942   0.886   0.782
 3396TIP3   OH210151   3.769   0.390   2.481
 3396TIP3    H110152   3.845   0.437   2.448
 3396TIP3    H210153   3.761   0.314   2.424
 3397TIP3   OH210154   0.243   1.752   2.047
 3397TIP3    H110155   0.213   1.662   2.065
 3397TIP3    H210156   0.334   1.742   2.021
 3398TIP3   OH210157   2.287   1.846   2.810
 3398TIP3    H110158   2.319   1.936   2.801
 3398TIP3    H210159   2.357   1.792   2.773
 3399TIP3   OH210160   5.054   1.871   5.744
 3399TIP3    H110161   5.072   1.805   5.810
 3399TIP3    H210162   5.026   1.948   5.794
 3400TIP3   OH210163   3.096   1.681   4.332
 3400TIP3    H110164   3.055   1.749   4.384
 3400TIP3    H210165   3.026   1.647   4.276
 3401TIP3   OH210166   1.267   4.004   0.715
 3401TIP3    H110167   1.189   3.954   0.692
 3401TIP3    H210168   1.317   3.946   0.772
 3402TIP3   OH210169   7.214   5.954   2.057
 3402TIP3    H110170   7.133   5.981   2.013
 3402TIP3    H210171   7.226   6.018   2.127
 3403TIP3   OH210172   1.234   1.058   0.107
 3403TIP3    H110173   1.183   1.092   0.034
 3403TIP3    H210174   1.201   1.106   0.183
 3404TIP3   OH210175   4.360   5.414   2.487
 3404TIP3    H110176   4.397   5.461   2.412
 3404TIP3    H210177   4.356   5.479   2.557
 3405TIP3   OH210178   3.145   4.664   0.938
 3405TIP3    H110179   3.111   4.687   0.852
 3405TIP3    H210180   3.068   4.660   0.994
 3406TIP3   OH210181   0.037   2.205   0.947
 3406TIP3    H110182   0.000   2.223   1.033
 3406TIP3    H210183   0.057   2.291   0.911
 3407TIP3   OH210184   0.586   4.245   1.156
 3407TIP3    H110185   0.605   4.275   1.067
 3407TIP3    H210186   0.640   4.168   1.168
 3408TIP3   OH210187   2.256   5.934   1.646
 3408TIP3    H110188   2.227   5.919   1.556
 3408TIP3    H210189   2.349   5.911   1.645
 3409TIP3   OH210190   4.310   3.127   0.666
 3409TIP3    H110191   4.323   3.060   0.599
 3409TIP3    H210192   4.355   3.204   0.631
 3410TIP3   OH210193   6.326   4.266   2.008
 3410TIP3    H110194   6.250   4.214   2.032
 3410TIP3    H210195   6.294   4.328   1.942
 3411TIP3   OH210196   6.216   3.955   2.298
 3411TIP3    H110197   6.146   3.974   2.359
 3411TIP3    H210198   6.222   3.859   2.297
 3412TIP3   OH210199   4.293   2.401   1.033
 3412TIP3    H110200   4.345   2.348   1.094
 3412TIP3    H210201   4.283   2.485   1.078
 3413TIP3   OH210202   0.762   0.829   1.162
 3413TIP3    H110203   0.769   0.867   1.250
 3413TIP3    H210204   0.671   0.800   1.156
 3414TIP3   OH210205   0.362   3.428   1.544
 3414TIP3    H110206   0.404   3.351   1.583
 3414TIP3    H210207   0.433   3.491   1.532
 3415TIP3   OH210208   7.133   5.455   1.247
 3415TIP3    H110209   7.141   5.493   1.335
 3415TIP3    H210210   7.224   5.439   1.221
 3416TIP3   OH210211   4.224   0.769   5.393
 3416TIP3    H110212   4.224   0.766   5.298
 3416TIP3    H210213   4.144   0.722   5.418
 3417TIP3   OH210214   2.609   2.407   3.893
 3417TIP3    H110215   2.599   2.357   3.812
 3417TIP3    H210216   2.703   2.406   3.909
 3418TIP3   OH210217   0.119   2.452   2.102
 3418TIP3    H110218   0.129   2.479   2.010
 3418TIP3    H210219   0.194   2.395   2.118
 3419TIP3   OH210220   5.106   2.787   1.577
 3419TIP3    H110221   5.079   2.772   1.667
 3419TIP3    H210222   5.099   2.882   1.565
 3420TIP3   OH210223   4.011   0.455   0.928
 3420TIP3    H110224   4.067   0.387   0.966
 3420TIP3    H210225   3.922   0.429   0.951
 3421TIP3   OH210226   3.104   5.341   4.578
 3421TIP3    H110227   3.186   5.296   4.554
 3421TIP3    H210228   3.036   5.292   4.533
 3422TIP3   OH210229   6.663   6.424   3.730
 3422TIP3    H110230   6.734   6.373   3.770
 3422TIP3    H210231   6.590   6.363   3.723
 3423TIP3   OH210232   7.145   5.551   3.509
 3423TIP3    H110233   7.235   5.536   3.537
 3423TIP3    H210234   7.125   5.640   3.539
 3424TIP3   OH210235   6.071   4.770   2.104
 3424TIP3    H110236   6.140   4.833   2.082
 3424TIP3    H210237   5.990   4.812   2.077
 3425TIP3   OH210238   0.189   1.392   2.738
 3425TIP3    H110239   0.111   1.349   2.772
 3425TIP3    H210240   0.256   1.377   2.805
 3426TIP3   OH210241   4.201   1.723   0.393
 3426TIP3    H110242   4.160   1.787   0.335
 3426TIP3    H210243   4.128   1.672   0.429
 3427TIP3   OH210244   2.456   2.487   5.819
 3427TIP3    H110245   2.379   2.440   5.849
 3427TIP3    H210246   2.521   2.475   5.889
 3428TIP3   OH210247   3.982   1.999   2.229
 3428TIP3    H110248   4.019   2.055   2.297
 3428TIP3    H210249   3.950   1.921   2.275
 3429TIP3   OH210250   2.809   2.442   5.174
 3429TIP3    H110251   2.829   2.355   5.140
 3429TIP3    H210252   2.894   2.479   5.198
 3430TIP3   OH210253   5.591   6.385   0.280
 3430TIP3    H110254   5.532   6.379   0.355
 3430TIP3    H210255   5.617   6.477   0.278
 3431TIP3   OH210256   5.818   0.739   5.092
 3431TIP3    H110257   5.757   0.758   5.020
 3431TIP3    H210258   5.801   0.648   5.115
 3432TIP3   OH210259   4.813   3.341   4.090
 3432TIP3    H110260   4.806   3.252   4.054
 3432TIP3    H210261   4.908   3.357   4.092
 3433TIP3   OH210262   1.477   3.569   5.558
 3433TIP3    H110263   1.417   3.604   5.492
 3433TIP3    H210264   1.562   3.604   5.533
 3434TIP3   OH210265   5.935   2.714   3.027
 3434TIP3    H110266   5.892   2.735   2.945
 3434TIP3    H210267   5.950   2.798   3.070
 3435TIP3   OH210268   6.152   4.225   5.812
 3435TIP3    H110269   6.129   4.143   5.770
 3435TIP3    H210270   6.100   4.291   5.766
 3436TIP3   OH210271   5.951   3.950   0.970
 3436TIP3    H110272   5.870   3.929   1.016
 3436TIP3    H210273   6.020   3.918   1.028
 3437TIP3   OH210274   2.179   3.999   0.982
 3437TIP3    H110275   2.229   4.076   1.007
 3437TIP3    H210276   2.094   4.032   0.955
 3438TIP3   OH210277   1.695   0.124   2.612
 3438TIP3    H110278   1.753   0.186   2.656
 3438TIP3    H210279   1.703   0.043   2.663
 3439TIP3   OH210280   2.992   0.926   1.702
 3439TIP3    H110281   3.063   0.891   1.648
 3439TIP3    H210282   2.937   0.975   1.641
 3440TIP3   OH210283   3.359   0.632   4.641
 3440TIP3    H110284   3.373   0.659   4.551
 3440TIP3    H210285   3.265   0.644   4.655
 3441TIP3   OH210286   2.497   6.762   4.129
 3441TIP3    H110287   2.509   6.706   4.052
 3441TIP3    H210288   2.461   6.703   4.196
 3442TIP3   OH210289   5.630   3.584   1.814
 3442TIP3    H110290   5.565   3.619   1.873
 3442TIP3    H210291   5.639   3.650   1.745
 3443TIP3   OH210292   5.755   2.748   5.260
 3443TIP3    H110293   5.683   2.785   5.310
 3443TIP3    H210294   5.779   2.668   5.308
 3444TIP3   OH210295   4.814   2.496   2.332
 3444TIP3    H110296   4.781   2.578   2.296
 3444TIP3    H210297   4.887   2.473   2.275
 3445TIP3   OH210298   3.512   4.347   2.251
 3445TIP3    H110299   3.486   4.438   2.233
 3445TIP3    H210300   3.507   4.340   2.347
 3446TIP3   OH210301   4.512   5.034   5.008
 3446TIP3    H110302   4.458   4.977   5.062
 3446TIP3    H210303   4.596   4.988   5.001
 3447TIP3   OH210304   2.632   0.528   0.232
 3447TIP3    H110305   2.600   0.459   0.290
 3447TIP3    H210306   2.719   0.549   0.266
 3448TIP3   OH210307   0.063   3.690   0.190
 3448TIP3    H110308   0.046   3.600   0.218
 3448TIP3    H210309   0.077   3.738   0.271
 3449TIP3   OH210310   0.418   3.922   0.329
 3449TIP3    H110311   0.435   3.837   0.289
 3449TIP3    H210312   0.442   3.911   0.421
 3450TIP3   OH210313   3.860   1.193   1.898
 3450TIP3    H110314   3.794   1.125   1.897
 3450TIP3    H210315   3.813   1.273   1.876
 3451TIP3   OH210316   4.382   5.157   1.485
 3451TIP3    H110317   4.333   5.150   1.403
 3451TIP3    H210318   4.426   5.072   1.493
 3452TIP3   OH210319   0.987   6.083   4.289
 3452TIP3    H110320   0.896   6.053   4.292
 3452TIP3    H210321   0.999   6.131   4.371
 3453TIP3   OH210322   1.717   1.713   0.595
 3453TIP3    H110323   1.681   1.789   0.640
 3453TIP3    H210324   1.802   1.697   0.636
 3454TIP3   OH210325   0.657   0.272   0.712
 3454TIP3    H110326   0.644   0.283   0.618
 3454TIP3    H210327   0.645   0.360   0.748
 3455TIP3   OH210328   5.974   3.071   3.014
 3455TIP3    H110329   5.887   3.032   3.013
 3455TIP3    H210330   5.959   3.163   2.992
 3456TIP3   OH210331   1.975   3.744   4.314
 3456TIP3    H110332   1.992   3.837   4.328
 3456TIP3    H210333   1.999   3.702   4.397
 3457TIP3   OH210334   6.069   0.661   4.550
 3457TIP3    H110335   6.007   0.661   4.624
 3457TIP3    H210336   6.122   0.740   4.564
 3458TIP3   OH210337   0.573   1.183   5.234
 3458TIP3    H110338   0.646   1.153   5.288
 3458TIP3    H210339   0.578   1.130   5.155
 3459TIP3   OH210340   4.046   2.118   0.590
 3459TIP3    H110341   4.075   2.106   0.500
 3459TIP3    H210342   4.076   2.206   0.614
 3460TIP3   OH210343   6.319   0.870   0.537
 3460TIP3    H110344   6.348   0.791   0.491
 3460TIP3    H210345   6.225   0.874   0.520
 3461TIP3   OH210346   2.888   4.007   2.636
 3461TIP3    H110347   2.797   3.979   2.627
 3461TIP3    H210348   2.885   4.101   2.621
 3462TIP3   OH210349   4.459   5.238   4.047
 3462TIP3    H110350   4.406   5.169   4.007
 3462TIP3    H210351   4.485   5.294   3.974
 3463TIP3   OH210352   2.411   0.582   5.368
 3463TIP3    H110353   2.496   0.607   5.331
 3463TIP3    H210354   2.385   0.657   5.421
 3464TIP3   OH210355   6.633   3.026   2.546
 3464TIP3    H110356   6.663   2.935   2.543
 3464TIP3    H210357   6.583   3.032   2.627
 3465TIP3   OH210358   3.336   4.796   3.251
 3465TIP3    H110359   3.384   4.781   3.332
 3465TIP3    H210360   3.394   4.851   3.199
 3466TIP3   OH210361   4.454   2.203   1.756
 3466TIP3    H110362   4.521   2.270   1.752
 3466TIP3    H210363   4.494   2.127   1.714
 3467TIP3   OH210364   6.054   4.293   3.649
 3467TIP3    H110365   6.144   4.288   3.683
 3467TIP3    H210366   6.001   4.310   3.726
 3468TIP3   OH210367   0.148   6.276   5.026
 3468TIP3    H110368   0.066   6.233   5.048
 3468TIP3    H210369   0.216   6.212   5.050
 3469TIP3   OH210370   2.103   3.729   4.997
 3469TIP3    H110371   2.057   3.646   4.983
 3469TIP3    H210372   2.034   3.792   5.017
 3470TIP3   OH210373   3.683   3.339   1.082
 3470TIP3    H110374   3.726   3.425   1.088
 3470TIP3    H210375   3.706   3.308   0.994
 3471TIP3   OH210376   1.401   4.542   0.629
 3471TIP3    H110377   1.348   4.586   0.695
 3471TIP3    H210378   1.367   4.453   0.627
 3472TIP3   OH210379   1.721   1.241   5.390
 3472TIP3    H110380   1.651   1.281   5.338
 3472TIP3    H210381   1.762   1.179   5.330
 3473TIP3   OH210382   3.742   5.240   0.043
 3473TIP3    H110383   3.668   5.268   0.098
 3473TIP3    H210384   3.791   5.320   0.026
 3474TIP3   OH210385   1.039   5.595   4.832
 3474TIP3    H110386   1.103   5.532   4.866
 3474TIP3    H210387   1.079   5.629   4.752
 3475TIP3   OH210388   2.251   6.719   4.477
 3475TIP3    H110389   2.212   6.786   4.420
 3475TIP3    H210390   2.280   6.767   4.554
 3476TIP3   OH210391   4.049   2.457   2.279
 3476TIP3    H110392   3.955   2.457   2.294
 3476TIP3    H210393   4.065   2.378   2.227
 3477TIP3   OH210394   2.234   2.379   0.198
 3477TIP3    H110395   2.160   2.319   0.194
 3477TIP3    H210396   2.302   2.331   0.245
 3478TIP3   OH210397   2.500   0.460   1.480
 3478TIP3    H110398   2.493   0.437   1.387
 3478TIP3    H210399   2.425   0.417   1.521
 3479TIP3   OH210400   2.832   4.906   1.950
 3479TIP3    H110401   2.903   4.970   1.959
 3479TIP3    H210402   2.877   4.823   1.935
 3480TIP3   OH210403   2.837   0.922   4.507
 3480TIP3    H110404   2.894   0.921   4.430
 3480TIP3    H210405   2.765   0.980   4.483
 3481TIP3   OH210406   6.999   6.518   1.833
 3481TIP3    H110407   7.086   6.541   1.801
 3481TIP3    H210408   7.008   6.427   1.862
 3482TIP3   OH210409   4.092   2.636   4.926
 3482TIP3    H110410   4.031   2.695   4.882
 3482TIP3    H210411   4.169   2.691   4.944
 3483TIP3   OH210412   4.423   6.793   0.929
 3483TIP3    H110413   4.471   6.858   0.980
 3483TIP3    H210414   4.491   6.735   0.894
 3484TIP3   OH210415   2.983   4.733   3.630
 3484TIP3    H110416   2.936   4.765   3.553
 3484TIP3    H210417   2.926   4.755   3.704
 3485TIP3   OH210418   0.868   3.550   4.887
 3485TIP3    H110419   0.933   3.613   4.920
 3485TIP3    H210420   0.784   3.592   4.903
 3486TIP3   OH210421   6.955   3.964   0.601
 3486TIP3    H110422   6.998   4.021   0.664
 3486TIP3    H210423   6.915   3.895   0.654
 3487TIP3   OH210424   5.215   5.592   1.566
 3487TIP3    H110425   5.140   5.543   1.600
 3487TIP3    H210426   5.292   5.547   1.602
 3488TIP3   OH210427   0.611   5.571   1.205
 3488TIP3    H110428   0.693   5.562   1.253
 3488TIP3    H210429   0.629   5.635   1.137
 3489TIP3   OH210430   2.861   4.227   0.316
 3489TIP3    H110431   2.789   4.169   0.289
 3489TIP3    H210432   2.938   4.170   0.318
 3490TIP3   OH210433   6.505   4.398   2.160
 3490TIP3    H110434   6.568   4.333   2.127
 3490TIP3    H210435   6.420   4.364   2.134
 3491TIP3   OH210436   5.712   5.014   0.913
 3491TIP3    H110437   5.705   4.929   0.870
 3491TIP3    H210438   5.644   5.013   0.980
 3492TIP3   OH210439   5.929   6.414   1.156
 3492TIP3    H110440   5.839   6.396   1.130
 3492TIP3    H210441   5.921   6.462   1.239
 3493TIP3   OH210442   6.799   0.997   5.130
 3493TIP3    H110443   6.777   0.997   5.223
 3493TIP3    H210444   6.817   1.089   5.109
 3494TIP3   OH210445   0.297   2.917   5.815
 3494TIP3    H110446   0.233   2.917   5.887
 3494TIP3    H210447   0.292   2.828   5.779
 3495TIP3   OH210448   4.144   3.216   3.156
 3495TIP3    H110449   4.204   3.240   3.085
 3495TIP3    H210450   4.201   3.182   3.225
 3496TIP3   OH210451   5.788   0.548   2.913
 3496TIP3    H110452   5.839   0.600   2.852
 3496TIP3    H210453   5.791   0.597   2.996
 3497TIP3   OH210454   1.041   5.059   0.756
 3497TIP3    H110455   1.134   5.082   0.757
 3497TIP3    H210456   1.039   4.964   0.745
 3498TIP3   OH210457   4.221   0.469   3.611
 3498TIP3    H110458   4.134   0.429   3.603
 3498TIP3    H210459   4.268   0.441   3.533
 3499TIP3   OH210460   0.149   4.151   0.609
 3499TIP3    H110461   0.171   4.157   0.516
 3499TIP3    H210462   0.087   4.223   0.624
 3500TIP3   OH210463   1.610   2.113   0.290
 3500TIP3    H110464   1.572   2.161   0.217
 3500TIP3    H210465   1.566   2.028   0.288
 3501TIP3   OH210466   4.501   3.660   2.869
 3501TIP3    H110467   4.541   3.714   2.801
 3501TIP3    H210468   4.469   3.583   2.823
 3502TIP3   OH210469   2.414   0.318   5.372
 3502TIP3    H110470   2.420   0.408   5.341
 3502TIP3    H210471   2.494   0.303   5.422
 3503TIP3   OH210472   2.745   3.396   2.912
 3503TIP3    H110473   2.703   3.324   2.866
 3503TIP3    H210474   2.718   3.386   3.003
 3504TIP3   OH210475   2.404   1.660   1.733
 3504TIP3    H110476   2.316   1.686   1.705
 3504TIP3    H210477   2.399   1.659   1.829
 3505TIP3   OH210478   0.520   4.811   5.609
 3505TIP3    H110479   0.494   4.755   5.536
 3505TIP3    H210480   0.451   4.799   5.675
 3506TIP3   OH210481   1.697   5.885   2.038
 3506TIP3    H110482   1.701   5.838   2.121
 3506TIP3    H210483   1.738   5.969   2.055
 3507TIP3   OH210484   3.270   4.211   2.281
 3507TIP3    H110485   3.299   4.130   2.239
 3507TIP3    H210486   3.341   4.234   2.341
 3508TIP3   OH210487   2.998   4.820   3.139
 3508TIP3    H110488   2.950   4.851   3.215
 3508TIP3    H210489   3.058   4.892   3.117
 3509TIP3   OH210490   0.537   1.200   4.566
 3509TIP3    H110491   0.496   1.143   4.501
 3509TIP3    H210492   0.484   1.280   4.565
 3510TIP3   OH210493   6.800   1.587   2.720
 3510TIP3    H110494   6.865   1.517   2.710
 3510TIP3    H210495   6.795   1.601   2.814
 3511TIP3   OH210496   3.915   1.798   3.163
 3511TIP3    H110497   3.926   1.762   3.251
 3511TIP3    H210498   3.991   1.767   3.114
 3512TIP3   OH210499   0.199   5.530   3.042
 3512TIP3    H110500   0.208   5.443   3.004
 3512TIP3    H210501   0.115   5.529   3.087
 3513TIP3   OH210502   2.232   4.044   0.612
 3513TIP3    H110503   2.142   4.047   0.579
 3513TIP3    H210504   2.237   4.115   0.675
 3514TIP3   OH210505   2.467   5.077   2.983
 3514TIP3    H110506   2.552   5.067   3.025
 3514TIP3    H210507   2.408   5.101   3.055
 3515TIP3   OH210508   6.459   1.529   4.419
 3515TIP3    H110509   6.485   1.602   4.363
 3515TIP3    H210510   6.542   1.491   4.448
 3516TIP3   OH210511   4.180   1.711   5.871
 3516TIP3    H110512   4.102   1.667   5.836
 3516TIP3    H210513   4.252   1.653   5.847
 3517TIP3   OH210514   5.601   0.899   0.645
 3517TIP3    H110515   5.672   0.963   0.651
 3517TIP3    H210516   5.521   0.952   0.647
 3518TIP3   OH210517   0.762   1.529   1.221
 3518TIP3    H110518   0.852   1.549   1.197
 3518TIP3    H210519   0.732   1.605   1.270
 3519TIP3   OH210520   5.191   1.458   0.545
 3519TIP3    H110521   5.237   1.444   0.628
 3519TIP3    H210522   5.098   1.453   0.569
 3520TIP3   OH210523   3.354   6.665   2.756
 3520TIP3    H110524   3.375   6.649   2.664
 3520TIP3    H210525   3.265   6.631   2.766
 3521TIP3   OH210526   2.060   0.949   5.945
 3521TIP3    H110527   2.067   0.963   5.850
 3521TIP3    H210528   2.012   0.867   5.954
 3522TIP3   OH210529   1.715   2.722   4.758
 3522TIP3    H110530   1.739   2.697   4.668
 3522TIP3    H210531   1.625   2.752   4.751
 3523TIP3   OH210532   5.962   3.074   1.228
 3523TIP3    H110533   5.931   3.143   1.287
 3523TIP3    H210534   5.885   3.019   1.213
 3524TIP3   OH210535   7.118   1.804   0.946
 3524TIP3    H110536   7.066   1.822   1.024
 3524TIP3    H210537   7.189   1.869   0.949
 3525TIP3   OH210538   1.572   1.334   5.195
 3525TIP3    H110539   1.519   1.403   5.155
 3525TIP3    H210540   1.595   1.276   5.122
 3526TIP3   OH210541   0.710   1.294   3.738
 3526TIP3    H110542   0.652   1.244   3.680
 3526TIP3    H210543   0.688   1.385   3.719
 3527TIP3   OH210544   2.007   1.659   3.443
 3527TIP3    H110545   1.960   1.739   3.420
 3527TIP3    H210546   1.938   1.593   3.452
 3528TIP3   OH210547   1.450   3.039   3.127
 3528TIP3    H110548   1.407   3.049   3.042
 3528TIP3    H210549   1.527   2.984   3.109
 3529TIP3   OH210550   4.720   0.820   3.516
 3529TIP3    H110551   4.732   0.910   3.546
 3529TIP3    H210552   4.627   0.803   3.528
 3530TIP3   OH210553   3.086   6.631   5.371
 3530TIP3    H110554   3.097   6.631   5.275
 3530TIP3    H210555   3.003   6.675   5.385
 3531TIP3   OH210556   4.279   2.367   2.003
 3531TIP3    H110557   4.197   2.342   2.045
 3531TIP3    H210558   4.325   2.285   1.989
 3532TIP3   OH210559   0.231   3.098   1.633
 3532TIP3    H110560   0.205   3.065   1.547
 3532TIP3    H210561   0.293   3.033   1.666
 3533TIP3   OH210562   2.678   0.428   5.019
 3533TIP3    H110563   2.597   0.473   5.044
 3533TIP3    H210564   2.648   0.345   4.981
 3534TIP3   OH210565   3.078   0.394   1.201
 3534TIP3    H110566   2.986   0.415   1.187
 3534TIP3    H210567   3.083   0.299   1.189
 3535TIP3   OH210568   5.539   1.200   1.413
 3535TIP3    H110569   5.556   1.125   1.470
 3535TIP3    H210570   5.556   1.168   1.324
 3536TIP3   OH210571   3.996   5.916   0.919
 3536TIP3    H110572   4.065   5.893   0.856
 3536TIP3    H210573   3.930   5.961   0.867
 3537TIP3   OH210574   5.665   0.688   2.142
 3537TIP3    H110575   5.739   0.733   2.101
 3537TIP3    H210576   5.703   0.644   2.218
 3538TIP3   OH210577   4.798   5.099   4.115
 3538TIP3    H110578   4.794   5.189   4.084
 3538TIP3    H210579   4.801   5.107   4.211
 3539TIP3   OH210580   1.184   4.044   2.026
 3539TIP3    H110581   1.150   4.106   1.961
 3539TIP3    H210582   1.208   3.967   1.974
 3540TIP3   OH210583   3.122   0.396   4.913
 3540TIP3    H110584   3.216   0.413   4.921
 3540TIP3    H210585   3.106   0.323   4.972
 3541TIP3   OH210586   3.023   1.630   1.325
 3541TIP3    H110587   2.980   1.614   1.241
 3541TIP3    H210588   2.961   1.596   1.390
 3542TIP3   OH210589   6.650   2.338   5.482
 3542TIP3    H110590   6.614   2.409   5.536
 3542TIP3    H210591   6.704   2.287   5.542
 3543TIP3   OH210592   2.211   0.138   4.850
 3543TIP3    H110593   2.218   0.176   4.938
 3543TIP3    H210594   2.301   0.134   4.819
 3544TIP3   OH210595   5.831   3.817   3.847
 3544TIP3    H110596   5.805   3.909   3.855
 3544TIP3    H210597   5.819   3.797   3.755
 3545TIP3   OH210598   3.354   6.062   2.412
 3545TIP3    H110599   3.396   5.977   2.416
 3545TIP3    H210600   3.290   6.060   2.484
 3546TIP3   OH210601   6.751   4.811   4.778
 3546TIP3    H110602   6.795   4.751   4.717
 3546TIP3    H210603   6.822   4.865   4.813
 3547TIP3   OH210604   5.178   5.800   0.338
 3547TIP3    H110605   5.113   5.731   0.352
 3547TIP3    H210606   5.127   5.874   0.304
 3548TIP3   OH210607   1.334   0.472   5.818
 3548TIP3    H110608   1.290   0.410   5.875
 3548TIP3    H210609   1.412   0.499   5.867
 3549TIP3   OH210610   4.812   2.492   5.639
 3549TIP3    H110611   4.807   2.481   5.734
 3549TIP3    H210612   4.802   2.403   5.604
 3550TIP3   OH210613   1.016   6.641   5.740
 3550TIP3    H110614   1.062   6.558   5.728
 3550TIP3    H210615   0.935   6.618   5.785
 3551TIP3   OH210616   1.519   6.764   5.295
 3551TIP3    H110617   1.557   6.776   5.381
 3551TIP3    H210618   1.498   6.671   5.290
 3552TIP3   OH210619   3.365   1.418   2.363
 3552TIP3    H110620   3.415   1.336   2.361
 3552TIP3    H210621   3.281   1.396   2.322
 3553TIP3   OH210622   5.405   4.697   2.091
 3553TIP3    H110623   5.487   4.738   2.119
 3553TIP3    H210624   5.381   4.744   2.011
 3554TIP3   OH210625   1.754   5.628   3.358
 3554TIP3    H110626   1.773   5.722   3.355
 3554TIP3    H210627   1.682   5.620   3.421
 3555TIP3   OH210628   2.629   2.953   5.591
 3555TIP3    H110629   2.545   2.937   5.635
 3555TIP3    H210630   2.664   3.031   5.634
 3556TIP3   OH210631   3.128   2.734   4.642
 3556TIP3    H110632   3.222   2.755   4.641
 3556TIP3    H210633   3.099   2.763   4.729
 3557TIP3   OH210634   0.473   2.561   2.405
 3557TIP3    H110635   0.516   2.477   2.392
 3557TIP3    H210636   0.414   2.548   2.479
 3558TIP3   OH210637   0.658   2.816   0.105
 3558TIP3    H110638   0.752   2.837   0.110
 3558TIP3    H210639   0.640   2.768   0.185
 3559TIP3   OH210640   6.381   5.562   5.847
 3559TIP3    H110641   6.413   5.632   5.791
 3559TIP3    H210642   6.299   5.534   5.806
 3560TIP3   OH210643   6.104   5.856   2.632
 3560TIP3    H110644   6.086   5.859   2.726
 3560TIP3    H210645   6.061   5.934   2.597
 3561TIP3   OH210646   2.565   3.926   1.611
 3561TIP3    H110647   2.623   3.891   1.544
 3561TIP3    H210648   2.504   3.855   1.631
 3562TIP3   OH210649   6.093   1.935   2.158
 3562TIP3    H110650   6.135   1.850   2.169
 3562TIP3    H210651   6.070   1.939   2.065
 3563TIP3   OH210652   1.761   4.371   5.745
 3563TIP3    H110653   1.695   4.331   5.801
 3563TIP3    H210654   1.814   4.297   5.714
 3564TIP3   OH210655   2.720   1.674   2.871
 3564TIP3    H110656   2.741   1.671   2.964
 3564TIP3    H210657   2.726   1.767   2.848
 3565TIP3   OH210658   5.653   4.714   3.415
 3565TIP3    H110659   5.693   4.678   3.494
 3565TIP3    H210660   5.724   4.759   3.370
 3566TIP3   OH210661   3.678   6.212   1.956
 3566TIP3    H110662   3.693   6.122   1.987
 3566TIP3    H210663   3.615   6.202   1.884
 3567TIP3   OH210664   4.968   0.461   1.796
 3567TIP3    H110665   4.998   0.376   1.825
 3567TIP3    H210666   4.894   0.442   1.738
 3568TIP3   OH210667   1.609   5.481   3.866
 3568TIP3    H110668   1.608   5.577   3.868
 3568TIP3    H210669   1.620   5.456   3.957
 3569TIP3   OH210670   4.146   4.192   3.818
 3569TIP3    H110671   4.197   4.112   3.821
 3569TIP3    H210672   4.197   4.251   3.763
 3570TIP3   OH210673   4.694   1.539   1.948
 3570TIP3    H110674   4.772   1.577   1.988
 3570TIP3    H210675   4.720   1.450   1.923
 3571TIP3   OH210676   3.121   6.714   3.934
 3571TIP3    H110677   3.060   6.789   3.937
 3571TIP3    H210678   3.170   6.721   4.016
 3572TIP3   OH210679   3.461   5.745   1.465
 3572TIP3    H110680   3.375   5.723   1.427
 3572TIP3    H210681   3.519   5.676   1.433
 3573TIP3   OH210682   0.054   0.599   5.636
 3573TIP3    H110683  -0.032   0.633   5.612
 3573TIP3    H210684   0.088   0.559   5.556
 3574TIP3   OH210685   1.073   2.782   3.210
 3574TIP3    H110686   1.167   2.790   3.228
 3574TIP3    H210687   1.068   2.724   3.134
 3575TIP3   OH210688   1.133   0.312   3.399
 3575TIP3    H110689   1.077   0.259   3.456
 3575TIP3    H210690   1.192   0.249   3.358
 3576TIP3   OH210691   1.896   5.628   5.186
 3576TIP3    H110692   1.974   5.683   5.190
 3576TIP3    H210693   1.901   5.586   5.099
 3577TIP3   OH210694   0.685   1.725   1.385
 3577TIP3    H110695   0.650   1.690   1.467
 3577TIP3    H210696   0.708   1.815   1.406
 3578TIP3   OH210697   5.366   3.994   1.802
 3578TIP3    H110698   5.277   4.000   1.835
 3578TIP3    H210699   5.388   4.083   1.775
 3579TIP3   OH210700   4.023   0.691   4.485
 3579TIP3    H110701   3.981   0.655   4.407
 3579TIP3    H210702   4.030   0.785   4.469
 3580TIP3   OH210703   1.457   1.859   1.771
 3580TIP3    H110704   1.491   1.848   1.859
 3580TIP3    H210705   1.474   1.775   1.727
 3581TIP3   OH210706   5.494   1.954   4.844
 3581TIP3    H110707   5.583   1.930   4.867
 3581TIP3    H210708   5.446   1.950   4.926
 3582TIP3   OH210709   0.010   1.121   3.754
 3582TIP3    H110710   0.065   1.191   3.716
 3582TIP3    H210711  -0.006   1.061   3.681
 3583TIP3   OH210712   0.703   6.779   3.896
 3583TIP3    H110713   0.769   6.719   3.931
 3583TIP3    H210714   0.622   6.727   3.894
 3584TIP3   OH210715   4.834   1.194   0.519
 3584TIP3    H110716   4.775   1.135   0.567
 3584TIP3    H210717   4.918   1.186   0.564
 3585TIP3   OH210718   4.340   2.435   5.167
 3585TIP3    H110719   4.434   2.438   5.184
 3585TIP3    H210720   4.333   2.416   5.074
 3586TIP3   OH210721   1.307   1.473   0.885
 3586TIP3    H110722   1.234   1.452   0.943
 3586TIP3    H210723   1.363   1.530   0.938
 3587TIP3   OH210724   3.336   1.714   4.181
 3587TIP3    H110725   3.280   1.743   4.109
 3587TIP3    H210726   3.280   1.717   4.258
 3588TIP3   OH210727   1.924   6.535   0.783
 3588TIP3    H110728   1.834   6.505   0.792
 3588TIP3    H210729   1.975   6.474   0.836
 3589TIP3   OH210730   0.031   4.340   1.504
 3589TIP3    H110731   0.108   4.295   1.539
 3589TIP3    H210732  -0.017   4.271   1.457
 3590TIP3   OH210733   5.469   4.525   4.974
 3590TIP3    H110734   5.545   4.525   5.032
 3590TIP3    H210735   5.397   4.494   5.029
 3591TIP3   OH210736   7.211   4.108   1.383
 3591TIP3    H110737   7.229   4.147   1.298
 3591TIP3    H210738   7.213   4.014   1.368
 3592TIP3   OH210739   0.611   2.756   3.051
 3592TIP3    H110740   0.666   2.678   3.064
 3592TIP3    H210741   0.528   2.734   3.094
 3593TIP3   OH210742   0.960   4.378   3.555
 3593TIP3    H110743   0.907   4.457   3.543
 3593TIP3    H210744   1.017   4.375   3.479
 3594TIP3   OH210745   5.077   1.711   0.792
 3594TIP3    H110746   5.079   1.668   0.878
 3594TIP3    H210747   5.013   1.661   0.742
 3595TIP3   OH210748   2.924   6.192   0.417
 3595TIP3    H110749   2.984   6.265   0.435
 3595TIP3    H210750   2.865   6.226   0.350
 3596TIP3   OH210751   2.703   1.329   5.053
 3596TIP3    H110752   2.657   1.249   5.027
 3596TIP3    H210753   2.790   1.300   5.081
 3597TIP3   OH210754   5.179   1.831   5.485
 3597TIP3    H110755   5.268   1.806   5.509
 3597TIP3    H210756   5.152   1.892   5.554
 3598TIP3   OH210757   6.489   1.992   0.598
 3598TIP3    H110758   6.567   2.037   0.566
 3598TIP3    H210759   6.509   1.899   0.588
 3599TIP3   OH210760   0.894   6.525   4.387
 3599TIP3    H110761   0.956   6.473   4.336
 3599TIP3    H210762   0.824   6.464   4.410
 3600TIP3   OH210763   2.602   0.371   3.991
 3600TIP3    H110764   2.571   0.357   4.080
 3600TIP3    H210765   2.667   0.441   3.999
 3601TIP3   OH210766   5.225   4.728   1.133
 3601TIP3    H110767   5.246   4.724   1.226
 3601TIP3    H210768   5.161   4.658   1.120
 3602TIP3   OH210769   5.421   6.430   1.602
 3602TIP3    H110770   5.366   6.352   1.591
 3602TIP3    H210771   5.401   6.484   1.525
 3603TIP3   OH210772   3.760   0.134   2.721
 3603TIP3    H110773   3.745   0.145   2.815
 3603TIP3    H210774   3.688   0.078   2.692
 3604TIP3   OH210775   0.134   4.978   0.453
 3604TIP3    H110776   0.176   4.894   0.472
 3604TIP3    H210777   0.055   4.978   0.507
 3605TIP3   OH210778   0.254   1.221   0.467
 3605TIP3    H110779   0.210   1.143   0.435
 3605TIP3    H210780   0.227   1.291   0.407
 3606TIP3   OH210781   5.592   0.405   4.890
 3606TIP3    H110782   5.569   0.489   4.930
 3606TIP3    H210783   5.544   0.340   4.941
 3607TIP3   OH210784   1.714   4.555   0.113
 3607TIP3    H110785   1.671   4.608   0.046
 3607TIP3    H210786   1.803   4.589   0.118
 3608TIP3   OH210787   2.458   4.406   1.276
 3608TIP3    H110788   2.430   4.437   1.362
 3608TIP3    H210789   2.544   4.446   1.263
 3609TIP3   OH210790   3.430   3.962   5.190
 3609TIP3    H110791   3.404   3.925   5.106
 3609TIP3    H210792   3.472   4.045   5.168
 3610TIP3   OH210793   2.329   0.358   3.300
 3610TIP3    H110794   2.369   0.271   3.293
 3610TIP3    H210795   2.302   0.364   3.392
 3611TIP3   OH210796   4.088   3.479   2.750
 3611TIP3    H110797   4.157   3.444   2.693
 3611TIP3    H210798   4.084   3.572   2.727
 3612TIP3   OH210799   0.357   3.661   5.472
 3612TIP3    H110800   0.306   3.658   5.391
 3612TIP3    H210801   0.319   3.593   5.527
 3613TIP3   OH210802   1.530   2.437   5.442
 3613TIP3    H110803   1.478   2.412   5.519
 3613TIP3    H210804   1.516   2.531   5.433
 3614TIP3   OH210805   3.617   3.662   2.466
 3614TIP3    H110806   3.595   3.587   2.522
 3614TIP3    H210807   3.666   3.624   2.394
 3615TIP3   OH210808   5.185   3.141   1.088
 3615TIP3    H110809   5.242   3.104   1.021
 3615TIP3    H210810   5.191   3.236   1.075
 3616TIP3   OH210811   1.839   4.068   3.439
 3616TIP3    H110812   1.923   4.112   3.453
 3616TIP3    H210813   1.787   4.131   3.389
 3617TIP3   OH210814   6.201   0.528   4.193
 3617TIP3    H110815   6.236   0.445   4.223
 3617TIP3    H210816   6.212   0.526   4.098
 3618TIP3   OH210817   5.225   0.706   3.486
 3618TIP3    H110818   5.255   0.718   3.576
 3618TIP3    H210819   5.133   0.733   3.488
 3619TIP3   OH210820   1.331   3.637   1.686
 3619TIP3    H110821   1.287   3.697   1.626
 3619TIP3    H210822   1.267   3.568   1.704
 3620TIP3   OH210823   3.204   2.439   5.514
 3620TIP3    H110824   3.256   2.369   5.475
 3620TIP3    H210825   3.177   2.493   5.439
 3621TIP3   OH210826   2.152   4.386   3.775
 3621TIP3    H110827   2.118   4.335   3.702
 3621TIP3    H210828   2.202   4.322   3.827
 3622TIP3   OH210829   3.358   2.377   5.800
 3622TIP3    H110830   3.431   2.314   5.795
 3622TIP3    H210831   3.305   2.346   5.873
 3623TIP3   OH210832   6.508   4.601   5.587
 3623TIP3    H110833   6.561   4.522   5.582
 3623TIP3    H210834   6.446   4.585   5.658
 3624TIP3   OH210835   0.511   5.861   0.125
 3624TIP3    H110836   0.581   5.921   0.098
 3624TIP3    H210837   0.431   5.912   0.115
 3625TIP3   OH210838   2.334   1.161   0.339
 3625TIP3    H110839   2.278   1.089   0.308
 3625TIP3    H210840   2.329   1.156   0.434
 3626TIP3   OH210841   4.974   5.863   4.719
 3626TIP3    H110842   4.956   5.771   4.740
 3626TIP3    H210843   5.031   5.893   4.790
 3627TIP3   OH210844   0.655   3.187   4.787
 3627TIP3    H110845   0.604   3.259   4.825
 3627TIP3    H210846   0.656   3.206   4.693
 3628TIP3   OH210847   1.237   3.331   0.814
 3628TIP3    H110848   1.279   3.245   0.824
 3628TIP3    H210849   1.290   3.377   0.749
 3629TIP3   OH210850   2.264   5.609   4.701
 3629TIP3    H110851   2.271   5.593   4.607
 3629TIP3    H210852   2.352   5.638   4.727
 3630TIP3   OH210853   4.598   4.722   2.096
 3630TIP3    H110854   4.664   4.661   2.127
 3630TIP3    H210855   4.524   4.709   2.155
 3631TIP3   OH210856   6.341   5.171   3.592
 3631TIP3    H110857   6.365   5.127   3.511
 3631TIP3    H210858   6.309   5.257   3.565
 3632TIP3   OH210859   6.255   1.482   3.288
 3632TIP3    H110860   6.231   1.417   3.221
 3632TIP3    H210861   6.182   1.480   3.351
 3633TIP3   OH210862   0.872   4.259   2.722
 3633TIP3    H110863   0.864   4.331   2.659
 3633TIP3    H210864   0.927   4.194   2.677
 3634TIP3   OH210865   0.988   3.328   1.035
 3634TIP3    H110866   1.061   3.390   1.042
 3634TIP3    H210867   0.910   3.383   1.031
 3635TIP3   OH210868   6.315   2.170   0.470
 3635TIP3    H110869   6.375   2.227   0.421
 3635TIP3    H210870   6.371   2.106   0.513
 3636TIP3   OH210871   3.593   1.710   2.364
 3636TIP3    H110872   3.606   1.644   2.432
 3636TIP3    H210873   3.510   1.687   2.323
 3637TIP3   OH210874   2.887   3.483   3.222
 3637TIP3    H110875   2.876   3.569   3.263
 3637TIP3    H210876   2.942   3.435   3.283
 3638TIP3   OH210877   3.459   6.352   2.581
 3638TIP3    H110878   3.487   6.265   2.611
 3638TIP3    H210879   3.518   6.413   2.626
 3639TIP3   OH210880   6.560   3.834   1.939
 3639TIP3    H110881   6.517   3.798   2.017
 3639TIP3    H210882   6.533   3.776   1.868
 3640TIP3   OH210883   2.562   2.650   2.922
 3640TIP3    H110884   2.519   2.648   3.007
 3640TIP3    H210885   2.653   2.672   2.942
 3641TIP3   OH210886   7.238   2.446   5.771
 3641TIP3    H110887   7.286   2.388   5.711
 3641TIP3    H210888   7.216   2.523   5.718
 3642TIP3   OH210889   1.950   6.741   2.390
 3642TIP3    H110890   2.032   6.781   2.418
 3642TIP3    H210891   1.932   6.674   2.457
 3643TIP3   OH210892   2.304   5.831   3.614
 3643TIP3    H110893   2.360   5.758   3.638
 3643TIP3    H210894   2.321   5.898   3.681
 3644TIP3   OH210895   3.089   6.782   0.641
 3644TIP3    H110896   3.023   6.803   0.706
 3644TIP3    H210897   3.163   6.749   0.691
 3645TIP3   OH210898   3.094   4.695   2.677
 3645TIP3    H110899   3.006   4.726   2.656
 3645TIP3    H210900   3.125   4.755   2.745
 3646TIP3   OH210901   2.231   0.876   0.374
 3646TIP3    H110902   2.210   0.907   0.286
 3646TIP3    H210903   2.326   0.877   0.378
 3647TIP3   OH210904   1.665   5.480   2.407
 3647TIP3    H110905   1.693   5.392   2.429
 3647TIP3    H210906   1.570   5.474   2.394
 3648TIP3   OH210907   6.835   3.051   4.850
 3648TIP3    H110908   6.768   3.010   4.905
 3648TIP3    H210909   6.797   3.134   4.823
 3649TIP3   OH210910   6.057   1.248   3.789
 3649TIP3    H110911   6.050   1.275   3.881
 3649TIP3    H210912   5.972   1.271   3.751
 3650TIP3   OH210913   4.940   0.727   3.362
 3650TIP3    H110914   4.848   0.755   3.361
 3650TIP3    H210915   4.936   0.633   3.382
 3651TIP3   OH210916   4.149   4.535   0.614
 3651TIP3    H110917   4.145   4.564   0.705
 3651TIP3    H210918   4.241   4.519   0.597
 3652TIP3   OH210919   6.219   5.118   5.001
 3652TIP3    H110920   6.265   5.188   4.955
 3652TIP3    H210921   6.240   5.039   4.950
 3653TIP3   OH210922   0.710   5.236   0.529
 3653TIP3    H110923   0.665   5.188   0.599
 3653TIP3    H210924   0.658   5.217   0.450
 3654TIP3   OH210925   4.573   1.919   4.790
 3654TIP3    H110926   4.492   1.970   4.789
 3654TIP3    H210927   4.572   1.876   4.876
 3655TIP3   OH210928   3.771   6.321   3.293
 3655TIP3    H110929   3.847   6.264   3.291
 3655TIP3    H210930   3.713   6.282   3.359
 3656TIP3   OH210931   6.729   6.388   3.213
 3656TIP3    H110932   6.822   6.384   3.233
 3656TIP3    H210933   6.721   6.458   3.149
 3657TIP3   OH210934   5.482   0.892   5.435
 3657TIP3    H110935   5.436   0.861   5.357
 3657TIP3    H210936   5.574   0.873   5.418
 3658TIP3   OH210937   5.123   1.611   5.889
 3658TIP3    H110938   5.162   1.697   5.906
 3658TIP3    H210939   5.188   1.549   5.920
 3659TIP3   OH210940   2.914   2.874   0.551
 3659TIP3    H110941   2.986   2.909   0.604
 3659TIP3    H210942   2.946   2.788   0.522
 3660TIP3   OH210943   3.122   0.367   1.947
 3660TIP3    H110944   3.081   0.421   1.880
 3660TIP3    H210945   3.215   0.388   1.940
 3661TIP3   OH210946   4.868   3.644   5.339
 3661TIP3    H110947   4.902   3.668   5.253
 3661TIP3    H210948   4.893   3.553   5.351
 3662TIP3   OH210949   2.476   5.912   1.078
 3662TIP3    H110950   2.439   5.850   1.141
 3662TIP3    H210951   2.571   5.898   1.085
 3663TIP3   OH210952   3.695   1.431   4.386
 3663TIP3    H110953   3.610   1.451   4.424
 3663TIP3    H210954   3.738   1.516   4.375
 3664TIP3   OH210955   5.622   3.143  -0.008
 3664TIP3    H110956   5.606   3.055   0.024
 3664TIP3    H210957   5.536   3.184  -0.012
 3665TIP3   OH210958   4.613   6.373   0.816
 3665TIP3    H110959   4.524   6.370   0.780
 3665TIP3    H210960   4.634   6.281   0.833
 3666TIP3   OH210961   6.532   5.965   1.102
 3666TIP3    H110962   6.550   5.876   1.131
 3666TIP3    H210963   6.619   6.006   1.096
 3667TIP3   OH210964   0.028   1.723   0.730
 3667TIP3    H110965  -0.019   1.754   0.808
 3667TIP3    H210966   0.027   1.627   0.739
 3668TIP3   OH210967   2.040   1.557   5.089
 3668TIP3    H110968   1.999   1.526   5.170
 3668TIP3    H210969   2.062   1.478   5.041
 3669TIP3   OH210970   3.119   1.325   0.912
 3669TIP3    H110971   3.086   1.254   0.966
 3669TIP3    H210972   3.045   1.385   0.903
 3670TIP3   OH210973   4.249   2.742   2.701
 3670TIP3    H110974   4.251   2.837   2.712
 3670TIP3    H210975   4.325   2.723   2.646
 3671TIP3   OH210976   1.757   5.038   3.551
 3671TIP3    H110977   1.818   5.028   3.624
 3671TIP3    H210978   1.761   4.954   3.505
 3672TIP3   OH210979   2.331   4.364   0.333
 3672TIP3    H110980   2.309   4.410   0.414
 3672TIP3    H210981   2.298   4.275   0.347
 3673TIP3   OH210982   5.861   1.906   2.624
 3673TIP3    H110983   5.943   1.858   2.613
 3673TIP3    H210984   5.885   1.986   2.671
 3674TIP3   OH210985   1.266   6.574   0.682
 3674TIP3    H110986   1.278   6.494   0.630
 3674TIP3    H210987   1.222   6.544   0.762
 3675TIP3   OH210988   4.136   0.194   4.538
 3675TIP3    H110989   4.193   0.271   4.538
 3675TIP3    H210990   4.195   0.120   4.522
 3676TIP3   OH210991   0.242   2.948   0.871
 3676TIP3    H110992   0.161   2.951   0.821
 3676TIP3    H210993   0.233   3.018   0.936
 3677TIP3   OH210994   2.045   3.379   4.314
 3677TIP3    H110995   1.961   3.414   4.344
 3677TIP3    H210996   2.106   3.397   4.385
 3678TIP3   OH210997   0.391   5.212   1.397
 3678TIP3    H110998   0.428   5.300   1.401
 3678TIP3    H210999   0.346   5.201   1.481
 3679TIP3   OH211000   5.134   5.298   1.317
 3679TIP3    H111001   5.047   5.264   1.295
 3679TIP3    H211002   5.129   5.319   1.410
 3680TIP3   OH211003   3.839   0.403   2.781
 3680TIP3    H111004   3.802   0.323   2.744
 3680TIP3    H211005   3.934   0.390   2.777
 3681TIP3   OH211006   2.142   1.765   0.164
 3681TIP3    H111007   2.075   1.698   0.148
 3681TIP3    H211008   2.094   1.837   0.205
 3682TIP3   OH211009   0.824   4.305   4.417
 3682TIP3    H111010   0.803   4.398   4.410
 3682TIP3    H211011   0.742   4.260   4.402
 3683TIP3   OH211012   2.821   0.296   1.393
 3683TIP3    H111013   2.785   0.241   1.463
 3683TIP3    H211014   2.890   0.242   1.354
 3684TIP3   OH211015   4.246   4.675   4.325
 3684TIP3    H111016   4.209   4.738   4.263
 3684TIP3    H211017   4.228   4.590   4.285
 3685TIP3   OH211018   3.292   1.331   5.492
 3685TIP3    H111019   3.234   1.346   5.567
 3685TIP3    H211020   3.275   1.240   5.467
 3686TIP3   OH211021   6.791   6.382   0.078
 3686TIP3    H111022   6.749   6.297   0.094
 3686TIP3    H211023   6.729   6.430   0.024
 3687TIP3   OH211024   4.837   4.213   2.324
 3687TIP3    H111025   4.841   4.131   2.373
 3687TIP3    H211026   4.812   4.278   2.390
 3688TIP3   OH211027   3.297   2.034   1.059
 3688TIP3    H111028   3.353   1.988   1.122
 3688TIP3    H211029   3.234   1.968   1.029
 3689TIP3   OH211030   3.419   5.619   4.132
 3689TIP3    H111031   3.438   5.663   4.049
 3689TIP3    H211032   3.388   5.532   4.107
 3690TIP3   OH211033   1.822   3.775   5.724
 3690TIP3    H111034   1.865   3.842   5.778
 3690TIP3    H211035   1.739   3.816   5.698
 3691TIP3   OH211036   3.220   3.277   3.577
 3691TIP3    H111037   3.154   3.252   3.642
 3691TIP3    H211038   3.171   3.286   3.495
 3692TIP3   OH211039   6.931   2.928   1.122
 3692TIP3    H111040   6.994   2.879   1.174
 3692TIP3    H211041   6.980   3.006   1.093
 3693TIP3   OH211042   6.263   3.361   5.353
 3693TIP3    H111043   6.258   3.281   5.301
 3693TIP3    H211044   6.313   3.335   5.431
 3694TIP3   OH211045   5.797   4.915   0.183
 3694TIP3    H111046   5.823   4.988   0.240
 3694TIP3    H211047   5.793   4.839   0.242
 3695TIP3   OH211048   2.600   4.687   4.276
 3695TIP3    H111049   2.524   4.664   4.224
 3695TIP3    H211050   2.585   4.645   4.361
 3696TIP3   OH211051   4.636   2.893   5.859
 3696TIP3    H111052   4.551   2.907   5.901
 3696TIP3    H211053   4.695   2.875   5.932
 3697TIP3   OH211054   4.951   6.366   3.717
 3697TIP3    H111055   4.972   6.459   3.720
 3697TIP3    H211056   4.943   6.347   3.623
 3698TIP3   OH211057   6.359   1.362   5.497
 3698TIP3    H111058   6.296   1.323   5.557
 3698TIP3    H211059   6.359   1.304   5.421
 3699TIP3   OH211060   0.592   0.538   0.820
 3699TIP3    H111061   0.656   0.604   0.849
 3699TIP3    H211062   0.577   0.484   0.898
 3700TIP3   OH211063   4.663   2.727   5.011
 3700TIP3    H111064   4.665   2.731   5.107
 3700TIP3    H211065   4.590   2.669   4.991
 3701TIP3   OH211066   4.282   2.359   3.873
 3701TIP3    H111067   4.317   2.406   3.798
 3701TIP3    H211068   4.296   2.266   3.852
 3702TIP3   OH211069   0.857   6.188   3.836
 3702TIP3    H111070   0.946   6.204   3.866
 3702TIP3    H211071   0.811   6.155   3.913
 3703TIP3   OH211072   1.516   6.375   5.571
 3703TIP3    H111073   1.552   6.462   5.555
 3703TIP3    H211074   1.585   6.314   5.544
 3704TIP3   OH211075   0.460   3.573   4.424
 3704TIP3    H111076   0.378   3.567   4.473
 3704TIP3    H211077   0.527   3.541   4.485
 3705TIP3   OH211078   2.407   4.076   0.400
 3705TIP3    H111079   2.317   4.068   0.432
 3705TIP3    H211080   2.446   4.142   0.456
 3706TIP3   OH211081   4.937   0.047   3.385
 3706TIP3    H111082   4.894   0.131   3.370
 3706TIP3    H211083   5.024   0.057   3.347
 3707TIP3   OH211084   0.060   1.326   4.080
 3707TIP3    H111085  -0.030   1.302   4.104
 3707TIP3    H211086   0.110   1.313   4.160
 3708TIP3   OH211087   3.292   5.078   0.861
 3708TIP3    H111088   3.337   5.134   0.924
 3708TIP3    H211089   3.357   5.061   0.793
 3709TIP3   OH211090   0.488   0.276   4.803
 3709TIP3    H111091   0.499   0.371   4.798
 3709TIP3    H211092   0.464   0.249   4.715
 3710TIP3   OH211093   1.664   6.631   5.563
 3710TIP3    H111094   1.666   6.709   5.508
 3710TIP3    H211095   1.712   6.656   5.642
 3711TIP3   OH211096   5.524   2.499   1.205
 3711TIP3    H111097   5.484   2.415   1.180
 3711TIP3    H211098   5.460   2.539   1.264
 3712TIP3   OH211099   6.434   6.023   3.961
 3712TIP3    H111100   6.389   6.040   4.043
 3712TIP3    H211101   6.436   5.927   3.953
 3713TIP3   OH211102   5.322   4.289   1.911
 3713TIP3    H111103   5.262   4.341   1.857
 3713TIP3    H211104   5.402   4.341   1.917
 3714TIP3   OH211105   2.515   6.194   0.630
 3714TIP3    H111106   2.450   6.245   0.582
 3714TIP3    H211107   2.471   6.112   0.651
 3715TIP3   OH211108   4.962   1.838   5.252
 3715TIP3    H111109   5.041   1.793   5.219
 3715TIP3    H211110   4.987   1.870   5.339
 3716TIP3   OH211111   2.399   3.607   4.571
 3716TIP3    H111112   2.434   3.642   4.488
 3716TIP3    H211113   2.476   3.591   4.624
 3717TIP3   OH211114   3.968   2.760   2.438
 3717TIP3    H111115   3.951   2.673   2.473
 3717TIP3    H211116   3.882   2.793   2.412
 3718TIP3   OH211117   5.422   1.821   3.895
 3718TIP3    H111118   5.457   1.733   3.883
 3718TIP3    H211119   5.332   1.816   3.862
 3719TIP3   OH211120   4.778   1.103   3.033
 3719TIP3    H111121   4.840   1.163   2.991
 3719TIP3    H211122   4.802   1.104   3.125
 3720TIP3   OH211123   3.467   2.709   4.463
 3720TIP3    H111124   3.452   2.736   4.372
 3720TIP3    H211125   3.454   2.614   4.462
 3721TIP3   OH211126   2.940   4.721   5.501
 3721TIP3    H111127   2.999   4.786   5.539
 3721TIP3    H211128   2.869   4.772   5.462
 3722TIP3   OH211129   3.392   3.840   0.768
 3722TIP3    H111130   3.447   3.885   0.704
 3722TIP3    H211131   3.303   3.849   0.735
 3723TIP3   OH211132   5.059   3.137   4.723
 3723TIP3    H111133   5.008   3.148   4.642
 3723TIP3    H211134   5.020   3.200   4.784
 3724TIP3   OH211135   5.511   1.707   0.308
 3724TIP3    H111136   5.447   1.770   0.342
 3724TIP3    H211137   5.465   1.623   0.313
 3725TIP3   OH211138   2.527   3.000   3.015
 3725TIP3    H111139   2.566   3.057   2.949
 3725TIP3    H211140   2.452   3.049   3.048
 3726TIP3   OH211141   1.766   2.844   5.542
 3726TIP3    H111142   1.815   2.857   5.461
 3726TIP3    H211143   1.738   2.932   5.568
 3727TIP3   OH211144   2.694   6.288   0.814
 3727TIP3    H111145   2.690   6.365   0.757
 3727TIP3    H211146   2.651   6.219   0.764
 3728TIP3   OH211147   5.793   2.273   1.022
 3728TIP3    H111148   5.765   2.273   1.113
 3728TIP3    H211149   5.721   2.231   0.974
 3729TIP3   OH211150   5.072   3.127   5.519
 3729TIP3    H111151   5.110   3.143   5.433
 3729TIP3    H211152   5.069   3.032   5.527
 3730TIP3   OH211153   3.370   3.776   3.739
 3730TIP3    H111154   3.314   3.835   3.790
 3730TIP3    H211155   3.378   3.698   3.792
 3731TIP3   OH211156   2.267   3.811   1.833
 3731TIP3    H111157   2.242   3.883   1.775
 3731TIP3    H211158   2.217   3.736   1.801
 3732TIP3   OH211159   1.012   4.484   4.101
 3732TIP3    H111160   1.094   4.529   4.123
 3732TIP3    H211161   1.012   4.480   4.006
 3733TIP3   OH211162   3.669   6.187   0.576
 3733TIP3    H111163   3.715   6.271   0.567
 3733TIP3    H211164   3.579   6.206   0.550
 3734TIP3   OH211165   1.841   1.089   5.185
 3734TIP3    H111166   1.928   1.127   5.191
 3734TIP3    H211167   1.855   0.995   5.181
 3735TIP3   OH211168   1.415   2.928   5.296
 3735TIP3    H111169   1.359   2.955   5.223
 3735TIP3    H211170   1.354   2.899   5.364
 3736TIP3   OH211171   5.273   2.582   2.609
 3736TIP3    H111172   5.257   2.665   2.654
 3736TIP3    H211173   5.233   2.593   2.523
 3737TIP3   OH211174   1.487   2.099   1.642
 3737TIP3    H111175   1.470   2.174   1.699
 3737TIP3    H211176   1.470   2.022   1.697
 3738TIP3   OH211177   5.379   1.542   5.299
 3738TIP3    H111178   5.448   1.531   5.365
 3738TIP3    H211179   5.301   1.502   5.338
 3739TIP3   OH211180   4.067   2.144   5.720
 3739TIP3    H111181   3.977   2.177   5.722
 3739TIP3    H211182   4.106   2.187   5.644
 3740TIP3   OH211183   4.746   1.741   3.580
 3740TIP3    H111184   4.813   1.674   3.564
 3740TIP3    H211185   4.792   1.810   3.629
 3741TIP3   OH211186   4.156   3.985   2.540
 3741TIP3    H111187   4.195   3.975   2.454
 3741TIP3    H211188   4.064   3.962   2.528
 3742TIP3   OH211189   2.724   3.799   1.190
 3742TIP3    H111190   2.655   3.783   1.253
 3742TIP3    H211191   2.801   3.818   1.243
 3743TIP3   OH211192   3.006   3.685   0.260
 3743TIP3    H111193   3.096   3.675   0.230
 3743TIP3    H211194   2.956   3.620   0.210
 3744TIP3   OH211195   3.990   5.516   3.109
 3744TIP3    H111196   3.895   5.511   3.110
 3744TIP3    H211197   4.016   5.486   3.022
 3745TIP3   OH211198   0.774   3.530   5.672
 3745TIP3    H111199   0.721   3.488   5.605
 3745TIP3    H211200   0.852   3.475   5.680
 3746TIP3   OH211201   0.972   1.456   4.887
 3746TIP3    H111202   0.954   1.550   4.881
 3746TIP3    H211203   0.888   1.417   4.910
 3747TIP3   OH211204   0.799   3.751   5.476
 3747TIP3    H111205   0.800   3.708   5.390
 3747TIP3    H211206   0.797   3.679   5.539
 3748TIP3   OH211207   6.465   0.839   0.160
 3748TIP3    H111208   6.529   0.822   0.229
 3748TIP3    H211209   6.440   0.931   0.172
 3749TIP3   OH211210   4.700   4.922   1.692
 3749TIP3    H111211   4.674   4.973   1.769
 3749TIP3    H211212   4.751   4.983   1.639
 3750TIP3   OH211213   4.930   5.241   1.146
 3750TIP3    H111214   4.997   5.185   1.107
 3750TIP3    H211215   4.911   5.306   1.078
 3751TIP3   OH211216   2.175   4.711   4.787
 3751TIP3    H111217   2.184   4.695   4.881
 3751TIP3    H211218   2.241   4.778   4.768
 3752TIP3   OH211219   5.130   2.924   1.245
 3752TIP3    H111220   5.043   2.940   1.282
 3752TIP3    H211221   5.147   3.000   1.189
 3753TIP3   OH211222   1.324   3.110   2.354
 3753TIP3    H111223   1.419   3.124   2.357
 3753TIP3    H211224   1.287   3.196   2.336
 3754TIP3   OH211225   0.529   2.948   3.303
 3754TIP3    H111226   0.446   2.964   3.257
 3754TIP3    H211227   0.578   3.029   3.292
 3755TIP3   OH211228   0.830   5.586   4.628
 3755TIP3    H111229   0.759   5.648   4.641
 3755TIP3    H211230   0.895   5.611   4.694
 3756TIP3   OH211231   2.103   3.619   0.293
 3756TIP3    H111232   2.058   3.549   0.245
 3756TIP3    H211233   2.040   3.647   0.359
 3757TIP3   OH211234   5.062   3.351   1.609
 3757TIP3    H111235   5.012   3.433   1.604
 3757TIP3    H211236   5.094   3.336   1.521
 3758TIP3   OH211237   6.450   0.449   3.066
 3758TIP3    H111238   6.386   0.379   3.052
 3758TIP3    H211239   6.523   0.406   3.111
 3759TIP3   OH211240   2.905   5.176   4.694
 3759TIP3    H111241   2.996   5.148   4.679
 3759TIP3    H211242   2.912   5.242   4.763
 3760TIP3   OH211243   6.996   4.211   2.052
 3760TIP3    H111244   7.033   4.278   1.995
 3760TIP3    H211245   7.069   4.151   2.070
 3761TIP3   OH211246   5.030   6.336   1.009
 3761TIP3    H111247   4.997   6.344   0.920
 3761TIP3    H211248   4.956   6.301   1.059
 3762TIP3   OH211249   0.425   0.537   3.710
 3762TIP3    H111250   0.489   0.511   3.776
 3762TIP3    H211251   0.469   0.606   3.659
 3763TIP3   OH211252   4.592   0.516   5.507
 3763TIP3    H111253   4.624   0.606   5.509
 3763TIP3    H211254   4.517   0.519   5.448
 3764TIP3   OH211255   0.574   2.993   4.985
 3764TIP3    H111256   0.616   3.046   4.918
 3764TIP3    H211257   0.641   2.930   5.012
 3765TIP3   OH211258   5.397   4.980   3.325
 3765TIP3    H111259   5.381   4.890   3.295
 3765TIP3    H211260   5.422   4.970   3.417
 3766TIP3   OH211261   0.056   4.702   1.764
 3766TIP3    H111262  -0.003   4.689   1.690
 3766TIP3    H211263   0.085   4.613   1.787
 3767TIP3   OH211264   3.736   0.230   3.416
 3767TIP3    H111265   3.658   0.275   3.383
 3767TIP3    H211266   3.806   0.258   3.356
 3768TIP3   OH211267   6.468   2.400   2.115
 3768TIP3    H111268   6.412   2.477   2.108
 3768TIP3    H211269   6.411   2.326   2.094
 3769TIP3   OH211270   4.921   1.020   1.092
 3769TIP3    H111271   4.857   0.988   1.156
 3769TIP3    H211272   5.005   1.014   1.138
 3770TIP3   OH211273  -0.005   3.392   0.612
 3770TIP3    H111274   0.043   3.316   0.580
 3770TIP3    H211275   0.042   3.468   0.576
 3771TIP3   OH211276   1.324   5.788   5.836
 3771TIP3    H111277   1.292   5.743   5.758
 3771TIP3    H211278   1.302   5.880   5.823
 3772TIP3   OH211279   5.604   1.365   4.296
 3772TIP3    H111280   5.550   1.328   4.366
 3772TIP3    H211281   5.543   1.412   4.240
 3773TIP3   OH211282   7.035   2.437   4.898
 3773TIP3    H111283   7.025   2.509   4.960
 3773TIP3    H211284   7.128   2.414   4.902
 3774TIP3   OH211285   7.058   1.847   3.402
 3774TIP3    H111286   7.000   1.859   3.478
 3774TIP3    H211287   7.022   1.904   3.335
 3775TIP3   OH211288   0.322   6.776   0.181
 3775TIP3    H111289   0.405   6.734   0.160
 3775TIP3    H211290   0.347   6.863   0.213
 3776TIP3   OH211291   3.737   1.210   2.780
 3776TIP3    H111292   3.649   1.227   2.748
 3776TIP3    H211293   3.744   1.115   2.784
 3777TIP3   OH211294   1.532   5.487   1.555
 3777TIP3    H111295   1.590   5.509   1.628
 3777TIP3    H211296   1.470   5.560   1.551
 3778TIP3   OH211297   2.219   4.060   1.693
 3778TIP3    H111298   2.260   4.045   1.608
 3778TIP3    H211299   2.125   4.065   1.673
 3779TIP3   OH211300   1.793   2.220   5.683
 3779TIP3    H111301   1.769   2.216   5.591
 3779TIP3    H211302   1.809   2.129   5.708
 3780TIP3   OH211303   5.740   1.967   3.052
 3780TIP3    H111304   5.825   1.996   3.018
 3780TIP3    H211305   5.688   1.947   2.973
 3781TIP3   OH211306   1.211   0.483   1.342
 3781TIP3    H111307   1.296   0.474   1.298
 3781TIP3    H211308   1.229   0.535   1.420
 3782TIP3   OH211309   6.503   1.220   1.625
 3782TIP3    H111310   6.499   1.220   1.530
 3782TIP3    H211311   6.514   1.127   1.648
 3783TIP3   OH211312   2.856   5.633   5.627
 3783TIP3    H111313   2.790   5.661   5.563
 3783TIP3    H211314   2.811   5.639   5.711
 3784TIP3   OH211315   6.196   2.934   1.320
 3784TIP3    H111316   6.164   2.857   1.367
 3784TIP3    H211317   6.118   2.969   1.276
 3785TIP3   OH211318   5.073   5.890   4.955
 3785TIP3    H111319   5.016   5.852   5.022
 3785TIP3    H211320   5.136   5.821   4.936
 3786TIP3   OH211321   3.759   5.404   2.562
 3786TIP3    H111322   3.786   5.465   2.630
 3786TIP3    H211323   3.841   5.369   2.527
 3787TIP3   OH211324   6.243   6.255   2.658
 3787TIP3    H111325   6.177   6.202   2.702
 3787TIP3    H211326   6.268   6.203   2.581
 3788TIP3   OH211327   0.280   1.811   0.821
 3788TIP3    H111328   0.254   1.757   0.747
 3788TIP3    H211329   0.198   1.838   0.862
 3789TIP3   OH211330   3.176   3.051   4.396
 3789TIP3    H111331   3.262   3.073   4.430
 3789TIP3    H211332   3.188   2.964   4.356
 3790TIP3   OH211333   2.579   1.454   2.142
 3790TIP3    H111334   2.666   1.439   2.180
 3790TIP3    H211335   2.586   1.420   2.053
 3791TIP3   OH211336   0.623   1.569   0.565
 3791TIP3    H111337   0.584   1.584   0.651
 3791TIP3    H211338   0.553   1.590   0.503
 3792TIP3   OH211339   7.019   5.531   4.009
 3792TIP3    H111340   6.967   5.492   4.079
 3792TIP3    H211341   6.954   5.556   3.943
 3793TIP3   OH211342   5.873   4.476   0.657
 3793TIP3    H111343   5.836   4.556   0.620
 3793TIP3    H211344   5.965   4.497   0.671
 3794TIP3   OH211345   3.225   6.367   5.240
 3794TIP3    H111346   3.203   6.314   5.163
 3794TIP3    H211347   3.189   6.318   5.314
 3795TIP3   OH211348   3.647   3.879   3.215
 3795TIP3    H111349   3.641   3.975   3.211
 3795TIP3    H211350   3.603   3.855   3.296
 3796TIP3   OH211351   1.822   2.359   4.788
 3796TIP3    H111352   1.777   2.375   4.705
 3796TIP3    H211353   1.751   2.350   4.852
 3797TIP3   OH211354   6.353   3.647   3.395
 3797TIP3    H111355   6.388   3.634   3.483
 3797TIP3    H211356   6.336   3.559   3.362
 3798TIP3   OH211357   3.078   1.336   2.358
 3798TIP3    H111358   3.073   1.240   2.349
 3798TIP3    H211359   3.101   1.366   2.270
 3799TIP3   OH211360   1.423   1.965   4.667
 3799TIP3    H111361   1.423   2.029   4.597
 3799TIP3    H211362   1.513   1.963   4.699
 3800TIP3   OH211363   2.668   3.573   4.797
 3800TIP3    H111364   2.590   3.592   4.849
 3800TIP3    H211365   2.723   3.650   4.808
 3801TIP3   OH211366   4.368   3.988   1.892
 3801TIP3    H111367   4.402   3.966   1.979
 3801TIP3    H211368   4.440   4.037   1.851
 3802TIP3   OH211369   0.202   5.700   0.489
 3802TIP3    H111370   0.217   5.623   0.543
 3802TIP3    H211371   0.200   5.773   0.550
 3803TIP3   OH211372   2.825   5.794   2.690
 3803TIP3    H111373   2.874   5.786   2.771
 3803TIP3    H211374   2.766   5.868   2.705
 3804TIP3   OH211375   0.893   4.082   1.259
 3804TIP3    H111376   0.899   4.174   1.283
 3804TIP3    H211377   0.920   4.079   1.168
 3805TIP3   OH211378   1.899   4.729   2.387
 3805TIP3    H111379   1.911   4.696   2.298
 3805TIP3    H211380   1.932   4.660   2.444
 3806TIP3   OH211381   0.433   5.045   3.357
 3806TIP3    H111382   0.384   5.125   3.339
 3806TIP3    H211383   0.520   5.076   3.383
 3807TIP3   OH211384   3.157   6.514   4.377
 3807TIP3    H111385   3.090   6.537   4.313
 3807TIP3    H211386   3.173   6.595   4.426
 3808TIP3   OH211387   0.093   4.111   3.878
 3808TIP3    H111388   0.174   4.061   3.882
 3808TIP3    H211389   0.045   4.074   3.803
 3809TIP3   OH211390   5.083   1.130   5.226
 3809TIP3    H111391   5.071   1.188   5.301
 3809TIP3    H211392   5.062   1.042   5.259
 3810TIP3   OH211393   1.513   1.292   0.381
 3810TIP3    H111394   1.425   1.309   0.411
 3810TIP3    H211395   1.511   1.314   0.288
 3811TIP3   OH211396   4.436   4.754   0.027
 3811TIP3    H111397   4.492   4.679   0.044
 3811TIP3    H211398   4.493   4.820  -0.012
 3812TIP3   OH211399   0.928   0.996   4.081
 3812TIP3    H111400   0.858   1.016   4.142
 3812TIP3    H211401   0.932   1.071   4.022
 3813TIP3   OH211402   6.995   0.040   4.124
 3813TIP3    H111403   7.019   0.122   4.166
 3813TIP3    H211404   6.904   0.025   4.149
 3814TIP3   OH211405   5.421   5.191   5.322
 3814TIP3    H111406   5.387   5.232   5.402
 3814TIP3    H211407   5.395   5.099   5.329
 3815TIP3   OH211408   4.475   5.136   3.733
 3815TIP3    H111409   4.454   5.055   3.780
 3815TIP3    H211410   4.562   5.120   3.696
 3816TIP3   OH211411   6.044   1.064   0.166
 3816TIP3    H111412   5.955   1.097   0.151
 3816TIP3    H211413   6.039   1.021   0.252
 3817TIP3   OH211414   2.534   3.078   1.624
 3817TIP3    H111415   2.524   3.111   1.535
 3817TIP3    H211416   2.566   3.153   1.675
 3818TIP3   OH211417   6.018   3.307   3.989
 3818TIP3    H111418   6.095   3.264   4.025
 3818TIP3    H211419   5.944   3.254   4.020
 3819TIP3   OH211420   2.960   5.387   4.877
 3819TIP3    H111421   2.963   5.467   4.826
 3819TIP3    H211422   3.051   5.369   4.900
 3820TIP3   OH211423   5.627   3.963   1.995
 3820TIP3    H111424   5.540   3.982   2.032
 3820TIP3    H211425   5.681   3.941   2.071
 3821TIP3   OH211426   0.638   0.894   3.170
 3821TIP3    H111427   0.702   0.951   3.127
 3821TIP3    H211428   0.605   0.838   3.100
 3822TIP3   OH211429   1.533   5.996   1.668
 3822TIP3    H111430   1.501   6.008   1.579
 3822TIP3    H211431   1.491   6.065   1.719
 3823TIP3   OH211432   1.813   0.391   1.944
 3823TIP3    H111433   1.820   0.378   2.039
 3823TIP3    H211434   1.728   0.354   1.921
 3824TIP3   OH211435   4.005   1.844   1.506
 3824TIP3    H111436   4.008   1.937   1.529
 3824TIP3    H211437   4.032   1.799   1.586
 3825TIP3   OH211438   6.920   5.881   2.415
 3825TIP3    H111439   6.952   5.968   2.438
 3825TIP3    H211440   6.983   5.848   2.351
 3826TIP3   OH211441   4.744   0.484   3.953
 3826TIP3    H111442   4.807   0.516   4.017
 3826TIP3    H211443   4.774   0.521   3.870
 3827TIP3   OH211444   0.480   4.595   2.857
 3827TIP3    H111445   0.510   4.504   2.851
 3827TIP3    H211446   0.387   4.591   2.836
 3828TIP3   OH211447   2.156   2.678   5.068
 3828TIP3    H111448   2.150   2.613   5.138
 3828TIP3    H211449   2.088   2.652   5.005
 3829TIP3   OH211450   7.036   2.884   0.122
 3829TIP3    H111451   6.940   2.881   0.129
 3829TIP3    H211452   7.066   2.808   0.171
 3830TIP3   OH211453   2.171   1.809   3.040
 3830TIP3    H111454   2.207   1.865   3.108
 3830TIP3    H211455   2.232   1.819   2.966
 3831TIP3   OH211456   1.045   6.314   2.617
 3831TIP3    H111457   0.959   6.314   2.577
 3831TIP3    H211458   1.028   6.325   2.711
 3832TIP3   OH211459   4.963   1.260   4.997
 3832TIP3    H111460   4.998   1.222   4.916
 3832TIP3    H211461   4.992   1.200   5.066
 3833TIP3   OH211462   1.930   6.741   4.845
 3833TIP3    H111463   1.946   6.701   4.759
 3833TIP3    H211464   2.007   6.718   4.896
 3834TIP3   OH211465   0.162   5.408   5.587
 3834TIP3    H111466   0.162   5.496   5.625
 3834TIP3    H211467   0.138   5.351   5.660
 3835TIP3   OH211468   4.107   0.656   5.812
 3835TIP3    H111469   4.015   0.684   5.805
 3835TIP3    H211470   4.114   0.621   5.901
 3836TIP3   OH211471   0.736   3.900   0.620
 3836TIP3    H111472   0.732   3.864   0.531
 3836TIP3    H211473   0.773   3.987   0.609
 3837TIP3   OH211474   5.660   4.049   3.906
 3837TIP3    H111475   5.662   4.088   3.993
 3837TIP3    H211476   5.593   4.099   3.859
 3838TIP3   OH211477   2.154   0.977   1.264
 3838TIP3    H111478   2.118   1.037   1.329
 3838TIP3    H211479   2.236   1.017   1.236
 3839TIP3   OH211480   1.250   6.025   5.772
 3839TIP3    H111481   1.306   6.102   5.782
 3839TIP3    H211482   1.164   6.054   5.804
 3840TIP3   OH211483   6.261   0.534   3.909
 3840TIP3    H111484   6.230   0.616   3.870
 3840TIP3    H211485   6.230   0.466   3.849
 3841TIP3   OH211486   5.815   1.288   1.437
 3841TIP3    H111487   5.805   1.383   1.449
 3841TIP3    H211488   5.725   1.255   1.435
 3842TIP3   OH211489   4.695   2.249   3.898
 3842TIP3    H111490   4.779   2.206   3.917
 3842TIP3    H211491   4.682   2.235   3.804
 3843TIP3   OH211492   3.820   4.842   3.560
 3843TIP3    H111493   3.900   4.878   3.523
 3843TIP3    H211494   3.843   4.753   3.587
 3844TIP3   OH211495   7.160   1.446   3.867
 3844TIP3    H111496   7.071   1.416   3.884
 3844TIP3    H211497   7.211   1.413   3.941
 3845TIP3   OH211498   3.270   1.170   5.178
 3845TIP3    H111499   3.335   1.220   5.128
 3845TIP3    H211500   3.235   1.106   5.115
 3846TIP3   OH211501   2.302   2.289   2.121
 3846TIP3    H111502   2.392   2.283   2.151
 3846TIP3    H211503   2.259   2.213   2.160
 3847TIP3   OH211504   0.291   4.862   2.094
 3847TIP3    H111505   0.383   4.864   2.121
 3847TIP3    H211506   0.260   4.776   2.121
 3848TIP3   OH211507   4.594   6.430   5.777
 3848TIP3    H111508   4.658   6.360   5.793
 3848TIP3    H211509   4.583   6.471   5.863
 3849TIP3   OH211510   0.186   3.073   5.095
 3849TIP3    H111511   0.111   3.131   5.082
 3849TIP3    H211512   0.160   3.016   5.168
 3850TIP3   OH211513   0.311   0.676   5.272
 3850TIP3    H111514   0.227   0.645   5.306
 3850TIP3    H211515   0.331   0.754   5.323
 3851TIP3   OH211516   0.615   0.125   5.716
 3851TIP3    H111517   0.609   0.086   5.628
 3851TIP3    H211518   0.539   0.182   5.722
 3852TIP3   OH211519   0.954   4.575   1.016
 3852TIP3    H111520   0.994   4.496   1.052
 3852TIP3    H211521   0.990   4.584   0.928
 3853TIP3   OH211522   0.950   2.002   3.423
 3853TIP3    H111523   0.875   2.062   3.425
 3853TIP3    H211524   0.921   1.925   3.473
 3854TIP3   OH211525   2.097   5.273   1.888
 3854TIP3    H111526   2.167   5.227   1.934
 3854TIP3    H211527   2.017   5.226   1.912
 3855TIP3   OH211528   3.883   1.409   2.172
 3855TIP3    H111529   3.908   1.318   2.190
 3855TIP3    H211530   3.795   1.417   2.209
 3856TIP3   OH211531   1.927   4.014   1.663
 3856TIP3    H111532   1.900   3.923   1.650
 3856TIP3    H211533   1.928   4.026   1.758
 3857TIP3   OH211534   6.728   2.341   2.051
 3857TIP3    H111535   6.760   2.276   2.114
 3857TIP3    H211536   6.640   2.362   2.081
 3858TIP3   OH211537   1.891   4.161   2.409
 3858TIP3    H111538   1.820   4.154   2.344
 3858TIP3    H211539   1.938   4.078   2.402
 3859TIP3   OH211540   4.706   1.586   0.837
 3859TIP3    H111541   4.750   1.617   0.916
 3859TIP3    H211542   4.618   1.623   0.842
 3860TIP3   OH211543   3.421   4.611   0.330
 3860TIP3    H111544   3.353   4.576   0.387
 3860TIP3    H211545   3.459   4.535   0.287
 3861TIP3   OH211546   2.294   5.339   5.256
 3861TIP3    H111547   2.242   5.398   5.311
 3861TIP3    H211548   2.354   5.397   5.209
 3862TIP3   OH211549   3.223   1.507   5.089
 3862TIP3    H111550   3.297   1.556   5.052
 3862TIP3    H211551   3.183   1.569   5.151
 3863TIP3   OH211552   4.202   2.677   2.969
 3863TIP3    H111553   4.186   2.699   2.878
 3863TIP3    H211554   4.218   2.761   3.012
 3864TIP3   OH211555   3.299   0.141   1.385
 3864TIP3    H111556   3.286   0.192   1.465
 3864TIP3    H211557   3.370   0.185   1.340
 3865TIP3   OH211558   3.358   2.971   2.097
 3865TIP3    H111559   3.379   3.065   2.098
 3865TIP3    H211560   3.344   2.951   2.004
 3866TIP3   OH211561   0.171   0.805   3.694
 3866TIP3    H111562   0.087   0.759   3.685
 3866TIP3    H211563   0.210   0.800   3.607
 3867TIP3   OH211564   5.084   0.162   5.788
 3867TIP3    H111565   5.032   0.082   5.798
 3867TIP3    H211566   5.101   0.168   5.694
 3868TIP3   OH211567   0.346   3.771   1.118
 3868TIP3    H111568   0.334   3.858   1.080
 3868TIP3    H211569   0.269   3.721   1.089
 3869TIP3   OH211570   5.518   3.522   4.535
 3869TIP3    H111571   5.536   3.464   4.460
 3869TIP3    H211572   5.432   3.494   4.566
 3870TIP3   OH211573   4.340   3.216   5.654
 3870TIP3    H111574   4.304   3.234   5.567
 3870TIP3    H211575   4.346   3.121   5.659
 3871TIP3   OH211576   6.445   0.890   1.208
 3871TIP3    H111577   6.357   0.921   1.226
 3871TIP3    H211578   6.498   0.923   1.280
 3872TIP3   OH211579   3.615   4.571   4.514
 3872TIP3    H111580   3.643   4.492   4.467
 3872TIP3    H211581   3.692   4.628   4.513
 3873TIP3   OH211582   0.958   3.721   1.566
 3873TIP3    H111583   0.918   3.780   1.501
 3873TIP3    H211584   0.946   3.634   1.529
 3874TIP3   OH211585   6.907   4.342   1.332
 3874TIP3    H111586   6.979   4.405   1.342
 3874TIP3    H211587   6.843   4.368   1.399
 3875TIP3   OH211588   6.751   6.594   4.215
 3875TIP3    H111589   6.682   6.638   4.167
 3875TIP3    H211590   6.767   6.649   4.291
 3876TIP3   OH211591   4.160   0.273   1.702
 3876TIP3    H111592   4.134   0.200   1.644
 3876TIP3    H211593   4.081   0.291   1.753
 3877TIP3   OH211594   6.255   0.361   0.441
 3877TIP3    H111595   6.260   0.358   0.346
 3877TIP3    H211596   6.161   0.366   0.460
 3878TIP3   OH211597   1.508   1.049   1.337
 3878TIP3    H111598   1.435   0.987   1.330
 3878TIP3    H211599   1.573   1.018   1.274
 3879TIP3   OH211600   5.881   3.098   0.826
 3879TIP3    H111601   5.872   3.003   0.820
 3879TIP3    H211602   5.949   3.120   0.762
 3880TIP3   OH211603   5.158   2.223   0.835
 3880TIP3    H111604   5.247   2.226   0.870
 3880TIP3    H211605   5.105   2.274   0.896
 3881TIP3   OH211606   1.806   1.467   0.977
 3881TIP3    H111607   1.825   1.375   0.992
 3881TIP3    H211608   1.731   1.468   0.918
 3882TIP3   OH211609   2.446   3.826   4.824
 3882TIP3    H111610   2.533   3.848   4.790
 3882TIP3    H211611   2.420   3.903   4.873
 3883TIP3   OH211612   2.415   0.408   3.605
 3883TIP3    H111613   2.383   0.328   3.648
 3883TIP3    H211614   2.337   0.462   3.593
 3884TIP3   OH211615   7.115   2.178   0.187
 3884TIP3    H111616   7.080   2.162   0.100
 3884TIP3    H211617   7.094   2.270   0.205
 3885TIP3   OH211618   3.752   3.973   4.966
 3885TIP3    H111619   3.689   3.901   4.965
 3885TIP3    H211620   3.824   3.942   4.910
 3886TIP3   OH211621   2.756   6.179   2.977
 3886TIP3    H111622   2.723   6.249   3.034
 3886TIP3    H211623   2.722   6.098   3.015
 3887TIP3   OH211624   3.649   4.307   0.058
 3887TIP3    H111625   3.698   4.320  -0.023
 3887TIP3    H211626   3.688   4.230   0.098
 3888TIP3   OH211627   0.095   2.730   3.074
 3888TIP3    H111628   0.105   2.635   3.067
 3888TIP3    H211629   0.085   2.760   2.984
 3889TIP3   OH211630   4.267   5.115   1.244
 3889TIP3    H111631   4.288   5.022   1.232
 3889TIP3    H211632   4.320   5.160   1.178
 3890TIP3   OH211633   1.648   2.180   4.587
 3890TIP3    H111634   1.558   2.183   4.555
 3890TIP3    H211635   1.698   2.143   4.514
 3891TIP3   OH211636   1.939   5.404   2.212
 3891TIP3    H111637   2.001   5.332   2.198
 3891TIP3    H211638   1.988   5.483   2.191
 3892TIP3   OH211639   2.619   6.259   0.380
 3892TIP3    H111640   2.607   6.258   0.475
 3892TIP3    H211641   2.676   6.335   0.364
 3893TIP3   OH211642   2.982   2.233   2.879
 3893TIP3    H111643   2.989   2.305   2.816
 3893TIP3    H211644   2.919   2.264   2.944
 3894TIP3   OH211645   1.835   6.204   1.701
 3894TIP3    H111646   1.799   6.144   1.767
 3894TIP3    H211647   1.924   6.221   1.730
 3895TIP3   OH211648   3.002   6.218   5.474
 3895TIP3    H111649   3.036   6.295   5.519
 3895TIP3    H211650   3.080   6.170   5.447
 3896TIP3   OH211651   5.849   4.213   1.114
 3896TIP3    H111652   5.838   4.278   1.044
 3896TIP3    H211653   5.893   4.260   1.184
 3897TIP3   OH211654   4.063   3.397   1.654
 3897TIP3    H111655   4.023   3.312   1.640
 3897TIP3    H211656   4.083   3.399   1.748
 3898TIP3   OH211657   3.730   3.641   3.115
 3898TIP3    H111658   3.716   3.736   3.119
 3898TIP3    H211659   3.708   3.610   3.202
 3899TIP3   OH211660   3.852   3.088   5.482
 3899TIP3    H111661   3.934   3.060   5.522
 3899TIP3    H211662   3.819   3.010   5.437
 3900TIP3   OH211663   1.340   2.546   1.027
 3900TIP3    H111664   1.272   2.480   1.038
 3900TIP3    H211665   1.368   2.568   1.116
 3901TIP3   OH211666   2.190   3.581   5.402
 3901TIP3    H111667   2.162   3.490   5.392
 3901TIP3    H211668   2.232   3.603   5.319
 3902TIP3   OH211669   6.612   0.865   2.587
 3902TIP3    H111670   6.599   0.770   2.584
 3902TIP3    H211671   6.705   0.876   2.605
 3903TIP3   OH211672   5.154   5.625   2.645
 3903TIP3    H111673   5.200   5.566   2.585
 3903TIP3    H211674   5.198   5.612   2.729
 3904TIP3   OH211675   0.633   3.941   2.108
 3904TIP3    H111676   0.728   3.934   2.110
 3904TIP3    H211677   0.607   3.901   2.025
 3905TIP3   OH211678   0.774   1.230   4.919
 3905TIP3    H111679   0.754   1.146   4.960
 3905TIP3    H211680   0.693   1.281   4.927
 3906TIP3   OH211681   1.431   5.415   3.663
 3906TIP3    H111682   1.455   5.323   3.659
 3906TIP3    H211683   1.479   5.450   3.738
 3907TIP3   OH211684   5.196   3.845   0.767
 3907TIP3    H111685   5.218   3.876   0.855
 3907TIP3    H211686   5.155   3.920   0.724
 3908TIP3   OH211687   4.681   0.965   4.930
 3908TIP3    H111688   4.761   0.929   4.969
 3908TIP3    H211689   4.710   1.005   4.848
 3909TIP3   OH211690   0.956   1.210   2.531
 3909TIP3    H111691   0.901   1.222   2.608
 3909TIP3    H211692   0.907   1.252   2.460
 3910TIP3   OH211693   5.635   6.199   2.685
 3910TIP3    H111694   5.574   6.244   2.628
 3910TIP3    H211695   5.682   6.269   2.732
 3911TIP3   OH211696   2.578   4.820   5.000
 3911TIP3    H111697   2.561   4.726   4.996
 3911TIP3    H211698   2.553   4.853   4.914
 3912TIP3   OH211699   1.685   5.259   3.387
 3912TIP3    H111700   1.701   5.181   3.440
 3912TIP3    H211701   1.701   5.333   3.446
 3913TIP3   OH211702   5.514   0.090   2.026
 3913TIP3    H111703   5.565   0.145   1.966
 3913TIP3    H211704   5.567   0.011   2.036
 3914TIP3   OH211705   1.624   3.546   0.835
 3914TIP3    H111706   1.590   3.500   0.912
 3914TIP3    H211707   1.607   3.638   0.854
 3915TIP3   OH211708   4.225   6.408   4.138
 3915TIP3    H111709   4.170   6.371   4.069
 3915TIP3    H211710   4.291   6.458   4.090
 3916TIP3   OH211711   3.636   3.616   0.049
 3916TIP3    H111712   3.598   3.592   0.134
 3916TIP3    H211713   3.723   3.578   0.050
 3917TIP3   OH211714   5.254   0.778   3.765
 3917TIP3    H111715   5.306   0.763   3.843
 3917TIP3    H211716   5.176   0.824   3.796
 3918TIP3   OH211717   0.863   4.329   5.704
 3918TIP3    H111718   0.822   4.415   5.701
 3918TIP3    H211719   0.841   4.289   5.620
 3919TIP3   OH211720   0.526  -0.013   2.318
 3919TIP3    H111721   0.473   0.067   2.312
 3919TIP3    H211722   0.517  -0.053   2.232
 3920TIP3   OH211723   2.573   0.119   5.119
 3920TIP3    H111724   2.540   0.172   5.192
 3920TIP3    H211725   2.658   0.088   5.149
 3921TIP3   OH211726   1.444   5.011   2.927
 3921TIP3    H111727   1.376   5.043   2.987
 3921TIP3    H211728   1.462   4.923   2.958
 3922TIP3   OH211729   2.803   2.584   1.930
 3922TIP3    H111730   2.734   2.649   1.918
 3922TIP3    H211731   2.843   2.574   1.843
 3923TIP3   OH211732   4.814   1.834   2.469
 3923TIP3    H111733   4.839   1.919   2.504
 3923TIP3    H211734   4.875   1.772   2.509
 3924TIP3   OH211735   3.478   0.533   1.583
 3924TIP3    H111736   3.448   0.517   1.493
 3924TIP3    H211737   3.553   0.591   1.574
 3925TIP3   OH211738   3.099   3.865   0.747
 3925TIP3    H111739   3.032   3.877   0.814
 3925TIP3    H211740   3.064   3.910   0.670
 3926TIP3   OH211741   4.302   3.676   1.380
 3926TIP3    H111742   4.369   3.641   1.439
 3926TIP3    H211743   4.248   3.732   1.435
 3927TIP3   OH211744   0.758   4.590   4.084
 3927TIP3    H111745   0.847   4.559   4.069
 3927TIP3    H211746   0.761   4.683   4.059
 3928TIP3   OH211747   4.094   2.888   1.256
 3928TIP3    H111748   4.030   2.959   1.254
 3928TIP3    H211749   4.169   2.922   1.208
 3929TIP3   OH211750   4.277   1.572   3.629
 3929TIP3    H111751   4.372   1.581   3.618
 3929TIP3    H211752   4.245   1.662   3.633
 3930TIP3   OH211753   6.225   2.929   0.722
 3930TIP3    H111754   6.170   3.005   0.702
 3930TIP3    H211755   6.213   2.914   0.816
 3931TIP3   OH211756   5.721   5.906   3.205
 3931TIP3    H111757   5.660   5.855   3.259
 3931TIP3    H211758   5.672   5.924   3.125
 3932TIP3   OH211759   1.751   1.262   3.312
 3932TIP3    H111760   1.709   1.275   3.398
 3932TIP3    H211761   1.805   1.340   3.300
 3933TIP3   OH211762   6.011   2.060   1.693
 3933TIP3    H111763   6.057   2.039   1.612
 3933TIP3    H211764   6.072   2.118   1.740
 3934TIP3   OH211765   2.453   1.055   1.214
 3934TIP3    H111766   2.539   1.088   1.238
 3934TIP3    H211767   2.445   1.073   1.121
 3935TIP3   OH211768   2.311   5.977   4.876
 3935TIP3    H111769   2.326   5.894   4.831
 3935TIP3    H211770   2.359   5.968   4.959
 3936TIP3   OH211771   5.894   0.261   5.104
 3936TIP3    H111772   5.818   0.215   5.139
 3936TIP3    H211773   5.959   0.257   5.174
 3937TIP3   OH211774   2.586   1.923   5.646
 3937TIP3    H111775   2.676   1.892   5.657
 3937TIP3    H211776   2.593   2.018   5.645
 3938TIP3   OH211777   2.273   5.136   2.055
 3938TIP3    H111778   2.348   5.093   2.014
 3938TIP3    H211779   2.217   5.064   2.084
 3939TIP3   OH211780   5.924   1.677   1.172
 3939TIP3    H111781   5.850   1.643   1.121
 3939TIP3    H211782   5.932   1.768   1.144
 3940TIP3   OH211783   0.057   1.714   4.679
 3940TIP3    H111784  -0.022   1.765   4.695
 3940TIP3    H211785   0.126   1.779   4.668
 3941TIP3   OH211786   6.676   4.378   0.249
 3941TIP3    H111787   6.599   4.395   0.194
 3941TIP3    H211788   6.711   4.295   0.216
 3942TIP3   OH211789   0.196   6.172   2.602
 3942TIP3    H111790   0.110   6.209   2.624
 3942TIP3    H211791   0.188   6.079   2.622
 3943TIP3   OH211792   5.777   1.314   1.762
 3943TIP3    H111793   5.689   1.293   1.730
 3943TIP3    H211794   5.790   1.404   1.734
 3944TIP3   OH211795   4.447   1.871   1.775
 3944TIP3    H111796   4.532   1.851   1.737
 3944TIP3    H211797   4.460   1.862   1.869
 3945TIP3   OH211798   5.404   0.514   3.400
 3945TIP3    H111799   5.446   0.551   3.322
 3945TIP3    H211800   5.341   0.580   3.427
 3946TIP3   OH211801   2.137   6.399   2.167
 3946TIP3    H111802   2.189   6.324   2.137
 3946TIP3    H211803   2.191   6.440   2.234
 3947TIP3   OH211804   1.739   0.299   3.710
 3947TIP3    H111805   1.686   0.334   3.782
 3947TIP3    H211806   1.748   0.206   3.730
 3948TIP3   OH211807   7.010   4.391   2.937
 3948TIP3    H111808   6.963   4.386   2.853
 3948TIP3    H211809   7.004   4.483   2.962
 3949TIP3   OH211810   4.592   6.416   1.556
 3949TIP3    H111811   4.501   6.444   1.542
 3949TIP3    H211812   4.636   6.436   1.474
 3950TIP3   OH211813   4.617   1.797   5.034
 3950TIP3    H111814   4.580   1.709   5.037
 3950TIP3    H211815   4.566   1.847   5.097
 3951TIP3   OH211816   6.811   5.605   3.549
 3951TIP3    H111817   6.722   5.580   3.573
 3951TIP3    H211818   6.863   5.526   3.564
 3952TIP3   OH211819   6.237   6.215   4.694
 3952TIP3    H111820   6.302   6.263   4.745
 3952TIP3    H211821   6.153   6.242   4.731
 3953TIP3   OH211822   3.750   1.153   4.216
 3953TIP3    H111823   3.713   1.225   4.266
 3953TIP3    H211824   3.720   1.074   4.262
 3954TIP3   OH211825   2.416   2.792   4.976
 3954TIP3    H111826   2.348   2.731   5.004
 3954TIP3    H211827   2.481   2.789   5.046
 3955TIP3   OH211828   3.255   2.826   0.337
 3955TIP3    H111829   3.289   2.749   0.292
 3955TIP3    H211830   3.217   2.792   0.418
 3956TIP3   OH211831   0.544   4.226   4.506
 3956TIP3    H111832   0.520   4.284   4.434
 3956TIP3    H211833   0.475   4.161   4.509
 3957TIP3   OH211834   3.262   1.289   3.118
 3957TIP3    H111835   3.272   1.377   3.083
 3957TIP3    H211836   3.177   1.290   3.163
 3958TIP3   OH211837   4.753   2.710   2.877
 3958TIP3    H111838   4.693   2.757   2.935
 3958TIP3    H211839   4.831   2.694   2.931
 3959TIP3   OH211840   0.869   4.343   1.329
 3959TIP3    H111841   0.792   4.392   1.303
 3959TIP3    H211842   0.886   4.370   1.419
 3960TIP3   OH211843   6.302   6.369   5.733
 3960TIP3    H111844   6.236   6.328   5.789
 3960TIP3    H211845   6.386   6.342   5.770
 3961TIP3   OH211846   1.041   6.466   1.929
 3961TIP3    H111847   1.082   6.495   2.011
 3961TIP3    H211848   0.947   6.475   1.945
 3962TIP3   OH211849   3.475   1.580   4.724
 3962TIP3    H111850   3.536   1.628   4.668
 3962TIP3    H211851   3.501   1.489   4.717
 3963TIP3   OH211852   0.371   1.334   0.677
 3963TIP3    H111853   0.301   1.382   0.721
 3963TIP3    H211854   0.329   1.298   0.599
 3964TIP3   OH211855   2.040  -0.002   5.016
 3964TIP3    H111856   1.966  -0.060   4.995
 3964TIP3    H211857   2.074   0.025   4.932
 3965TIP3   OH211858   4.255   6.753   4.139
 3965TIP3    H111859   4.240   6.659   4.152
 3965TIP3    H211860   4.255   6.789   4.228
 3966TIP3   OH211861   2.047   1.792   4.591
 3966TIP3    H111862   1.971   1.751   4.549
 3966TIP3    H211863   2.112   1.798   4.522
 3967TIP3   OH211864   1.612   4.019   0.492
 3967TIP3    H111865   1.642   4.021   0.401
 3967TIP3    H211866   1.528   4.066   0.491
 3968TIP3   OH211867   6.024   4.028   4.110
 3968TIP3    H111868   6.049   3.939   4.087
 3968TIP3    H211869   6.031   4.031   4.206
 3969TIP3   OH211870   1.073   1.126   3.178
 3969TIP3    H111871   1.167   1.141   3.187
 3969TIP3    H211872   1.040   1.121   3.267
 3970TIP3   OH211873   0.427   6.297   4.424
 3970TIP3    H111874   0.464   6.383   4.442
 3970TIP3    H211875   0.456   6.243   4.498
 3971TIP3   OH211876   1.433   2.278   1.829
 3971TIP3    H111877   1.485   2.358   1.839
 3971TIP3    H211878   1.368   2.283   1.899
 3972TIP3   OH211879   4.559   3.987   3.874
 3972TIP3    H111880   4.471   3.949   3.876
 3972TIP3    H211881   4.550   4.069   3.923
 3973TIP3   OH211882   2.436   5.819   5.414
 3973TIP3    H111883   2.473   5.826   5.502
 3973TIP3    H211884   2.372   5.890   5.409
 3974TIP3   OH211885   1.520   2.278   2.598
 3974TIP3    H111886   1.588   2.217   2.569
 3974TIP3    H211887   1.483   2.237   2.676
 3975TIP3   OH211888   5.480   2.228   0.451
 3975TIP3    H111889   5.444   2.286   0.518
 3975TIP3    H211890   5.575   2.239   0.459
 3976TIP3   OH211891   6.551   4.191   4.784
 3976TIP3    H111892   6.591   4.156   4.863
 3976TIP3    H211893   6.457   4.186   4.800
 3977TIP3   OH211894   0.317   4.771   5.165
 3977TIP3    H111895   0.337   4.684   5.133
 3977TIP3    H211896   0.387   4.791   5.227
 3978TIP3   OH211897   7.089   4.261   5.610
 3978TIP3    H111898   7.035   4.304   5.677
 3978TIP3    H211899   7.032   4.194   5.573
 3979TIP3   OH211900   4.855   1.260   2.193
 3979TIP3    H111901   4.806   1.183   2.223
 3979TIP3    H211902   4.831   1.329   2.255
 3980TIP3   OH211903   3.792   0.068   0.012
 3980TIP3    H111904   3.861   0.094   0.073
 3980TIP3    H211905   3.795   0.133  -0.057
 3981TIP3   OH211906   4.027   6.062   0.649
 3981TIP3    H111907   3.984   6.059   0.564
 3981TIP3    H211908   3.956   6.075   0.712
 3982TIP3   OH211909   6.613   5.993   1.717
 3982TIP3    H111910   6.550   5.954   1.777
 3982TIP3    H211911   6.660   6.057   1.770
 3983TIP3   OH211912   3.936   4.623   5.695
 3983TIP3    H111913   3.985   4.674   5.760
 3983TIP3    H211914   3.998   4.612   5.622
 3984TIP3   OH211915   3.910   3.202   4.648
 3984TIP3    H111916   3.964   3.124   4.640
 3984TIP3    H211917   3.955   3.255   4.715
 3985TIP3   OH211918   5.443   0.893   3.583
 3985TIP3    H111919   5.375   0.871   3.648
 3985TIP3    H211920   5.501   0.818   3.583
 3986TIP3   OH211921   3.627   2.605   3.107
 3986TIP3    H111922   3.541   2.574   3.079
 3986TIP3    H211923   3.609   2.677   3.167
 3987TIP3   OH211924   6.834   3.400   1.998
 3987TIP3    H111925   6.797   3.312   2.005
 3987TIP3    H211926   6.914   3.396   2.051
 3988TIP3   OH211927   3.502   2.419   2.406
 3988TIP3    H111928   3.544   2.488   2.457
 3988TIP3    H211929   3.570   2.390   2.345
 3989TIP3   OH211930   2.499   2.566   2.247
 3989TIP3    H111931   2.587   2.603   2.247
 3989TIP3    H211932   2.513   2.472   2.237
 3990TIP3   OH211933   1.662   6.420   0.814
 3990TIP3    H111934   1.570   6.439   0.794
 3990TIP3    H211935   1.659   6.343   0.870
 3991TIP3   OH211936   5.006   4.952   1.997
 3991TIP3    H111937   5.092   4.927   1.961
 3991TIP3    H211938   4.966   4.869   2.022
 3992TIP3   OH211939   1.705   0.788   4.994
 3992TIP3    H111940   1.697   0.820   4.904
 3992TIP3    H211941   1.799   0.790   5.012
 3993TIP3   OH211942   5.953   5.180   5.027
 3993TIP3    H111943   5.955   5.273   5.006
 3993TIP3    H211944   6.040   5.148   5.003
 3994TIP3   OH211945   1.954   0.881   4.998
 3994TIP3    H111946   1.981   0.919   4.914
 3994TIP3    H211947   2.024   0.820   5.020
 3995TIP3   OH211948   1.709   6.188   5.487
 3995TIP3    H111949   1.645   6.122   5.459
 3995TIP3    H211950   1.783   6.138   5.521
 3996TIP3   OH211951   5.149   0.696   5.891
 3996TIP3    H111952   5.117   0.782   5.864
 3996TIP3    H211953   5.124   0.689   5.983
 3997TIP3   OH211954   1.463   5.595   4.123
 3997TIP3    H111955   1.546   5.641   4.125
 3997TIP3    H211956   1.462   5.543   4.204
 3998TIP3   OH211957   6.313   4.367   0.477
 3998TIP3    H111958   6.326   4.462   0.476
 3998TIP3    H211959   6.396   4.332   0.508
 3999TIP3   OH211960   4.784   5.461   0.706
 3999TIP3    H111961   4.740   5.542   0.681
 3999TIP3    H211962   4.868   5.463   0.659
 4000TIP3   OH211963   5.257   3.119   0.242
 4000TIP3    H111964   5.272   3.031   0.277
 4000TIP3    H211965   5.345   3.155   0.229
 4001TIP3   OH211966   5.571   5.623   5.822
 4001TIP3    H111967   5.583   5.570   5.901
 4001TIP3    H211968   5.638   5.691   5.828
 4002TIP3   OH211969   6.074   0.038   3.656
 4002TIP3    H111970   6.068   0.123   3.613
 4002TIP3    H211971   6.163   0.008   3.638
 4003TIP3   OH211972   2.741   5.062   3.526
 4003TIP3    H111973   2.735   5.059   3.621
 4003TIP3    H211974   2.746   5.155   3.504
 4004TIP3   OH211975   4.829   5.704   3.635
 4004TIP3    H111976   4.876   5.721   3.717
 4004TIP3    H211977   4.836   5.610   3.622
 4005TIP3   OH211978   5.011   1.147   0.291
 4005TIP3    H111979   5.027   1.102   0.375
 4005TIP3    H211980   4.929   1.110   0.259
 4006TIP3   OH211981   1.063   1.023   1.203
 4006TIP3    H111982   1.053   0.930   1.220
 4006TIP3    H211983   1.135   1.029   1.140
 4007TIP3   OH211984   7.093   6.648   5.592
 4007TIP3    H111985   7.046   6.675   5.670
 4007TIP3    H211986   7.041   6.576   5.556
 4008TIP3   OH211987   2.595   6.367   1.109
 4008TIP3    H111988   2.501   6.356   1.127
 4008TIP3    H211989   2.615   6.301   1.043
 4009TIP3   OH211990   4.292   1.735   4.777
 4009TIP3    H111991   4.301   1.830   4.774
 4009TIP3    H211992   4.292   1.714   4.871
 4010TIP3   OH211993   2.727   4.504   5.338
 4010TIP3    H111994   2.763   4.523   5.251
 4010TIP3    H211995   2.694   4.589   5.369
 4011TIP3   OH211996   3.833   0.899   1.360
 4011TIP3    H111997   3.820   0.990   1.385
 4011TIP3    H211998   3.846   0.902   1.265
 4012TIP3   OH211999   6.870   1.746   1.776
 4012TIP3    H112000   6.851   1.773   1.686
 4012TIP3    H212001   6.898   1.826   1.820
 4013TIP3   OH212002   1.457   3.620   0.472
 4013TIP3    H112003   1.389   3.659   0.527
 4013TIP3    H212004   1.421   3.623   0.383
 4014TIP3   OH212005   5.380   6.326   3.017
 4014TIP3    H112006   5.310   6.289   2.963
 4014TIP3    H212007   5.349   6.414   3.039
 4015TIP3   OH212008   2.698   5.715   1.378
 4015TIP3    H112009   2.788   5.721   1.408
 4015TIP3    H212010   2.695   5.771   1.300
 4016TIP3   OH212011   4.227   5.755   4.963
 4016TIP3    H112012   4.220   5.689   4.894
 4016TIP3    H212013   4.254   5.835   4.917
 4017TIP3   OH212014   1.610   1.277   2.198
 4017TIP3    H112015   1.616   1.372   2.185
 4017TIP3    H212016   1.593   1.242   2.111
 4018TIP3   OH212017   2.865   1.455   2.804
 4018TIP3    H112018   2.821   1.538   2.825
 4018TIP3    H212019   2.907   1.471   2.720
 4019TIP3   OH212020   5.029   4.582   5.527
 4019TIP3    H112021   4.953   4.639   5.538
 4019TIP3    H212022   5.065   4.573   5.616
 4020TIP3   OH212023   5.806   2.991   0.567
 4020TIP3    H112024   5.813   3.084   0.545
 4020TIP3    H212025   5.861   2.947   0.503
 4021TIP3   OH212026   1.194   1.380   2.414
 4021TIP3    H112027   1.111   1.345   2.447
 4021TIP3    H212028   1.261   1.326   2.456
 4022TIP3   OH212029   0.411   6.684   2.869
 4022TIP3    H112030   0.418   6.749   2.939
 4022TIP3    H212031   0.475   6.712   2.804
 4023TIP3   OH212032   0.902   2.244   1.641
 4023TIP3    H112033   0.821   2.288   1.665
 4023TIP3    H212034   0.971   2.308   1.660
 4024TIP3   OH212035   3.706   6.554   4.257
 4024TIP3    H112036   3.625   6.503   4.259
 4024TIP3    H212037   3.754   6.526   4.335
 4025TIP3   OH212038   0.149   5.164   5.719
 4025TIP3    H112039   0.181   5.125   5.800
 4025TIP3    H212040   0.184   5.108   5.649
 4026TIP3   OH212041   0.945   2.506   5.487
 4026TIP3    H112042   0.994   2.428   5.460
 4026TIP3    H212043   0.860   2.471   5.516
 4027TIP3   OH212044   0.085   2.757   1.813
 4027TIP3    H112045   0.176   2.778   1.790
 4027TIP3    H212046   0.066   2.677   1.764
 4028TIP3   OH212047   1.502   3.026   1.261
 4028TIP3    H112048   1.508   2.958   1.328
 4028TIP3    H212049   1.496   2.977   1.179
 4029TIP3   OH212050   3.202   0.798   4.167
 4029TIP3    H112051   3.166   0.715   4.137
 4029TIP3    H212052   3.239   0.838   4.088
 4030TIP3   OH212053   5.942   0.356   0.874
 4030TIP3    H112054   5.852   0.378   0.849
 4030TIP3    H212055   5.996   0.390   0.803
 4031TIP3   OH212056   6.384   3.075   5.788
 4031TIP3    H112057   6.464   3.105   5.831
 4031TIP3    H212058   6.405   3.080   5.694
 4032TIP3   OH212059   4.858   4.344   3.072
 4032TIP3    H112060   4.909   4.366   2.994
 4032TIP3    H212061   4.784   4.294   3.038
 4033TIP3   OH212062   1.425   1.464   3.360
 4033TIP3    H112063   1.413   1.549   3.402
 4033TIP3    H212064   1.457   1.484   3.272
 4034TIP3   OH212065   3.104   3.045   3.364
 4034TIP3    H112066   3.127   3.080   3.278
 4034TIP3    H212067   3.018   3.005   3.351
 4035TIP3   OH212068   2.203   5.591   4.436
 4035TIP3    H112069   2.236   5.523   4.378
 4035TIP3    H212070   2.142   5.642   4.383
 4036TIP3   OH212071   6.796   1.858   0.406
 4036TIP3    H112072   6.709   1.822   0.421
 4036TIP3    H212073   6.782   1.934   0.350
 4037TIP3   OH212074   7.133   1.461   0.866
 4037TIP3    H112075   7.115   1.387   0.808
 4037TIP3    H212076   7.049   1.506   0.876
 4038TIP3   OH212077   4.522   2.446   0.099
 4038TIP3    H112078   4.509   2.502   0.022
 4038TIP3    H212079   4.487   2.361   0.073
 4039TIP3   OH212080   6.966   2.445   0.414
 4039TIP3    H112081   6.881   2.440   0.458
 4039TIP3    H212082   7.028   2.458   0.485
 4040TIP3   OH212083   2.767   2.647   2.348
 4040TIP3    H112084   2.707   2.721   2.341
 4040TIP3    H212085   2.854   2.686   2.341
 4041TIP3   OH212086   6.296   5.733   1.218
 4041TIP3    H112087   6.385   5.767   1.228
 4041TIP3    H212088   6.277   5.740   1.125
 4042TIP3   OH212089   6.557   6.348   2.017
 4042TIP3    H112090   6.587   6.394   2.096
 4042TIP3    H212091   6.628   6.359   1.954
 4043TIP3   OH212092   2.105   3.903   3.055
 4043TIP3    H112093   2.090   3.901   3.150
 4043TIP3    H212094   2.036   3.847   3.019
 4044TIP3   OH212095   0.400   3.335   4.239
 4044TIP3    H112096   0.418   3.428   4.252
 4044TIP3    H212097   0.486   3.295   4.227
 4045TIP3   OH212098   4.239   0.581   0.605
 4045TIP3    H112099   4.219   0.644   0.675
 4045TIP3    H212100   4.153   0.556   0.571
 4046TIP3   OH212101   3.736   2.863   3.776
 4046TIP3    H112102   3.820   2.827   3.803
 4046TIP3    H212103   3.715   2.816   3.695
 4047TIP3   OH212104   7.079   0.475   1.055
 4047TIP3    H112105   7.022   0.509   0.986
 4047TIP3    H212106   7.019   0.455   1.127
 4048TIP3   OH212107   0.580   4.893   5.074
 4048TIP3    H112108   0.600   4.984   5.095
 4048TIP3    H212109   0.620   4.842   5.144
 4049TIP3   OH212110   3.829   2.489   5.921
 4049TIP3    H112111   3.830   2.397   5.893
 4049TIP3    H212112   3.760   2.529   5.867
 4050TIP3   OH212113   1.053   4.068   2.866
 4050TIP3    H112114   1.085   4.062   2.775
 4050TIP3    H212115   0.997   3.991   2.876
 4051TIP3   OH212116   1.026   1.856   0.387
 4051TIP3    H112117   0.942   1.849   0.430
 4051TIP3    H212118   1.079   1.785   0.425
 4052TIP3   OH212119   0.194   4.023   3.258
 4052TIP3    H112120   0.162   3.973   3.333
 4052TIP3    H212121   0.287   4.036   3.276
 4053TIP3   OH212122   2.859   5.348   5.677
 4053TIP3    H112123   2.837   5.438   5.704
 4053TIP3    H212124   2.912   5.314   5.749
 4054TIP3   OH212125   6.413   0.461   1.063
 4054TIP3    H112126   6.451   0.379   1.094
 4054TIP3    H212127   6.333   0.434   1.018
 4055TIP3   OH212128   7.069   6.062   4.151
 4055TIP3    H112129   7.137   6.009   4.109
 4055TIP3    H212130   7.003   6.074   4.082
 4056TIP3   OH212131   3.984   2.110   1.256
 4056TIP3    H112132   3.992   2.040   1.190
 4056TIP3    H212133   4.030   2.075   1.332
 4057TIP3   OH212134   0.005   4.970   5.565
 4057TIP3    H112135   0.085   4.917   5.566
 4057TIP3    H212136   0.009   5.020   5.647
 4058TIP3   OH212137   6.218   0.322   2.191
 4058TIP3    H112138   6.142   0.307   2.135
 4058TIP3    H212139   6.217   0.249   2.253
 4059TIP3   OH212140   2.919   4.421   4.637
 4059TIP3    H112141   2.999   4.416   4.689
 4059TIP3    H212142   2.916   4.337   4.590
 4060TIP3   OH212143   3.357   4.396   0.063
 4060TIP3    H112144   3.443   4.353   0.062
 4060TIP3    H212145   3.343   4.422  -0.028
 4061TIP3   OH212146   0.373   1.104   4.832
 4061TIP3    H112147   0.331   1.049   4.767
 4061TIP3    H212148   0.392   1.186   4.786
 4062TIP3   OH212149   0.679   5.151   3.414
 4062TIP3    H112150   0.722   5.072   3.380
 4062TIP3    H212151   0.751   5.206   3.445
 4063TIP3   OH212152   1.497   2.912   4.699
 4063TIP3    H112153   1.435   2.881   4.765
 4063TIP3    H212154   1.443   2.955   4.633
 4064TIP3   OH212155   1.061   0.397   2.742
 4064TIP3    H112156   1.143   0.364   2.705
 4064TIP3    H212157   1.053   0.486   2.707
 4065TIP3   OH212158   3.032   2.978   3.913
 4065TIP3    H112159   3.049   3.066   3.880
 4065TIP3    H212160   2.972   2.940   3.849
 4066TIP3   OH212161   4.366   4.657   2.214
 4066TIP3    H112162   4.327   4.569   2.209
 4066TIP3    H212163   4.321   4.699   2.286
 4067TIP3   OH212164   4.417   0.381   2.360
 4067TIP3    H112165   4.443   0.330   2.283
 4067TIP3    H212166   4.357   0.448   2.325
 4068TIP3   OH212167   4.735   1.079   3.595
 4068TIP3    H112168   4.646   1.111   3.613
 4068TIP3    H212169   4.791   1.129   3.655
 4069TIP3   OH212170   1.391   4.663   5.306
 4069TIP3    H112171   1.443   4.595   5.349
 4069TIP3    H212172   1.340   4.616   5.239
 4070TIP3   OH212173   4.188   0.688   5.115
 4070TIP3    H112174   4.185   0.763   5.056
 4070TIP3    H212175   4.120   0.629   5.083
 4071TIP3   OH212176   3.484   6.005   1.451
 4071TIP3    H112177   3.506   6.032   1.540
 4071TIP3    H212178   3.462   5.912   1.459
 4072TIP3   OH212179   6.206   6.114   0.989
 4072TIP3    H112180   6.185   6.106   0.896
 4072TIP3    H212181   6.216   6.208   1.005
 4073TIP3   OH212182   6.856   0.017   1.525
 4073TIP3    H112183   6.937   0.054   1.490
 4073TIP3    H212184   6.788   0.077   1.496
 4074TIP3   OH212185   3.740   0.236   0.342
 4074TIP3    H112186   3.705   0.154   0.377
 4074TIP3    H212187   3.673   0.267   0.282
 4075TIP3   OH212188   5.686   3.786  -0.002
 4075TIP3    H112189   5.657   3.839   0.072
 4075TIP3    H212190   5.706   3.700   0.037
 4076TIP3   OH212191   4.455   4.604   2.569
 4076TIP3    H112192   4.551   4.604   2.567
 4076TIP3    H212193   4.432   4.556   2.648
 4077TIP3   OH212194   0.586   1.393   5.069
 4077TIP3    H112195   0.648   1.455   5.107
 4077TIP3    H212196   0.572   1.328   5.137
 4078TIP3   OH212197   3.229   4.262   0.922
 4078TIP3    H112198   3.146   4.216   0.915
 4078TIP3    H212199   3.260   4.243   1.010
 4079TIP3   OH212200   2.340   6.569   5.610
 4079TIP3    H112201   2.417   6.513   5.608
 4079TIP3    H212202   2.325   6.592   5.518
 4080TIP3   OH212203   5.079   3.576   0.037
 4080TIP3    H112204   5.063   3.640   0.106
 4080TIP3    H212205   5.152   3.612  -0.013
 4081TIP3   OH212206   3.042   3.505   0.479
 4081TIP3    H112207   3.019   3.579   0.423
 4081TIP3    H212208   3.072   3.544   0.561
 4082TIP3   OH212209   3.702   0.607   4.685
 4082TIP3    H112210   3.779   0.662   4.699
 4082TIP3    H212211   3.637   0.641   4.746
 4083TIP3   OH212212   5.674   5.818   0.385
 4083TIP3    H112213   5.597   5.858   0.345
 4083TIP3    H212214   5.647   5.798   0.475
 4084TIP3   OH212215   6.683   6.716   5.346
 4084TIP3    H112216   6.670   6.807   5.373
 4084TIP3    H212217   6.767   6.716   5.300
 4085TIP3   OH212218   3.003   1.405   4.969
 4085TIP3    H112219   3.082   1.442   5.009
 4085TIP3    H212220   2.987   1.324   5.017
 4086TIP3   OH212221   2.631   6.820   1.037
 4086TIP3    H112222   2.653   6.902   1.080
 4086TIP3    H212223   2.543   6.799   1.069
 4087TIP3   OH212224   1.604   4.855   0.502
 4087TIP3    H112225   1.605   4.951   0.499
 4087TIP3    H212226   1.556   4.835   0.583
 4088TIP3   OH212227   7.036   3.459   4.379
 4088TIP3    H112228   7.030   3.544   4.336
 4088TIP3    H212229   7.129   3.448   4.398
 4089TIP3   OH212230   2.356   4.242   4.717
 4089TIP3    H112231   2.447   4.245   4.749
 4089TIP3    H212232   2.306   4.208   4.791
 4090TIP3   OH212233   6.675   5.082   1.434
 4090TIP3    H112234   6.743   5.086   1.501
 4090TIP3    H212235   6.620   5.008   1.458
 4091TIP3   OH212236   5.056   2.628   4.739
 4091TIP3    H112237   4.993   2.571   4.696
 4091TIP3    H212238   5.049   2.712   4.692
 4092TIP3   OH212239   3.495   5.333   3.765
 4092TIP3    H112240   3.544   5.362   3.841
 4092TIP3    H212241   3.560   5.289   3.709
 4093TIP3   OH212242   3.881   3.907   3.609
 4093TIP3    H112243   3.921   3.820   3.601
 4093TIP3    H212244   3.954   3.964   3.633
 4094TIP3   OH212245   6.438   4.673   1.389
 4094TIP3    H112246   6.343   4.667   1.389
 4094TIP3    H212247   6.468   4.601   1.333
 4095TIP3   OH212248   1.465   4.657   0.315
 4095TIP3    H112249   1.461   4.695   0.403
 4095TIP3    H212250   1.508   4.572   0.328
 4096TIP3   OH212251   0.127   1.379   4.697
 4096TIP3    H112252   0.221   1.394   4.705
 4096TIP3    H212253   0.088   1.466   4.699
 4097TIP3   OH212254   4.862   3.555   5.646
 4097TIP3    H112255   4.874   3.573   5.552
 4097TIP3    H212256   4.888   3.464   5.656
 4098TIP3   OH212257   1.536   5.556   2.751
 4098TIP3    H112258   1.539   5.464   2.723
 4098TIP3    H212259   1.507   5.603   2.674
 4099TIP3   OH212260   6.392   4.038   0.927
 4099TIP3    H112261   6.358   4.086   0.851
 4099TIP3    H212262   6.460   4.095   0.963
 4100TIP3   OH212263   3.250   3.744   0.173
 4100TIP3    H112264   3.241   3.836   0.195
 4100TIP3    H212265   3.226   3.739   0.080
 4101TIP3   OH212266   2.042   0.879   2.400
 4101TIP3    H112267   1.968   0.826   2.430
 4101TIP3    H212268   2.100   0.817   2.356
 4102TIP3   OH212269   5.749   4.602   4.700
 4102TIP3    H112270   5.776   4.667   4.634
 4102TIP3    H212271   5.799   4.523   4.678
 4103TIP3   OH212272   1.130   5.190   4.887
 4103TIP3    H112273   1.210   5.189   4.941
 4103TIP3    H212274   1.155   5.145   4.807
 4104TIP3   OH212275   1.735   5.222   1.759
 4104TIP3    H112276   1.802   5.272   1.713
 4104TIP3    H212277   1.665   5.285   1.776
 4105TIP3   OH212278   6.813   1.786   2.534
 4105TIP3    H112279   6.800   1.709   2.589
 4105TIP3    H212280   6.907   1.787   2.515
 4106TIP3   OH212281   5.982   6.327   4.850
 4106TIP3    H112282   5.891   6.354   4.858
 4106TIP3    H212283   6.021   6.393   4.792
 4107TIP3   OH212284   1.316   3.445   4.896
 4107TIP3    H112285   1.316   3.428   4.990
 4107TIP3    H212286   1.251   3.514   4.885
 4108TIP3   OH212287   2.185   5.712   5.583
 4108TIP3    H112288   2.263   5.692   5.532
 4108TIP3    H212289   2.191   5.656   5.660
 4109TIP3   OH212290   5.791   5.252   5.711
 4109TIP3    H112291   5.880   5.262   5.743
 4109TIP3    H212292   5.800   5.243   5.617
 4110TIP3   OH212293   1.528   4.025   2.757
 4110TIP3    H112294   1.554   4.084   2.686
 4110TIP3    H212295   1.468   3.963   2.716
 4111TIP3   OH212296   4.950   1.829   0.332
 4111TIP3    H112297   4.940   1.894   0.262
 4111TIP3    H212298   4.929   1.877   0.412
 4112TIP3   OH212299   5.387   1.163   3.077
 4112TIP3    H112300   5.424   1.215   3.149
 4112TIP3    H212301   5.310   1.121   3.115
 4113TIP3   OH212302   6.032   2.432   5.652
 4113TIP3    H112303   6.018   2.415   5.745
 4113TIP3    H212304   6.110   2.381   5.630
 4114TIP3   OH212305   6.257   5.120   2.144
 4114TIP3    H112306   6.300   5.045   2.187
 4114TIP3    H212307   6.222   5.084   2.063
 4115TIP3   OH212308   4.416   3.576   0.710
 4115TIP3    H112309   4.472   3.530   0.647
 4115TIP3    H212310   4.398   3.511   0.777
 4116TIP3   OH212311   2.139   5.604   1.041
 4116TIP3    H112312   2.129   5.697   1.062
 4116TIP3    H212313   2.054   5.578   1.005
 4117TIP3   OH212314   1.333   5.172   1.392
 4117TIP3    H112315   1.387   5.223   1.451
 4117TIP3    H212316   1.394   5.116   1.345
 4118TIP3   OH212317   3.603   0.922   0.154
 4118TIP3    H112318   3.621   0.881   0.069
 4118TIP3    H212319   3.583   0.849   0.212
 4119TIP3   OH212320   2.172   0.430   0.265
 4119TIP3    H112321   2.140   0.354   0.313
 4119TIP3    H212322   2.211   0.486   0.332
 4120TIP3   OH212323   5.667   5.503   5.051
 4120TIP3    H112324   5.573   5.516   5.034
 4120TIP3    H212325   5.670   5.423   5.103
 4121TIP3   OH212326   3.469   1.625   4.995
 4121TIP3    H112327   3.560   1.632   5.023
 4121TIP3    H212328   3.471   1.641   4.901
 4122TIP3   OH212329   0.830   6.565   3.237
 4122TIP3    H112330   0.735   6.573   3.232
 4122TIP3    H212331   0.863   6.634   3.180
 4123TIP3   OH212332   1.634   3.747   0.139
 4123TIP3    H112333   1.616   3.839   0.159
 4123TIP3    H212334   1.647   3.745   0.045
 4124TIP3   OH212335   0.286   5.189   0.344
 4124TIP3    H112336   0.299   5.239   0.424
 4124TIP3    H212337   0.244   5.108   0.373
 4125TIP3   OH212338   6.277   6.567   5.547
 4125TIP3    H112339   6.254   6.647   5.594
 4125TIP3    H212340   6.265   6.497   5.611
 4126TIP3   OH212341   1.261   3.278   1.787
 4126TIP3    H112342   1.183   3.333   1.786
 4126TIP3    H212343   1.288   3.276   1.879
 4127TIP3   OH212344   1.769   2.386   1.674
 4127TIP3    H112345   1.768   2.437   1.594
 4127TIP3    H212346   1.740   2.446   1.742
 4128TIP3   OH212347   0.630   4.126   0.286
 4128TIP3    H112348   0.552   4.071   0.287
 4128TIP3    H212349   0.699   4.072   0.326
 4129TIP3   OH212350   4.937   5.108   0.054
 4129TIP3    H112351   4.977   5.110   0.141
 4129TIP3    H212352   5.010   5.092  -0.006
 4130TIP3   OH212353   5.917   3.633   1.761
 4130TIP3    H112354   5.848   3.642   1.827
 4130TIP3    H212355   5.996   3.615   1.812
 4131TIP3   OH212356   4.997   0.910   3.654
 4131TIP3    H112357   4.915   0.899   3.606
 4131TIP3    H212358   4.973   0.966   3.729
 4132TIP3   OH212359   7.225   0.831   0.588
 4132TIP3    H112360   7.139   0.845   0.549
 4132TIP3    H212361   7.274   0.780   0.523
 4133TIP3   OH212362   4.893   4.973   4.357
 4133TIP3    H112363   4.945   4.920   4.417
 4133TIP3    H212364   4.844   4.909   4.304
 4134TIP3   OH212365   6.943   5.746   4.303
 4134TIP3    H112366   6.930   5.746   4.398
 4134TIP3    H212367   7.016   5.805   4.289
 4135TIP3   OH212368   2.265   6.440   3.867
 4135TIP3    H112369   2.268   6.373   3.800
 4135TIP3    H212370   2.330   6.413   3.932
 4136TIP3   OH212371   1.887   4.138   5.656
 4136TIP3    H112372   1.974   4.138   5.617
 4136TIP3    H212373   1.828   4.158   5.583
 4137TIP3   OH212374   1.088   0.170   2.508
 4137TIP3    H112375   1.059   0.129   2.589
 4137TIP3    H212376   1.157   0.231   2.535
 4138TIP3   OH212377   3.752   2.678   1.079
 4138TIP3    H112378   3.705   2.598   1.101
 4138TIP3    H212379   3.692   2.748   1.104
 4139TIP3   OH212380   2.691   5.104   3.797
 4139TIP3    H112381   2.780   5.131   3.820
 4139TIP3    H212382   2.651   5.079   3.880
 4140TIP3   OH212383   2.558   3.056   3.685
 4140TIP3    H112384   2.472   3.025   3.655
 4140TIP3    H212385   2.570   3.140   3.639
 4141TIP3   OH212386   1.968   4.675   5.179
 4141TIP3    H112387   1.896   4.635   5.228
 4141TIP3    H212388   2.004   4.742   5.238
 4142TIP3   OH212389   1.318   2.130   2.407
 4142TIP3    H112390   1.341   2.103   2.496
 4142TIP3    H212391   1.376   2.077   2.351
 4143TIP3   OH212392   3.889   4.435   2.686
 4143TIP3    H112393   3.885   4.373   2.759
 4143TIP3    H212394   3.799   4.467   2.677
 4144TIP3   OH212395   2.006   0.911   5.487
 4144TIP3    H112396   2.084   0.898   5.541
 4144TIP3    H212397   1.964   0.989   5.524
 4145TIP3   OH212398   2.966   6.338   2.487
 4145TIP3    H112399   2.947   6.259   2.435
 4145TIP3    H212400   2.974   6.307   2.577
 4146TIP3   OH212401   2.402   5.610   2.497
 4146TIP3    H112402   2.388   5.617   2.402
 4146TIP3    H212403   2.494   5.584   2.506
 4147TIP3   OH212404   4.447   1.361   2.709
 4147TIP3    H112405   4.532   1.323   2.687
 4147TIP3    H212406   4.392   1.344   2.633
 4148TIP3   OH212407   6.401   6.694   4.509
 4148TIP3    H112408   6.335   6.643   4.462
 4148TIP3    H212409   6.437   6.753   4.442
 4149TIP3   OH212410   4.141   2.326   4.424
 4149TIP3    H112411   4.212   2.277   4.467
 4149TIP3    H212412   4.131   2.405   4.477
 4150TIP3   OH212413   3.929   6.040   1.926
 4150TIP3    H112414   4.023   6.027   1.913
 4150TIP3    H212415   3.889   5.957   1.899
 4151TIP3   OH212416   1.349   1.077   1.718
 4151TIP3    H112417   1.279   1.039   1.771
 4151TIP3    H212418   1.364   1.013   1.649
 4152TIP3   OH212419   7.116   6.678   3.813
 4152TIP3    H112420   7.106   6.585   3.796
 4152TIP3    H212421   7.205   6.699   3.785
 4153TIP3   OH212422   3.619   2.108   3.939
 4153TIP3    H112423   3.564   2.080   3.865
 4153TIP3    H212424   3.574   2.074   4.016
 4154TIP3   OH212425   4.152   5.599   1.526
 4154TIP3    H112426   4.114   5.526   1.575
 4154TIP3    H212427   4.085   5.622   1.461
 4155TIP3   OH212428   5.961   2.700   1.137
 4155TIP3    H112429   5.974   2.620   1.086
 4155TIP3    H212430   5.923   2.669   1.220
 4156TIP3   OH212431   4.235   2.057   3.841
 4156TIP3    H112432   4.258   2.014   3.924
 4156TIP3    H212433   4.316   2.061   3.792
 4157TIP3   OH212434   2.686   0.559   1.894
 4157TIP3    H112435   2.738   0.492   1.850
 4157TIP3    H212436   2.735   0.579   1.974
 4158TIP3   OH212437   3.374   6.441   5.789
 4158TIP3    H112438   3.446   6.484   5.836
 4158TIP3    H212439   3.310   6.510   5.775
 4159TIP3   OH212440   7.214   1.552   1.144
 4159TIP3    H112441   7.308   1.547   1.126
 4159TIP3    H212442   7.175   1.576   1.059
 4160TIP3   OH212443   4.924   5.587   4.760
 4160TIP3    H112444   4.985   5.515   4.771
 4160TIP3    H212445   4.842   5.556   4.798
 4161TIP3   OH212446   4.797   4.113   1.304
 4161TIP3    H112447   4.751   4.185   1.347
 4161TIP3    H212448   4.777   4.036   1.357
 4162TIP3   OH212449   2.785   0.010   2.557
 4162TIP3    H112450   2.876  -0.016   2.572
 4162TIP3    H212451   2.786   0.105   2.563
 4163TIP3   OH212452   0.078   6.592   0.830
 4163TIP3    H112453   0.031   6.673   0.809
 4163TIP3    H212454   0.170   6.617   0.830
 4164TIP3   OH212455   5.884   0.364   4.087
 4164TIP3    H112456   5.862   0.439   4.031
 4164TIP3    H212457   5.921   0.403   4.166
 4165TIP3   OH212458   6.180   2.465   0.768
 4165TIP3    H112459   6.121   2.454   0.843
 4165TIP3    H212460   6.246   2.527   0.799
 4166TIP3   OH212461   4.776   3.851   5.685
 4166TIP3    H112462   4.834   3.775   5.686
 4166TIP3    H212463   4.783   3.888   5.773
 4167TIP3   OH212464   6.682   0.746   1.361
 4167TIP3    H112465   6.708   0.694   1.437
 4167TIP3    H212466   6.625   0.814   1.396
 4168TIP3   OH212467   0.236   3.211   5.490
 4168TIP3    H112468   0.155   3.163   5.477
 4168TIP3    H212469   0.291   3.153   5.542
 4169TIP3   OH212470   0.407   0.082   2.974
 4169TIP3    H112471   0.462   0.004   2.977
 4169TIP3    H212472   0.375   0.086   2.884
 4170TIP3   OH212473   2.861   2.389   4.479
 4170TIP3    H112474   2.921   2.422   4.546
 4170TIP3    H212475   2.919   2.358   4.408
 4171TIP3   OH212476   2.336   1.942   1.385
 4171TIP3    H112477   2.405   1.972   1.326
 4171TIP3    H212478   2.376   1.948   1.473
 4172TIP3   OH212479   5.183   2.080   0.567
 4172TIP3    H112480   5.152   2.137   0.637
 4172TIP3    H212481   5.107   2.029   0.541
 4173TIP3   OH212482   0.931   2.165   4.878
 4173TIP3    H112483   1.011   2.205   4.913
 4173TIP3    H212484   0.864   2.233   4.887
 4174TIP3   OH212485   3.979   5.505   5.744
 4174TIP3    H112486   4.016   5.420   5.721
 4174TIP3    H212487   3.944   5.538   5.661
 4175TIP3   OH212488   2.909   3.896   5.138
 4175TIP3    H112489   2.973   3.964   5.159
 4175TIP3    H212490   2.957   3.834   5.083
 4176TIP3   OH212491   1.843   0.370   1.530
 4176TIP3    H112492   1.826   0.462   1.551
 4176TIP3    H212493   1.766   0.342   1.481
 4177TIP3   OH212494   0.175   2.721   5.111
 4177TIP3    H112495   0.251   2.730   5.054
 4177TIP3    H212496   0.120   2.797   5.090
 4178TIP3   OH212497   3.874   3.694   4.425
 4178TIP3    H112498   3.913   3.734   4.503
 4178TIP3    H212499   3.918   3.609   4.417
 4179TIP3   OH212500   3.345   4.825   2.805
 4179TIP3    H112501   3.432   4.792   2.781
 4179TIP3    H212502   3.325   4.782   2.888
 4180TIP3   OH212503   5.849   1.313   5.716
 4180TIP3    H112504   5.810   1.393   5.681
 4180TIP3    H212505   5.911   1.343   5.782
 4181TIP3   OH212506   0.612   1.994   0.666
 4181TIP3    H112507   0.614   2.034   0.579
 4181TIP3    H212508   0.697   2.017   0.705
 4182TIP3   OH212509   2.863   2.967   4.165
 4182TIP3    H112510   2.941   2.912   4.163
 4182TIP3    H212511   2.790   2.905   4.167
 4183TIP3   OH212512   4.135   4.316   1.665
 4183TIP3    H112513   4.194   4.336   1.739
 4183TIP3    H212514   4.135   4.396   1.613
 4184TIP3   OH212515   0.268   0.253   0.290
 4184TIP3    H112516   0.358   0.264   0.261
 4184TIP3    H212517   0.218   0.312   0.233
 4185TIP3   OH212518   6.174   4.416   2.219
 4185TIP3    H112519   6.180   4.323   2.196
 4185TIP3    H212520   6.209   4.462   2.144
 4186TIP3   OH212521   5.397   5.071   4.602
 4186TIP3    H112522   5.483   5.060   4.643
 4186TIP3    H212523   5.350   5.131   4.659
 4187TIP3   OH212524   1.968   3.321   1.849
 4187TIP3    H112525   2.037   3.376   1.810
 4187TIP3    H212526   1.999   3.305   1.938
 4188TIP3   OH212527   4.613   6.022   2.355
 4188TIP3    H112528   4.696   6.067   2.370
 4188TIP3    H212529   4.621   5.986   2.267
 4189TIP3   OH212530   4.806   3.344   5.192
 4189TIP3    H112531   4.739   3.398   5.150
 4189TIP3    H212532   4.783   3.254   5.168
 4190TIP3   OH212533   5.070   0.699   1.988
 4190TIP3    H112534   5.119   0.626   1.950
 4190TIP3    H212535   5.072   0.768   1.921
 4191TIP3   OH212536   0.365   1.654   5.205
 4191TIP3    H112537   0.370   1.637   5.111
 4191TIP3    H212538   0.444   1.614   5.241
 4192TIP3   OH212539   4.826   3.547   0.614
 4192TIP3    H112540   4.754   3.575   0.558
 4192TIP3    H212541   4.898   3.528   0.555
 4193TIP3   OH212542   3.487   1.324   4.615
 4193TIP3    H112543   3.400   1.290   4.597
 4193TIP3    H212544   3.534   1.251   4.656
 4194TIP3   OH212545   7.068   0.273   4.242
 4194TIP3    H112546   7.090   0.341   4.306
 4194TIP3    H212547   7.118   0.296   4.164
 4195TIP3   OH212548   0.587   5.318   5.713
 4195TIP3    H112549   0.529   5.322   5.789
 4195TIP3    H212550   0.673   5.343   5.747
 4196TIP3   OH212551   7.073   2.061   2.644
 4196TIP3    H112552   7.005   2.086   2.707
 4196TIP3    H212553   7.043   1.977   2.609
 4197TIP3   OH212554   5.018   6.391   5.737
 4197TIP3    H112555   5.112   6.407   5.743
 4197TIP3    H212556   5.007   6.303   5.775
 4198TIP3   OH212557   5.868   4.872   2.347
 4198TIP3    H112558   5.876   4.892   2.253
 4198TIP3    H212559   5.950   4.904   2.385
 4199TIP3   OH212560   0.770   0.539   1.644
 4199TIP3    H112561   0.837   0.490   1.596
 4199TIP3    H212562   0.764   0.494   1.729
 4200TIP3   OH212563   6.944   2.402   1.833
 4200TIP3    H112564   6.860   2.415   1.791
 4200TIP3    H212565   6.928   2.422   1.926
 4201TIP3   OH212566   0.423   1.127   2.103
 4201TIP3    H112567   0.401   1.036   2.122
 4201TIP3    H212568   0.493   1.122   2.038
 4202TIP3   OH212569   2.322   3.459   0.085
 4202TIP3    H112570   2.262   3.389   0.057
 4202TIP3    H212571   2.287   3.488   0.168
 4203TIP3   OH212572   6.193   1.774   0.083
 4203TIP3    H112573   6.117   1.786   0.139
 4203TIP3    H212574   6.258   1.834   0.118
 4204TIP3   OH212575   4.687   0.769   1.790
 4204TIP3    H112576   4.642   0.823   1.855
 4204TIP3    H212577   4.737   0.832   1.738
 4205TIP3   OH212578   4.980   5.355   0.291
 4205TIP3    H112579   5.052   5.390   0.239
 4205TIP3    H212580   4.920   5.317   0.227
 4206TIP3   OH212581   0.194   0.489   3.827
 4206TIP3    H112582   0.271   0.510   3.773
 4206TIP3    H212583   0.120   0.500   3.768
 4207TIP3   OH212584   3.857   2.804   0.670
 4207TIP3    H112585   3.886   2.789   0.760
 4207TIP3    H212586   3.871   2.898   0.655
 4208TIP3   OH212587   4.194   3.716   2.660
 4208TIP3    H112588   4.271   3.661   2.643
 4208TIP3    H212589   4.209   3.794   2.607
 4209TIP3   OH212590   2.568   5.059   4.067
 4209TIP3    H112591   2.525   5.144   4.053
 4209TIP3    H212592   2.603   5.063   4.156
 4210TIP3   OH212593   0.962   3.233   0.130
 4210TIP3    H112594   0.918   3.245   0.046
 4210TIP3    H212595   1.052   3.211   0.108
 4211TIP3   OH212596   5.095   2.368   2.207
 4211TIP3    H112597   5.040   2.357   2.130
 4211TIP3    H212598   5.156   2.294   2.204
 4212TIP3   OH212599   0.036   6.363   0.194
 4212TIP3    H112600   0.052   6.290   0.255
 4212TIP3    H212601   0.102   6.428   0.216
 4213TIP3   OH212602   3.482   1.779   5.254
 4213TIP3    H112603   3.494   1.874   5.252
 4213TIP3    H212604   3.431   1.759   5.176
 4214TIP3   OH212605   6.593   3.445   0.979
 4214TIP3    H112606   6.597   3.521   1.037
 4214TIP3    H212607   6.500   3.427   0.970
 4215TIP3   OH212608   4.175   3.313   3.646
 4215TIP3    H112609   4.195   3.220   3.649
 4215TIP3    H212610   4.246   3.351   3.595
 4216TIP3   OH212611   0.223   3.670   0.465
 4216TIP3    H112612   0.202   3.748   0.515
 4216TIP3    H212613   0.318   3.676   0.449
 4217TIP3   OH212614   3.934   6.762   5.270
 4217TIP3    H112615   3.961   6.677   5.235
 4217TIP3    H212616   3.965   6.826   5.205
 4218TIP3   OH212617   3.360   4.588   3.856
 4218TIP3    H112618   3.358   4.561   3.764
 4218TIP3    H212619   3.275   4.560   3.891
 4219TIP3   OH212620   4.969   4.013   4.959
 4219TIP3    H112621   4.992   4.105   4.976
 4219TIP3    H212622   4.893   4.017   4.903
 4220TIP3   OH212623   3.393   0.709   0.055
 4220TIP3    H112624   3.412   0.622   0.021
 4220TIP3    H212625   3.431   0.709   0.143
 4221TIP3   OH212626   5.612   6.666   4.408
 4221TIP3    H112627   5.528   6.706   4.432
 4221TIP3    H212628   5.625   6.598   4.474
 4222TIP3   OH212629   1.199   0.774   5.489
 4222TIP3    H112630   1.254   0.762   5.412
 4222TIP3    H212631   1.251   0.831   5.546
 4223TIP3   OH212632   6.367   1.976   5.828
 4223TIP3    H112633   6.426   1.910   5.865
 4223TIP3    H212634   6.421   2.026   5.768
 4224TIP3   OH212635   6.134   5.371   1.149
 4224TIP3    H112636   6.229   5.369   1.161
 4224TIP3    H212637   6.103   5.434   1.213
 4225TIP3   OH212638   1.990   2.148   4.692
 4225TIP3    H112639   1.933   2.205   4.744
 4225TIP3    H212640   2.076   2.188   4.698
 4226TIP3   OH212641   1.621   2.376   4.011
 4226TIP3    H112642   1.705   2.372   3.966
 4226TIP3    H212643   1.582   2.289   3.998
 4227TIP3   OH212644   1.973   1.460   0.387
 4227TIP3    H112645   1.878   1.472   0.387
 4227TIP3    H212646   1.993   1.427   0.475
 4228TIP3   OH212647   2.846   2.093   0.198
 4228TIP3    H112648   2.934   2.109   0.164
 4228TIP3    H212649   2.804   2.179   0.198
 4229TIP3   OH212650   0.577   1.044   5.004
 4229TIP3    H112651   0.549   0.954   4.991
 4229TIP3    H212652   0.528   1.094   4.938
 4230TIP3   OH212653   4.631   4.095   3.539
 4230TIP3    H112654   4.551   4.045   3.553
 4230TIP3    H212655   4.659   4.121   3.627
 4231TIP3   OH212656   1.457   2.232   0.078
 4231TIP3    H112657   1.485   2.187  -0.002
 4231TIP3    H212658   1.423   2.316   0.047
 4232TIP3   OH212659   0.527   3.641   0.357
 4232TIP3    H112660   0.549   3.562   0.406
 4232TIP3    H212661   0.498   3.609   0.271
 4233TIP3   OH212662   6.746   5.190   2.486
 4233TIP3    H112663   6.702   5.246   2.422
 4233TIP3    H212664   6.832   5.232   2.498
 4234TIP3   OH212665   0.714   6.457   2.847
 4234TIP3    H112666   0.683   6.517   2.915
 4234TIP3    H212667   0.696   6.370   2.882
 4235TIP3   OH212668   6.404   0.064   2.034
 4235TIP3    H112669   6.428   0.074   2.126
 4235TIP3    H212670   6.432   0.146   1.993
 4236TIP3   OH212671   6.388   6.027   2.463
 4236TIP3    H112672   6.477   5.994   2.477
 4236TIP3    H212673   6.393   6.078   2.382
 4237TIP3   OH212674   4.078   6.672   0.250
 4237TIP3    H112675   4.041   6.758   0.231
 4237TIP3    H212676   4.025   6.638   0.322
 4238TIP3   OH212677   5.645   6.356   1.081
 4238TIP3    H112678   5.639   6.372   0.987
 4238TIP3    H212679   5.655   6.261   1.088
 4239TIP3   OH212680   5.966   0.230   3.325
 4239TIP3    H112681   5.932   0.291   3.259
 4239TIP3    H212682   5.993   0.287   3.398
 4240TIP3   OH212683   4.081   5.363   2.441
 4240TIP3    H112684   4.039   5.296   2.495
 4240TIP3    H212685   4.174   5.359   2.467
 4241TIP3   OH212686   5.832   4.728   4.929
 4241TIP3    H112687   5.780   4.694   4.856
 4241TIP3    H212688   5.783   4.803   4.961
 4242TIP3   OH212689   0.375   0.727   0.429
 4242TIP3    H112690   0.407   0.816   0.444
 4242TIP3    H212691   0.381   0.685   0.514
 4243TIP3   OH212692   1.974   0.819   0.246
 4243TIP3    H112693   1.925   0.739   0.264
 4243TIP3    H212694   1.925   0.887   0.292
 4244TIP3   OH212695   5.745   4.264   0.378
 4244TIP3    H112696   5.788   4.226   0.455
 4244TIP3    H212697   5.659   4.292   0.411
 4245TIP3   OH212698   0.928   2.370   2.461
 4245TIP3    H112699   0.963   2.322   2.536
 4245TIP3    H212700   0.967   2.457   2.468
 4246TIP3   OH212701   2.559   3.751   0.680
 4246TIP3    H112702   2.485   3.794   0.723
 4246TIP3    H212703   2.590   3.815   0.616
 4247TIP3   OH212704   3.318   3.081   4.018
 4247TIP3    H112705   3.340   3.069   3.926
 4247TIP3    H212706   3.222   3.080   4.020
 4248TIP3   OH212707   2.873   0.205   0.259
 4248TIP3    H112708   2.876   0.258   0.179
 4248TIP3    H212709   2.926   0.254   0.322
 4249TIP3   OH212710   4.169   0.617   1.390
 4249TIP3    H112711   4.226   0.541   1.396
 4249TIP3    H212712   4.091   0.586   1.343
 4250TIP3   OH212713   0.283   4.844   4.441
 4250TIP3    H112714   0.324   4.758   4.446
 4250TIP3    H212715   0.351   4.902   4.407
 4251TIP3   OH212716   0.688   1.265   0.536
 4251TIP3    H112717   0.673   1.350   0.578
 4251TIP3    H212718   0.671   1.202   0.605
 4252TIP3   OH212719   4.703   4.609   0.228
 4252TIP3    H112720   4.741   4.650   0.306
 4252TIP3    H212721   4.779   4.585   0.174
 4253TIP3   OH212722   4.037   6.391   3.908
 4253TIP3    H112723   4.067   6.379   3.817
 4253TIP3    H212724   4.011   6.303   3.935
 4254TIP3   OH212725   1.160   2.782   2.663
 4254TIP3    H112726   1.254   2.770   2.667
 4254TIP3    H212727   1.137   2.819   2.748
 4255TIP3   OH212728   6.938   4.175   4.113
 4255TIP3    H112729   6.909   4.149   4.026
 4255TIP3    H212730   7.032   4.193   4.103
 4256TIP3   OH212731   3.464   4.023   0.258
 4256TIP3    H112732   3.372   4.036   0.236
 4256TIP3    H212733   3.508   4.101   0.223
 4257TIP3   OH212734   0.458   0.255   4.507
 4257TIP3    H112735   0.433   0.220   4.421
 4257TIP3    H212736   0.395   0.324   4.524
 4258TIP3   OH212737   5.985   5.013   0.772
 4258TIP3    H112738   6.066   4.963   0.784
 4258TIP3    H212739   5.989   5.081   0.839
 4259TIP3   OH212740   2.859   5.726   3.215
 4259TIP3    H112741   2.946   5.697   3.187
 4259TIP3    H212742   2.831   5.659   3.277
 4260TIP3   OH212743   0.867   2.663   4.442
 4260TIP3    H112744   0.952   2.671   4.484
 4260TIP3    H212745   0.814   2.612   4.504
 4261TIP3   OH212746   2.716   4.554   3.309
 4261TIP3    H112747   2.642   4.584   3.362
 4261TIP3    H212748   2.677   4.491   3.248
 4262TIP3   OH212749   2.492   4.825   1.387
 4262TIP3    H112750   2.510   4.887   1.316
 4262TIP3    H212751   2.529   4.742   1.356
 4263TIP3   OH212752   2.458   0.103   3.283
 4263TIP3    H112753   2.476   0.016   3.248
 4263TIP3    H212754   2.482   0.096   3.376
 4264TIP3   OH212755   6.559   1.430   3.618
 4264TIP3    H112756   6.513   1.490   3.677
 4264TIP3    H212757   6.606   1.487   3.557
 4265TIP3   OH212758   3.705   3.487   3.786
 4265TIP3    H112759   3.742   3.437   3.858
 4265TIP3    H212760   3.747   3.451   3.708
 4266TIP3   OH212761   3.111   6.770   0.247
 4266TIP3    H112762   3.125   6.840   0.311
 4266TIP3    H212763   3.199   6.736   0.230
 4267TIP3   OH212764   1.643   3.437   0.173
 4267TIP3    H112765   1.614   3.490   0.098
 4267TIP3    H212766   1.589   3.468   0.246
 4268TIP3   OH212767   2.021   2.768   1.144
 4268TIP3    H112768   2.048   2.760   1.053
 4268TIP3    H212769   2.038   2.860   1.167
 4269TIP3   OH212770   5.047   4.836   0.932
 4269TIP3    H112771   5.098   4.840   1.013
 4269TIP3    H212772   4.990   4.760   0.944
 4270TIP3   OH212773   5.254   3.925   5.294
 4270TIP3    H112774   5.291   3.935   5.206
 4270TIP3    H212775   5.287   3.840   5.324
 4271TIP3   OH212776   1.611   3.604   5.135
 4271TIP3    H112777   1.700   3.598   5.100
 4271TIP3    H212778   1.565   3.660   5.073
 4272TIP3   OH212779   6.127   2.192   2.379
 4272TIP3    H112780   6.055   2.147   2.335
 4272TIP3    H212781   6.206   2.150   2.345
 4273TIP3   OH212782   5.588   3.078   3.310
 4273TIP3    H112783   5.611   3.075   3.403
 4273TIP3    H212784   5.645   3.146   3.274
 4274TIP3   OH212785   3.018   0.110   5.034
 4274TIP3    H112786   2.978   0.055   4.967
 4274TIP3    H212787   3.112   0.095   5.025
 4275TIP3   OH212788   1.280   5.620   2.934
 4275TIP3    H112789   1.256   5.647   3.023
 4275TIP3    H212790   1.368   5.656   2.922
 4276TIP3   OH212791   3.757   5.696   1.130
 4276TIP3    H112792   3.757   5.648   1.047
 4276TIP3    H212793   3.767   5.628   1.196
 4277TIP3   OH212794   2.088   1.042   4.783
 4277TIP3    H112795   2.032   1.014   4.711
 4277TIP3    H212796   2.175   1.048   4.744
 4278TIP3   OH212797   4.909   0.138   1.333
 4278TIP3    H112798   4.854   0.096   1.267
 4278TIP3    H212799   4.906   0.231   1.311
 4279TIP3   OH212800   6.258   5.708   3.591
 4279TIP3    H112801   6.274   5.802   3.581
 4279TIP3    H212802   6.185   5.702   3.653
 4280TIP3   OH212803   5.276   3.116   2.979
 4280TIP3    H112804   5.370   3.103   2.986
 4280TIP3    H212805   5.258   3.195   3.030
 4281TIP3   OH212806   5.675   1.862   1.157
 4281TIP3    H112807   5.653   1.827   1.244
 4281TIP3    H212808   5.759   1.904   1.170
 4282TIP3   OH212809   2.248   5.314   3.979
 4282TIP3    H112810   2.215   5.224   3.974
 4282TIP3    H212811   2.342   5.304   3.993
 4283TIP3   OH212812   1.688   5.794   4.217
 4283TIP3    H112813   1.685   5.855   4.291
 4283TIP3    H212814   1.610   5.815   4.165
 4284TIP3   OH212815   4.951   4.791   1.660
 4284TIP3    H112816   4.870   4.766   1.706
 4284TIP3    H212817   4.969   4.880   1.691
 4285TIP3   OH212818   5.390   0.278   1.395
 4285TIP3    H112819   5.394   0.354   1.336
 4285TIP3    H212820   5.439   0.306   1.473
 4286TIP3   OH212821   6.061   5.558   1.318
 4286TIP3    H112822   6.048   5.583   1.410
 4286TIP3    H212823   6.135   5.612   1.289
 4287TIP3   OH212824   2.972   1.922   1.663
 4287TIP3    H112825   3.046   1.873   1.699
 4287TIP3    H212826   2.973   1.901   1.570
 4288TIP3   OH212827   0.053   6.274   1.740
 4288TIP3    H112828   0.048   6.368   1.726
 4288TIP3    H212829  -0.034   6.242   1.714
 4289TIP3   OH212830   3.745   2.266   1.258
 4289TIP3    H112831   3.831   2.228   1.270
 4289TIP3    H212832   3.739   2.335   1.325
 4290TIP3   OH212833   4.037   2.031   2.761
 4290TIP3    H112834   4.000   2.021   2.848
 4290TIP3    H212835   3.984   1.973   2.705
 4291TIP3   OH212836   5.888   2.780   5.032
 4291TIP3    H112837   5.832   2.754   5.105
 4291TIP3    H212838   5.857   2.729   4.958
 4292TIP3   OH212839   0.668   5.216   2.471
 4292TIP3    H112840   0.762   5.198   2.473
 4292TIP3    H212841   0.649   5.256   2.555
 4293TIP3   OH212842   4.321   3.006   2.723
 4293TIP3    H112843   4.296   3.058   2.799
 4293TIP3    H212844   4.342   3.071   2.655
 4294TIP3   OH212845   5.628   1.329   0.547
 4294TIP3    H112846   5.720   1.344   0.526
 4294TIP3    H212847   5.601   1.259   0.488
 4295TIP3   OH212848   4.181   2.360   1.376
 4295TIP3    H112849   4.218   2.276   1.348
 4295TIP3    H212850   4.254   2.422   1.370
 4296TIP3   OH212851   5.474   1.286   0.124
 4296TIP3    H112852   5.480   1.366   0.072
 4296TIP3    H212853   5.387   1.290   0.164
 4297TIP3   OH212854   1.861   0.610   3.425
 4297TIP3    H112855   1.875   0.643   3.514
 4297TIP3    H212856   1.879   0.516   3.431
 4298TIP3   OH212857   0.886   3.590   0.813
 4298TIP3    H112858   0.842   3.547   0.740
 4298TIP3    H212859   0.848   3.548   0.891
 4299TIP3   OH212860   0.652   6.075   0.998
 4299TIP3    H112861   0.576   6.090   0.941
 4299TIP3    H212862   0.628   6.117   1.081
 4300TIP3   OH212863   1.230   3.652   3.546
 4300TIP3    H112864   1.295   3.701   3.495
 4300TIP3    H212865   1.278   3.621   3.622
 4301TIP3   OH212866   6.439   0.718   3.065
 4301TIP3    H112867   6.413   0.742   3.154
 4301TIP3    H212868   6.401   0.632   3.051
 4302TIP3   OH212869   6.747   1.904   4.991
 4302TIP3    H112870   6.719   1.949   4.912
 4302TIP3    H212871   6.837   1.877   4.972
 4303TIP3   OH212872   0.989   1.582   1.068
 4303TIP3    H112873   0.923   1.549   1.008
 4303TIP3    H212874   1.051   1.510   1.078
 4304TIP3   OH212875   2.505   5.300   4.728
 4304TIP3    H112876   2.592   5.334   4.750
 4304TIP3    H212877   2.466   5.278   4.813
 4305TIP3   OH212878   0.185   5.511   0.680
 4305TIP3    H112879   0.222   5.506   0.769
 4305TIP3    H212880   0.101   5.465   0.686
 4306TIP3   OH212881   1.254   0.734   1.987
 4306TIP3    H112882   1.316   0.662   1.981
 4306TIP3    H212883   1.172   0.693   2.016
 4307TIP3   OH212884   1.010   0.793   2.490
 4307TIP3    H112885   0.984   0.748   2.570
 4307TIP3    H212886   1.038   0.880   2.519
 4308TIP3   OH212887   7.116   2.017   4.403
 4308TIP3    H112888   7.153   2.105   4.396
 4308TIP3    H212889   7.037   2.028   4.455
 4309TIP3   OH212890   7.018   0.366   2.664
 4309TIP3    H112891   6.988   0.415   2.588
 4309TIP3    H212892   6.996   0.422   2.739
 4310TIP3   OH212893   3.867   4.345   5.737
 4310TIP3    H112894   3.957   4.346   5.768
 4310TIP3    H212895   3.843   4.438   5.732
 4311TIP3   OH212896   4.875   2.700   0.494
 4311TIP3    H112897   4.937   2.745   0.552
 4311TIP3    H212898   4.856   2.764   0.426
 4312TIP3   OH212899   4.377   3.461   4.776
 4312TIP3    H112900   4.328   3.516   4.838
 4312TIP3    H212901   4.438   3.522   4.735
 4313TIP3   OH212902   6.617   1.763   2.978
 4313TIP3    H112903   6.560   1.829   3.017
 4313TIP3    H212904   6.573   1.680   2.994
 4314TIP3   OH212905   3.371   6.336   4.457
 4314TIP3    H112906   3.280   6.354   4.431
 4314TIP3    H212907   3.415   6.421   4.449
 4315TIP3   OH212908   0.963   4.262   2.187
 4315TIP3    H112909   0.995   4.339   2.141
 4315TIP3    H212910   1.037   4.234   2.241
 4316TIP3   OH212911   4.082   4.516   2.858
 4316TIP3    H112912   4.011   4.479   2.806
 4316TIP3    H212913   4.159   4.513   2.801
 4317TIP3   OH212914   3.039   5.103   1.954
 4317TIP3    H112915   3.037   5.189   1.994
 4317TIP3    H212916   3.132   5.078   1.955
 4318TIP3   OH212917   0.746   6.033   5.198
 4318TIP3    H112918   0.837   6.035   5.169
 4318TIP3    H212919   0.696   6.070   5.125
 4319TIP3   OH212920   4.874   3.536   2.745
 4319TIP3    H112921   4.789   3.494   2.751
 4319TIP3    H212922   4.932   3.482   2.799
 4320TIP3   OH212923   2.087   1.195   3.095
 4320TIP3    H112924   2.015   1.225   3.150
 4320TIP3    H212925   2.127   1.122   3.143
 4321TIP3   OH212926   6.012   4.986   5.502
 4321TIP3    H112927   6.048   5.016   5.419
 4321TIP3    H212928   6.045   5.049   5.567
 4322TIP3   OH212929   6.636   1.302   2.798
 4322TIP3    H112930   6.688   1.360   2.854
 4322TIP3    H212931   6.549   1.343   2.797
 4323TIP3   OH212932   5.611   1.751   3.558
 4323TIP3    H112933   5.685   1.812   3.564
 4323TIP3    H212934   5.534   1.805   3.573
 4324TIP3   OH212935   0.122   4.380   5.585
 4324TIP3    H112936   0.151   4.307   5.530
 4324TIP3    H212937   0.030   4.363   5.601
 4325TIP3   OH212938   2.455   1.805   5.124
 4325TIP3    H112939   2.443   1.869   5.054
 4325TIP3    H212940   2.499   1.853   5.194
 4326TIP3   OH212941   5.392   4.268   4.058
 4326TIP3    H112942   5.466   4.208   4.056
 4326TIP3    H212943   5.331   4.229   4.121
 4327TIP3   OH212944   3.925   4.885   1.474
 4327TIP3    H112945   3.964   4.821   1.533
 4327TIP3    H212946   3.993   4.953   1.465
 4328TIP3   OH212947   4.930   6.536   5.158
 4328TIP3    H112948   4.922   6.477   5.233
 4328TIP3    H212949   4.990   6.490   5.098
 4329TIP3   OH212950   4.595   0.033   2.459
 4329TIP3    H112951   4.631  -0.032   2.519
 4329TIP3    H212952   4.663   0.047   2.394
 4330TIP3   OH212953   4.652   0.715   1.007
 4330TIP3    H112954   4.605   0.633   1.017
 4330TIP3    H212955   4.733   0.703   1.056
 4331TIP3   OH212956   5.823   3.536   0.867
 4331TIP3    H112957   5.895   3.598   0.852
 4331TIP3    H212958   5.796   3.552   0.957
 4332TIP3   OH212959   2.899   0.320   2.704
 4332TIP3    H112960   2.807   0.320   2.676
 4332TIP3    H212961   2.908   0.399   2.757
 4333TIP3   OH212962   4.150   4.185   4.682
 4333TIP3    H112963   4.055   4.184   4.693
 4333TIP3    H212964   4.165   4.249   4.612
 4334TIP3   OH212965   0.196   0.986   5.538
 4334TIP3    H112966   0.114   1.034   5.552
 4334TIP3    H212967   0.261   1.035   5.588
 4335TIP3   OH212968   4.265   4.290   2.466
 4335TIP3    H112969   4.337   4.350   2.451
 4335TIP3    H212970   4.259   4.283   2.562
 4336TIP3   OH212971   5.950   2.804   0.420
 4336TIP3    H112972   5.890   2.729   0.415
 4336TIP3    H212973   6.033   2.766   0.447
 4337TIP3   OH212974   2.493   4.451   3.750
 4337TIP3    H112975   2.585   4.479   3.758
 4337TIP3    H212976   2.496   4.357   3.767
 4338TIP3   OH212977   0.249   5.552   2.099
 4338TIP3    H112978   0.187   5.580   2.166
 4338TIP3    H212979   0.199   5.490   2.045
 4339TIP3   OH212980   2.662   0.743   1.386
 4339TIP3    H112981   2.594   0.675   1.388
 4339TIP3    H212982   2.707   0.730   1.302
 4340TIP3   OH212983   1.846   2.522   5.388
 4340TIP3    H112984   1.762   2.477   5.385
 4340TIP3    H212985   1.833   2.602   5.338
 4341TIP3   OH212986   2.985   0.046   0.564
 4341TIP3    H112987   3.041   0.059   0.487
 4341TIP3    H212988   2.906   0.004   0.529
 4342TIP3   OH212989   2.430   4.049   2.054
 4342TIP3    H112990   2.441   4.139   2.084
 4342TIP3    H212991   2.499   4.036   1.989
 4343TIP3   OH212992   4.484   1.080   5.093
 4343TIP3    H112993   4.565   1.047   5.052
 4343TIP3    H212994   4.478   1.171   5.066
 4344TIP3   OH212995   6.073   6.021   5.251
 4344TIP3    H112996   6.065   6.003   5.158
 4344TIP3    H212997   6.028   5.948   5.294
 4345TIP3   OH212998   2.349   0.020   0.782
 4345TIP3    H112999   2.343   0.114   0.800
 4345TIP3    H213000   2.384   0.015   0.693
 4346TIP3   OH213001   4.021   2.981   5.039
 4346TIP3    H113002   4.110   3.004   5.010
 4346TIP3    H213003   3.988   2.922   4.971
 4347TIP3   OH213004   3.018   4.363   1.676
 4347TIP3    H113005   3.099   4.334   1.632
 4347TIP3    H213006   2.978   4.424   1.614
 4348TIP3   OH213007   5.147   4.401   0.096
 4348TIP3    H113008   5.215   4.424   0.159
 4348TIP3    H213009   5.191   4.396   0.012
 4349TIP3   OH213010   5.585   5.933   2.614
 4349TIP3    H113011   5.569   5.959   2.523
 4349TIP3    H213012   5.617   6.013   2.656
 4350TIP3   OH213013   2.182   2.121   4.206
 4350TIP3    H113014   2.163   2.196   4.263
 4350TIP3    H213015   2.109   2.119   4.144
 4351TIP3   OH213016   4.531   5.683   4.790
 4351TIP3    H113017   4.609   5.640   4.825
 4351TIP3    H213018   4.499   5.736   4.862
 4352TIP3   OH213019   1.356   1.920   0.488
 4352TIP3    H113020   1.397   1.862   0.425
 4352TIP3    H213021   1.322   1.993   0.436
 4353TIP3   OH213022   0.360   4.782   1.010
 4353TIP3    H113023   0.296   4.753   1.075
 4353TIP3    H213024   0.438   4.802   1.061
 4354TIP3   OH213025   5.193   6.206   2.503
 4354TIP3    H113026   5.129   6.269   2.470
 4354TIP3    H213027   5.270   6.260   2.522
 4355TIP3   OH213028   6.127   3.597   3.628
 4355TIP3    H113029   6.126   3.571   3.536
 4355TIP3    H213030   6.199   3.660   3.634
 4356TIP3   OH213031   2.402   0.088   2.684
 4356TIP3    H113032   2.340   0.105   2.613
 4356TIP3    H213033   2.474   0.041   2.643
 4357TIP3   OH213034   0.822   2.088   5.575
 4357TIP3    H113035   0.888   2.150   5.605
 4357TIP3    H213036   0.758   2.084   5.647
 4358TIP3   OH213037   5.868   0.336   3.055
 4358TIP3    H113038   5.850   0.421   3.013
 4358TIP3    H213039   5.897   0.280   2.984
 4359TIP3   OH213040   2.815   0.060   3.090
 4359TIP3    H113041   2.889   0.112   3.122
 4359TIP3    H213042   2.739   0.117   3.101
 4360TIP3   OH213043   1.217   2.332   2.616
 4360TIP3    H113044   1.271   2.410   2.628
 4360TIP3    H213045   1.264   2.279   2.551
 4361TIP3   OH213046   1.969   3.302   2.771
 4361TIP3    H113047   1.960   3.387   2.728
 4361TIP3    H213048   1.992   3.242   2.700
 4362TIP3   OH213049   2.089   3.384   1.375
 4362TIP3    H113050   1.999   3.412   1.391
 4362TIP3    H213051   2.129   3.457   1.328
 4363TIP3   OH213052   1.067   0.526   2.060
 4363TIP3    H113053   1.116   0.450   2.029
 4363TIP3    H213054   1.078   0.525   2.156
 4364TIP3   OH213055   5.903   6.037   2.609
 4364TIP3    H113056   5.820   5.994   2.630
 4364TIP3    H213057   5.891   6.071   2.521
 4365TIP3   OH213058   2.613   2.049   3.053
 4365TIP3    H113059   2.657   2.015   3.131
 4365TIP3    H213060   2.666   2.017   2.980
 4366TIP3   OH213061   4.696   2.580   2.618
 4366TIP3    H113062   4.717   2.622   2.702
 4366TIP3    H213063   4.760   2.615   2.557
 4367TIP3   OH213064   4.129   2.733   3.272
 4367TIP3    H113065   4.179   2.781   3.206
 4367TIP3    H213066   4.055   2.790   3.292
 4368TIP3   OH213067   3.363   3.507   2.834
 4368TIP3    H113068   3.375   3.451   2.910
 4368TIP3    H213069   3.390   3.594   2.864
 4369TIP3   OH213070   5.431   6.354   0.550
 4369TIP3    H113071   5.506   6.308   0.588
 4369TIP3    H213072   5.356   6.297   0.569
 4370TIP3   OH213073   4.154   6.398   1.837
 4370TIP3    H113074   4.234   6.355   1.808
 4370TIP3    H213075   4.183   6.458   1.906
 4371TIP3   OH213076   2.506   5.820   1.562
 4371TIP3    H113077   2.582   5.795   1.510
 4371TIP3    H213078   2.431   5.805   1.504
 4372TIP3   OH213079   5.873   4.857   2.852
 4372TIP3    H113080   5.847   4.814   2.933
 4372TIP3    H213081   5.842   4.799   2.783
 4373TIP3   OH213082   1.395   6.422   0.932
 4373TIP3    H113083   1.361   6.393   1.017
 4373TIP3    H213084   1.422   6.512   0.946
 4374TIP3   OH213085   6.568   3.871   0.776
 4374TIP3    H113086   6.643   3.919   0.811
 4374TIP3    H213087   6.494   3.901   0.829
 4375TIP3   OH213088   0.970   6.540   3.806
 4375TIP3    H113089   0.950   6.546   3.900
 4375TIP3    H213090   1.046   6.481   3.802
 4376TIP3   OH213091   6.878   2.059   0.913
 4376TIP3    H113092   6.868   2.154   0.921
 4376TIP3    H213093   6.788   2.026   0.910
 4377TIP3   OH213094   6.353   3.281   1.390
 4377TIP3    H113095   6.292   3.343   1.429
 4377TIP3    H213096   6.340   3.200   1.439
 4378TIP3   OH213097   7.041   3.567   2.599
 4378TIP3    H113098   6.959   3.566   2.649
 4378TIP3    H213099   7.109   3.547   2.664
 4379TIP3   OH213100   6.439   3.319   4.798
 4379TIP3    H113101   6.419   3.395   4.854
 4379TIP3    H213102   6.409   3.244   4.848
 4380TIP3   OH213103   5.938   6.753   1.234
 4380TIP3    H113104   5.902   6.664   1.240
 4380TIP3    H213105   5.899   6.800   1.307
 4381TIP3   OH213106   2.643   3.920   0.460
 4381TIP3    H113107   2.572   3.978   0.429
 4381TIP3    H213108   2.675   3.878   0.380
 4382TIP3   OH213109   2.897   3.736   5.367
 4382TIP3    H113110   2.925   3.786   5.290
 4382TIP3    H213111   2.975   3.689   5.395
 4383TIP3   OH213112   1.903   1.008   4.555
 4383TIP3    H113113   1.971   1.001   4.489
 4383TIP3    H213114   1.839   1.069   4.518
 4384TIP3   OH213115   0.798   3.673   4.416
 4384TIP3    H113116   0.875   3.678   4.359
 4384TIP3    H213117   0.825   3.614   4.486
 4385TIP3   OH213118   5.418   4.737   0.947
 4385TIP3    H113119   5.349   4.717   1.010
 4385TIP3    H213120   5.432   4.831   0.956
 4386TIP3   OH213121   4.119   5.267   0.401
 4386TIP3    H113122   4.154   5.322   0.471
 4386TIP3    H213123   4.144   5.312   0.320
 4387TIP3   OH213124   6.618   5.996   4.973
 4387TIP3    H113125   6.526   6.019   4.968
 4387TIP3    H213126   6.665   6.076   4.950
 4388TIP3   OH213127   0.503   2.750   0.410
 4388TIP3    H113128   0.551   2.799   0.476
 4388TIP3    H213129   0.436   2.810   0.378
 4389TIP3   OH213130   1.309   4.964   5.560
 4389TIP3    H113131   1.337   4.890   5.613
 4389TIP3    H213132   1.284   5.032   5.623
 4390TIP3   OH213133   4.192   6.746   2.264
 4390TIP3    H113134   4.164   6.752   2.356
 4390TIP3    H213135   4.266   6.806   2.258
 4391TIP3   OH213136   1.140   3.355   2.824
 4391TIP3    H113137   1.097   3.312   2.749
 4391TIP3    H213138   1.118   3.298   2.899
 4392TIP3   OH213139   1.926   1.649   0.785
 4392TIP3    H113140   1.987   1.703   0.836
 4392TIP3    H213141   1.879   1.598   0.851
 4393TIP3   OH213142   5.209   6.315   0.148
 4393TIP3    H113143   5.252   6.242   0.192
 4393TIP3    H213144   5.213   6.387   0.211
 4394TIP3   OH213145   3.882   2.231   2.526
 4394TIP3    H113146   3.825   2.170   2.480
 4394TIP3    H213147   3.971   2.209   2.497
 4395TIP3   OH213148   6.771   0.639   2.168
 4395TIP3    H113149   6.842   0.666   2.226
 4395TIP3    H213150   6.760   0.545   2.184
 4396TIP3   OH213151   2.182   0.515   1.766
 4396TIP3    H113152   2.185   0.444   1.702
 4396TIP3    H213153   2.091   0.546   1.764
 4397TIP3   OH213154   2.976   1.974   3.982
 4397TIP3    H113155   2.956   2.004   3.894
 4397TIP3    H213156   2.903   2.005   4.035
 4398TIP3   OH213157   1.208   3.011   1.790
 4398TIP3    H113158   1.204   3.106   1.804
 4398TIP3    H213159   1.222   2.974   1.877
 4399TIP3   OH213160   1.518   2.852   1.474
 4399TIP3    H113161   1.448   2.831   1.536
 4399TIP3    H213162   1.579   2.906   1.525
 4400TIP3   OH213163   2.539   3.174   4.957
 4400TIP3    H113164   2.458   3.205   4.997
 4400TIP3    H213165   2.569   3.104   5.015
 4401TIP3   OH213166   0.319   2.238   2.139
 4401TIP3    H113167   0.413   2.242   2.123
 4401TIP3    H213168   0.293   2.151   2.109
 4402TIP3   OH213169   2.415   4.956   5.906
 4402TIP3    H113170   2.487   4.897   5.927
 4402TIP3    H213171   2.336   4.908   5.929
 4403TIP3   OH213172   6.989   0.894   0.983
 4403TIP3    H113173   6.899   0.894   1.017
 4403TIP3    H213174   6.986   0.835   0.908
 4404TIP3   OH213175   0.581   0.374   3.353
 4404TIP3    H113176   0.634   0.350   3.429
 4404TIP3    H213177   0.510   0.309   3.352
 4405TIP3   OH213178   0.762   3.816   4.657
 4405TIP3    H113179   0.856   3.822   4.673
 4405TIP3    H213180   0.755   3.797   4.563
 4406TIP3   OH213181   4.257   4.965   3.066
 4406TIP3    H113182   4.267   5.008   2.981
 4406TIP3    H213183   4.217   4.880   3.045
 4407TIP3   OH213184   6.696   3.005   1.242
 4407TIP3    H113185   6.775   2.969   1.203
 4407TIP3    H213186   6.671   3.077   1.185
 4408TIP3   OH213187   0.950   2.615   2.570
 4408TIP3    H113188   1.027   2.671   2.572
 4408TIP3    H213189   0.897   2.645   2.644
 4409TIP3   OH213190   0.453   0.799   4.761
 4409TIP3    H113191   0.469   0.797   4.856
 4409TIP3    H213192   0.524   0.854   4.727
 4410TIP3   OH213193   6.510   6.298   4.058
 4410TIP3    H113194   6.589   6.287   4.111
 4410TIP3    H213195   6.489   6.210   4.028
 4411TIP3   OH213196   3.339   5.378   3.162
 4411TIP3    H113197   3.411   5.337   3.211
 4411TIP3    H213198   3.349   5.344   3.073
 4412TIP3   OH213199   2.064   1.331   1.503
 4412TIP3    H113200   2.071   1.383   1.583
 4412TIP3    H213201   2.138   1.271   1.506
 4413TIP3   OH213202   3.597   5.792   1.744
 4413TIP3    H113203   3.577   5.795   1.650
 4413TIP3    H213204   3.563   5.874   1.778
 4414TIP3   OH213205   1.876   2.638   2.987
 4414TIP3    H113206   1.842   2.687   2.912
 4414TIP3    H213207   1.873   2.546   2.959
 4415TIP3   OH213208   2.714   4.332   1.357
 4415TIP3    H113209   2.673   4.374   1.433
 4415TIP3    H213210   2.698   4.239   1.369
 4416TIP3   OH213211   5.897   2.098   5.313
 4416TIP3    H113212   5.902   2.064   5.224
 4416TIP3    H213213   5.813   2.145   5.316
 4417TIP3   OH213214   5.133   0.231   5.520
 4417TIP3    H113215   5.135   0.322   5.491
 4417TIP3    H213216   5.092   0.183   5.448
 4418TIP3   OH213217   6.659   2.083   3.388
 4418TIP3    H113218   6.624   2.171   3.378
 4418TIP3    H213219   6.640   2.059   3.479
 4419TIP3   OH213220   5.860   0.097   4.068
 4419TIP3    H113221   5.847   0.087   3.974
 4419TIP3    H213222   5.861   0.191   4.082
 4420TIP3   OH213223   0.301   1.187   0.142
 4420TIP3    H113224   0.250   1.111   0.170
 4420TIP3    H213225   0.392   1.164   0.164
 4421TIP3   OH213226   6.937   4.931   1.290
 4421TIP3    H113227   6.990   4.956   1.366
 4421TIP3    H213228   6.859   4.891   1.328
 4422TIP3   OH213229   2.426   5.263   1.002
 4422TIP3    H113230   2.393   5.285   0.915
 4422TIP3    H213231   2.520   5.281   0.997
 4423TIP3   OH213232   4.384   2.103   3.290
 4423TIP3    H113233   4.290   2.084   3.293
 4423TIP3    H213234   4.425   2.017   3.277
 4424TIP3   OH213235   0.361   0.942   5.336
 4424TIP3    H113236   0.334   1.003   5.268
 4424TIP3    H213237   0.280   0.924   5.385
 4425TIP3   OH213238   1.003   5.712   2.515
 4425TIP3    H113239   1.057   5.747   2.587
 4425TIP3    H213240   0.986   5.788   2.459
 4426TIP3   OH213241   1.347   5.819   0.920
 4426TIP3    H113242   1.411   5.881   0.884
 4426TIP3    H213243   1.271   5.874   0.943
 4427TIP3   OH213244   2.945   5.051   5.019
 4427TIP3    H113245   2.866   5.068   4.967
 4427TIP3    H213246   3.014   5.100   4.975
 4428TIP3   OH213247   0.770   6.749   1.891
 4428TIP3    H113248   0.730   6.813   1.833
 4428TIP3    H213249   0.858   6.735   1.856
 4429TIP3   OH213250   4.158   1.315   5.846
 4429TIP3    H113251   4.169   1.221   5.856
 4429TIP3    H213252   4.069   1.325   5.812
 4430TIP3   OH213253   3.540   0.791   0.904
 4430TIP3    H113254   3.578   0.764   0.987
 4430TIP3    H213255   3.594   0.865   0.876
 4431TIP3   OH213256   1.790   1.943   1.412
 4431TIP3    H113257   1.731   2.005   1.453
 4431TIP3    H213258   1.742   1.860   1.412
 4432TIP3   OH213259   1.581   0.323   3.944
 4432TIP3    H113260   1.580   0.382   4.019
 4432TIP3    H213261   1.489   0.315   3.919
 4433TIP3   OH213262   1.169   6.036   1.419
 4433TIP3    H113263   1.078   6.055   1.395
 4433TIP3    H213264   1.162   5.970   1.488
 4434TIP3   OH213265   3.122   0.500   5.280
 4434TIP3    H113266   3.191   0.435   5.272
 4434TIP3    H213267   3.052   0.469   5.222
 4435TIP3   OH213268   0.105   5.065   3.826
 4435TIP3    H113269   0.166   5.051   3.899
 4435TIP3    H213270   0.160   5.087   3.752
 4436TIP3   OH213271   5.991   6.021   4.587
 4436TIP3    H113272   6.031   6.016   4.674
 4436TIP3    H213273   5.917   5.960   4.591
 4437TIP3   OH213274   0.640   2.432   5.092
 4437TIP3    H113275   0.554   2.441   5.051
 4437TIP3    H213276   0.702   2.440   5.020
 4438TIP3   OH213277   6.157   3.138   0.393
 4438TIP3    H113278   6.248   3.123   0.368
 4438TIP3    H213279   6.113   3.055   0.377
 4439TIP3   OH213280   5.085   3.426   4.097
 4439TIP3    H113281   5.159   3.482   4.074
 4439TIP3    H213282   5.125   3.340   4.112
 4440TIP3   OH213283   6.995   5.201   1.900
 4440TIP3    H113284   7.010   5.237   1.987
 4440TIP3    H213285   6.960   5.114   1.915
 4441TIP3   OH213286   6.454   6.398   4.447
 4441TIP3    H113287   6.522   6.392   4.381
 4441TIP3    H213288   6.492   6.452   4.516
 4442TIP3   OH213289   4.365   5.896   3.391
 4442TIP3    H113290   4.397   5.970   3.441
 4442TIP3    H213291   4.269   5.905   3.394
 4443TIP3   OH213292   7.192   6.734   1.827
 4443TIP3    H113293   7.157   6.724   1.915
 4443TIP3    H213294   7.286   6.742   1.838
 4444TIP3   OH213295   4.372   1.244  -0.043
 4444TIP3    H113296   4.406   1.182   0.021
 4444TIP3    H213297   4.442   1.307  -0.057
 4445TIP3   OH213298   0.565   3.611   3.885
 4445TIP3    H113299   0.580   3.611   3.980
 4445TIP3    H213300   0.530   3.524   3.867
 4446TIP3   OH213301   4.394   5.959   4.874
 4446TIP3    H113302   4.389   6.046   4.835
 4446TIP3    H213303   4.466   5.966   4.938
 4447TIP3   OH213304   1.533   3.381   3.835
 4447TIP3    H113305   1.545   3.294   3.799
 4447TIP3    H213306   1.555   3.373   3.928
 4448TIP3   OH213307   6.242   6.626   2.452
 4448TIP3    H113308   6.237   6.711   2.495
 4448TIP3    H213309   6.320   6.584   2.490
 4449TIP3   OH213310   1.198   2.297   4.647
 4449TIP3    H113311   1.202   2.257   4.734
 4449TIP3    H213312   1.182   2.390   4.664
 4450TIP3   OH213313   0.815   1.346   2.737
 4450TIP3    H113314   0.764   1.404   2.794
 4450TIP3    H213315   0.906   1.358   2.766
 4451TIP3   OH213316   3.555   1.636   1.304
 4451TIP3    H113317   3.603   1.671   1.379
 4451TIP3    H213318   3.463   1.651   1.325
 4452TIP3   OH213319   2.448   5.411   0.330
 4452TIP3    H113320   2.488   5.455   0.405
 4452TIP3    H213321   2.479   5.321   0.335
 4453TIP3   OH213322   6.032   5.330   5.859
 4453TIP3    H113323   6.067   5.344   5.946
 4453TIP3    H213324   6.064   5.403   5.807
 4454TIP3   OH213325   5.318   4.118   1.315
 4454TIP3    H113326   5.376   4.169   1.371
 4454TIP3    H213327   5.231   4.131   1.352
 4455TIP3   OH213328   4.291   2.725   4.167
 4455TIP3    H113329   4.358   2.729   4.099
 4455TIP3    H213330   4.280   2.631   4.184
 4456TIP3   OH213331   6.571   1.606   1.120
 4456TIP3    H113332   6.545   1.542   1.053
 4456TIP3    H213333   6.530   1.688   1.091
 4457TIP3   OH213334   4.094   4.566   5.458
 4457TIP3    H113335   4.082   4.610   5.374
 4457TIP3    H213336   4.123   4.478   5.436
 4458TIP3   OH213337   1.915   6.282   3.728
 4458TIP3    H113338   1.920   6.377   3.732
 4458TIP3    H213339   1.842   6.264   3.669
 4459TIP3   OH213340   5.179   0.334   4.011
 4459TIP3    H113341   5.096   0.303   4.046
 4459TIP3    H213342   5.156   0.375   3.928
 4460TIP3   OH213343   2.617   3.194   2.765
 4460TIP3    H113344   2.665   3.118   2.734
 4460TIP3    H213345   2.525   3.174   2.747
 4461TIP3   OH213346   6.290   1.617   0.376
 4461TIP3    H113347   6.368   1.607   0.322
 4461TIP3    H213348   6.256   1.704   0.354
 4462TIP3   OH213349   6.296   3.486   1.906
 4462TIP3    H113350   6.311   3.563   1.852
 4462TIP3    H213351   6.370   3.428   1.887
 4463TIP3   OH213352   1.422   4.207   1.965
 4463TIP3    H113353   1.437   4.159   2.047
 4463TIP3    H213354   1.509   4.236   1.939
 4464TIP3   OH213355   7.133   3.430   0.046
 4464TIP3    H113356   7.148   3.439   0.140
 4464TIP3    H213357   7.040   3.409   0.038
 4465TIP3   OH213358   4.946   2.986   5.750
 4465TIP3    H113359   4.976   2.895   5.750
 4465TIP3    H213360   4.920   3.003   5.841
 4466TIP3   OH213361   4.487   4.902   4.514
 4466TIP3    H113362   4.488   4.897   4.610
 4466TIP3    H213363   4.511   4.814   4.486
 4467TIP3   OH213364   2.245   0.255   4.186
 4467TIP3    H113365   2.223   0.169   4.149
 4467TIP3    H213366   2.201   0.257   4.271
 4468TIP3   OH213367   6.506   0.305   5.773
 4468TIP3    H113368   6.473   0.218   5.752
 4468TIP3    H213369   6.593   0.288   5.810
 4469TIP3   OH213370   0.327   0.376   1.276
 4469TIP3    H113371   0.412   0.392   1.316
 4469TIP3    H213372   0.306   0.457   1.230
 4470TIP3   OH213373   7.074   2.089   5.506
 4470TIP3    H113374   7.036   2.064   5.590
 4470TIP3    H213375   6.999   2.104   5.449
 4471TIP3   OH213376   2.544   6.164   3.836
 4471TIP3    H113377   2.536   6.105   3.761
 4471TIP3    H213378   2.572   6.248   3.798
 4472TIP3   OH213379   0.597   1.442   4.005
 4472TIP3    H113380   0.613   1.391   4.084
 4472TIP3    H213381   0.598   1.378   3.934
 4473TIP3   OH213382   3.649   2.805   5.579
 4473TIP3    H113383   3.694   2.764   5.652
 4473TIP3    H213384   3.646   2.898   5.602
 4474TIP3   OH213385   2.627   0.264   3.146
 4474TIP3    H113386   2.549   0.228   3.188
 4474TIP3    H213387   2.623   0.358   3.163
 4475TIP3   OH213388   3.380   3.453   1.192
 4475TIP3    H113389   3.377   3.454   1.096
 4475TIP3    H213390   3.431   3.530   1.214
 4476TIP3   OH213391   5.840   2.276   2.157
 4476TIP3    H113392   5.830   2.194   2.206
 4476TIP3    H213393   5.845   2.344   2.225
 4477TIP3   OH213394   5.209   0.455   4.246
 4477TIP3    H113395   5.290   0.433   4.292
 4477TIP3    H213396   5.194   0.382   4.186
 4478TIP3   OH213397   3.394   2.217   5.506
 4478TIP3    H113398   3.417   2.200   5.597
 4478TIP3    H213399   3.477   2.212   5.459
 4479TIP3   OH213400   2.705   3.487   4.531
 4479TIP3    H113401   2.793   3.448   4.529
 4479TIP3    H213402   2.684   3.496   4.624
 4480TIP3   OH213403   5.236   1.398   2.462
 4480TIP3    H113404   5.207   1.382   2.372
 4480TIP3    H213405   5.318   1.350   2.470
 4481TIP3   OH213406   4.395   5.285   1.111
 4481TIP3    H113407   4.377   5.276   1.018
 4481TIP3    H213408   4.488   5.265   1.119
 4482TIP3   OH213409   4.014   0.737   2.017
 4482TIP3    H113410   4.075   0.679   1.971
 4482TIP3    H213411   4.038   0.825   1.986
 4483TIP3   OH213412   3.105   0.593   3.401
 4483TIP3    H113413   3.121   0.570   3.492
 4483TIP3    H213414   3.048   0.523   3.367
 4484TIP3   OH213415   6.924   4.583   5.419
 4484TIP3    H113416   6.878   4.598   5.336
 4484TIP3    H213417   6.974   4.664   5.433
 4485TIP3   OH213418   5.899   0.119   5.482
 4485TIP3    H113419   5.918   0.103   5.575
 4485TIP3    H213420   5.930   0.040   5.437
 4486TIP3   OH213421   2.614   4.168   1.029
 4486TIP3    H113422   2.673   4.242   1.046
 4486TIP3    H213423   2.529   4.198   1.060
 4487TIP3   OH213424   5.655   4.144   5.052
 4487TIP3    H113425   5.589   4.158   5.120
 4487TIP3    H213426   5.739   4.151   5.098
 4488TIP3   OH213427   0.360   5.817   0.909
 4488TIP3    H113428   0.316   5.808   0.824
 4488TIP3    H213429   0.347   5.732   0.952
 4489TIP3   OH213430   3.834   2.151   0.944
 4489TIP3    H113431   3.814   2.173   1.034
 4489TIP3    H213432   3.806   2.060   0.935
 4490TIP3   OH213433   6.735   3.053   3.230
 4490TIP3    H113434   6.674   3.076   3.160
 4490TIP3    H213435   6.715   2.962   3.250
 4491TIP3   OH213436   3.243   3.771   1.526
 4491TIP3    H113437   3.324   3.720   1.521
 4491TIP3    H213438   3.196   3.734   1.601
 4492TIP3   OH213439   6.234   0.812   1.709
 4492TIP3    H113440   6.168   0.743   1.713
 4492TIP3    H213441   6.212   0.870   1.782
 4493TIP3   OH213442   2.387   2.376   4.358
 4493TIP3    H113443   2.293   2.385   4.375
 4493TIP3    H213444   2.399   2.407   4.269
 4494TIP3   OH213445   1.070   1.664   0.788
 4494TIP3    H113446   0.978   1.660   0.811
 4494TIP3    H213447   1.109   1.724   0.852
 4495TIP3   OH213448   4.085   0.345   3.211
 4495TIP3    H113449   3.994   0.375   3.204
 4495TIP3    H213450   4.077   0.254   3.240
 4496TIP3   OH213451   0.390   4.385   0.881
 4496TIP3    H113452   0.354   4.364   0.968
 4496TIP3    H213453   0.424   4.474   0.890
 4497TIP3   OH213454   0.537   0.252   2.033
 4497TIP3    H113455   0.445   0.254   2.004
 4497TIP3    H213456   0.543   0.325   2.095
 4498TIP3   OH213457   3.897   4.888   0.729
 4498TIP3    H113458   3.963   4.875   0.796
 4498TIP3    H213459   3.814   4.878   0.775
 4499TIP3   OH213460   4.303   4.419   1.873
 4499TIP3    H113461   4.300   4.514   1.861
 4499TIP3    H213462   4.391   4.394   1.847
 4500TIP3   OH213463   5.459   6.711   2.962
 4500TIP3    H113464   5.414   6.677   3.039
 4500TIP3    H213465   5.532   6.761   2.997
 4501TIP3   OH213466   5.439   0.528   3.708
 4501TIP3    H113467   5.497   0.457   3.679
 4501TIP3    H213468   5.494   0.606   3.705
 4502TIP3   OH213469   6.117   3.788   0.297
 4502TIP3    H113470   6.080   3.704   0.322
 4502TIP3    H213471   6.056   3.853   0.332
 4503TIP3   OH213472   6.400   0.255   2.564
 4503TIP3    H113473   6.384   0.282   2.655
 4503TIP3    H213474   6.318   0.277   2.519
 4504TIP3   OH213475   2.807   3.046   3.323
 4504TIP3    H113476   2.826   3.087   3.239
 4504TIP3    H213477   2.712   3.034   3.323
 4505TIP3   OH213478   1.274   3.127   4.199
 4505TIP3    H113479   1.203   3.082   4.154
 4505TIP3    H213480   1.231   3.168   4.274
 4506TIP3   OH213481   5.700   3.523   2.359
 4506TIP3    H113482   5.705   3.480   2.444
 4506TIP3    H213483   5.676   3.613   2.379
 4507TIP3   OH213484   6.165   4.557   3.051
 4507TIP3    H113485   6.224   4.597   2.988
 4507TIP3    H213486   6.218   4.492   3.097
 4508TIP3   OH213487   3.115   2.151   5.329
 4508TIP3    H113488   3.074   2.146   5.243
 4508TIP3    H213489   3.187   2.213   5.318
 4509TIP3   OH213490   0.295   6.496   0.239
 4509TIP3    H113491   0.289   6.581   0.196
 4509TIP3    H213492   0.321   6.436   0.169
 4510TIP3   OH213493   0.593   5.714   5.829
 4510TIP3    H113494   0.608   5.685   5.919
 4510TIP3    H213495   0.679   5.740   5.797
 4511TIP3   OH213496   3.755   1.433   0.382
 4511TIP3    H113497   3.700   1.405   0.309
 4511TIP3    H213498   3.721   1.519   0.407
 4512TIP3   OH213499   1.444   3.425   0.682
 4512TIP3    H113500   1.513   3.455   0.740
 4512TIP3    H213501   1.436   3.494   0.615
 4513TIP3   OH213502   5.120   1.487   4.467
 4513TIP3    H113503   5.129   1.493   4.372
 4513TIP3    H213504   5.027   1.467   4.482
 4514TIP3   OH213505   2.779   2.310   2.025
 4514TIP3    H113506   2.861   2.267   2.050
 4514TIP3    H213507   2.805   2.401   2.006
 4515TIP3   OH213508   1.185   2.095   0.865
 4515TIP3    H113509   1.217   2.186   0.860
 4515TIP3    H213510   1.170   2.070   0.774
 4516TIP3   OH213511   4.127   3.599   0.159
 4516TIP3    H113512   4.050   3.579   0.107
 4516TIP3    H213513   4.129   3.532   0.227
 4517TIP3   OH213514   0.969   4.042   4.429
 4517TIP3    H113515   0.933   3.990   4.358
 4517TIP3    H213516   0.902   4.110   4.445
 4518TIP3   OH213517   2.121   2.849   5.256
 4518TIP3    H113518   2.185   2.825   5.323
 4518TIP3    H213519   2.136   2.786   5.185
 4519TIP3   OH213520   5.509   2.455   3.846
 4519TIP3    H113521   5.571   2.451   3.774
 4519TIP3    H213522   5.491   2.363   3.867
 4520TIP3   OH213523   0.419   6.248   0.111
 4520TIP3    H113524   0.487   6.233   0.045
 4520TIP3    H213525   0.465   6.239   0.194
 4521TIP3   OH213526   4.978   6.144   5.841
 4521TIP3    H113527   5.066   6.113   5.818
 4521TIP3    H213528   4.927   6.134   5.760
 4522TIP3   OH213529   0.695   3.189   3.251
 4522TIP3    H113530   0.772   3.244   3.235
 4522TIP3    H213531   0.636   3.210   3.179
 4523TIP3   OH213532   3.334   2.827   2.554
 4523TIP3    H113533   3.331   2.838   2.459
 4523TIP3    H213534   3.272   2.757   2.572
 4524TIP3   OH213535   4.455   0.084   5.765
 4524TIP3    H113536   4.509   0.145   5.715
 4524TIP3    H213537   4.450   0.124   5.852
 4525TIP3   OH213538   5.206   3.666   3.297
 4525TIP3    H113539   5.253   3.582   3.293
 4525TIP3    H213540   5.275   3.732   3.305
 4526TIP3   OH213541   3.317   5.438   2.379
 4526TIP3    H113542   3.263   5.410   2.453
 4526TIP3    H213543   3.296   5.531   2.368
 4527TIP3   OH213544   1.144   3.354   2.273
 4527TIP3    H113545   1.160   3.379   2.182
 4527TIP3    H213546   1.051   3.333   2.277
 4528TIP3   OH213547   6.266   0.465   5.247
 4528TIP3    H113548   6.333   0.459   5.180
 4528TIP3    H213549   6.238   0.374   5.262
 4529TIP3   OH213550   2.130   4.297   5.857
 4529TIP3    H113551   2.202   4.343   5.815
 4529TIP3    H213552   2.152   4.204   5.849
 4530TIP3   OH213553   2.139   1.610   2.141
 4530TIP3    H113554   2.168   1.675   2.205
 4530TIP3    H213555   2.166   1.526   2.178
 4531TIP3   OH213556   0.599   4.852   1.188
 4531TIP3    H113557   0.686   4.883   1.162
 4531TIP3    H213558   0.587   4.886   1.276
 4532TIP3   OH213559   0.212   1.945   2.319
 4532TIP3    H113560   0.243   1.920   2.406
 4532TIP3    H213561   0.291   1.973   2.273
 4533TIP3   OH213562   4.806   5.102   3.236
 4533TIP3    H113563   4.810   5.197   3.250
 4533TIP3    H213564   4.760   5.093   3.152
 4534TIP3   OH213565   4.668   4.179   0.195
 4534TIP3    H113566   4.678   4.124   0.117
 4534TIP3    H213567   4.606   4.247   0.168
 4535TIP3   OH213568   2.246   3.345   2.786
 4535TIP3    H113569   2.151   3.334   2.788
 4535TIP3    H213570   2.272   3.354   2.878
 4536TIP3   OH213571   2.390   4.491   2.334
 4536TIP3    H113572   2.458   4.504   2.400
 4536TIP3    H213573   2.415   4.549   2.262
 4537TIP3   OH213574   0.332   6.803   3.366
 4537TIP3    H113575   0.269   6.764   3.305
 4537TIP3    H213576   0.365   6.880   3.321
 4538TIP3   OH213577   0.327   1.049   2.885
 4538TIP3    H113578   0.234   1.053   2.863
 4538TIP3    H213579   0.368   1.115   2.828
 4539TIP3   OH213580   2.591   5.155   5.676
 4539TIP3    H113581   2.551   5.145   5.589
 4539TIP3    H213582   2.677   5.192   5.658
 4540TIP3   OH213583   4.650   4.294   1.453
 4540TIP3    H113584   4.659   4.275   1.547
 4540TIP3    H213585   4.569   4.251   1.427
 4541TIP3   OH213586   3.980   4.097   1.573
 4541TIP3    H113587   4.031   4.036   1.625
 4541TIP3    H213588   4.014   4.183   1.596
 4542TIP3   OH213589   2.108   2.495   5.350
 4542TIP3    H113590   2.148   2.411   5.328
 4542TIP3    H213591   2.015   2.483   5.336
 4543TIP3   OH213592   2.507   4.767  -0.058
 4543TIP3    H113593   2.441   4.711  -0.019
 4543TIP3    H213594   2.509   4.844  -0.001
 4544TIP3   OH213595   4.180   3.509   5.335
 4544TIP3    H113596   4.225   3.431   5.367
 4544TIP3    H213597   4.235   3.582   5.366
 4545TIP3   OH213598   3.692   3.818   5.553
 4545TIP3    H113599   3.699   3.806   5.459
 4545TIP3    H213600   3.609   3.776   5.577
 4546TIP3   OH213601   0.395   1.209   5.438
 4546TIP3    H113602   0.394   1.114   5.435
 4546TIP3    H213603   0.439   1.235   5.357
 4547TIP3   OH213604   4.562   1.080   5.450
 4547TIP3    H113605   4.515   1.000   5.473
 4547TIP3    H213606   4.655   1.054   5.450
 4548TIP3   OH213607   0.582   4.329   3.134
 4548TIP3    H113608   0.604   4.272   3.060
 4548TIP3    H213609   0.488   4.344   3.126
 4549TIP3   OH213610   1.749   6.432   1.118
 4549TIP3    H113611   1.777   6.368   1.052
 4549TIP3    H213612   1.706   6.379   1.185
 4550TIP3   OH213613   3.881   6.022   0.140
 4550TIP3    H113614   3.966   5.992   0.108
 4550TIP3    H213615   3.817   5.972   0.090
 4551TIP3   OH213616   5.661   6.452   1.695
 4551TIP3    H113617   5.711   6.418   1.621
 4551TIP3    H213618   5.571   6.457   1.663
 4552TIP3   OH213619   6.415   2.457   3.146
 4552TIP3    H113620   6.354   2.485   3.079
 4552TIP3    H213621   6.472   2.532   3.160
 4553TIP3   OH213622   4.107   5.577   3.408
 4553TIP3    H113623   4.024   5.623   3.411
 4553TIP3    H213624   4.122   5.560   3.315
 4554TIP3   OH213625   5.080   3.709   3.999
 4554TIP3    H113626   5.021   3.646   4.039
 4554TIP3    H213627   5.055   3.793   4.039
 4555TIP3   OH213628   0.317   5.104   3.657
 4555TIP3    H113629   0.242   5.134   3.606
 4555TIP3    H213630   0.391   5.155   3.624
 4556TIP3   OH213631   1.903   3.561   5.888
 4556TIP3    H113632   1.908   3.636   5.829
 4556TIP3    H213633   1.862   3.492   5.836
 4557TIP3   OH213634   0.948   2.318   0.825
 4557TIP3    H113635   1.011   2.310   0.753
 4557TIP3    H213636   1.002   2.323   0.904
 4558TIP3   OH213637   1.073   4.614   1.339
 4558TIP3    H113638   1.004   4.565   1.385
 4558TIP3    H213639   1.088   4.691   1.394
 4559TIP3   OH213640   0.148   3.262   0.419
 4559TIP3    H113641   0.233   3.294   0.389
 4559TIP3    H213642   0.135   3.180   0.371
 4560TIP3   OH213643   1.410   1.830   5.398
 4560TIP3    H113644   1.318   1.817   5.378
 4560TIP3    H213645   1.418   1.811   5.491
 4561TIP3   OH213646   5.758   0.446   1.328
 4561TIP3    H113647   5.825   0.450   1.396
 4561TIP3    H213648   5.801   0.401   1.255
 4562TIP3   OH213649   6.001   3.205   5.308
 4562TIP3    H113650   6.080   3.190   5.360
 4562TIP3    H213651   5.930   3.167   5.360
 4563TIP3   OH213652   3.431   1.949   3.297
 4563TIP3    H113653   3.455   2.035   3.330
 4563TIP3    H213654   3.475   1.942   3.212
 4564TIP3   OH213655   3.515   1.941   4.463
 4564TIP3    H113656   3.458   1.970   4.534
 4564TIP3    H213657   3.600   1.982   4.482
 4565TIP3   OH213658   6.660   4.477   5.237
 4565TIP3    H113659   6.687   4.437   5.319
 4565TIP3    H213660   6.726   4.451   5.173
 4566TIP3   OH213661   2.049   6.637   1.659
 4566TIP3    H113662   2.108   6.624   1.733
 4566TIP3    H213663   2.052   6.731   1.642
 4567TIP3   OH213664   4.342   5.463   0.710
 4567TIP3    H113665   4.368   5.394   0.771
 4567TIP3    H213666   4.418   5.522   0.708
 4568TIP3   OH213667   6.075   3.372   2.554
 4568TIP3    H113668   6.160   3.337   2.526
 4568TIP3    H213669   6.036   3.300   2.605
 4569TIP3   OH213670   3.478   5.313   2.913
 4569TIP3    H113671   3.489   5.250   2.841
 4569TIP3    H213672   3.414   5.375   2.880
 4570TIP3   OH213673   6.792   0.126   0.673
 4570TIP3    H113674   6.817   0.051   0.727
 4570TIP3    H213675   6.705   0.104   0.641
 4571TIP3   OH213676   6.712   4.579   1.045
 4571TIP3    H113677   6.702   4.601   0.952
 4571TIP3    H213678   6.772   4.505   1.046
 4572TIP3   OH213679   5.145   4.999   1.134
 4572TIP3    H113680   5.201   4.936   1.180
 4572TIP3    H213681   5.062   4.997   1.181
 4573TIP3   OH213682   5.175   1.689   5.177
 4573TIP3    H113683   5.129   1.612   5.143
 4573TIP3    H213684   5.256   1.655   5.214
 4574TIP3   OH213685   6.228   6.286   5.008
 4574TIP3    H113686   6.249   6.367   5.055
 4574TIP3    H213687   6.153   6.308   4.954
 4575TIP3   OH213688   5.306   4.128   2.733
 4575TIP3    H113689   5.327   4.112   2.825
 4575TIP3    H213690   5.320   4.222   2.721
 4576TIP3   OH213691   6.735   4.221   2.187
 4576TIP3    H113692   6.815   4.240   2.137
 4576TIP3    H213693   6.726   4.126   2.182
 4577TIP3   OH213694   5.934   2.410   1.569
 4577TIP3    H113695   5.932   2.370   1.656
 4577TIP3    H213696   6.025   2.400   1.540
 4578TIP3   OH213697   2.465   4.010   5.483
 4578TIP3    H113698   2.439   3.920   5.501
 4578TIP3    H213699   2.536   4.002   5.419
 4579TIP3   OH213700   0.380   2.390   3.492
 4579TIP3    H113701   0.341   2.321   3.545
 4579TIP3    H213702   0.453   2.423   3.545
 4580TIP3   OH213703   3.333   5.641   3.011
 4580TIP3    H113704   3.315   5.570   3.073
 4580TIP3    H213705   3.427   5.655   3.018
 4581TIP3   OH213706   6.062   4.539   4.595
 4581TIP3    H113707   6.143   4.525   4.545
 4581TIP3    H213708   6.073   4.625   4.636
 4582TIP3   OH213709   6.978   3.014   5.321
 4582TIP3    H113710   6.940   3.098   5.296
 4582TIP3    H213711   6.926   2.949   5.273
 4583TIP3   OH213712   0.264   1.610   1.059
 4583TIP3    H113713   0.314   1.691   1.076
 4583TIP3    H213714   0.274   1.559   1.139
 4584TIP3   OH213715   1.062   6.743   1.817
 4584TIP3    H113716   1.096   6.803   1.884
 4584TIP3    H213717   1.100   6.658   1.840
 4585TIP3   OH213718   3.682   1.269   1.670
 4585TIP3    H113719   3.709   1.322   1.595
 4585TIP3    H213720   3.593   1.299   1.690
 4586TIP3   OH213721   4.759   0.552   1.935
 4586TIP3    H113722   4.846   0.524   1.905
 4586TIP3    H213723   4.738   0.628   1.880
 4587TIP3   OH213724   3.361   5.217   5.497
 4587TIP3    H113725   3.354   5.122   5.492
 4587TIP3    H213726   3.271   5.247   5.514
 4588TIP3   OH213727   5.690   4.325   5.758
 4588TIP3    H113728   5.661   4.242   5.721
 4588TIP3    H213729   5.714   4.304   5.848
 4589TIP3   OH213730   6.758   4.561   3.971
 4589TIP3    H113731   6.690   4.626   3.987
 4589TIP3    H213732   6.744   4.533   3.881
 4590TIP3   OH213733   6.443   5.548   3.081
 4590TIP3    H113734   6.501   5.554   3.157
 4590TIP3    H213735   6.378   5.483   3.106
 4591TIP3   OH213736   2.807   2.865   2.883
 4591TIP3    H113737   2.759   2.885   2.802
 4591TIP3    H213738   2.829   2.951   2.920
 4592TIP3   OH213739   0.085   0.054   3.553
 4592TIP3    H113740   0.161   0.094   3.512
 4592TIP3    H213741   0.058   0.117   3.619
 4593TIP3   OH213742   2.404   0.185   1.992
 4593TIP3    H113743   2.421   0.272   1.956
 4593TIP3    H213744   2.336   0.148   1.936
 4594TIP3   OH213745   0.050   1.801   2.909
 4594TIP3    H113746   0.116   1.785   2.977
 4594TIP3    H213747   0.087   1.762   2.830
 4595TIP3   OH213748   5.988   4.978   1.734
 4595TIP3    H113749   5.901   4.995   1.697
 4595TIP3    H213750   6.047   4.981   1.659
 4596TIP3   OH213751   4.368   2.835   2.317
 4596TIP3    H113752   4.332   2.911   2.364
 4596TIP3    H213753   4.421   2.789   2.383
 4597TIP3   OH213754   3.689   4.489   0.251
 4597TIP3    H113755   3.690   4.435   0.173
 4597TIP3    H213756   3.653   4.573   0.223
 4598TIP3   OH213757   3.649   3.153  -0.037
 4598TIP3    H113758   3.634   3.224  -0.100
 4598TIP3    H213759   3.597   3.178   0.039
 4599TIP3   OH213760   5.344   6.063   0.495
 4599TIP3    H113761   5.314   5.973   0.478
 4599TIP3    H213762   5.382   6.059   0.583
 4600TIP3   OH213763   3.142   5.628   5.581
 4600TIP3    H113764   3.047   5.636   5.588
 4600TIP3    H213765   3.155   5.567   5.508
 4601TIP3   OH213766   4.779   3.859   0.253
 4601TIP3    H113767   4.725   3.937   0.242
 4601TIP3    H213768   4.759   3.805   0.177
 4602TIP3   OH213769   2.381   5.603   2.187
 4602TIP3    H113770   2.326   5.633   2.114
 4602TIP3    H213771   2.385   5.508   2.175
 4603TIP3   OH213772   6.265   0.963   4.598
 4603TIP3    H113773   6.247   0.986   4.507
 4603TIP3    H213774   6.336   0.900   4.594
 4604TIP3   OH213775   1.460   1.505   4.960
 4604TIP3    H113776   1.384   1.458   4.928
 4604TIP3    H213777   1.514   1.520   4.883
 4605TIP3   OH213778   4.061   0.682   1.671
 4605TIP3    H113779   4.028   0.668   1.583
 4605TIP3    H213780   4.134   0.622   1.680
 4606TIP3   OH213781   6.253   3.569   4.771
 4606TIP3    H113782   6.204   3.507   4.717
 4606TIP3    H213783   6.282   3.637   4.710
 4607TIP3   OH213784   5.794   5.969   1.648
 4607TIP3    H113785   5.790   6.038   1.714
 4607TIP3    H213786   5.846   5.900   1.689
 4608TIP3   OH213787   2.675   2.114   3.476
 4608TIP3    H113788   2.584   2.144   3.472
 4608TIP3    H213789   2.725   2.192   3.498
 4609TIP3   OH213790   2.284   5.076   5.147
 4609TIP3    H113791   2.324   5.088   5.061
 4609TIP3    H213792   2.273   5.165   5.181
 4610TIP3   OH213793   3.341   1.754   0.389
 4610TIP3    H113794   3.330   1.831   0.334
 4610TIP3    H213795   3.277   1.691   0.356
 4611TIP3   OH213796   6.501   6.600   5.186
 4611TIP3    H113797   6.524   6.508   5.199
 4611TIP3    H213798   6.541   6.645   5.261
 4612TIP3   OH213799   0.570   4.119   5.305
 4612TIP3    H113800   0.557   4.026   5.320
 4612TIP3    H213801   0.606   4.124   5.216
 4613TIP3   OH213802   1.446   2.416   2.332
 4613TIP3    H113803   1.475   2.379   2.415
 4613TIP3    H213804   1.354   2.439   2.345
 4614TIP3   OH213805   4.794   4.556   2.228
 4614TIP3    H113806   4.756   4.553   2.316
 4614TIP3    H213807   4.855   4.482   2.226
 4615TIP3   OH213808   0.089   6.094   5.685
 4615TIP3    H113809   0.108   6.128   5.773
 4615TIP3    H213810   0.167   6.043   5.662
 4616TIP3   OH213811   4.540   3.471   3.862
 4616TIP3    H113812   4.454   3.463   3.903
 4616TIP3    H213813   4.599   3.426   3.922
 4617TIP3   OH213814   5.627   4.391   2.928
 4617TIP3    H113815   5.684   4.354   2.861
 4617TIP3    H213816   5.559   4.324   2.941
 4618TIP3   OH213817   7.032   5.464   0.831
 4618TIP3    H113818   7.065   5.495   0.915
 4618TIP3    H213819   6.972   5.393   0.854
 4619TIP3   OH213820   6.709   1.903   2.754
 4619TIP3    H113821   6.753   1.850   2.687
 4619TIP3    H213822   6.686   1.841   2.823
 4620TIP3   OH213823   6.774   1.196   0.741
 4620TIP3    H113824   6.736   1.246   0.813
 4620TIP3    H213825   6.703   1.138   0.712
 4621TIP3   OH213826   3.729   0.339   4.211
 4621TIP3    H113827   3.807   0.331   4.267
 4621TIP3    H213828   3.763   0.372   4.128
 4622TIP3   OH213829   2.915   5.394   2.965
 4622TIP3    H113830   2.852   5.427   3.029
 4622TIP3    H213831   2.889   5.435   2.883
 4623TIP3   OH213832   7.093   5.199   3.834
 4623TIP3    H113833   7.174   5.148   3.822
 4623TIP3    H213834   7.085   5.208   3.929
 4624TIP3   OH213835   7.029   3.801   1.106
 4624TIP3    H113836   6.984   3.723   1.074
 4624TIP3    H213837   7.113   3.802   1.060
 4625TIP3   OH213838   2.922   6.789   5.828
 4625TIP3    H113839   2.952   6.878   5.844
 4625TIP3    H213840   2.835   6.785   5.868
 4626TIP3   OH213841   7.041   4.749   5.816
 4626TIP3    H113842   7.015   4.841   5.805
 4626TIP3    H213843   7.103   4.733   5.745
 4627TIP3   OH213844   6.999   6.407   3.219
 4627TIP3    H113845   7.005   6.451   3.303
 4627TIP3    H213846   7.071   6.443   3.167
 4628TIP3   OH213847   5.626   3.411   2.852
 4628TIP3    H113848   5.607   3.504   2.863
 4628TIP3    H213849   5.605   3.393   2.761
 4629TIP3   OH213850   5.541   2.284   2.219
 4629TIP3    H113851   5.610   2.280   2.153
 4629TIP3    H213852   5.582   2.323   2.296
 4630TIP3   OH213853   0.468   5.886   5.109
 4630TIP3    H113854   0.500   5.885   5.019
 4630TIP3    H213855   0.540   5.850   5.161
 4631TIP3   OH213856   1.084   2.755   0.139
 4631TIP3    H113857   1.126   2.677   0.102
 4631TIP3    H213858   1.089   2.741   0.234
 4632TIP3   OH213859   3.474   0.529   2.760
 4632TIP3    H113860   3.430   0.482   2.831
 4632TIP3    H213861   3.483   0.464   2.690
 4633TIP3   OH213862   5.686   1.924   0.228
 4633TIP3    H113863   5.748   1.954   0.294
 4633TIP3    H213864   5.632   1.859   0.272
 4634TIP3   OH213865   5.317   4.916   1.561
 4634TIP3    H113866   5.338   4.874   1.645
 4634TIP3    H213867   5.274   4.997   1.585
 4635TIP3   OH213868   3.982   1.161   3.669
 4635TIP3    H113869   4.054   1.207   3.624
 4635TIP3    H213870   4.001   1.068   3.656
 4636TIP3   OH213871   2.178   4.419   2.740
 4636TIP3    H113872   2.267   4.383   2.740
 4636TIP3    H213873   2.122   4.342   2.727
 4637TIP3   OH213874   5.170   6.718   5.533
 4637TIP3    H113875   5.189   6.626   5.511
 4637TIP3    H213876   5.148   6.758   5.449
 4638TIP3   OH213877   5.346   4.744   2.526
 4638TIP3    H113878   5.336   4.809   2.457
 4638TIP3    H213879   5.419   4.777   2.579
 4639TIP3   OH213880   5.967   3.391   5.528
 4639TIP3    H113881   5.978   3.415   5.436
 4639TIP3    H213882   5.986   3.298   5.532
 4640TIP3   OH213883   2.400   0.411   5.762
 4640TIP3    H113884   2.434   0.352   5.829
 4640TIP3    H213885   2.349   0.355   5.703
 4641TIP3   OH213886   1.159   2.719   4.483
 4641TIP3    H113887   1.207   2.673   4.552
 4641TIP3    H213888   1.220   2.722   4.409
 4642TIP3   OH213889   3.649   5.030   3.653
 4642TIP3    H113890   3.712   4.974   3.607
 4642TIP3    H213891   3.684   5.119   3.642
 4643TIP3   OH213892   5.753   6.297   2.209
 4643TIP3    H113893   5.755   6.359   2.135
 4643TIP3    H213894   5.779   6.350   2.284
 4644TIP3   OH213895   5.386   0.751   2.099
 4644TIP3    H113896   5.332   0.679   2.131
 4644TIP3    H213897   5.476   0.720   2.110
 4645TIP3   OH213898   1.400   6.128   1.343
 4645TIP3    H113899   1.441   6.053   1.299
 4645TIP3    H213900   1.318   6.093   1.378
 4646TIP3   OH213901   5.031   2.840   5.263
 4646TIP3    H113902   5.095   2.857   5.193
 4646TIP3    H213903   5.084   2.823   5.341
 4647TIP3   OH213904   0.570   0.630   3.293
 4647TIP3    H113905   0.519   0.626   3.212
 4647TIP3    H213906   0.583   0.538   3.317
 4648TIP3   OH213907   1.792   5.371   0.984
 4648TIP3    H113908   1.757   5.403   0.901
 4648TIP3    H213909   1.733   5.300   1.009
 4649TIP3   OH213910   6.663   6.497   0.996
 4649TIP3    H113911   6.663   6.586   1.030
 4649TIP3    H213912   6.619   6.445   1.063
 4650TIP3   OH213913   2.360   4.745   3.056
 4650TIP3    H113914   2.334   4.746   3.149
 4650TIP3    H213915   2.302   4.810   3.015
 4651TIP3   OH213916   1.998   0.825   3.277
 4651TIP3    H113917   1.973   0.736   3.300
 4651TIP3    H213918   1.933   0.880   3.322
 4652TIP3   OH213919   4.227   1.918   4.117
 4652TIP3    H113920   4.138   1.904   4.086
 4652TIP3    H213921   4.221   1.995   4.174
 4653TIP3   OH213922   6.699   4.261   4.445
 4653TIP3    H113923   6.656   4.344   4.466
 4653TIP3    H213924   6.690   4.253   4.350
 4654TIP3   OH213925   2.667   3.150   4.182
 4654TIP3    H113926   2.635   3.170   4.269
 4654TIP3    H213927   2.728   3.078   4.195
 4655TIP3   OH213928   5.529   2.801   3.359
 4655TIP3    H113929   5.507   2.888   3.325
 4655TIP3    H213930   5.620   2.810   3.388
 4656TIP3   OH213931   2.212   1.094   1.533
 4656TIP3    H113932   2.169   1.054   1.608
 4656TIP3    H213933   2.285   1.035   1.512
 4657TIP3   OH213934   6.541   6.527   0.050
 4657TIP3    H113935   6.553   6.538   0.144
 4657TIP3    H213936   6.450   6.554   0.034
 4658TIP3   OH213937   3.332   3.542   2.079
 4658TIP3    H113938   3.349   3.488   2.157
 4658TIP3    H213939   3.382   3.499   2.009
 4659TIP3   OH213940   0.983   2.774   4.740
 4659TIP3    H113941   0.946   2.853   4.778
 4659TIP3    H213942   1.020   2.802   4.656
 4660TIP3   OH213943   6.263   5.647   1.879
 4660TIP3    H113944   6.205   5.573   1.864
 4660TIP3    H213945   6.302   5.630   1.965
 4661TIP3   OH213946   5.504   0.593   2.945
 4661TIP3    H113947   5.431   0.630   2.895
 4661TIP3    H213948   5.550   0.537   2.883
 4662TIP3   OH213949   2.931   4.909   3.395
 4662TIP3    H113950   3.017   4.952   3.402
 4662TIP3    H213951   2.871   4.969   3.440
 4663TIP3   OH213952   1.587   0.479   0.147
 4663TIP3    H113953   1.673   0.516   0.164
 4663TIP3    H213954   1.565   0.432   0.228
 4664TIP3   OH213955   4.564   4.978   3.468
 4664TIP3    H113956   4.534   4.917   3.401
 4664TIP3    H213957   4.659   4.974   3.463
 4665TIP3   OH213958   2.663   0.581   5.255
 4665TIP3    H113959   2.720   0.509   5.284
 4665TIP3    H213960   2.709   0.619   5.181
 4666TIP3   OH213961   4.251   5.741   2.054
 4666TIP3    H113962   4.210   5.729   1.969
 4666TIP3    H213963   4.206   5.678   2.111
 4667TIP3   OH213964   4.760   5.789   5.651
 4667TIP3    H113965   4.720   5.855   5.708
 4667TIP3    H213966   4.854   5.798   5.666
 4668TIP3   OH213967   0.937   4.456   1.594
 4668TIP3    H113968   0.931   4.508   1.675
 4668TIP3    H213969   0.957   4.368   1.624
 4669TIP3   OH213970   2.771   2.382   5.772
 4669TIP3    H113971   2.866   2.371   5.769
 4669TIP3    H213972   2.757   2.470   5.806
 4670TIP3   OH213973   0.528   3.292   5.734
 4670TIP3    H113974   0.517   3.209   5.688
 4670TIP3    H213975   0.531   3.268   5.827
 4671TIP3   OH213976   3.502   1.958   4.796
 4671TIP3    H113977   3.504   1.864   4.811
 4671TIP3    H213978   3.566   1.994   4.857
 4672TIP3   OH213979   4.425   6.770   3.203
 4672TIP3    H113980   4.493   6.828   3.169
 4672TIP3    H213981   4.406   6.711   3.130
 4673TIP3   OH213982   1.794   0.723   2.049
 4673TIP3    H113983   1.772   0.770   2.130
 4673TIP3    H213984   1.710   0.706   2.007
 4674TIP3   OH213985   0.291   0.226   1.051
 4674TIP3    H113986   0.202   0.194   1.040
 4674TIP3    H213987   0.289   0.277   1.132
 4675TIP3   OH213988   2.526   3.108   3.307
 4675TIP3    H113989   2.453   3.133   3.251
 4675TIP3    H213990   2.486   3.057   3.378
 4676TIP3   OH213991   2.375   6.603   0.779
 4676TIP3    H113992   2.467   6.587   0.798
 4676TIP3    H213993   2.367   6.699   0.779
 4677TIP3   OH213994   5.238   2.981   2.545
 4677TIP3    H113995   5.283   3.052   2.499
 4677TIP3    H213996   5.304   2.943   2.602
 4678TIP3   OH213997   2.264   0.579   3.161
 4678TIP3    H113998   2.277   0.497   3.208
 4678TIP3    H213999   2.324   0.641   3.203
 4679TIP3   OH214000   2.456   2.032   4.623
 4679TIP3    H114001   2.389   1.991   4.676
 4679TIP3    H214002   2.433   2.125   4.624
 4680TIP3   OH214003   2.124   3.222   0.130
 4680TIP3    H114004   2.201   3.179   0.169
 4680TIP3    H214005   2.064   3.150   0.110
 4681TIP3   OH214006   4.326   1.620   1.519
 4681TIP3    H114007   4.418   1.614   1.491
 4681TIP3    H214008   4.278   1.565   1.457
 4682TIP3   OH214009   4.828   0.975   2.220
 4682TIP3    H114010   4.846   0.993   2.128
 4682TIP3    H214011   4.886   0.902   2.242
 4683TIP3   OH214012   5.256   4.107   4.249
 4683TIP3    H114013   5.208   4.043   4.195
 4683TIP3    H214014   5.294   4.055   4.320
 4684TIP3   OH214015   0.770   5.426   5.887
 4684TIP3    H114016   0.832   5.403   5.956
 4684TIP3    H214017   0.690   5.449   5.934
 4685TIP3   OH214018   1.218   0.285   4.497
 4685TIP3    H114019   1.162   0.211   4.521
 4685TIP3    H214020   1.289   0.283   4.561
 4686TIP3   OH214021   5.392   0.156   3.991
 4686TIP3    H114022   5.372   0.120   4.077
 4686TIP3    H214023   5.324   0.223   3.977
 4687TIP3   OH214024   2.348   3.127   1.889
 4687TIP3    H114025   2.426   3.170   1.853
 4687TIP3    H214026   2.308   3.194   1.944
 4688TIP3   OH214027   2.647   0.149   1.045
 4688TIP3    H114028   2.633   0.155   0.951
 4688TIP3    H214029   2.741   0.165   1.056
 4689TIP3   OH214030   0.664   1.996   4.840
 4689TIP3    H114031   0.692   1.926   4.898
 4689TIP3    H214032   0.587   2.034   4.882
 4690TIP3   OH214033   5.890   3.964   0.373
 4690TIP3    H114034   5.827   3.917   0.428
 4690TIP3    H214035   5.897   4.051   0.413
 4691TIP3   OH214036   0.604   3.027   2.333
 4691TIP3    H114037   0.592   2.945   2.379
 4691TIP3    H214038   0.689   3.019   2.291
 4692TIP3   OH214039   2.335   2.107   5.685
 4692TIP3    H114040   2.416   2.151   5.660
 4692TIP3    H214041   2.269   2.143   5.626
 4693TIP3   OH214042   5.267   4.336   5.064
 4693TIP3    H114043   5.288   4.265   5.124
 4693TIP3    H214044   5.172   4.341   5.064
 4694TIP3   OH214045   2.310   4.106   1.441
 4694TIP3    H114046   2.329   4.094   1.348
 4694TIP3    H214047   2.392   4.141   1.478
 4695TIP3   OH214048   4.106   6.120   3.755
 4695TIP3    H114049   4.109   6.206   3.714
 4695TIP3    H214050   4.194   6.085   3.743
 4696TIP3   OH214051   2.673   5.589   2.466
 4696TIP3    H114052   2.718   5.547   2.391
 4696TIP3    H214053   2.669   5.681   2.442
 4697TIP3   OH214054   2.035   3.622   0.595
 4697TIP3    H114055   2.010   3.609   0.686
 4697TIP3    H214056   2.086   3.545   0.572
 4698TIP3   OH214057   2.212   1.591   3.211
 4698TIP3    H114058   2.183   1.655   3.147
 4698TIP3    H214059   2.139   1.584   3.273
 4699TIP3   OH214060   1.965   0.235   1.747
 4699TIP3    H114061   1.922   0.280   1.675
 4699TIP3    H214062   1.938   0.283   1.825
 4700TIP3   OH214063   5.658   2.998   1.622
 4700TIP3    H114064   5.582   2.961   1.667
 4700TIP3    H214065   5.720   3.018   1.691
 4701TIP3   OH214066   2.978   5.869   2.468
 4701TIP3    H114067   3.034   5.920   2.527
 4701TIP3    H214068   2.893   5.868   2.511
 4702TIP3   OH214069   2.098   6.362   1.711
 4702TIP3    H114070   2.144   6.401   1.637
 4702TIP3    H214071   2.111   6.424   1.783
 4703TIP3   OH214072   4.815   0.589   3.723
 4703TIP3    H114073   4.745   0.544   3.676
 4703TIP3    H214074   4.880   0.608   3.656
 4704TIP3   OH214075   0.689   2.970   4.028
 4704TIP3    H114076   0.678   2.901   4.093
 4704TIP3    H214077   0.688   3.051   4.078
 4705TIP3   OH214078   5.721   1.426   0.274
 4705TIP3    H114079   5.747   1.481   0.348
 4705TIP3    H214080   5.626   1.434   0.271
 4706TIP3   OH214081   4.112   4.138   5.841
 4706TIP3    H114082   4.087   4.139   5.934
 4706TIP3    H214083   4.131   4.229   5.820
 4707TIP3   OH214084   3.023   2.584   2.094
 4707TIP3    H114085   3.002   2.624   2.178
 4707TIP3    H214086   2.942   2.586   2.045
 4708TIP3   OH214087   5.404   5.464   4.980
 4708TIP3    H114088   5.370   5.384   5.018
 4708TIP3    H214089   5.432   5.439   4.892
 4709TIP3   OH214090   6.566   0.430   2.778
 4709TIP3    H114091   6.632   0.365   2.804
 4709TIP3    H214092   6.538   0.469   2.861
 4710TIP3   OH214093   6.625   0.419   0.843
 4710TIP3    H114094   6.687   0.489   0.865
 4710TIP3    H214095   6.562   0.418   0.915
 4711TIP3   OH214096   5.263   1.314   1.284
 4711TIP3    H114097   5.346   1.280   1.319
 4711TIP3    H214098   5.239   1.252   1.215
 4712TIP3   OH214099   5.885   2.454   2.679
 4712TIP3    H114100   5.941   2.382   2.649
 4712TIP3    H214101   5.845   2.422   2.760
 4713TIP3   OH214102   4.829   1.973   5.028
 4713TIP3    H114103   4.857   1.927   5.107
 4713TIP3    H214104   4.753   1.925   4.997
 4714TIP3   OH214105   6.527   4.193   0.547
 4714TIP3    H114106   6.554   4.124   0.487
 4714TIP3    H214107   6.469   4.149   0.610
 4715TIP3   OH214108   4.577   0.479   4.963
 4715TIP3    H114109   4.529   0.559   4.981
 4715TIP3    H214110   4.662   0.491   5.005
 4716TIP3   OH214111   6.237   1.807   4.564
 4716TIP3    H114112   6.215   1.784   4.654
 4716TIP3    H214113   6.333   1.813   4.563
 4717TIP3   OH214114   6.872   0.069   2.310
 4717TIP3    H114115   6.933   0.017   2.256
 4717TIP3    H214116   6.876   0.028   2.396
 4718TIP3   OH214117   0.853   4.754   4.854
 4718TIP3    H114118   0.874   4.677   4.802
 4718TIP3    H214119   0.763   4.740   4.883
 4719TIP3   OH214120   2.788   6.594   0.657
 4719TIP3    H114121   2.867   6.633   0.693
 4719TIP3    H214122   2.734   6.573   0.733
 4720TIP3   OH214123   4.965   2.031   4.637
 4720TIP3    H114124   5.046   2.080   4.652
 4720TIP3    H214125   4.897   2.083   4.680
 4721TIP3   OH214126   4.070   5.360   0.149
 4721TIP3    H114127   4.030   5.375   0.063
 4721TIP3    H214128   4.141   5.425   0.154
 4722TIP3   OH214129   4.314   3.379   4.346
 4722TIP3    H114130   4.375   3.390   4.274
 4722TIP3    H214131   4.284   3.288   4.339
 4723TIP3   OH214132   1.274   5.718   3.433
 4723TIP3    H114133   1.363   5.696   3.461
 4723TIP3    H214134   1.218   5.675   3.498
 4724TIP3   OH214135   6.270   4.229   3.385
 4724TIP3    H114136   6.183   4.258   3.414
 4724TIP3    H214137   6.306   4.181   3.460
 4725TIP3   OH214138   0.915   3.369   3.187
 4725TIP3    H114139   1.003   3.338   3.207
 4725TIP3    H214140   0.925   3.424   3.109
 4726TIP3   OH214141   4.352   5.862   1.137
 4726TIP3    H114142   4.442   5.830   1.136
 4726TIP3    H214143   4.358   5.950   1.175
 4727TIP3   OH214144   0.490   3.983   1.886
 4727TIP3    H114145   0.521   4.074   1.891
 4727TIP3    H214146   0.512   3.955   1.797
 4728TIP3   OH214147   1.867   5.146   4.577
 4728TIP3    H114148   1.796   5.164   4.640
 4728TIP3    H214149   1.917   5.076   4.618
 4729TIP3   OH214150   3.046   1.259   4.255
 4729TIP3    H114151   3.099   1.270   4.176
 4729TIP3    H214152   3.104   1.284   4.327
 4730TIP3   OH214153   1.263   4.047   0.217
 4730TIP3    H114154   1.214   4.010   0.144
 4730TIP3    H214155   1.203   4.041   0.292
 4731TIP3   OH214156   1.018   0.473   4.634
 4731TIP3    H114157   1.079   0.461   4.561
 4731TIP3    H214158   0.942   0.517   4.596
 4732TIP3   OH214159   0.306   0.227   3.655
 4732TIP3    H114160   0.254   0.282   3.714
 4732TIP3    H214161   0.376   0.192   3.709
 4733TIP3   OH214162   3.003   0.294   0.780
 4733TIP3    H114163   2.917   0.292   0.737
 4733TIP3    H214164   3.066   0.287   0.709
 4734TIP3   OH214165   6.633   0.941   0.842
 4734TIP3    H114166   6.703   0.879   0.822
 4734TIP3    H214167   6.620   0.934   0.937
 4735TIP3   OH214168   6.719   4.346   5.491
 4735TIP3    H114169   6.773   4.402   5.546
 4735TIP3    H214170   6.756   4.259   5.501
 4736TIP3   OH214171   0.320   1.784   5.827
 4736TIP3    H114172   0.272   1.766   5.746
 4736TIP3    H214173   0.386   1.849   5.802
 4737TIP3   OH214174   1.184   1.826   0.153
 4737TIP3    H114175   1.203   1.914   0.122
 4737TIP3    H214176   1.125   1.839   0.228
 4738TIP3   OH214177   4.591   4.195   2.474
 4738TIP3    H114178   4.515   4.162   2.521
 4738TIP3    H214179   4.657   4.210   2.542
 4739TIP3   OH214180   4.414   2.612   4.956
 4739TIP3    H114181   4.373   2.542   4.906
 4739TIP3    H214182   4.374   2.693   4.923
 4740TIP3   OH214183   0.569   1.519   3.652
 4740TIP3    H114184   0.537   1.510   3.562
 4740TIP3    H214185   0.523   1.595   3.687
 4741TIP3   OH214186   6.932   2.075   4.181
 4741TIP3    H114187   6.992   2.030   4.240
 4741TIP3    H214188   6.910   2.157   4.226
 4742TIP3   OH214189   6.252   6.779   3.497
 4742TIP3    H114190   6.165   6.746   3.519
 4742TIP3    H214191   6.304   6.701   3.478
 4743TIP3   OH214192   5.179   3.331   3.123
 4743TIP3    H114193   5.237   3.398   3.157
 4743TIP3    H214194   5.135   3.372   3.049
 4744TIP3   OH214195   6.393   0.805   3.672
 4744TIP3    H114196   6.350   0.832   3.591
 4744TIP3    H214197   6.322   0.776   3.729
 4745TIP3   OH214198   1.196   3.508   1.014
 4745TIP3    H114199   1.215   3.445   0.945
 4745TIP3    H214200   1.176   3.589   0.967
 4746TIP3   OH214201   1.473   5.477   4.376
 4746TIP3    H114202   1.548   5.531   4.402
 4746TIP3    H214203   1.460   5.418   4.450
 4747TIP3   OH214204   1.753   3.289   5.238
 4747TIP3    H114205   1.715   3.215   5.285
 4747TIP3    H214206   1.776   3.254   5.152
 4748TIP3   OH214207   0.970   1.960  -0.057
 4748TIP3    H114208   0.936   1.877  -0.023
 4748TIP3    H214209   0.899   2.023  -0.042
 4749TIP3   OH214210   1.232   4.284   2.926
 4749TIP3    H114211   1.310   4.244   2.886
 4749TIP3    H214212   1.159   4.241   2.883
 4750TIP3   OH214213   0.105   1.027   3.997
 4750TIP3    H114214   0.094   1.121   3.988
 4750TIP3    H214215   0.076   0.991   3.914
 4751TIP3   OH214216   0.112   2.561   4.809
 4751TIP3    H114217   0.039   2.505   4.783
 4751TIP3    H214218   0.164   2.572   4.729
 4752TIP3   OH214219   2.443   2.847   0.659
 4752TIP3    H114220   2.435   2.752   0.656
 4752TIP3    H214221   2.490   2.865   0.740
 4753TIP3   OH214222   6.300   3.785   4.589
 4753TIP3    H114223   6.382   3.763   4.545
 4753TIP3    H214224   6.244   3.821   4.520
 4754TIP3   OH214225   4.560   5.701   5.086
 4754TIP3    H114226   4.589   5.783   5.127
 4754TIP3    H214227   4.476   5.681   5.127
 4755TIP3   OH214228   7.011   2.523   5.341
 4755TIP3    H114229   7.099   2.558   5.357
 4755TIP3    H214230   6.957   2.565   5.407
 4756TIP3   OH214231   7.042   4.475   2.687
 4756TIP3    H114232   7.130   4.458   2.720
 4756TIP3    H214233   7.041   4.569   2.669
 4757TIP3   OH214234   6.966   2.433   3.363
 4757TIP3    H114235   7.044   2.479   3.394
 4757TIP3    H214236   6.982   2.341   3.386
 4758TIP3   OH214237   0.738   2.996   5.699
 4758TIP3    H114238   0.776   3.016   5.613
 4758TIP3    H214239   0.755   2.902   5.710
 4759TIP3   OH214240   5.318   4.937   5.299
 4759TIP3    H114241   5.304   4.863   5.359
 4759TIP3    H214242   5.346   4.896   5.217
 4760TIP3   OH214243   6.698   3.843   2.479
 4760TIP3    H114244   6.686   3.801   2.563
 4760TIP3    H214245   6.786   3.818   2.451
 4761TIP3   OH214246   3.938   3.999   2.814
 4761TIP3    H114247   3.919   3.951   2.894
 4761TIP3    H214248   4.033   4.009   2.814
 4762TIP3   OH214249   1.550   5.110   0.804
 4762TIP3    H114250   1.574   5.122   0.896
 4762TIP3    H214251   1.478   5.172   0.790
 4763TIP3   OH214252   3.877   4.710   2.898
 4763TIP3    H114253   3.912   4.793   2.868
 4763TIP3    H214254   3.938   4.644   2.865
 4764TIP3   OH214255   4.774   4.569   3.744
 4764TIP3    H114256   4.705   4.633   3.758
 4764TIP3    H214257   4.855   4.616   3.767
 4765TIP3   OH214258   6.527   5.542   2.386
 4765TIP3    H114259   6.490   5.614   2.335
 4765TIP3    H214260   6.450   5.492   2.415
 4766TIP3   OH214261   3.924   4.623   3.666
 4766TIP3    H114262   4.009   4.646   3.704
 4766TIP3    H214263   3.936   4.534   3.633
 4767TIP3   OH214264   7.097   3.062   1.408
 4767TIP3    H114265   7.176   3.029   1.366
 4767TIP3    H214266   7.128   3.101   1.490
 4768TIP3   OH214267   5.305   2.293   4.139
 4768TIP3    H114268   5.313   2.229   4.069
 4768TIP3    H214269   5.213   2.320   4.136
 4769TIP3   OH214270   5.778   1.897   0.634
 4769TIP3    H114271   5.800   1.926   0.546
 4769TIP3    H214272   5.683   1.906   0.639
 4770TIP3   OH214273   4.541   3.110   4.186
 4770TIP3    H114274   4.452   3.085   4.210
 4770TIP3    H214275   4.596   3.038   4.218
 4771TIP3   OH214276   2.891   1.128   4.757
 4771TIP3    H114277   2.866   1.211   4.716
 4771TIP3    H214278   2.887   1.146   4.851
 4772TIP3   OH214279   6.960   3.780   2.443
 4772TIP3    H114280   6.991   3.717   2.508
 4772TIP3    H214281   7.040   3.816   2.404
 4773TIP3   OH214282   0.827   2.776   1.909
 4773TIP3    H114283   0.894   2.714   1.936
 4773TIP3    H214284   0.771   2.786   1.986
 4774TIP3   OH214285   2.623   5.978   0.343
 4774TIP3    H114286   2.625   6.073   0.354
 4774TIP3    H214287   2.642   5.965   0.250
 4775TIP3   OH214288   6.124   5.215   2.367
 4775TIP3    H114289   6.044   5.264   2.381
 4775TIP3    H214290   6.125   5.196   2.274
 4776TIP3   OH214291   2.266   5.388   2.604
 4776TIP3    H114292   2.305   5.303   2.627
 4776TIP3    H214293   2.332   5.452   2.628
 4777TIP3   OH214294   3.359   3.497   0.630
 4777TIP3    H114295   3.390   3.552   0.702
 4777TIP3    H214296   3.266   3.521   0.621
 4778TIP3   OH214297   1.388   4.390   3.698
 4778TIP3    H114298   1.350   4.424   3.779
 4778TIP3    H214299   1.482   4.391   3.713
 4779TIP3   OH214300   3.857   5.743   1.876
 4779TIP3    H114301   3.781   5.736   1.819
 4779TIP3    H214302   3.823   5.779   1.958
 4780TIP3   OH214303   6.905   4.433   0.594
 4780TIP3    H114304   6.936   4.381   0.520
 4780TIP3    H214305   6.830   4.481   0.560
 4781TIP3   OH214306   5.307   1.747   0.605
 4781TIP3    H114307   5.227   1.726   0.651
 4781TIP3    H214308   5.373   1.690   0.644
 4782TIP3   OH214309   2.285   3.285   0.379
 4782TIP3    H114310   2.310   3.375   0.357
 4782TIP3    H214311   2.368   3.240   0.395
 4783TIP3   OH214312   1.852   5.573   4.892
 4783TIP3    H114313   1.884   5.484   4.879
 4783TIP3    H214314   1.910   5.628   4.840
 4784TIP3   OH214315   6.993   2.504   2.104
 4784TIP3    H114316   7.057   2.572   2.085
 4784TIP3    H214317   7.028   2.459   2.181
 4785TIP3   OH214318   3.525   6.022   4.756
 4785TIP3    H114319   3.586   5.971   4.808
 4785TIP3    H214320   3.537   6.112   4.786
 4786TIP3   OH214321   6.952   3.644   3.578
 4786TIP3    H114322   7.033   3.595   3.594
 4786TIP3    H214323   6.978   3.736   3.580
 4787TIP3   OH214324   6.216   3.801   1.974
 4787TIP3    H114325   6.131   3.813   2.017
 4787TIP3    H214326   6.275   3.776   2.045
 4788TIP3   OH214327   4.609   2.446   0.912
 4788TIP3    H114328   4.561   2.377   0.865
 4788TIP3    H214329   4.611   2.519   0.850
 4789TIP3   OH214330   7.160   5.506   5.429
 4789TIP3    H114331   7.093   5.515   5.496
 4789TIP3    H214332   7.227   5.450   5.470
 4790TIP3   OH214333   2.934   2.716   1.302
 4790TIP3    H114334   2.884   2.749   1.377
 4790TIP3    H214335   2.920   2.781   1.233
 4791TIP3   OH214336   2.325   1.419   4.397
 4791TIP3    H114337   2.320   1.354   4.327
 4791TIP3    H214338   2.402   1.471   4.376
 4792TIP3   OH214339   1.216   1.415   4.761
 4792TIP3    H114340   1.127   1.422   4.796
 4792TIP3    H214341   1.206   1.424   4.667
 4793TIP3   OH214342   2.833   5.025   4.460
 4793TIP3    H114343   2.912   5.031   4.406
 4793TIP3    H214344   2.857   5.070   4.541
 4794TIP3   OH214345   4.011   1.243   1.655
 4794TIP3    H114346   3.958   1.214   1.729
 4794TIP3    H214347   4.066   1.168   1.634
 4795TIP3   OH214348   0.173   5.454   3.565
 4795TIP3    H114349   0.153   5.454   3.659
 4795TIP3    H214350   0.227   5.532   3.552
 4796TIP3   OH214351   3.900   4.848   0.295
 4796TIP3    H114352   3.878   4.772   0.349
 4796TIP3    H214353   3.852   4.921   0.334
 4797TIP3   OH214354   1.257   0.606   0.749
 4797TIP3    H114355   1.267   0.512   0.765
 4797TIP3    H214356   1.182   0.613   0.691
 4798TIP3   OH214357   1.292   3.017   0.667
 4798TIP3    H114358   1.208   2.976   0.685
 4798TIP3    H214359   1.328   3.038   0.753
 4799TIP3   OH214360   0.838   2.982   2.193
 4799TIP3    H114361   0.931   2.970   2.171
 4799TIP3    H214362   0.796   2.902   2.161
 4800TIP3   OH214363   5.965   0.391   1.514
 4800TIP3    H114364   6.051   0.357   1.490
 4800TIP3    H214365   5.923   0.320   1.563
 4801TIP3   OH214366   6.207   3.821   1.000
 4801TIP3    H114367   6.276   3.887   0.990
 4801TIP3    H214368   6.221   3.784   1.087
 4802TIP3   OH214369   5.495   0.082   2.729
 4802TIP3    H114370   5.403   0.109   2.737
 4802TIP3    H214371   5.494   0.013   2.663
 4803TIP3   OH214372   3.251   4.663   3.019
 4803TIP3    H114373   3.228   4.714   3.097
 4803TIP3    H214374   3.176   4.606   3.004
 4804TIP3   OH214375   2.959   2.538   4.734
 4804TIP3    H114376   2.877   2.586   4.720
 4804TIP3    H214377   3.001   2.585   4.806
 4805TIP3   OH214378   2.576   2.272   2.213
 4805TIP3    H114379   2.623   2.288   2.131
 4805TIP3    H214380   2.612   2.189   2.245
 4806TIP3   OH214381   1.597   0.063   0.632
 4806TIP3    H114382   1.559   0.142   0.671
 4806TIP3    H214383   1.540   0.043   0.558
 4807TIP3   OH214384   1.087   2.048   3.180
 4807TIP3    H114385   1.119   1.971   3.134
 4807TIP3    H214386   1.036   2.013   3.253
 4808TIP3   OH214387   6.457   0.656   1.679
 4808TIP3    H114388   6.544   0.673   1.643
 4808TIP3    H214389   6.409   0.737   1.665
 4809TIP3   OH214390   6.757   6.332   0.502
 4809TIP3    H114391   6.663   6.335   0.520
 4809TIP3    H214392   6.785   6.423   0.498
 4810TIP3   OH214393   0.837   3.101   5.924
 4810TIP3    H114394   0.797   3.086   5.839
 4810TIP3    H214395   0.882   3.185   5.916
 4811TIP3   OH214396   6.949   0.732   1.241
 4811TIP3    H114397   6.867   0.772   1.270
 4811TIP3    H214398   6.978   0.787   1.168
 4812TIP3   OH214399   2.941   5.971   3.750
 4812TIP3    H114400   3.037   5.974   3.742
 4812TIP3    H214401   2.920   5.878   3.753
 4813TIP3   OH214402   5.730   2.052   4.977
 4813TIP3    H114403   5.768   2.140   4.973
 4813TIP3    H214404   5.805   1.994   4.993
 4814TIP3   OH214405   2.500   5.296   3.423
 4814TIP3    H114406   2.468   5.381   3.395
 4814TIP3    H214407   2.595   5.307   3.431
 4815TIP3   OH214408   5.502   1.571   0.679
 4815TIP3    H114409   5.528   1.512   0.609
 4815TIP3    H214410   5.530   1.527   0.760
 4816TIP3   OH214411   6.668   6.611   0.617
 4816TIP3    H114412   6.604   6.618   0.688
 4816TIP3    H214413   6.750   6.587   0.661
 4817TIP3   OH214414   4.332   5.441   5.802
 4817TIP3    H114415   4.273   5.374   5.768
 4817TIP3    H214416   4.340   5.421   5.895
 4818TIP3   OH214417   3.562   6.903   4.311
 4818TIP3    H114418   3.535   6.899   4.219
 4818TIP3    H214419   3.654   6.876   4.309
 4819TIP3   OH214420   3.563   4.290   0.527
 4819TIP3    H114421   3.625   4.339   0.473
 4819TIP3    H214422   3.492   4.268   0.467
 4820TIP3   OH214423   5.856   4.203   5.208
 4820TIP3    H114424   5.926   4.268   5.204
 4820TIP3    H214425   5.898   4.120   5.185
 4821TIP3   OH214426   2.329   2.719   5.391
 4821TIP3    H114427   2.362   2.638   5.351
 4821TIP3    H214428   2.399   2.746   5.450
 4822TIP3   OH214429   5.359   2.555   2.163
 4822TIP3    H114430   5.369   2.490   2.233
 4822TIP3    H214431   5.385   2.508   2.083
 4823TIP3   OH214432   6.524   4.151   1.307
 4823TIP3    H114433   6.473   4.082   1.349
 4823TIP3    H214434   6.612   4.140   1.342
 4824TIP3   OH214435   1.658   6.779   4.820
 4824TIP3    H114436   1.752   6.794   4.820
 4824TIP3    H214437   1.625   6.831   4.893
 4825TIP3   OH214438   0.270   1.810   3.086
 4825TIP3    H114439   0.284   1.902   3.062
 4825TIP3    H214440   0.358   1.776   3.103
 4826TIP3   OH214441   6.449   4.883   4.463
 4826TIP3    H114442   6.404   4.841   4.536
 4826TIP3    H214443   6.405   4.968   4.453
 4827TIP3   OH214444   2.198   2.941   5.560
 4827TIP3    H114445   2.141   2.942   5.637
 4827TIP3    H214446   2.241   2.855   5.563
 4828TIP3   OH214447   1.861   5.149   3.790
 4828TIP3    H114448   1.842   5.089   3.862
 4828TIP3    H214449   1.848   5.236   3.828
 4829TIP3   OH214450   3.069   4.059   4.737
 4829TIP3    H114451   3.007   4.028   4.671
 4829TIP3    H214452   3.154   4.054   4.695
 4830TIP3   OH214453   6.749   1.818   3.289
 4830TIP3    H114454   6.703   1.898   3.314
 4830TIP3    H214455   6.777   1.833   3.199
 4831TIP3   OH214456   3.810   3.590   4.118
 4831TIP3    H114457   3.849   3.634   4.193
 4831TIP3    H214458   3.819   3.652   4.046
 4832TIP3   OH214459   6.756   2.297   0.991
 4832TIP3    H114460   6.676   2.328   1.034
 4832TIP3    H214461   6.790   2.373   0.944
 4833TIP3   OH214462   1.931   6.799   4.449
 4833TIP3    H114463   1.940   6.723   4.506
 4833TIP3    H214464   1.940   6.763   4.360
 4834TIP3   OH214465   6.905   4.457   5.670
 4834TIP3    H114466   6.938   4.501   5.591
 4834TIP3    H214467   6.883   4.529   5.730
 4835TIP3   OH214468   4.603   4.408   1.056
 4835TIP3    H114469   4.518   4.373   1.084
 4835TIP3    H214470   4.645   4.334   1.012
 4836TIP3   OH214471   6.912   2.276   0.668
 4836TIP3    H114472   6.837   2.239   0.623
 4836TIP3    H214473   6.982   2.212   0.655
 4837TIP3   OH214474   3.412   2.970   1.707
 4837TIP3    H114475   3.357   3.005   1.776
 4837TIP3    H214476   3.472   3.042   1.685
 4838TIP3   OH214477   1.138   4.060   2.335
 4838TIP3    H114478   1.204   3.995   2.311
 4838TIP3    H214479   1.059   4.009   2.352
 4839TIP3   OH214480   2.098   0.647   3.903
 4839TIP3    H114481   2.068   0.713   3.965
 4839TIP3    H214482   2.181   0.616   3.939
 4840TIP3   OH214483   3.663   1.797   3.414
 4840TIP3    H114484   3.667   1.779   3.320
 4840TIP3    H214485   3.652   1.892   3.419
 4841TIP3   OH214486   2.991   5.882   1.220
 4841TIP3    H114487   3.084   5.863   1.213
 4841TIP3    H214488   2.987   5.971   1.254
 4842TIP3   OH214489   5.944   4.322   4.725
 4842TIP3    H114490   5.877   4.290   4.666
 4842TIP3    H214491   5.980   4.399   4.681
 4843TIP3   OH214492   2.641   3.468   1.655
 4843TIP3    H114493   2.556   3.451   1.614
 4843TIP3    H214494   2.698   3.491   1.582
 4844TIP3   OH214495   0.385   4.127   1.368
 4844TIP3    H114496   0.448   4.198   1.382
 4844TIP3    H214497   0.320   4.138   1.437
 4845TIP3   OH214498   0.512   4.943   2.209
 4845TIP3    H114499   0.463   4.980   2.282
 4845TIP3    H214500   0.539   5.019   2.158
 4846TIP3   OH214501   2.336   0.584   0.512
 4846TIP3    H114502   2.392   0.637   0.455
 4846TIP3    H214503   2.361   0.610   0.600
 4847TIP3   OH214504   2.364   0.843   5.431
 4847TIP3    H114505   2.418   0.909   5.387
 4847TIP3    H214506   2.408   0.830   5.515
 4848TIP3   OH214507   5.426   2.185   1.181
 4848TIP3    H114508   5.470   2.194   1.266
 4848TIP3    H214509   5.339   2.220   1.196
 4849TIP3   OH214510   6.016   1.876   1.906
 4849TIP3    H114511   6.010   1.793   1.860
 4849TIP3    H214512   6.011   1.942   1.837
 4850TIP3   OH214513   0.231   4.610   2.157
 4850TIP3    H114514   0.159   4.589   2.216
 4850TIP3    H214515   0.235   4.537   2.096
 4851TIP3   OH214516   2.207   4.721   1.471
 4851TIP3    H114517   2.135   4.781   1.455
 4851TIP3    H214518   2.284   4.765   1.434
 4852TIP3   OH214519   3.373   1.228   4.315
 4852TIP3    H114520   3.381   1.162   4.246
 4852TIP3    H214521   3.384   1.311   4.269
 4853TIP3   OH214522   3.994   5.870   5.086
 4853TIP3    H114523   3.935   5.799   5.110
 4853TIP3    H214524   4.062   5.828   5.033
 4854TIP3   OH214525   4.896   0.294   4.861
 4854TIP3    H114526   4.948   0.326   4.787
 4854TIP3    H214527   4.812   0.268   4.822
 4855TIP3   OH214528   6.680   1.190   1.076
 4855TIP3    H114529   6.669   1.098   1.097
 4855TIP3    H214530   6.774   1.203   1.068
 4856TIP3   OH214531   0.389   6.412   4.073
 4856TIP3    H114532   0.306   6.459   4.084
 4856TIP3    H214533   0.373   6.326   4.113
 4857TIP3   OH214534   3.186   2.845   1.056
 4857TIP3    H114535   3.204   2.772   1.115
 4857TIP3    H214536   3.217   2.815   0.970
 4858TIP3   OH214537   1.172   1.171   4.197
 4858TIP3    H114538   1.103   1.140   4.257
 4858TIP3    H214539   1.152   1.264   4.185
 4859TIP3   OH214540   6.114   2.917   2.473
 4859TIP3    H114541   6.019   2.920   2.490
 4859TIP3    H214542   6.125   2.963   2.390
 4860TIP3   OH214543   2.518   6.260   3.572
 4860TIP3    H114544   2.591   6.198   3.571
 4860TIP3    H214545   2.516   6.296   3.483
 4861TIP3   OH214546   2.085   4.053   3.701
 4861TIP3    H114547   2.073   4.088   3.613
 4861TIP3    H214548   2.141   3.976   3.689
 4862TIP3   OH214549   0.906   6.074   1.410
 4862TIP3    H114550   0.874   6.029   1.488
 4862TIP3    H214551   0.892   6.012   1.338
 4863TIP3   OH214552   4.894   1.664   1.502
 4863TIP3    H114553   4.960   1.596   1.520
 4863TIP3    H214554   4.945   1.739   1.472
 4864TIP3   OH214555   1.927   4.328   0.434
 4864TIP3    H114556   1.884   4.413   0.434
 4864TIP3    H214557   2.004   4.339   0.490
 4865TIP3   OH214558   0.196   3.823   1.691
 4865TIP3    H114559   0.114   3.868   1.672
 4865TIP3    H214560   0.201   3.820   1.786
 4866TIP3   OH214561   5.071   1.319   3.380
 4866TIP3    H114562   5.073   1.403   3.426
 4866TIP3    H214563   4.980   1.290   3.388
 4867TIP3   OH214564   2.255   3.574   1.168
 4867TIP3    H114565   2.227   3.593   1.079
 4867TIP3    H214566   2.252   3.659   1.213
 4868TIP3   OH214567   2.891   0.805   0.314
 4868TIP3    H114568   2.828   0.816   0.243
 4868TIP3    H214569   2.976   0.797   0.270
 4869TIP3   OH214570   1.804   4.559   3.262
 4869TIP3    H114571   1.869   4.513   3.209
 4869TIP3    H214572   1.729   4.570   3.203
 4870TIP3   OH214573   3.350   3.187   5.511
 4870TIP3    H114574   3.293   3.208   5.438
 4870TIP3    H214575   3.291   3.173   5.585
 4871TIP3   OH214576   1.089   4.825   2.074
 4871TIP3    H114577   1.158   4.843   2.010
 4871TIP3    H214578   1.086   4.903   2.129
 4872TIP3   OH214579   2.081   4.554   5.567
 4872TIP3    H114580   2.011   4.507   5.522
 4872TIP3    H214581   2.097   4.631   5.514
 4873TIP3   OH214582   0.883   0.110   4.302
 4873TIP3    H114583   0.859   0.029   4.348
 4873TIP3    H214584   0.850   0.180   4.357
 4874TIP3   OH214585   2.807   2.650   5.773
 4874TIP3    H114586   2.733   2.710   5.783
 4874TIP3    H214587   2.884   2.705   5.786
 4875TIP3   OH214588   6.753   0.045   4.395
 4875TIP3    H114589   6.732   0.098   4.472
 4875TIP3    H214590   6.830  -0.005   4.421
 4876TIP3   OH214591   3.103   2.433   3.212
 4876TIP3    H114592   3.093   2.528   3.199
 4876TIP3    H214593   3.030   2.395   3.164
 4877TIP3   OH214594   0.855   4.488   5.012
 4877TIP3    H114595   0.917   4.557   5.035
 4877TIP3    H214596   0.879   4.465   4.922
 4878TIP3   OH214597   7.112   5.854   2.904
 4878TIP3    H114598   7.202   5.844   2.873
 4878TIP3    H214599   7.111   5.809   2.989
 4879TIP3   OH214600   6.793   4.633   0.782
 4879TIP3    H114601   6.877   4.674   0.800
 4879TIP3    H214602   6.812   4.564   0.719
 4880TIP3   OH214603   3.231   5.544   0.315
 4880TIP3    H114604   3.220   5.449   0.311
 4880TIP3    H214605   3.324   5.557   0.332
 4881TIP3   OH214606   6.597   4.776   3.990
 4881TIP3    H114607   6.612   4.816   3.904
 4881TIP3    H214608   6.515   4.815   4.021
 4882TIP3   OH214609   3.392   1.598   0.108
 4882TIP3    H114610   3.313   1.601   0.054
 4882TIP3    H214611   3.405   1.505   0.126
 4883TIP3   OH214612   3.241   6.101   2.158
 4883TIP3    H114613   3.164   6.152   2.182
 4883TIP3    H214614   3.267   6.059   2.240
 4884TIP3   OH214615   1.902   0.693   4.693
 4884TIP3    H114616   1.975   0.751   4.715
 4884TIP3    H214617   1.938   0.630   4.631
 4885TIP3   OH214618   3.208   5.587   5.885
 4885TIP3    H114619   3.124   5.576   5.928
 4885TIP3    H214620   3.186   5.597   5.792
 4886TIP3   OH214621   6.804   2.219   3.048
 4886TIP3    H114622   6.713   2.190   3.047
 4886TIP3    H214623   6.844   2.178   2.971
 4887TIP3   OH214624   4.137   2.553   0.344
 4887TIP3    H114625   4.079   2.545   0.420
 4887TIP3    H214626   4.127   2.644   0.316
 4888TIP3   OH214627   2.048   3.033   4.146
 4888TIP3    H114628   2.080   2.994   4.065
 4888TIP3    H214629   2.021   3.122   4.122
 4889TIP3   OH214630   6.064   5.957   3.889
 4889TIP3    H114631   6.053   6.031   3.949
 4889TIP3    H214632   6.113   5.892   3.940
 4890TIP3   OH214633   5.523   6.634   0.562
 4890TIP3    H114634   5.538   6.668   0.473
 4890TIP3    H214635   5.496   6.543   0.548
 4891TIP3   OH214636   2.606   1.672   0.726
 4891TIP3    H114637   2.618   1.763   0.755
 4891TIP3    H214638   2.592   1.623   0.807
 4892TIP3   OH214639   1.202   6.806   5.607
 4892TIP3    H114640   1.199   6.764   5.521
 4892TIP3    H214641   1.146   6.751   5.662
 4893TIP3   OH214642   2.703   0.776   3.473
 4893TIP3    H114643   2.718   0.866   3.501
 4893TIP3    H214644   2.633   0.744   3.530
 4894TIP3   OH214645   5.252   3.256   2.715
 4894TIP3    H114646   5.254   3.192   2.786
 4894TIP3    H214647   5.207   3.213   2.643
 4895TIP3   OH214648   2.780   2.569   5.500
 4895TIP3    H114649   2.847   2.512   5.461
 4895TIP3    H214650   2.815   2.591   5.586
 4896TIP3   OH214651   1.639   6.309   1.948
 4896TIP3    H114652   1.584   6.379   1.984
 4896TIP3    H214653   1.728   6.333   1.976
 4897TIP3   OH214654   5.534   5.556   5.378
 4897TIP3    H114655   5.570   5.481   5.331
 4897TIP3    H214656   5.539   5.530   5.471
 4898TIP3   OH214657   0.234   4.901   4.886
 4898TIP3    H114658   0.246   4.841   4.960
 4898TIP3    H214659   0.317   4.897   4.839
 4899TIP3   OH214660   3.331   4.678   4.602
 4899TIP3    H114661   3.302   4.589   4.584
 4899TIP3    H214662   3.392   4.698   4.532
 4900TIP3   OH214663   1.781   0.177   0.017
 4900TIP3    H114664   1.718   0.119  -0.026
 4900TIP3    H214665   1.865   0.131   0.010
 4901TIP3   OH214666   3.452   5.897   3.975
 4901TIP3    H114667   3.420   5.953   3.904
 4901TIP3    H214668   3.500   5.827   3.930
 4902TIP3   OH214669   5.869   6.510   3.862
 4902TIP3    H114670   5.930   6.479   3.929
 4902TIP3    H214671   5.810   6.568   3.910
 4903TIP3   OH214672   5.762   5.182   3.509
 4903TIP3    H114673   5.672   5.216   3.509
 4903TIP3    H214674   5.814   5.252   3.549
 4904TIP3   OH214675   0.279   0.919   1.006
 4904TIP3    H114676   0.235   0.896   0.925
 4904TIP3    H214677   0.274   1.015   1.010
 4905TIP3   OH214678   0.706   4.721   2.206
 4905TIP3    H114679   0.645   4.793   2.215
 4905TIP3    H214680   0.651   4.643   2.196
 4906TIP3   OH214681   6.117   3.758   1.540
 4906TIP3    H114682   6.031   3.745   1.581
 4906TIP3    H214683   6.158   3.826   1.593
 4907TIP3   OH214684   7.196   4.888   2.006
 4907TIP3    H114685   7.226   4.824   1.942
 4907TIP3    H214686   7.127   4.936   1.961
 4908TIP3   OH214687   2.996   0.301   4.701
 4908TIP3    H114688   3.005   0.362   4.628
 4908TIP3    H214689   3.044   0.343   4.773
 4909TIP3   OH214690   1.964   3.796   0.900
 4909TIP3    H114691   2.056   3.771   0.904
 4909TIP3    H214692   1.965   3.887   0.870
 4910TIP3   OH214693   2.853   6.389   1.168
 4910TIP3    H114694   2.884   6.410   1.080
 4910TIP3    H214695   2.762   6.362   1.154
 4911TIP3   OH214696   0.345   5.242   4.398
 4911TIP3    H114697   0.382   5.301   4.332
 4911TIP3    H214698   0.290   5.182   4.348
 4912TIP3   OH214699   2.162   1.614   3.963
 4912TIP3    H114700   2.218   1.628   4.040
 4912TIP3    H214701   2.151   1.701   3.925
 4913TIP3   OH214702   6.329   2.102   2.046
 4913TIP3    H114703   6.405   2.045   2.039
 4913TIP3    H214704   6.293   2.084   2.133
 4914TIP3   OH214705   5.395   4.712   1.389
 4914TIP3    H114706   5.373   4.788   1.444
 4914TIP3    H214707   5.491   4.708   1.392
 4915TIP3   OH214708   1.716   6.184   3.308
 4915TIP3    H114709   1.707   6.214   3.399
 4915TIP3    H214710   1.805   6.210   3.283
 4916TIP3   OH214711   4.315   0.425   3.340
 4916TIP3    H114712   4.373   0.445   3.267
 4916TIP3    H214713   4.233   0.398   3.298
 4917TIP3   OH214714   4.709   2.116   1.239
 4917TIP3    H114715   4.730   2.137   1.148
 4917TIP3    H214716   4.684   2.024   1.238
 4918TIP3   OH214717   1.119   5.411   2.358
 4918TIP3    H114718   1.061   5.378   2.426
 4918TIP3    H214719   1.060   5.443   2.290
 4919TIP3   OH214720   2.542   3.511   0.593
 4919TIP3    H114721   2.564   3.596   0.629
 4919TIP3    H214722   2.499   3.530   0.509
 4920TIP3   OH214723   1.990   2.868   4.382
 4920TIP3    H114724   2.005   2.931   4.311
 4920TIP3    H214725   1.946   2.919   4.450
 4921TIP3   OH214726   6.717   0.733   1.658
 4921TIP3    H114727   6.695   0.682   1.736
 4921TIP3    H214728   6.771   0.805   1.691
 4922TIP3   OH214729   3.724   0.349   1.306
 4922TIP3    H114730   3.637   0.374   1.339
 4922TIP3    H214731   3.757   0.288   1.372
 4923TIP3   OH214732   0.392   2.483   0.452
 4923TIP3    H114733   0.420   2.573   0.471
 4923TIP3    H214734   0.460   2.449   0.394
 4924TIP3   OH214735   5.004   5.466   0.539
 4924TIP3    H114736   4.972   5.433   0.455
 4924TIP3    H214737   5.055   5.544   0.517
 4925TIP3   OH214738   7.109   2.148   4.713
 4925TIP3    H114739   7.102   2.231   4.762
 4925TIP3    H214740   7.175   2.098   4.762
 4926TIP3   OH214741   3.402   0.481   4.859
 4926TIP3    H114742   3.466   0.531   4.909
 4926TIP3    H214743   3.384   0.535   4.782
 4927TIP3   OH214744   4.003   5.658   1.324
 4927TIP3    H114745   3.940   5.730   1.329
 4927TIP3    H214746   4.055   5.677   1.246
 4928TIP3   OH214747   6.519   2.797   5.901
 4928TIP3    H114748   6.527   2.780   5.995
 4928TIP3    H214749   6.463   2.874   5.895
 4929TIP3   OH214750   1.135   2.936   2.152
 4929TIP3    H114751   1.141   2.933   2.248
 4929TIP3    H214752   1.137   2.845   2.124
 4930TIP3   OH214753   3.140   3.023   2.593
 4930TIP3    H114754   3.167   3.104   2.549
 4930TIP3    H214755   3.211   2.961   2.576
 4931TIP3   OH214756   5.172   1.767   4.139
 4931TIP3    H114757   5.204   1.807   4.220
 4931TIP3    H214758   5.181   1.673   4.153
 4932TIP3   OH214759   3.004   4.958   0.426
 4932TIP3    H114760   3.097   4.936   0.434
 4932TIP3    H214761   2.958   4.881   0.459
 4933TIP3   OH214762   5.603   0.939   4.681
 4933TIP3    H114763   5.582   1.032   4.673
 4933TIP3    H214764   5.564   0.899   4.603
 4934TIP3   OH214765   1.585   4.233   4.026
 4934TIP3    H114766   1.516   4.297   4.010
 4934TIP3    H214767   1.581   4.173   3.951
 4935TIP3   OH214768   4.773   4.874   2.609
 4935TIP3    H114769   4.824   4.793   2.606
 4935TIP3    H214770   4.751   4.885   2.701
 4936TIP3   OH214771   2.312   5.062   4.308
 4936TIP3    H114772   2.398   5.019   4.309
 4936TIP3    H214773   2.288   5.065   4.215
 4937TIP3   OH214774   3.829   3.258   2.517
 4937TIP3    H114775   3.921   3.242   2.540
 4937TIP3    H214776   3.783   3.257   2.601
 4938TIP3   OH214777   7.119   6.658   2.096
 4938TIP3    H114778   7.059   6.589   2.125
 4938TIP3    H214779   7.203   6.634   2.137
 4939TIP3   OH214780   2.432   2.010   4.954
 4939TIP3    H114781   2.374   2.003   4.879
 4939TIP3    H214782   2.493   2.081   4.932
 4940TIP3   OH214783   5.246   5.169   1.658
 4940TIP3    H114784   5.322   5.213   1.621
 4940TIP3    H214785   5.184   5.240   1.678
 4941TIP3   OH214786   1.083   3.710   5.040
 4941TIP3    H114787   1.077   3.634   5.099
 4941TIP3    H214788   1.080   3.786   5.098
 4942TIP3   OH214789   5.632   5.197   1.798
 4942TIP3    H114790   5.683   5.258   1.744
 4942TIP3    H214791   5.644   5.112   1.755
 4943TIP3   OH214792   6.028   5.399   2.786
 4943TIP3    H114793   6.070   5.313   2.782
 4943TIP3    H214794   6.086   5.457   2.737
 4944TIP3   OH214795   3.796   1.291   4.629
 4944TIP3    H114796   3.892   1.297   4.623
 4944TIP3    H214797   3.764   1.353   4.564
 4945TIP3   OH214798   1.504   2.465   2.942
 4945TIP3    H114799   1.487   2.509   3.025
 4945TIP3    H214800   1.502   2.535   2.877
 4946TIP3   OH214801   3.847   1.741   5.823
 4946TIP3    H114802   3.788   1.668   5.836
 4946TIP3    H214803   3.861   1.776   5.912
 4947TIP3   OH214804   2.630   2.540   4.393
 4947TIP3    H114805   2.700   2.479   4.413
 4947TIP3    H214806   2.550   2.489   4.404
 4948TIP3   OH214807   3.670   2.083   0.192
 4948TIP3    H114808   3.702   2.172   0.210
 4948TIP3    H214809   3.594   2.072   0.250
 4949TIP3   OH214810   2.402   4.295   5.016
 4949TIP3    H114811   2.386   4.305   5.110
 4949TIP3    H214812   2.455   4.371   4.992
 4950TIP3   OH214813   4.318   6.425   3.176
 4950TIP3    H114814   4.335   6.457   3.087
 4950TIP3    H214815   4.261   6.491   3.215
 4951TIP3   OH214816   5.633   6.683   2.084
 4951TIP3    H114817   5.601   6.772   2.098
 4951TIP3    H214818   5.556   6.627   2.093
 4952TIP3   OH214819   0.230   4.470   4.709
 4952TIP3    H114820   0.233   4.380   4.676
 4952TIP3    H214821   0.138   4.495   4.700
 4953TIP3   OH214822   1.281   0.349   2.600
 4953TIP3    H114823   1.346   0.319   2.664
 4953TIP3    H214824   1.326   0.417   2.550
 4954TIP3   OH214825   2.827   6.462   0.347
 4954TIP3    H114826   2.852   6.510   0.426
 4954TIP3    H214827   2.848   6.521   0.275
 4955TIP3   OH214828   3.848   0.012   3.020
 4955TIP3    H114829   3.873  -0.055   3.084
 4955TIP3    H214830   3.918   0.078   3.026
 4956TIP3   OH214831   2.377   0.784   5.105
 4956TIP3    H114832   2.294   0.785   5.153
 4956TIP3    H214833   2.375   0.863   5.052
 4957TIP3   OH214834   3.269   0.684   2.613
 4957TIP3    H114835   3.176   0.682   2.592
 4957TIP3    H214836   3.286   0.600   2.656
 4958TIP3   OH214837   3.770   3.068   5.129
 4958TIP3    H114838   3.863   3.052   5.113
 4958TIP3    H214839   3.748   3.012   5.203
 4959TIP3   OH214840   4.221   6.233   1.537
 4959TIP3    H114841   4.239   6.176   1.612
 4959TIP3    H214842   4.255   6.319   1.564
 4960TIP3   OH214843   3.810   3.617   5.115
 4960TIP3    H114844   3.770   3.694   5.155
 4960TIP3    H214845   3.746   3.589   5.049
 4961TIP3   OH214846   5.579   4.091   2.728
 4961TIP3    H114847   5.490   4.076   2.695
 4961TIP3    H214848   5.576   4.062   2.819
 4962TIP3   OH214849   0.775   6.356   2.593
 4962TIP3    H114850   0.784   6.396   2.679
 4962TIP3    H214851   0.687   6.318   2.594
 4963TIP3   OH214852   2.807   3.807   1.506
 4963TIP3    H114853   2.767   3.725   1.477
 4963TIP3    H214854   2.866   3.781   1.576
 4964TIP3   OH214855   1.645   1.836   3.232
 4964TIP3    H114856   1.735   1.805   3.220
 4964TIP3    H214857   1.614   1.790   3.310
 4965TIP3   OH214858   2.781   6.643   5.618
 4965TIP3    H114859   2.846   6.662   5.685
 4965TIP3    H214860   2.711   6.599   5.665
 4966TIP3   OH214861   0.166   5.900   1.416
 4966TIP3    H114862   0.260   5.888   1.408
 4966TIP3    H214863   0.154   5.996   1.417
 4967TIP3   OH214864   6.272   4.275   4.837
 4967TIP3    H114865   6.303   4.346   4.893
 4967TIP3    H214866   6.213   4.225   4.893
 4968TIP3   OH214867   3.681   5.436   3.923
 4968TIP3    H114868   3.682   5.388   4.006
 4968TIP3    H214869   3.771   5.431   3.891
 4969TIP3   OH214870   5.087   3.751   0.249
 4969TIP3    H114871   5.045   3.824   0.294
 4969TIP3    H214872   5.181   3.771   0.254
 4970TIP3   OH214873   1.177   3.630   5.460
 4970TIP3    H114874   1.107   3.592   5.406
 4970TIP3    H214875   1.231   3.679   5.398
 4971TIP3   OH214876   0.429   1.969   0.362
 4971TIP3    H114877   0.499   2.030   0.385
 4971TIP3    H214878   0.357   1.992   0.421
 4972TIP3   OH214879   4.059   4.604   1.121
 4972TIP3    H114880   3.993   4.536   1.126
 4972TIP3    H214881   4.025   4.676   1.175
 4973TIP3   OH214882   1.208   6.030   3.124
 4973TIP3    H114883   1.259   5.997   3.051
 4973TIP3    H214884   1.271   6.076   3.180
 4974TIP3   OH214885   0.803   0.409   4.808
 4974TIP3    H114886   0.861   0.425   4.734
 4974TIP3    H214887   0.728   0.363   4.770
 4975TIP3   OH214888   4.426   5.850   0.572
 4975TIP3    H114889   4.464   5.937   0.567
 4975TIP3    H214890   4.372   5.843   0.493
 4976TIP3   OH214891   6.878   2.147   5.327
 4976TIP3    H114892   6.821   2.211   5.285
 4976TIP3    H214893   6.920   2.101   5.255
 4977TIP3   OH214894   1.215   5.615   3.690
 4977TIP3    H114895   1.224   5.615   3.785
 4977TIP3    H214896   1.255   5.533   3.662
 4978TIP3   OH214897   5.082   5.038   2.724
 4978TIP3    H114898   5.098   5.107   2.659
 4978TIP3    H214899   5.031   5.080   2.793
 4979TIP3   OH214900   0.765   1.188   3.357
 4979TIP3    H114901   0.850   1.185   3.401
 4979TIP3    H214902   0.709   1.129   3.407
 4980TIP3   OH214903   2.594   5.222   5.216
 4980TIP3    H114904   2.575   5.215   5.310
 4980TIP3    H214905   2.638   5.306   5.207
 4981TIP3   OH214906   1.015   5.319   3.222
 4981TIP3    H114907   0.985   5.403   3.188
 4981TIP3    H214908   1.087   5.294   3.164
 4982TIP3   OH214909   3.089   1.253   0.516
 4982TIP3    H114910   3.076   1.161   0.494
 4982TIP3    H214911   3.001   1.286   0.534
 4983TIP3   OH214912   5.821   3.117   4.000
 4983TIP3    H114913   5.738   3.081   4.031
 4983TIP3    H214914   5.849   3.057   3.931
 4984TIP3   OH214915   6.002   4.253   5.496
 4984TIP3    H114916   6.085   4.236   5.451
 4984TIP3    H214917   6.022   4.325   5.556
 4985TIP3   OH214918   5.303   2.181   4.996
 4985TIP3    H114919   5.380   2.168   4.940
 4985TIP3    H214920   5.282   2.094   5.028
 4986TIP3   OH214921   7.208   6.505   4.251
 4986TIP3    H114922   7.238   6.416   4.268
 4986TIP3    H214923   7.151   6.496   4.174
 4987TIP3   OH214924   3.156   2.201   1.567
 4987TIP3    H114925   3.239   2.249   1.562
 4987TIP3    H214926   3.135   2.179   1.477
 4988TIP3   OH214927   4.485   3.777   5.191
 4988TIP3    H114928   4.515   3.703   5.244
 4988TIP3    H214929   4.467   3.846   5.256
 4989TIP3   OH214930   3.118   1.744   3.988
 4989TIP3    H114931   3.046   1.803   4.012
 4989TIP3    H214932   3.074   1.665   3.955
 4990TIP3   OH214933   2.212   2.479   2.856
 4990TIP3    H114934   2.125   2.505   2.827
 4990TIP3    H214935   2.197   2.406   2.915
 4991TIP3   OH214936   2.949   3.357   2.523
 4991TIP3    H114937   2.870   3.394   2.561
 4991TIP3    H214938   3.016   3.425   2.535
 4992TIP3   OH214939   3.450   5.432   0.619
 4992TIP3    H114940   3.502   5.430   0.699
 4992TIP3    H214941   3.378   5.491   0.639
 4993TIP3   OH214942   2.539   3.472   1.221
 4993TIP3    H114943   2.452   3.510   1.209
 4993TIP3    H214944   2.571   3.458   1.132
 4994TIP3   OH214945  -0.034   1.115   0.138
 4994TIP3    H114946   0.045   1.061   0.144
 4994TIP3    H214947  -0.085   1.091   0.215
 4995TIP3   OH214948   5.423   6.136   0.233
 4995TIP3    H114949   5.474   6.214   0.254
 4995TIP3    H214950   5.421   6.086   0.315
 4996TIP3   OH214951   1.700   0.301   0.527
 4996TIP3    H114952   1.786   0.340   0.513
 4996TIP3    H214953   1.715   0.206   0.521
 4997TIP3   OH214954   0.304   2.805   1.085
 4997TIP3    H114955   0.287   2.834   0.995
 4997TIP3    H214956   0.244   2.732   1.099
 4998TIP3   OH214957   2.962   2.959   1.150
 4998TIP3    H114958   2.949   3.014   1.073
 4998TIP3    H214959   3.040   2.907   1.128
 4999TIP3   OH214960   2.780   3.660   2.929
 4999TIP3    H114961   2.685   3.668   2.937
 4999TIP3    H214962   2.799   3.570   2.956
 5000TIP3   OH214963   4.317   4.125   0.075
 5000TIP3    H114964   4.356   4.066   0.140
 5000TIP3    H214965   4.273   4.066   0.014
 5001TIP3   OH214966   3.836   4.256   4.965
 5001TIP3    H114967   3.790   4.175   4.943
 5001TIP3    H214968   3.842   4.304   4.882
 5002TIP3   OH214969   4.620   3.634   2.540
 5002TIP3    H114970   4.598   3.718   2.580
 5002TIP3    H214971   4.552   3.574   2.571
 5003TIP3   OH214972   1.574   4.519   4.434
 5003TIP3    H114973   1.517   4.445   4.411
 5003TIP3    H214974   1.652   4.506   4.380
 5004TIP3   OH214975   4.578   1.422   5.601
 5004TIP3    H114976   4.575   1.404   5.507
 5004TIP3    H214977   4.582   1.518   5.607
 5005TIP3   OH214978   6.761   0.863   3.425
 5005TIP3    H114979   6.704   0.825   3.492
 5005TIP3    H214980   6.701   0.904   3.363
 5006TIP3   OH214981   2.082   0.679   1.074
 5006TIP3    H114982   2.175   0.702   1.074
 5006TIP3    H214983   2.078   0.595   1.120
 5007TIP3   OH214984   5.849   3.326   3.019
 5007TIP3    H114985   5.779   3.300   2.958
 5007TIP3    H214986   5.872   3.414   2.992
 5008TIP3   OH214987   0.240   1.371  -0.040
 5008TIP3    H114988   0.270   1.305   0.022
 5008TIP3    H214989   0.233   1.324  -0.124
 5009TIP3   OH214990   0.745   4.263   4.722
 5009TIP3    H114991   0.811   4.328   4.700
 5009TIP3    H214992   0.667   4.291   4.675
 5010TIP3   OH214993   6.262   0.468   4.604
 5010TIP3    H114994   6.203   0.442   4.675
 5010TIP3    H214995   6.213   0.534   4.556
 5011TIP3   OH214996   1.940   5.780   1.628
 5011TIP3    H114997   1.941   5.686   1.641
 5011TIP3    H214998   1.868   5.812   1.682
 5012TIP3   OH214999   1.880   5.133   1.999
 5012TIP3    H115000   1.887   5.053   2.050
 5012TIP3    H215001   1.804   5.178   2.036
 5013TIP3   OH215002   1.986   2.754   2.595
 5013TIP3    H115003   1.907   2.700   2.604
 5013TIP3    H215004   1.985   2.811   2.672
 5014TIP3   OH215005   1.288   0.691   4.590
 5014TIP3    H115006   1.281   0.784   4.614
 5014TIP3    H215007   1.297   0.646   4.674
 5015TIP3   OH215008   5.520   4.974   0.164
 5015TIP3    H115009   5.593   4.912   0.152
 5015TIP3    H215010   5.549   5.031   0.235
 5016TIP3   OH215011   1.514   2.801   4.071
 5016TIP3    H115012   1.543   2.892   4.065
 5016TIP3    H215013   1.427   2.800   4.033
 5017TIP3   OH215014   0.877   0.287   1.078
 5017TIP3    H115015   0.957   0.340   1.077
 5017TIP3    H215016   0.862   0.267   1.170
 5018TIP3   OH215017   6.937   1.292   1.762
 5018TIP3    H115018   7.008   1.353   1.743
 5018TIP3    H215019   6.884   1.291   1.682
 5019TIP3   OH215020   5.220   6.686   3.450
 5019TIP3    H115021   5.133   6.655   3.423
 5019TIP3    H215022   5.229   6.656   3.540
 5020TIP3   OH215023   2.877   5.531   5.120
 5020TIP3    H115024   2.952   5.565   5.169
 5020TIP3    H215025   2.908   5.450   5.081
 5021TIP3   OH215026   1.298   5.396   4.645
 5021TIP3    H115027   1.363   5.328   4.630
 5021TIP3    H215028   1.278   5.390   4.739
 5022TIP3   OH215029   5.797   3.717   5.048
 5022TIP3    H115030   5.759   3.743   4.964
 5022TIP3    H215031   5.857   3.646   5.027
 5023TIP3   OH215032   6.847   3.608   0.997
 5023TIP3    H115033   6.869   3.514   1.000
 5023TIP3    H215034   6.799   3.624   1.079
 5024TIP3   OH215035   3.594   5.479   1.358
 5024TIP3    H115036   3.657   5.410   1.378
 5024TIP3    H215037   3.552   5.451   1.276
 5025TIP3   OH215038   1.617   6.561   1.710
 5025TIP3    H115039   1.685   6.597   1.767
 5025TIP3    H215040   1.665   6.510   1.645
 5026TIP3   OH215041   7.156   4.887   4.274
 5026TIP3    H115042   7.173   4.859   4.184
 5026TIP3    H215043   7.124   4.808   4.318
 5027TIP3   OH215044  -0.019   5.726   4.570
 5027TIP3    H115045  -0.031   5.682   4.654
 5027TIP3    H215046   0.066   5.695   4.538
 5028TIP3   OH215047   4.405   1.827   3.199
 5028TIP3    H115048   4.422   1.807   3.291
 5028TIP3    H215049   4.487   1.808   3.154
 5029TIP3   OH215050   0.166   5.291   5.347
 5029TIP3    H115051   0.171   5.329   5.435
 5029TIP3    H215052   0.227   5.344   5.295
 5030TIP3   OH215053   6.312   1.103   3.408
 5030TIP3    H115054   6.227   1.103   3.365
 5030TIP3    H215055   6.296   1.144   3.493
 5031TIP3   OH215056   0.722   3.050   2.761
 5031TIP3    H115057   0.744   3.060   2.853
 5031TIP3    H215058   0.806   3.037   2.717
 5032TIP3   OH215059   6.050   1.185   3.361
 5032TIP3    H115060   5.985   1.233   3.412
 5032TIP3    H215061   6.069   1.242   3.287
 5033TIP3   OH215062   4.818   6.527   0.707
 5033TIP3    H115063   4.874   6.450   0.711
 5033TIP3    H215064   4.730   6.493   0.718
 5034TIP3   OH215065   0.721   5.979   3.120
 5034TIP3    H115066   0.800   6.012   3.078
 5034TIP3    H215067   0.727   5.884   3.111
 5035TIP3   OH215068   1.960   0.386   4.096
 5035TIP3    H115069   1.973   0.417   4.006
 5035TIP3    H215070   2.049   0.378   4.132
 5036TIP3   OH215071   2.586   2.435   1.312
 5036TIP3    H115072   2.658   2.372   1.310
 5036TIP3    H215073   2.514   2.388   1.354
 5037TIP3   OH215074   5.097   2.710   0.924
 5037TIP3    H115075   5.075   2.632   0.873
 5037TIP3    H215076   5.145   2.766   0.864
 5038TIP3   OH215077   1.706   0.124   4.721
 5038TIP3    H115078   1.790   0.120   4.677
 5038TIP3    H215079   1.703   0.212   4.760
 5039TIP3   OH215080   6.866   5.347   3.289
 5039TIP3    H115081   6.896   5.359   3.199
 5039TIP3    H215082   6.786   5.399   3.295
 5040TIP3   OH215083   3.943   0.496   5.221
 5040TIP3    H115084   3.872   0.449   5.266
 5040TIP3    H215085   4.007   0.428   5.201
 5041TIP3   OH215086   0.647   4.802   4.436
 5041TIP3    H115087   0.721   4.857   4.410
 5041TIP3    H215088   0.606   4.850   4.508
 5042TIP3   OH215089   6.762   1.062   1.355
 5042TIP3    H115090   6.778   1.042   1.448
 5042TIP3    H215091   6.759   1.158   1.352
 5043TIP3   OH215092   1.261   3.862   2.953
 5043TIP3    H115093   1.192   3.926   2.937
 5043TIP3    H215094   1.266   3.812   2.872
 5044TIP3   OH215095   4.645   6.618   3.414
 5044TIP3    H115096   4.644   6.713   3.420
 5044TIP3    H215097   4.606   6.589   3.497
 5045TIP3   OH215098   3.586   0.900   0.532
 5045TIP3    H115099   3.600   0.884   0.626
 5045TIP3    H215100   3.663   0.952   0.506
 5046TIP3   OH215101   2.413   5.574   4.131
 5046TIP3    H115102   2.349   5.635   4.167
 5046TIP3    H215103   2.497   5.607   4.161
 5047TIP3   OH215104   2.521   2.466   0.053
 5047TIP3    H115105   2.434   2.427   0.059
 5047TIP3    H215106   2.505   2.561   0.060
 5048TIP3   OH215107   6.478   0.893   1.484
 5048TIP3    H115108   6.489   0.892   1.579
 5048TIP3    H215109   6.391   0.932   1.470
 5049TIP3   OH215110   4.832   2.072   3.191
 5049TIP3    H115111   4.748   2.050   3.231
 5049TIP3    H215112   4.826   2.165   3.172
 5050TIP3   OH215113   2.222   4.349   1.773
 5050TIP3    H115114   2.199   4.257   1.789
 5050TIP3    H215115   2.304   4.361   1.821
 5051TIP3   OH215116   1.280   2.585   5.473
 5051TIP3    H115117   1.318   2.655   5.526
 5051TIP3    H215118   1.217   2.630   5.416
 5052TIP3   OH215119   5.711   3.959   4.356
 5052TIP3    H115120   5.789   3.907   4.337
 5052TIP3    H215121   5.671   3.916   4.432
 5053TIP3   OH215122   5.695   1.603   4.748
 5053TIP3    H115123   5.692   1.676   4.810
 5053TIP3    H215124   5.730   1.530   4.799
 5054TIP3   OH215125   4.899   6.414   5.462
 5054TIP3    H115126   4.953   6.403   5.541
 5054TIP3    H215127   4.841   6.487   5.483
 5055TIP3   OH215128   5.477   3.150   4.449
 5055TIP3    H115129   5.479   3.075   4.509
 5055TIP3    H215130   5.385   3.156   4.423
 5056TIP3   OH215131   6.363   1.296   2.849
 5056TIP3    H115132   6.364   1.273   2.942
 5056TIP3    H215133   6.271   1.308   2.828
 5057TIP3   OH215134   0.205   2.804   3.574
 5057TIP3    H115135   0.150   2.811   3.652
 5057TIP3    H215136   0.284   2.760   3.604
 5058TIP3   OH215137   5.523   6.772   1.142
 5058TIP3    H115138   5.583   6.786   1.069
 5058TIP3    H215139   5.466   6.701   1.113
 5059TIP3   OH215140   0.782   4.612   3.474
 5059TIP3    H115141   0.739   4.594   3.390
 5059TIP3    H215142   0.751   4.699   3.499
 5060TIP3   OH215143   2.522   2.337   4.670
 5060TIP3    H115144   2.561   2.293   4.746
 5060TIP3    H215145   2.541   2.430   4.684
 5061TIP3   OH215146   1.865   0.892   1.281
 5061TIP3    H115147   1.954   0.896   1.248
 5061TIP3    H215148   1.814   0.947   1.222
 5062TIP3   OH215149   4.183   6.717   1.015
 5062TIP3    H115150   4.259   6.742   0.962
 5062TIP3    H215151   4.176   6.622   1.002
 5063TIP3   OH215152   0.506   6.456   5.524
 5063TIP3    H115153   0.447   6.389   5.559
 5063TIP3    H215154   0.533   6.422   5.439
 5064TIP3   OH215155   2.819   4.201   4.452
 5064TIP3    H115156   2.875   4.124   4.443
 5064TIP3    H215157   2.730   4.167   4.446
 5065TIP3   OH215158   0.832   5.623   5.021
 5065TIP3    H115159   0.901   5.586   4.966
 5065TIP3    H215160   0.779   5.547   5.047
 5066TIP3   OH215161   0.776   4.398   5.294
 5066TIP3    H115162   0.689   4.429   5.318
 5066TIP3    H215163   0.804   4.456   5.223
 5067TIP3   OH215164   0.900   2.390   3.395
 5067TIP3    H115165   0.825   2.340   3.363
 5067TIP3    H215166   0.865   2.437   3.471
 5068TIP3   OH215167   5.558   1.968   5.182
 5068TIP3    H115168   5.620   1.980   5.111
 5068TIP3    H215169   5.473   1.958   5.139
 5069TIP3   OH215170   4.032   3.973   4.539
 5069TIP3    H115171   4.039   3.974   4.444
 5069TIP3    H215172   4.123   3.975   4.570
 5070TIP3   OH215173   0.703   5.383   1.960
 5070TIP3    H115174   0.682   5.472   1.934
 5070TIP3    H215175   0.755   5.392   2.040
 5071TIP3   OH215176   4.105   3.085   5.288
 5071TIP3    H115177   4.097   3.047   5.200
 5071TIP3    H215178   4.088   3.012   5.347
 5072TIP3   OH215179   2.246   6.171   1.371
 5072TIP3    H115180   2.219   6.256   1.406
 5072TIP3    H215181   2.173   6.112   1.392
 5073TIP3   OH215182   2.147   1.810   1.797
 5073TIP3    H115183   2.206   1.814   1.872
 5073TIP3    H215184   2.060   1.824   1.834
 5074TIP3   OH215185   4.329   6.383   2.484
 5074TIP3    H115186   4.312   6.289   2.472
 5074TIP3    H215187   4.255   6.426   2.440
 5075TIP3   OH215188   2.423   4.357   4.036
 5075TIP3    H115189   2.485   4.389   3.970
 5075TIP3    H215190   2.382   4.280   3.996
 5076TIP3   OH215191   3.320   2.896   3.746
 5076TIP3    H115192   3.288   2.847   3.671
 5076TIP3    H215193   3.253   2.883   3.814
 5077TIP3   OH215194   5.203   3.550   5.478
 5077TIP3    H115195   5.132   3.486   5.469
 5077TIP3    H215196   5.233   3.541   5.568
 5078TIP3   OH215197   1.295   6.278   0.715
 5078TIP3    H115198   1.205   6.300   0.692
 5078TIP3    H215199   1.311   6.327   0.796
 5079TIP3   OH215200   3.473   6.126   3.462
 5079TIP3    H115201   3.459   6.120   3.367
 5079TIP3    H215202   3.469   6.219   3.481
 5080TIP3   OH215203   0.044   3.280   4.977
 5080TIP3    H115204   0.056   3.374   4.969
 5080TIP3    H215205  -0.020   3.258   4.909
 5081TIP3   OH215206   0.892   6.421   1.185
 5081TIP3    H115207   0.826   6.401   1.251
 5081TIP3    H215208   0.966   6.456   1.234
 5082TIP3   OH215209   5.795   5.576   3.124
 5082TIP3    H115210   5.884   5.550   3.102
 5082TIP3    H215211   5.771   5.640   3.057
 5083TIP3   OH215212   5.984   6.840   3.713
 5083TIP3    H115213   6.069   6.885   3.708
 5083TIP3    H215214   5.979   6.810   3.804
 5084TIP3   OH215215   5.184   0.944   0.167
 5084TIP3    H115216   5.191   1.038   0.146
 5084TIP3    H215217   5.145   0.905   0.089
 5085TIP3   OH215218   0.993   5.085   4.114
 5085TIP3    H115219   0.985   5.056   4.023
 5085TIP3    H215220   1.052   5.160   4.110
 5086TIP3   OH215221   4.835   3.084   4.013
 5086TIP3    H115222   4.760   3.057   3.960
 5086TIP3    H215223   4.911   3.070   3.957
 5087TIP3   OH215224   6.084   4.149   2.085
 5087TIP3    H115225   5.995   4.142   2.120
 5087TIP3    H215226   6.119   4.059   2.089
 5088TIP3   OH215227   4.495   4.046   5.562
 5088TIP3    H115228   4.583   4.034   5.527
 5088TIP3    H215229   4.493   3.994   5.642
 5089TIP3   OH215230   5.077   4.877   4.565
 5089TIP3    H115231   5.075   4.935   4.640
 5089TIP3    H215232   5.170   4.859   4.551
 5090TIP3   OH215233   4.285   5.942   2.269
 5090TIP3    H115234   4.264   5.901   2.354
 5090TIP3    H215235   4.264   5.874   2.205
 5091TIP3   OH215236   5.223   5.664   5.021
 5091TIP3    H115237   5.147   5.631   5.068
 5091TIP3    H215238   5.278   5.587   5.006
 5092TIP3   OH215239   1.658   4.668   1.860
 5092TIP3    H115240   1.741   4.620   1.857
 5092TIP3    H215241   1.611   4.638   1.782
 5093TIP3   OH215242   6.919   6.223   2.824
 5093TIP3    H115243   6.949   6.203   2.912
 5093TIP3    H215244   6.906   6.318   2.824
 5094TIP3   OH215245   1.671   2.577   0.489
 5094TIP3    H115246   1.694   2.657   0.537
 5094TIP3    H215247   1.749   2.557   0.436
 5095TIP3   OH215248   5.460   3.181   5.558
 5095TIP3    H115249   5.538   3.206   5.607
 5095TIP3    H215250   5.450   3.250   5.492
 5096TIP3   OH215251   2.504   1.561   0.933
 5096TIP3    H115252   2.554   1.514   1.000
 5096TIP3    H215253   2.463   1.633   0.981
 5097TIP3   OH215254   1.976   5.659   2.576
 5097TIP3    H115255   1.990   5.619   2.490
 5097TIP3    H215256   2.042   5.729   2.580
 5098TIP3   OH215257   2.553   4.508   2.734
 5098TIP3    H115258   2.563   4.599   2.765
 5098TIP3    H215259   2.597   4.507   2.649
 5099TIP3   OH215260   7.065   3.893   4.075
 5099TIP3    H115261   7.043   3.868   4.164
 5099TIP3    H215262   7.093   3.812   4.033
 5100TIP3   OH215263   0.539   6.136   2.124
 5100TIP3    H115264   0.446   6.134   2.143
 5100TIP3    H215265   0.550   6.073   2.052
 5101TIP3   OH215266   6.870   6.518   2.227
 5101TIP3    H115267   6.784   6.485   2.251
 5101TIP3    H215268   6.892   6.581   2.295
 5102TIP3   OH215269   6.094   1.881   3.153
 5102TIP3    H115270   6.112   1.806   3.097
 5102TIP3    H215271   6.145   1.953   3.115
 5103TIP3   OH215272   5.415   2.910   1.279
 5103TIP3    H115273   5.405   2.836   1.339
 5103TIP3    H215274   5.328   2.951   1.277
 5104TIP3   OH215275   2.323   4.209   1.127
 5104TIP3    H115276   2.250   4.256   1.087
 5104TIP3    H215277   2.360   4.270   1.190
 5105TIP3   OH215278   3.291   1.717   3.777
 5105TIP3    H115279   3.254   1.683   3.695
 5105TIP3    H215280   3.227   1.694   3.844
 5106TIP3   OH215281   3.014   6.537   4.131
 5106TIP3    H115282   2.929   6.579   4.139
 5106TIP3    H215283   3.062   6.593   4.069
 5107TIP3   OH215284   5.810   3.402   1.164
 5107TIP3    H115285   5.814   3.336   1.233
 5107TIP3    H215286   5.786   3.352   1.085
 5108TIP3   OH215287   6.656   5.344   2.220
 5108TIP3    H115288   6.645   5.415   2.283
 5108TIP3    H215289   6.571   5.336   2.177
 5109TIP3   OH215290   0.696   2.404   5.518
 5109TIP3    H115291   0.678   2.335   5.582
 5109TIP3    H215292   0.647   2.480   5.550
 5110TIP3   OH215293   5.229   4.962   0.762
 5110TIP3    H115294   5.235   5.038   0.820
 5110TIP3    H215295   5.148   4.919   0.788
 5111TIP3   OH215296   0.781   0.651   1.955
 5111TIP3    H115297   0.841   0.589   1.997
 5111TIP3    H215298   0.709   0.596   1.923
 5112TIP3   OH215299   2.576   5.084   2.527
 5112TIP3    H115300   2.661   5.058   2.493
 5112TIP3    H215301   2.597   5.134   2.606
 5113TIP3   OH215302   3.377   2.803   4.693
 5113TIP3    H115303   3.418   2.771   4.613
 5113TIP3    H215304   3.412   2.891   4.705
 5114TIP3   OH215305   2.915   1.309   1.748
 5114TIP3    H115306   2.889   1.239   1.687
 5114TIP3    H215307   3.001   1.282   1.781
 5115TIP3   OH215308   3.156   0.486   1.493
 5115TIP3    H115309   3.127   0.442   1.413
 5115TIP3    H215310   3.116   0.573   1.488
 5116TIP3   OH215311   4.926   1.713   2.978
 5116TIP3    H115312   4.928   1.735   2.885
 5116TIP3    H215313   5.017   1.692   2.999
 5117TIP3   OH215314   3.007   2.664   4.422
 5117TIP3    H115315   2.927   2.679   4.473
 5117TIP3    H215316   3.078   2.675   4.485
 5118TIP3   OH215317   1.456   2.657   1.284
 5118TIP3    H115318   1.471   2.712   1.361
 5118TIP3    H215319   1.395   2.590   1.315
 5119TIP3   OH215320   3.134   5.982   4.890
 5119TIP3    H115321   3.057   6.019   4.847
 5119TIP3    H215322   3.202   5.981   4.823
 5120TIP3   OH215323   6.868   2.773   1.845
 5120TIP3    H115324   6.918   2.752   1.924
 5120TIP3    H215325   6.776   2.760   1.870
 5121TIP3   OH215326   1.145   0.545   5.620
 5121TIP3    H115327   1.160   0.601   5.545
 5121TIP3    H215328   1.226   0.549   5.670
 5122TIP3   OH215329   0.158   2.284   5.614
 5122TIP3    H115330   0.131   2.240   5.534
 5122TIP3    H215331   0.187   2.213   5.672
 5123TIP3   OH215332   4.644   4.284   5.028
 5123TIP3    H115333   4.707   4.279   4.956
 5123TIP3    H215334   4.625   4.193   5.049
 5124TIP3   OH215335   0.015   3.038   2.753
 5124TIP3    H115336   0.042   3.093   2.680
 5124TIP3    H215337  -0.081   3.033   2.745
 5125TIP3   OH215338   6.076   0.611   1.751
 5125TIP3    H115339   6.119   0.544   1.698
 5125TIP3    H215340   5.992   0.571   1.776
 5126TIP3   OH215341   1.432   4.031   1.653
 5126TIP3    H115342   1.377   4.017   1.577
 5126TIP3    H215343   1.520   4.005   1.625
 5127TIP3   OH215344   0.165   5.574   5.159
 5127TIP3    H115345   0.208   5.649   5.118
 5127TIP3    H215346   0.159   5.597   5.251
 5128TIP3   OH215347   0.391   1.611   4.494
 5128TIP3    H115348   0.382   1.606   4.399
 5128TIP3    H215349   0.466   1.670   4.508
 5129TIP3   OH215350   1.616   6.298   0.254
 5129TIP3    H115351   1.639   6.281   0.346
 5129TIP3    H215352   1.651   6.384   0.235
 5130TIP3   OH215353   7.071   5.260   2.176
 5130TIP3    H115354   7.161   5.239   2.202
 5130TIP3    H215355   7.074   5.352   2.150
 5131TIP3   OH215356   3.621   2.980   1.505
 5131TIP3    H115357   3.692   3.044   1.515
 5131TIP3    H215358   3.567   3.015   1.434
 5132TIP3   OH215359   5.950   1.933   1.128
 5132TIP3    H115360   6.028   1.975   1.164
 5132TIP3    H215361   5.918   1.995   1.063
 5133TIP3   OH215362   5.216   2.856   4.246
 5133TIP3    H115363   5.295   2.894   4.283
 5133TIP3    H215364   5.229   2.861   4.151
 5134TIP3   OH215365   2.177   5.686   3.012
 5134TIP3    H115366   2.266   5.672   2.982
 5134TIP3    H215367   2.141   5.598   3.023
 5135TIP3   OH215368   5.517   5.955   2.334
 5135TIP3    H115369   5.531   5.902   2.256
 5135TIP3    H215370   5.439   5.918   2.375
 5136TIP3   OH215371   6.721   5.136   3.392
 5136TIP3    H115372   6.681   5.155   3.476
 5136TIP3    H215373   6.721   5.220   3.345
 5137TIP3   OH215374   3.891   1.648   4.132
 5137TIP3    H115375   3.816   1.601   4.094
 5137TIP3    H215376   3.886   1.629   4.225
 5138TIP3   OH215377   0.088   4.489   0.328
 5138TIP3    H115378   0.014   4.549   0.320
 5138TIP3    H215379   0.086   4.438   0.247
 5139TIP3   OH215380   3.285   6.050   4.176
 5139TIP3    H115381   3.317   5.979   4.120
 5139TIP3    H215382   3.359   6.073   4.232
 5140TIP3   OH215383   3.802   3.535   2.661
 5140TIP3    H115384   3.840   3.469   2.719
 5140TIP3    H215385   3.708   3.521   2.667
 5141TIP3   OH215386   1.488   2.105   5.550
 5141TIP3    H115387   1.567   2.149   5.518
 5141TIP3    H215388   1.440   2.082   5.471
 5142TIP3   OH215389   7.234   4.764   3.720
 5142TIP3    H115390   7.255   4.846   3.764
 5142TIP3    H215391   7.316   4.738   3.678
 5143TIP3   OH215392   3.174   1.064   2.392
 5143TIP3    H115393   3.184   1.094   2.482
 5143TIP3    H215394   3.190   0.970   2.396
 5144TIP3   OH215395   6.062   3.153   0.641
 5144TIP3    H115396   6.134   3.171   0.580
 5144TIP3    H215397   6.012   3.235   0.643
 5145TIP3   OH215398   1.100   0.687   0.541
 5145TIP3    H115399   1.078   0.666   0.450
 5145TIP3    H215400   1.042   0.759   0.563
 5146TIP3   OH215401   3.894   5.903   2.472
 5146TIP3    H115402   3.974   5.882   2.520
 5146TIP3    H215403   3.924   5.952   2.395
 5147TIP3   OH215404   4.127   1.994   3.228
 5147TIP3    H115405   4.158   1.907   3.204
 5147TIP3    H215406   4.069   1.979   3.303
 5148TIP3   OH215407   5.057   4.168   5.756
 5148TIP3    H115408   5.094   4.229   5.692
 5148TIP3    H215409   5.080   4.081   5.723
 5149TIP3   OH215410   0.075   2.400   5.041
 5149TIP3    H115411   0.092   2.495   5.042
 5149TIP3    H215412   0.144   2.364   5.097
 5150TIP3   OH215413   3.548   1.866   1.082
 5150TIP3    H115414   3.556   1.876   0.987
 5150TIP3    H215415   3.508   1.780   1.094
 5151TIP3   OH215416   1.263   0.398   4.252
 5151TIP3    H115417   1.241   0.342   4.326
 5151TIP3    H215418   1.305   0.339   4.189
 5152TIP3   OH215419   0.810   2.465   4.624
 5152TIP3    H115420   0.880   2.417   4.580
 5152TIP3    H215421   0.736   2.405   4.626
 5153TIP3   OH215422   5.330   0.900   1.509
 5153TIP3    H115423   5.349   0.812   1.543
 5153TIP3    H215424   5.416   0.941   1.501
 5154TIP3   OH215425   2.063   0.670   0.491
 5154TIP3    H115426   2.051   0.722   0.411
 5154TIP3    H215427   2.155   0.680   0.513
 5155TIP3   OH215428   2.896   0.703   3.062
 5155TIP3    H115429   2.816   0.666   3.024
 5155TIP3    H215430   2.959   0.631   3.061
 5156TIP3   OH215431   4.132   0.002   1.895
 5156TIP3    H115432   4.041  -0.012   1.921
 5156TIP3    H215433   4.129   0.082   1.842
 5157TIP3   OH215434   6.225   1.641   1.259
 5157TIP3    H115435   6.282   1.693   1.202
 5157TIP3    H215436   6.136   1.666   1.233
 5158TIP3   OH215437   3.973   5.419   4.869
 5158TIP3    H115438   3.900   5.421   4.931
 5158TIP3    H215439   3.970   5.331   4.832
 5159TIP3   OH215440   2.697   3.829   4.021
 5159TIP3    H115441   2.691   3.737   4.048
 5159TIP3    H215442   2.629   3.839   3.954
 5160TIP3   OH215443   0.795   1.526   3.472
 5160TIP3    H115444   0.803   1.436   3.504
 5160TIP3    H215445   0.721   1.523   3.411
 5161TIP3   OH215446   1.017   2.997   3.759
 5161TIP3    H115447   1.018   2.901   3.757
 5161TIP3    H215448   1.108   3.022   3.775
 5162TIP3   OH215449   1.272   0.234   0.064
 5162TIP3    H115450   1.201   0.214   0.002
 5162TIP3    H215451   1.290   0.327   0.050
 5163TIP3   OH215452   5.075   1.584   4.875
 5163TIP3    H115453   5.136   1.641   4.921
 5163TIP3    H215454   5.081   1.610   4.783
 5164TIP3   OH215455   0.210   3.764   2.643
 5164TIP3    H115456   0.294   3.746   2.686
 5164TIP3    H215457   0.147   3.767   2.715
 5165TIP3   OH215458   5.987   4.493   0.179
 5165TIP3    H115459   5.898   4.475   0.149
 5165TIP3    H215460   6.008   4.420   0.237
 5166TIP3   OH215461   2.854   0.648   2.089
 5166TIP3    H115462   2.941   0.668   2.055
 5166TIP3    H215463   2.861   0.664   2.183
 5167TIP3   OH215464   5.832   3.424   5.165
 5167TIP3    H115465   5.889   3.500   5.173
 5167TIP3    H215466   5.857   3.367   5.238
 5168TIP3   OH215467   5.803   5.422   0.806
 5168TIP3    H115468   5.765   5.499   0.847
 5168TIP3    H215469   5.729   5.362   0.795
 5169TIP3   OH215470   6.831   6.182   0.749
 5169TIP3    H115471   6.816   6.276   0.748
 5169TIP3    H215472   6.890   6.165   0.676
 5170TIP3   OH215473   6.454   4.221   2.644
 5170TIP3    H115474   6.494   4.271   2.715
 5170TIP3    H215475   6.411   4.147   2.688
 5171TIP3   OH215476   3.761   0.911   4.375
 5171TIP3    H115477   3.751   0.925   4.469
 5171TIP3    H215478   3.853   0.928   4.357
 5172TIP3   OH215479   6.905   3.286   3.781
 5172TIP3    H115480   6.832   3.289   3.843
 5172TIP3    H215481   6.975   3.334   3.824
 5173TIP3   OH215482   5.462   0.795   1.242
 5173TIP3    H115483   5.386   0.828   1.290
 5173TIP3    H215484   5.503   0.874   1.204
 5174TIP3   OH215485   5.649   2.733   0.214
 5174TIP3    H115486   5.558   2.749   0.190
 5174TIP3    H215487   5.672   2.653   0.166
 5175TIP3   OH215488   3.873   4.656   4.286
 5175TIP3    H115489   3.882   4.570   4.326
 5175TIP3    H215490   3.919   4.715   4.345
 5176TIP3   OH215491   3.399   3.074   3.348
 5176TIP3    H115492   3.305   3.057   3.356
 5176TIP3    H215493   3.408   3.167   3.369
 5177TIP3   OH215494   4.464   4.932   0.574
 5177TIP3    H115495   4.529   4.909   0.640
 5177TIP3    H215496   4.473   4.864   0.507
 5178TIP3   OH215497   4.285   2.443   1.666
 5178TIP3    H115498   4.190   2.440   1.677
 5178TIP3    H215499   4.315   2.360   1.704
 5179TIP3   OH215500   4.400   4.142   4.302
 5179TIP3    H115501   4.485   4.103   4.279
 5179TIP3    H215502   4.377   4.103   4.386
 5180TIP3   OH215503   5.318   4.372   1.128
 5180TIP3    H115504   5.357   4.324   1.200
 5180TIP3    H215505   5.242   4.416   1.167
 5181TIP3   OH215506   2.785   3.987   2.215
 5181TIP3    H115507   2.867   3.963   2.258
 5181TIP3    H215508   2.790   3.948   2.128
 5182TIP3   OH215509   4.279   2.371   3.281
 5182TIP3    H115510   4.200   2.339   3.238
 5182TIP3    H215511   4.246   2.429   3.350
 5183TIP3   OH215512   0.617   4.375   4.954
 5183TIP3    H115513   0.687   4.431   4.988
 5183TIP3    H215514   0.648   4.349   4.867
 5184TIP3   OH215515   3.525   4.152   0.929
 5184TIP3    H115516   3.481   4.128   0.848
 5184TIP3    H215517   3.595   4.088   0.939
 5185TIP3   OH215518   3.321   5.351   4.048
 5185TIP3    H115519   3.362   5.285   3.992
 5185TIP3    H215520   3.345   5.325   4.137
 5186TIP3   OH215521   2.807   1.778   3.127
 5186TIP3    H115522   2.815   1.857   3.180
 5186TIP3    H215523   2.831   1.707   3.187
 5187TIP3   OH215524   5.267   1.180   3.567
 5187TIP3    H115525   5.250   1.089   3.541
 5187TIP3    H215526   5.213   1.232   3.507
 5188TIP3   OH215527   4.875   1.363   2.885
 5188TIP3    H115528   4.824   1.377   2.964
 5188TIP3    H215529   4.966   1.374   2.913
 5189TIP3   OH215530   5.813   2.577   4.067
 5189TIP3    H115531   5.725   2.614   4.059
 5189TIP3    H215532   5.862   2.616   3.994
 5190TIP3   OH215533   6.081   0.785   5.053
 5190TIP3    H115534   5.989   0.768   5.032
 5190TIP3    H215535   6.113   0.838   4.980
 5191TIP3   OH215536   2.744   0.641   2.357
 5191TIP3    H115537   2.702   0.726   2.349
 5191TIP3    H215538   2.680   0.579   2.321
 5192TIP3   OH215539   2.163   2.428   5.857
 5192TIP3    H115540   2.072   2.454   5.871
 5192TIP3    H215541   2.182   2.456   5.767
 5193TIP3   OH215542   5.411   4.593   0.728
 5193TIP3    H115543   5.392   4.659   0.795
 5193TIP3    H215544   5.464   4.528   0.773
 5194TIP3   OH215545   2.855   5.063   2.525
 5194TIP3    H115546   2.888   5.026   2.443
 5194TIP3    H215547   2.933   5.073   2.580
 5195TIP3   OH215548   6.660   3.267   5.221
 5195TIP3    H115549   6.577   3.228   5.247
 5195TIP3    H215550   6.635   3.344   5.169
 5196TIP3   OH215551   0.487   0.222   0.075
 5196TIP3    H115552   0.511   0.153   0.014
 5196TIP3    H215553   0.441   0.287   0.022
 5197TIP3   OH215554   5.614   2.794   0.477
 5197TIP3    H115555   5.631   2.756   0.391
 5197TIP3    H215556   5.671   2.870   0.481
 5198TIP3   OH215557   5.265   2.813   2.797
 5198TIP3    H115558   5.348   2.859   2.793
 5198TIP3    H215559   5.210   2.867   2.854
 5199TIP3   OH215560   2.334   6.069   0.076
 5199TIP3    H115561   2.351   6.049  -0.016
 5199TIP3    H215562   2.330   5.984   0.120
 5200TIP3   OH215563   4.170   1.828   3.656
 5200TIP3    H115564   4.109   1.849   3.726
 5200TIP3    H215565   4.123   1.850   3.575
 5201TIP3   OH215566   6.070   1.326   4.072
 5201TIP3    H115567   6.122   1.315   4.151
 5201TIP3    H215568   6.005   1.392   4.095
 5202TIP3   OH215569   4.112   2.462   4.714
 5202TIP3    H115570   4.021   2.438   4.697
 5202TIP3    H215571   4.107   2.541   4.767
 5203TIP3   OH215572   0.547   4.550   1.919
 5203TIP3    H115573   0.531   4.527   2.010
 5203TIP3    H215574   0.589   4.472   1.882
 5204TIP3   OH215575   5.818   2.294   4.795
 5204TIP3    H115576   5.792   2.354   4.725
 5204TIP3    H215577   5.912   2.307   4.804
 5205TIP3   OH215578   5.309   5.739   5.711
 5205TIP3    H115579   5.313   5.671   5.643
 5205TIP3    H215580   5.385   5.722   5.766
 5206TIP3   OH215581   3.809   1.116   0.148
 5206TIP3    H115582   3.877   1.049   0.153
 5206TIP3    H215583   3.727   1.068   0.157
 5207TIP3   OH215584   3.285   3.131   1.057
 5207TIP3    H115585   3.211   3.073   1.039
 5207TIP3    H215586   3.278   3.200   0.991
 5208TIP3   OH215587   2.265   4.999   5.514
 5208TIP3    H115588   2.189   5.057   5.525
 5208TIP3    H215589   2.329   5.052   5.468
 5209TIP3   OH215590   3.866   0.900   5.194
 5209TIP3    H115591   3.945   0.952   5.212
 5209TIP3    H215592   3.849   0.853   5.276
 5210TIP3   OH215593   1.944   4.515   3.904
 5210TIP3    H115594   1.987   4.600   3.913
 5210TIP3    H215595   1.997   4.468   3.840
 5211TIP3   OH215596   4.277   4.988   5.692
 5211TIP3    H115597   4.245   5.074   5.722
 5211TIP3    H215598   4.197   4.942   5.666
 5212TIP3   OH215599   4.443   4.586   3.765
 5212TIP3    H115600   4.353   4.590   3.735
 5212TIP3    H215601   4.475   4.501   3.735
 5213TIP3   OH215602   0.223   0.943   2.557
 5213TIP3    H115603   0.283   0.922   2.485
 5213TIP3    H215604   0.239   1.036   2.575
 5214TIP3   OH215605   1.887   0.644   5.526
 5214TIP3    H115606   1.925   0.732   5.533
 5214TIP3    H215607   1.793   0.658   5.524
 5215TIP3   OH215608   1.733   0.071   0.903
 5215TIP3    H115609   1.670   0.003   0.881
 5215TIP3    H215610   1.747   0.118   0.820
 5216TIP3   OH215611   3.940   4.905   4.410
 5216TIP3    H115612   3.985   4.915   4.327
 5216TIP3    H215613   3.884   4.982   4.417
 5217TIP3   OH215614   0.011   3.211   3.638
 5217TIP3    H115615   0.049   3.204   3.550
 5217TIP3    H215616   0.030   3.126   3.678
 5218TIP3   OH215617   1.758   2.604   3.416
 5218TIP3    H115618   1.707   2.535   3.458
 5218TIP3    H215619   1.732   2.684   3.461
 5219TIP3   OH215620   3.359   3.144   2.466
 5219TIP3    H115621   3.422   3.089   2.419
 5219TIP3    H215622   3.390   3.145   2.556
 5220TIP3   OH215623   6.705   4.819   4.411
 5220TIP3    H115624   6.616   4.847   4.432
 5220TIP3    H215625   6.722   4.853   4.324
 5221TIP3   OH215626   2.195   6.069   4.099
 5221TIP3    H115627   2.138   6.008   4.145
 5221TIP3    H215628   2.143   6.149   4.089
 5222TIP3   OH215629   4.275   2.130   5.319
 5222TIP3    H115630   4.300   2.222   5.328
 5222TIP3    H215631   4.352   2.088   5.281
 5223TIP3   OH215632   1.220   4.159   3.178
 5223TIP3    H115633   1.211   4.184   3.086
 5223TIP3    H215634   1.301   4.108   3.181
 5224TIP3   OH215635   1.143   3.190   4.976
 5224TIP3    H115636   1.073   3.218   4.917
 5224TIP3    H215637   1.160   3.266   5.032
 5225TIP3   OH215638   4.474   1.328   4.950
 5225TIP3    H115639   4.499   1.405   5.001
 5225TIP3    H215640   4.522   1.336   4.868
 5226TIP3   OH215641   1.797   4.710   4.929
 5226TIP3    H115642   1.764   4.634   4.977
 5226TIP3    H215643   1.881   4.730   4.971
 5227TIP3   OH215644   5.039   0.159   0.109
 5227TIP3    H115645   5.068   0.123   0.194
 5227TIP3    H215646   5.115   0.147   0.052
 5228TIP3   OH215647   1.542   0.938   2.814
 5228TIP3    H115648   1.471   0.907   2.757
 5228TIP3    H215649   1.561   0.863   2.871
 5229TIP3   OH215650   0.630   6.414   1.762
 5229TIP3    H115651   0.685   6.422   1.840
 5229TIP3    H215652   0.675   6.351   1.706
 5230TIP3   OH215653   7.027   6.051   0.582
 5230TIP3    H115654   7.016   6.084   0.493
 5230TIP3    H215655   7.120   6.061   0.600
 5231TIP3   OH215656   4.190   6.623   3.298
 5231TIP3    H115657   4.257   6.672   3.346
 5231TIP3    H215658   4.129   6.690   3.267
 5232TIP3   OH215659   0.288   6.156   1.822
 5232TIP3    H115660   0.212   6.210   1.800
 5232TIP3    H215661   0.276   6.134   1.915
 5233TIP3   OH215662   0.393   6.485   1.931
 5233TIP3    H115663   0.447   6.476   1.853
 5233TIP3    H215664   0.446   6.447   2.001
 5234TIP3   OH215665   3.371   2.834   4.231
 5234TIP3    H115666   3.374   2.920   4.188
 5234TIP3    H215667   3.288   2.796   4.201
 5235TIP3   OH215668   1.201   0.326   0.807
 5235TIP3    H115669   1.197   0.333   0.902
 5235TIP3    H215670   1.111   0.338   0.778
 5236TIP3   OH215671   1.157   1.241   5.142
 5236TIP3    H115672   1.083   1.185   5.119
 5236TIP3    H215673   1.149   1.316   5.082
 5237TIP3   OH215674   0.640   4.590   0.507
 5237TIP3    H115675   0.719   4.645   0.511
 5237TIP3    H215676   0.589   4.627   0.434
 5238TIP3   OH215677   6.847   4.961   2.866
 5238TIP3    H115678   6.827   5.049   2.834
 5238TIP3    H215679   6.915   4.975   2.931
 5239TIP3   OH215680   0.614   1.371   0.811
 5239TIP3    H115681   0.580   1.304   0.871
 5239TIP3    H215682   0.540   1.389   0.752
 5240TIP3   OH215683   6.422   5.396   1.165
 5240TIP3    H115684   6.488   5.358   1.107
 5240TIP3    H215685   6.449   5.371   1.253
 5241TIP3   OH215686   0.351   5.379   4.618
 5241TIP3    H115687   0.358   5.328   4.538
 5241TIP3    H215688   0.303   5.322   4.679
 5242TIP3   OH215689   2.737   3.056   0.419
 5242TIP3    H115690   2.794   3.000   0.471
 5242TIP3    H215691   2.787   3.075   0.340
 5243TIP3   OH215692   5.659   2.706   0.826
 5243TIP3    H115693   5.590   2.751   0.778
 5243TIP3    H215694   5.641   2.724   0.918
 5244TIP3   OH215695   2.854   0.980   2.281
 5244TIP3    H115696   2.872   1.064   2.240
 5244TIP3    H215697   2.761   0.964   2.265
 5245TIP3   OH215698   2.588   4.755   2.857
 5245TIP3    H115699   2.561   4.761   2.948
 5245TIP3    H215700   2.623   4.841   2.836
 5246TIP3   OH215701   6.336   3.919   0.340
 5246TIP3    H115702   6.270   3.851   0.328
 5246TIP3    H215703   6.356   3.917   0.433
 5247TIP3   OH215704   4.988   1.645   5.525
 5247TIP3    H115705   5.045   1.717   5.501
 5247TIP3    H215706   4.938   1.626   5.446
 5248TIP3   OH215707   0.548   6.453   3.482
 5248TIP3    H115708   0.617   6.448   3.548
 5248TIP3    H215709   0.557   6.540   3.444
 5249TIP3   OH215710   5.697   2.392   5.858
 5249TIP3    H115711   5.735   2.375   5.944
 5249TIP3    H215712   5.668   2.305   5.827
 5250TIP3   OH215713   1.024   4.679   5.536
 5250TIP3    H115714   0.949   4.737   5.547
 5250TIP3    H215715   1.073   4.688   5.618
 5251TIP3   OH215716   3.772   4.864   3.138
 5251TIP3    H115717   3.762   4.959   3.139
 5251TIP3    H215718   3.707   4.834   3.075
 5252TIP3   OH215719   7.029   4.121   3.072
 5252TIP3    H115720   7.085   4.153   3.143
 5252TIP3    H215721   7.007   4.200   3.023
 5253TIP3   OH215722   3.088   6.389   0.700
 5253TIP3    H115723   3.098   6.444   0.622
 5253TIP3    H215724   3.175   6.387   0.739
 5254TIP3   OH215725   2.323   6.715   3.275
 5254TIP3    H115726   2.390   6.762   3.326
 5254TIP3    H215727   2.247   6.714   3.332
 5255TIP3   OH215728   3.238   2.068   1.900
 5255TIP3    H115729   3.209   2.004   1.965
 5255TIP3    H215730   3.191   2.148   1.923
 5256TIP3   OH215731   3.459   6.493   4.174
 5256TIP3    H115732   3.433   6.481   4.083
 5256TIP3    H215733   3.406   6.567   4.205
 5257TIP3   OH215734   6.237   3.432   0.367
 5257TIP3    H115735   6.161   3.484   0.394
 5257TIP3    H215736   6.202   3.344   0.356
 5258TIP3   OH215737   5.312   6.635   2.546
 5258TIP3    H115738   5.388   6.610   2.598
 5258TIP3    H215739   5.346   6.642   2.456
 5259TIP3   OH215740   1.769   2.935   4.145
 5259TIP3    H115741   1.864   2.927   4.140
 5259TIP3    H215742   1.754   3.001   4.212
 5260TIP3   OH215743   4.397   2.798   0.224
 5260TIP3    H115744   4.320   2.813   0.280
 5260TIP3    H215745   4.361   2.773   0.139
 5261TIP3   OH215746   1.936   4.940   5.282
 5261TIP3    H115747   1.854   4.924   5.236
 5261TIP3    H215748   1.936   5.035   5.297
 5262TIP3   OH215749   4.463   6.779   4.870
 5262TIP3    H115750   4.395   6.811   4.811
 5262TIP3    H215751   4.469   6.685   4.852
 5263TIP3   OH215752   4.930   2.599   0.174
 5263TIP3    H115753   4.857   2.649   0.210
 5263TIP3    H215754   4.894   2.512   0.156
 5264TIP3   OH215755   7.043   2.673   5.002
 5264TIP3    H115756   7.086   2.756   4.983
 5264TIP3    H215757   7.014   2.681   5.093
 5265TIP3   OH215758   4.840   4.313   4.539
 5265TIP3    H115759   4.764   4.357   4.500
 5265TIP3    H215760   4.832   4.222   4.511
 5266TIP3   OH215761   1.776   2.944   3.859
 5266TIP3    H115762   1.762   2.973   3.949
 5266TIP3    H215763   1.870   2.928   3.853
 5267TIP3   OH215764   1.004   6.633   0.475
 5267TIP3    H115765   1.024   6.701   0.411
 5267TIP3    H215766   1.010   6.677   0.560
 5268TIP3   OH215767   0.624   5.183   5.026
 5268TIP3    H115768   0.534   5.198   5.056
 5268TIP3    H215769   0.631   5.232   4.944
 5269TIP3   OH215770   2.196   1.126   3.646
 5269TIP3    H115771   2.246   1.111   3.726
 5269TIP3    H215772   2.168   1.217   3.651
 5270TIP3   OH215773   1.960   0.433   0.542
 5270TIP3    H115774   1.987   0.520   0.515
 5270TIP3    H215775   2.022   0.409   0.612
 5271TIP3   OH215776   2.214   5.690   1.867
 5271TIP3    H115777   2.166   5.620   1.822
 5271TIP3    H215778   2.152   5.763   1.870
 5272TIP3   OH215779   5.114   0.066   3.712
 5272TIP3    H115780   5.149   0.155   3.725
 5272TIP3    H215781   5.164   0.032   3.637
 5273TIP3   OH215782   5.613   0.588   1.799
 5273TIP3    H115783   5.678   0.659   1.804
 5273TIP3    H215784   5.565   0.607   1.718
 5274TIP3   OH215785   3.295   4.871   4.964
 5274TIP3    H115786   3.224   4.830   4.914
 5274TIP3    H215787   3.270   4.856   5.056
 5275TIP3   OH215788   1.409   5.064   1.734
 5275TIP3    H115789   1.317   5.062   1.763
 5275TIP3    H215790   1.446   5.141   1.775
 5276TIP3   OH215791   1.828   6.632   2.122
 5276TIP3    H115792   1.793   6.702   2.066
 5276TIP3    H215793   1.867   6.679   2.196
 5277TIP3   OH215794   3.711   6.565   4.751
 5277TIP3    H115795   3.626   6.526   4.733
 5277TIP3    H215796   3.758   6.560   4.668
 5278TIP3   OH215797   3.986   3.242   2.895
 5278TIP3    H115798   3.958   3.176   2.831
 5278TIP3    H215799   3.956   3.325   2.858
 5279TIP3   OH215800   1.685   0.829   4.347
 5279TIP3    H115801   1.691   0.757   4.285
 5279TIP3    H215802   1.678   0.908   4.292
 5280TIP3   OH215803   0.324   3.142   2.612
 5280TIP3    H115804   0.408   3.172   2.578
 5280TIP3    H215805   0.305   3.202   2.685
 5281TIP3   OH215806   4.656   6.371   5.134
 5281TIP3    H115807   4.648   6.283   5.173
 5281TIP3    H215808   4.743   6.372   5.096
 5282TIP3   OH215809   1.736   4.100   1.510
 5282TIP3    H115810   1.745   4.194   1.498
 5282TIP3    H215811   1.810   4.076   1.566
 5283TIP3   OH215812   3.358   6.693   1.761
 5283TIP3    H115813   3.415   6.630   1.716
 5283TIP3    H215814   3.412   6.772   1.769
 5284TIP3   OH215815   2.249   5.794   1.402
 5284TIP3    H115816   2.288   5.758   1.322
 5284TIP3    H215817   2.231   5.717   1.456
 5285TIP3   OH215818   2.112   1.389   3.667
 5285TIP3    H115819   2.129   1.475   3.626
 5285TIP3    H215820   2.029   1.401   3.713
 5286TIP3   OH215821   3.028   3.264   1.939
 5286TIP3    H115822   3.000   3.355   1.943
 5286TIP3    H215823   2.981   3.228   1.864
 5287TIP3   OH215824   4.341   5.506   0.168
 5287TIP3    H115825   4.434   5.512   0.146
 5287TIP3    H215826   4.340   5.489   0.262
 5288TIP3   OH215827   1.060   4.741   3.339
 5288TIP3    H115828   1.064   4.716   3.246
 5288TIP3    H215829   1.142   4.787   3.355
 5289TIP3   OH215830   3.606   3.270   3.278
 5289TIP3    H115831   3.694   3.267   3.241
 5289TIP3    H215832   3.548   3.265   3.202
 5290TIP3   OH215833   1.867   4.899   0.409
 5290TIP3    H115834   1.892   4.904   0.316
 5290TIP3    H215835   1.784   4.851   0.409
 5291TIP3   OH215836   2.459   0.348   0.429
 5291TIP3    H115837   2.500   0.309   0.506
 5291TIP3    H215838   2.421   0.430   0.462
 5292TIP3   OH215839   1.378   4.601   5.593
 5292TIP3    H115840   1.312   4.538   5.622
 5292TIP3    H215841   1.346   4.633   5.509
 5293TIP3   OH215842   4.272   3.281   2.903
 5293TIP3    H115843   4.179   3.303   2.896
 5293TIP3    H215844   4.310   3.309   2.820
 5294TIP3   OH215845   5.614   5.668   3.416
 5294TIP3    H115846   5.664   5.660   3.335
 5294TIP3    H215847   5.669   5.627   3.483
 5295TIP3   OH215848   3.674   3.312   2.314
 5295TIP3    H115849   3.736   3.302   2.386
 5295TIP3    H215850   3.616   3.383   2.342
 5296TIP3   OH215851   6.719   3.757   4.603
 5296TIP3    H115852   6.754   3.752   4.692
 5296TIP3    H215853   6.666   3.836   4.602
 5297TIP3   OH215854   1.656   3.295   2.286
 5297TIP3    H115855   1.626   3.249   2.208
 5297TIP3    H215856   1.742   3.329   2.263
 5298TIP3   OH215857   1.869   2.044   4.976
 5298TIP3    H115858   1.847   1.988   4.902
 5298TIP3    H215859   1.920   1.988   5.034
 5299TIP3   OH215860   3.818   2.245   5.772
 5299TIP3    H115861   3.732   2.247   5.730
 5299TIP3    H215862   3.800   2.227   5.864
 5300TIP3   OH215863   3.653   6.520   2.730
 5300TIP3    H115864   3.743   6.488   2.726
 5300TIP3    H215865   3.634   6.529   2.823
 5301TIP3   OH215866   6.201   1.883   0.349
 5301TIP3    H115867   6.252   1.963   0.356
 5301TIP3    H215868   6.110   1.912   0.344
 5302TIP3   OH215869   3.691   4.935   4.235
 5302TIP3    H115870   3.671   4.859   4.290
 5302TIP3    H215871   3.714   4.897   4.150
 5303TIP3   OH215872   4.692   2.562   3.851
 5303TIP3    H115873   4.786   2.577   3.841
 5303TIP3    H215874   4.686   2.475   3.891
 5304TIP3   OH215875   2.807   3.278   3.959
 5304TIP3    H115876   2.760   3.245   4.036
 5304TIP3    H215877   2.739   3.320   3.905
 5305TIP3   OH215878   3.390   0.974   4.563
 5305TIP3    H115879   3.475   1.005   4.534
 5305TIP3    H215880   3.360   0.915   4.493
 5306TIP3   OH215881   3.226   3.980   4.989
 5306TIP3    H115882   3.197   4.071   4.977
 5306TIP3    H215883   3.223   3.942   4.901
 5307TIP3   OH215884   4.727   4.533   2.498
 5307TIP3    H115885   4.794   4.571   2.555
 5307TIP3    H215886   4.715   4.444   2.529
 5308TIP3   OH215887   5.880   3.983   2.766
 5308TIP3    H115888   5.921   3.917   2.709
 5308TIP3    H215889   5.804   4.014   2.716
 5309TIP3   OH215890   3.778   4.014   3.846
 5309TIP3    H115891   3.770   3.945   3.913
 5309TIP3    H215892   3.787   3.966   3.764
 5310TIP3   OH215893   1.290   2.815   1.619
 5310TIP3    H115894   1.232   2.874   1.667
 5310TIP3    H215895   1.234   2.777   1.551
 5311TIP3   OH215896   5.979   0.472   0.333
 5311TIP3    H115897   5.893   0.433   0.317
 5311TIP3    H215898   6.010   0.497   0.246
 5312TIP3   OH215899   0.908   2.238   3.003
 5312TIP3    H115900   0.842   2.255   3.071
 5312TIP3    H215901   0.863   2.260   2.921
 5313TIP3   OH215902   7.129   4.914   3.447
 5313TIP3    H115903   7.093   4.994   3.486
 5313TIP3    H215904   7.222   4.917   3.469
 5314TIP3   OH215905   0.838   3.732   1.936
 5314TIP3    H115906   0.804   3.654   1.891
 5314TIP3    H215907   0.862   3.700   2.023
 5315TIP3   OH215908   1.726   6.253   4.003
 5315TIP3    H115909   1.663   6.232   4.073
 5315TIP3    H215910   1.715   6.183   3.939
 5316TIP3   OH215911   4.837   1.604   5.036
 5316TIP3    H115912   4.796   1.684   5.004
 5316TIP3    H215913   4.911   1.589   4.976
 5317TIP3   OH215914   5.400   6.525   2.111
 5317TIP3    H115915   5.343   6.448   2.108
 5317TIP3    H215916   5.348   6.595   2.070
 5318TIP3   OH215917   6.138   5.146   2.768
 5318TIP3    H115918   6.080   5.080   2.808
 5318TIP3    H215919   6.163   5.107   2.684
 5319TIP3   OH215920   3.070   3.227   2.239
 5319TIP3    H115921   3.071   3.248   2.145
 5319TIP3    H215922   3.018   3.298   2.278
 5320TIP3   OH215923   1.022   5.049   4.563
 5320TIP3    H115924   1.094   4.988   4.576
 5320TIP3    H215925   0.965   5.035   4.638
 5321TIP3   OH215926   2.774   5.331   3.526
 5321TIP3    H115927   2.771   5.427   3.534
 5321TIP3    H215928   2.866   5.311   3.512
 5322TIP3   OH215929   1.172   2.500   2.316
 5322TIP3    H115930   1.132   2.549   2.244
 5322TIP3    H215931   1.132   2.413   2.310
 5323TIP3   OH215932   2.059   4.258   3.482
 5323TIP3    H115933   2.008   4.290   3.409
 5323TIP3    H215934   2.149   4.284   3.462
 5324TIP3   OH215935   0.754   3.762   0.095
 5324TIP3    H115936   0.826   3.700   0.088
 5324TIP3    H215937   0.682   3.721   0.046
 5325TIP3   OH215938   6.407   6.389   2.469
 5325TIP3    H115939   6.333   6.368   2.527
 5325TIP3    H215940   6.399   6.327   2.397
 5326TIP3   OH215941   6.198   5.008   1.550
 5326TIP3    H115942   6.190   5.031   1.457
 5326TIP3    H215943   6.282   5.047   1.576
 5327TIP3   OH215944   6.020   5.813   0.467
 5327TIP3    H115945   6.097   5.760   0.488
 5327TIP3    H215946   5.967   5.756   0.412
 5328TIP3   OH215947   1.995   2.619   0.670
 5328TIP3    H115948   1.970   2.587   0.583
 5328TIP3    H215949   1.913   2.618   0.720
 5329TIP3   OH215950   5.794   6.054   0.401
 5329TIP3    H115951   5.780   5.961   0.389
 5329TIP3    H215952   5.889   6.065   0.397
 5330TIP3   OH215953   3.346   2.285   3.092
 5330TIP3    H115954   3.431   2.241   3.083
 5330TIP3    H215955   3.322   2.272   3.184
 5331TIP3   OH215956   4.688   6.232   3.108
 5331TIP3    H115957   4.721   6.322   3.117
 5331TIP3    H215958   4.687   6.216   3.014
 5332TIP3   OH215959   4.744   1.732   1.073
 5332TIP3    H115960   4.808   1.705   1.139
 5332TIP3    H215961   4.685   1.791   1.119
 5333TIP3   OH215962   0.831   4.914   1.496
 5333TIP3    H115963   0.760   4.946   1.441
 5333TIP3    H215964   0.905   4.904   1.437
 5334TIP3   OH215965   1.388   0.510   1.941
 5334TIP3    H115966   1.333   0.443   1.901
 5334TIP3    H215967   1.461   0.521   1.880
 5335TIP3   OH215968   3.684   6.842   3.136
 5335TIP3    H115969   3.755   6.796   3.179
 5335TIP3    H215970   3.646   6.897   3.205
 5336TIP3   OH215971   3.538   5.840   1.175
 5336TIP3    H115972   3.620   5.799   1.145
 5336TIP3    H215973   3.561   5.932   1.186
 5337TIP3   OH215974   2.639   5.871   0.060
 5337TIP3    H115975   2.713   5.811   0.068
 5337TIP3    H215976   2.567   5.816   0.030
 5338TIP3   OH215977   5.293   1.618   2.023
 5338TIP3    H115978   5.241   1.592   1.948
 5338TIP3    H215979   5.334   1.537   2.054
 5339TIP3   OH215980   3.804   4.331   5.224
 5339TIP3    H115981   3.764   4.418   5.222
 5339TIP3    H215982   3.819   4.310   5.132
 5340TIP3   OH215983   7.051   4.171   0.826
 5340TIP3    H115984   7.099   4.152   0.906
 5340TIP3    H215985   7.081   4.259   0.800
 5341TIP3   OH215986   1.855   0.987   1.977
 5341TIP3    H115987   1.836   1.024   2.063
 5341TIP3    H215988   1.864   0.893   1.993
 5342TIP3   OH215989   1.215   3.395   5.139
 5342TIP3    H115990   1.142   3.401   5.200
 5342TIP3    H215991   1.292   3.383   5.194
 5343TIP3   OH215992   3.996   2.693   4.145
 5343TIP3    H115993   4.072   2.638   4.164
 5343TIP3    H215994   3.924   2.630   4.131
 5344TIP3   OH215995   5.578   3.792   4.555
 5344TIP3    H115996   5.565   3.699   4.538
 5344TIP3    H215997   5.547   3.804   4.645
 5345TIP3   OH215998   1.043   2.033   2.615
 5345TIP3    H115999   1.034   1.946   2.655
 5345TIP3    H216000   0.959   2.048   2.572
 5346TIP3   OH216001   1.991   6.003   3.763
 5346TIP3    H116002   2.011   6.089   3.726
 5346TIP3    H216003   1.986   5.945   3.687
 5347TIP3   OH216004   5.533   0.922   2.266
 5347TIP3    H116005   5.461   0.875   2.224
 5347TIP3    H216006   5.569   0.978   2.198
 5348TIP3   OH216007   7.163   6.215   4.597
 5348TIP3    H116008   7.110   6.139   4.620
 5348TIP3    H216009   7.147   6.277   4.668
 5349TIP3   OH216010   6.903   3.034   1.734
 5349TIP3    H116011   6.878   3.048   1.643
 5349TIP3    H216012   6.907   2.939   1.745
 5350TIP3   OH216013   0.278   6.186   2.196
 5350TIP3    H116014   0.202   6.229   2.234
 5350TIP3    H216015   0.267   6.093   2.216
 5351TIP3   OH216016   2.414   1.540   5.505
 5351TIP3    H116017   2.401   1.604   5.575
 5351TIP3    H216018   2.345   1.475   5.520
 5352TIP3   OH216019   2.719   5.893   0.723
 5352TIP3    H116020   2.765   5.973   0.699
 5352TIP3    H216021   2.780   5.845   0.780
 5353TIP3   OH216022   3.824   2.307   5.100
 5353TIP3    H116023   3.752   2.358   5.137
 5353TIP3    H216024   3.903   2.350   5.133
 5354TIP3   OH216025   6.820   1.037   1.604
 5354TIP3    H116026   6.777   1.049   1.689
 5354TIP3    H216027   6.912   1.024   1.625
 5355TIP3   OH216028   1.277   5.907   4.777
 5355TIP3    H116029   1.283   5.822   4.733
 5355TIP3    H216030   1.184   5.921   4.791
 5356TIP3   OH216031   4.287   0.328   5.673
 5356TIP3    H116032   4.372   0.298   5.703
 5356TIP3    H216033   4.243   0.359   5.752
 5357TIP3   OH216034   3.756   4.569   2.414
 5357TIP3    H116035   3.692   4.533   2.476
 5357TIP3    H216036   3.841   4.540   2.447
 5358TIP3   OH216037   5.905   2.680   3.828
 5358TIP3    H116038   5.964   2.723   3.765
 5358TIP3    H216039   5.842   2.633   3.773
 5359TIP3   OH216040   0.915   4.835   2.503
 5359TIP3    H116041   0.843   4.803   2.558
 5359TIP3    H216042   0.914   4.777   2.427
 5360TIP3   OH216043   1.536   3.708   2.450
 5360TIP3    H116044   1.514   3.615   2.456
 5360TIP3    H216045   1.631   3.711   2.460
 5361TIP3   OH216046   5.256   4.930   1.904
 5361TIP3    H116047   5.332   4.877   1.884
 5361TIP3    H216048   5.282   5.020   1.882
 5362TIP3   OH216049   1.020   3.884   5.835
 5362TIP3    H116050   0.998   3.808   5.890
 5362TIP3    H216051   0.936   3.920   5.808
 5363TIP3   OH216052   6.755   3.799   1.584
 5363TIP3    H116053   6.769   3.891   1.609
 5363TIP3    H216054   6.825   3.780   1.522
 5364TIP3   OH216055   1.446   5.551   0.120
 5364TIP3    H116056   1.476   5.492   0.052
 5364TIP3    H216057   1.394   5.617   0.073
 5365TIP3   OH216058   1.959   3.609   4.081
 5365TIP3    H116059   1.964   3.665   4.158
 5365TIP3    H216060   1.866   3.595   4.067
 5366TIP3   OH216061   2.823   5.375   4.438
 5366TIP3    H116062   2.836   5.438   4.509
 5366TIP3    H216063   2.742   5.404   4.395
 5367TIP3   OH216064   1.931   4.413   2.912
 5367TIP3    H116065   2.018   4.429   2.875
 5367TIP3    H216066   1.894   4.344   2.857
 5368TIP3   OH216067   4.358   2.284   4.187
 5368TIP3    H116068   4.304   2.286   4.267
 5368TIP3    H216069   4.323   2.355   4.134
 5369TIP3   OH216070   3.170   5.921   5.637
 5369TIP3    H116071   3.212   5.976   5.571
 5369TIP3    H216072   3.195   5.832   5.613
 5370TIP3   OH216073   5.546   6.348   5.690
 5370TIP3    H116074   5.572   6.432   5.653
 5370TIP3    H216075   5.555   6.286   5.618
 5371TIP3   OH216076   4.463   5.409   4.866
 5371TIP3    H116077   4.431   5.342   4.806
 5371TIP3    H216078   4.497   5.478   4.809
 5372TIP3   OH216079   4.295   0.681   4.451
 5372TIP3    H116080   4.333   0.766   4.473
 5372TIP3    H216081   4.201   0.694   4.457
 5373TIP3   OH216082   2.693   4.421   0.208
 5373TIP3    H116083   2.758   4.354   0.228
 5373TIP3    H216084   2.710   4.491   0.271
 5374TIP3   OH216085   1.701   0.856   2.286
 5374TIP3    H116086   1.736   0.829   2.371
 5374TIP3    H216087   1.607   0.842   2.293
 5375TIP3   OH216088   7.162   2.695   5.702
 5375TIP3    H116089   7.233   2.722   5.643
 5375TIP3    H216090   7.089   2.753   5.679
 5376TIP3   OH216091   3.734   5.720   2.327
 5376TIP3    H116092   3.668   5.673   2.378
 5376TIP3    H216093   3.779   5.774   2.391
 5377TIP3   OH216094   6.585   3.363   2.629
 5377TIP3    H116095   6.597   3.268   2.633
 5377TIP3    H216096   6.493   3.376   2.653
 5378TIP3   OH216097   6.343   1.875   1.682
 5378TIP3    H116098   6.341   1.795   1.630
 5378TIP3    H216099   6.261   1.919   1.661
 5379TIP3   OH216100   6.490   4.126   3.176
 5379TIP3    H116101   6.492   4.174   3.259
 5379TIP3    H216102   6.495   4.034   3.202
 5380TIP3   OH216103   7.017   5.674   2.660
 5380TIP3    H116104   6.977   5.682   2.574
 5380TIP3    H216105   7.111   5.682   2.645
 5381TIP3   OH216106   7.190   2.488   1.724
 5381TIP3    H116107   7.119   2.447   1.772
 5381TIP3    H216108   7.269   2.445   1.756
 5382TIP3   OH216109   1.523   5.943   5.514
 5382TIP3    H116110   1.440   5.984   5.541
 5382TIP3    H216111   1.498   5.880   5.447
 5383TIP3   OH216112   2.141   5.539   2.376
 5383TIP3    H116113   2.210   5.516   2.438
 5383TIP3    H216114   2.139   5.467   2.314
 5384TIP3   OH216115   5.919   5.152   0.233
 5384TIP3    H116116   6.013   5.163   0.246
 5384TIP3    H216117   5.905   5.170   0.140
 5385TIP3   OH216118   1.248   6.417   5.672
 5385TIP3    H116119   1.336   6.409   5.635
 5385TIP3    H216120   1.190   6.418   5.596
 5386TIP3   OH216121   3.554   0.468   3.082
 5386TIP3    H116122   3.496   0.543   3.066
 5386TIP3    H216123   3.534   0.442   3.172
 5387TIP3   OH216124   6.106   6.130   1.387
 5387TIP3    H116125   6.166   6.055   1.386
 5387TIP3    H216126   6.083   6.141   1.479
 5388TIP3   OH216127   4.378   6.626   2.955
 5388TIP3    H116128   4.419   6.548   2.917
 5388TIP3    H216129   4.307   6.647   2.894
 5389TIP3   OH216130   1.632   6.049   0.380
 5389TIP3    H116131   1.673   5.989   0.442
 5389TIP3    H216132   1.587   6.113   0.434
 5390TIP3   OH216133   1.890   5.497   0.139
 5390TIP3    H116134   1.826   5.567   0.151
 5390TIP3    H216135   1.960   5.518   0.201
 5391TIP3   OH216136   5.586   5.989   3.513
 5391TIP3    H116137   5.625   5.927   3.575
 5391TIP3    H216138   5.494   5.963   3.508
 5392TIP3   OH216139   2.724   4.834   4.620
 5392TIP3    H116140   2.761   4.896   4.557
 5392TIP3    H216141   2.794   4.771   4.636
 5393TIP3   OH216142   2.817   1.112   1.576
 5393TIP3    H116143   2.735   1.080   1.614
 5393TIP3    H216144   2.792   1.141   1.488
 5394TIP3   OH216145   4.777   0.719   2.452
 5394TIP3    H116146   4.790   0.667   2.532
 5394TIP3    H216147   4.729   0.796   2.482
 5395TIP3   OH216148   2.831   5.684   0.935
 5395TIP3    H116149   2.897   5.628   0.973
 5395TIP3    H216150   2.822   5.654   0.844
 5396TIP3   OH216151   3.711   0.060   0.694
 5396TIP3    H116152   3.675  -0.027   0.679
 5396TIP3    H216153   3.644   0.120   0.661
 5397TIP3   OH216154   5.308   4.217   0.568
 5397TIP3    H116155   5.334   4.243   0.657
 5397TIP3    H216156   5.349   4.131   0.555
 5398TIP3   OH216157   4.113   5.908   3.338
 5398TIP3    H116158   4.084   5.998   3.351
 5398TIP3    H216159   4.041   5.866   3.290
 5399TIP3   OH216160   6.198   0.973   5.251
 5399TIP3    H116161   6.291   0.969   5.228
 5399TIP3    H216162   6.162   0.890   5.221
 5400TIP3   OH216163   1.744   5.542   1.748
 5400TIP3    H116164   1.717   5.632   1.765
 5400TIP3    H216165   1.726   5.496   1.830
 5401TIP3   OH216166   1.987   5.031   4.108
 5401TIP3    H116167   1.893   5.046   4.095
 5401TIP3    H216168   2.010   5.084   4.184
 5402TIP3   OH216169   0.417   0.568   2.297
 5402TIP3    H116170   0.509   0.544   2.301
 5402TIP3    H216171   0.387   0.568   2.388
 5403TIP3   OH216172   1.652   4.634   5.416
 5403TIP3    H116173   1.731   4.688   5.414
 5403TIP3    H216174   1.628   4.630   5.508
 5404TIP3   OH216175   4.304   1.975   0.653
 5404TIP3    H116176   4.273   2.057   0.690
 5404TIP3    H216177   4.400   1.981   0.655
 5405TIP3   OH216178   4.844   0.354   0.996
 5405TIP3    H116179   4.791   0.288   0.950
 5405TIP3    H216180   4.825   0.436   0.950
 5406TIP3   OH216181   1.297   5.906   0.437
 5406TIP3    H116182   1.292   5.822   0.482
 5406TIP3    H216183   1.352   5.889   0.360
 5407TIP3   OH216184   2.404   0.677   5.889
 5407TIP3    H116185   2.430   0.594   5.849
 5407TIP3    H216186   2.478   0.702   5.944
 5408TIP3   OH216187   0.183   1.457   0.830
 5408TIP3    H116188   0.205   1.522   0.898
 5408TIP3    H216189   0.087   1.455   0.829
 5409TIP3   OH216190   6.449   5.833   0.612
 5409TIP3    H116191   6.495   5.857   0.693
 5409TIP3    H216192   6.436   5.915   0.565
 5410TIP3   OH216193   1.813   5.719   3.089
 5410TIP3    H116194   1.790   5.676   3.172
 5410TIP3    H216195   1.909   5.723   3.091
 5411TIP3   OH216196   0.589   6.573   3.085
 5411TIP3    H116197   0.503   6.559   3.045
 5411TIP3    H216198   0.574   6.642   3.151
 5412TIP3   OH216199   2.088   2.052   2.940
 5412TIP3    H116200   2.130   1.979   2.985
 5412TIP3    H216201   2.153   2.083   2.877
 5413TIP3   OH216202   1.413   5.134   3.436
 5413TIP3    H116203   1.494   5.182   3.418
 5413TIP3    H216204   1.343   5.198   3.417
 5414TIP3   OH216205   2.528   3.259   1.428
 5414TIP3    H116206   2.603   3.207   1.397
 5414TIP3    H216207   2.502   3.311   1.352
 5415TIP3   OH216208   5.082   0.906   3.968
 5415TIP3    H116209   5.147   0.975   3.959
 5415TIP3    H216210   5.118   0.848   4.035
 5416TIP3   OH216211   5.276   4.680   3.524
 5416TIP3    H116212   5.344   4.616   3.503
 5416TIP3    H216213   5.196   4.644   3.485
 5417TIP3   OH216214   6.345   6.016   4.224
 5417TIP3    H116215   6.375   5.930   4.252
 5417TIP3    H216216   6.324   6.062   4.305
 5418TIP3   OH216217   1.018   2.072   1.836
 5418TIP3    H116218   0.986   2.151   1.793
 5418TIP3    H216219   1.091   2.042   1.781
 5419TIP3   OH216220   3.685   6.712   4.039
 5419TIP3    H116221   3.702   6.805   4.055
 5419TIP3    H216222   3.694   6.671   4.125
 5420TIP3   OH216223   4.544   3.855   2.666
 5420TIP3    H116224   4.474   3.916   2.690
 5420TIP3    H216225   4.624   3.895   2.700
 5421TIP3   OH216226  -0.033   4.156   3.273
 5421TIP3    H116227   0.059   4.133   3.258
 5421TIP3    H216228  -0.030   4.221   3.343
 5422TIP3   OH216229   5.541   6.407   3.817
 5422TIP3    H116230   5.594   6.364   3.750
 5422TIP3    H216231   5.503   6.335   3.867
 5423TIP3   OH216232   5.002   0.596   5.263
 5423TIP3    H116233   5.026   0.688   5.276
 5423TIP3    H216234   5.073   0.547   5.306
 5424TIP3   OH216235   2.988   1.862   2.673
 5424TIP3    H116236   2.991   1.840   2.766
 5424TIP3    H216237   3.080   1.862   2.646
 5425TIP3   OH216238   5.659   0.867   3.828
 5425TIP3    H116239   5.710   0.938   3.866
 5425TIP3    H216240   5.636   0.898   3.740
 5426TIP3   OH216241   6.912   1.830   0.645
 5426TIP3    H116242   6.973   1.895   0.678
 5426TIP3    H216243   6.866   1.875   0.573
 5427TIP3   OH216244   3.208   2.931   2.315
 5427TIP3    H116245   3.201   3.016   2.360
 5427TIP3    H216246   3.253   2.952   2.233
 5428TIP3   OH216247   1.491   0.175   5.418
 5428TIP3    H116248   1.447   0.242   5.470
 5428TIP3    H216249   1.438   0.096   5.430
 5429TIP3   OH216250   3.634   4.968   2.922
 5429TIP3    H116251   3.631   4.886   2.873
 5429TIP3    H216252   3.662   5.033   2.858
 5430TIP3   OH216253   6.469   1.312   3.119
 5430TIP3    H116254   6.487   1.285   3.209
 5430TIP3    H216255   6.552   1.300   3.074
 5431TIP3   OH216256   6.473   0.249   1.224
 5431TIP3    H116257   6.492   0.205   1.307
 5431TIP3    H216258   6.420   0.186   1.175
 5432TIP3   OH216259   3.631   3.757   4.333
 5432TIP3    H116260   3.708   3.729   4.382
 5432TIP3    H216261   3.665   3.780   4.246
 5433TIP3   OH216262   0.332   5.317   0.572
 5433TIP3    H116263   0.275   5.380   0.615
 5433TIP3    H216264   0.358   5.257   0.642
 5434TIP3   OH216265   2.002   5.149   1.223
 5434TIP3    H116266   2.010   5.146   1.318
 5434TIP3    H216267   2.055   5.224   1.197
 5435TIP3   OH216268   6.323   1.316   5.198
 5435TIP3    H116269   6.405   1.276   5.227
 5435TIP3    H216270   6.290   1.256   5.131
 5436TIP3   OH216271   0.387   6.729   1.410
 5436TIP3    H116272   0.324   6.714   1.339
 5436TIP3    H216273   0.385   6.648   1.461
 5437TIP3   OH216274   3.510   5.882   0.688
 5437TIP3    H116275   3.583   5.878   0.626
 5437TIP3    H216276   3.447   5.817   0.655
 5438TIP3   OH216277   6.931   0.487   0.723
 5438TIP3    H116278   6.874   0.423   0.681
 5438TIP3    H216279   7.019   0.465   0.692
 5439TIP3   OH216280   2.555   2.505   0.380
 5439TIP3    H116281   2.476   2.506   0.433
 5439TIP3    H216282   2.575   2.597   0.365
 5440TIP3   OH216283   4.731   2.438   4.121
 5440TIP3    H116284   4.707   2.373   4.055
 5440TIP3    H216285   4.684   2.410   4.200
 5441TIP3   OH216286   3.526   5.070   2.413
 5441TIP3    H116287   3.532   4.974   2.416
 5441TIP3    H216288   3.438   5.087   2.381
 5442TIP3   OH216289   5.649   1.010   2.747
 5442TIP3    H116290   5.588   1.056   2.804
 5442TIP3    H216291   5.594   0.969   2.681
 5443TIP3   OH216292   2.416   1.717   5.699
 5443TIP3    H116293   2.456   1.803   5.688
 5443TIP3    H216294   2.484   1.663   5.740
 5444TIP3   OH216295   3.880   3.875   1.833
 5444TIP3    H116296   3.879   3.840   1.923
 5444TIP3    H216297   3.879   3.797   1.777
 5445TIP3   OH216298   0.388   1.577   4.948
 5445TIP3    H116299   0.454   1.515   4.979
 5445TIP3    H216300   0.319   1.522   4.911
 5446TIP3   OH216301   1.908   0.651   5.244
 5446TIP3    H116302   1.886   0.664   5.336
 5446TIP3    H216303   1.855   0.575   5.218
 5447TIP3   OH216304   3.885   5.831   5.696
 5447TIP3    H116305   3.796   5.806   5.720
 5447TIP3    H216306   3.915   5.884   5.771
 5448TIP3   OH216307   3.134   0.860   0.670
 5448TIP3    H116308   3.125   0.809   0.751
 5448TIP3    H216309   3.084   0.940   0.686
 5449TIP3   OH216310   2.552   4.942   3.362
 5449TIP3    H116311   2.634   4.977   3.396
 5449TIP3    H216312   2.524   4.878   3.428
 5450TIP3   OH216313   2.951   4.955   5.289
 5450TIP3    H116314   2.861   4.924   5.284
 5450TIP3    H216315   2.978   4.966   5.197
 5451TIP3   OH216316   4.994   6.291   3.422
 5451TIP3    H116317   5.074   6.241   3.439
 5451TIP3    H216318   4.931   6.225   3.390
 5452TIP3   OH216319   6.968   5.410   3.670
 5452TIP3    H116320   7.031   5.458   3.616
 5452TIP3    H216321   7.022   5.352   3.724
 5453TIP3   OH216322   2.513   6.657   1.462
 5453TIP3    H116323   2.522   6.561   1.469
 5453TIP3    H216324   2.424   6.670   1.430
 5454TIP3   OH216325   3.914   5.923   3.654
 5454TIP3    H116326   3.970   5.994   3.684
 5454TIP3    H216327   3.826   5.962   3.648
 5455TIP3   OH216328   2.999   1.214   3.883
 5455TIP3    H116329   2.919   1.162   3.894
 5455TIP3    H216330   3.059   1.180   3.949
 5456TIP3   OH216331   6.795   2.136   2.225
 5456TIP3    H116332   6.729   2.083   2.269
 5456TIP3    H216333   6.876   2.119   2.274
 5457TIP3   OH216334   4.877   4.448   3.513
 5457TIP3    H116335   4.961   4.437   3.559
 5457TIP3    H216336   4.823   4.497   3.575
 5458TIP3   OH216337   4.198   2.854   0.639
 5458TIP3    H116338   4.234   2.766   0.648
 5458TIP3    H216339   4.152   2.869   0.721
 5459TIP3   OH216340   3.670   1.371   3.585
 5459TIP3    H116341   3.684   1.281   3.615
 5459TIP3    H216342   3.601   1.405   3.641
 5460TIP3   OH216343   3.458   4.455   5.044
 5460TIP3    H116344   3.366   4.437   5.065
 5460TIP3    H216345   3.456   4.500   4.960
 5461TIP3   OH216346   2.068   4.591   5.829
 5461TIP3    H116347   2.094   4.507   5.867
 5461TIP3    H216348   2.073   4.577   5.735
 5462TIP3   OH216349   1.173   4.249   4.117
 5462TIP3    H116350   1.120   4.193   4.060
 5462TIP3    H216351   1.224   4.303   4.056
 5463TIP3   OH216352   0.772   4.227   3.375
 5463TIP3    H116353   0.857   4.265   3.397
 5463TIP3    H216354   0.784   4.192   3.286
 5464TIP3   OH216355   1.445   4.154   3.397
 5464TIP3    H116356   1.457   4.247   3.412
 5464TIP3    H216357   1.470   4.142   3.305
 5465TIP3   OH216358   2.808   0.427   1.153
 5465TIP3    H116359   2.779   0.380   1.231
 5465TIP3    H216360   2.730   0.477   1.126
 5466TIP3   OH216361   1.035   5.660   1.833
 5466TIP3    H116362   1.079   5.693   1.912
 5466TIP3    H216363   1.095   5.680   1.762
 5467TIP3   OH216364   6.096   5.365   1.546
 5467TIP3    H116365   6.190   5.356   1.567
 5467TIP3    H216366   6.066   5.436   1.604
 5468TIP3   OH216367   5.681   1.073   5.715
 5468TIP3    H116368   5.732   0.997   5.689
 5468TIP3    H216369   5.744   1.145   5.716
 5469TIP3   OH216370   1.651   1.503   5.515
 5469TIP3    H116371   1.693   1.500   5.601
 5469TIP3    H216372   1.643   1.411   5.490
 5470TIP3   OH216373   0.576   4.995   1.429
 5470TIP3    H116374   0.516   5.059   1.391
 5470TIP3    H216375   0.524   4.952   1.497
 5471TIP3   OH216376   5.902   3.265   1.847
 5471TIP3    H116377   5.917   3.256   1.753
 5471TIP3    H216378   5.859   3.183   1.873
 5472TIP3   OH216379   4.474   0.572   4.288
 5472TIP3    H116380   4.414   0.589   4.361
 5472TIP3    H216381   4.503   0.658   4.259
 5473TIP3   OH216382   0.809   1.963   0.260
 5473TIP3    H116383   0.801   1.914   0.178
 5473TIP3    H216384   0.902   1.953   0.285
 5474TIP3   OH216385   0.631   1.653   1.681
 5474TIP3    H116386   0.709   1.618   1.723
 5474TIP3    H216387   0.596   1.717   1.742
 5475TIP3   OH216388   1.538   2.447   0.864
 5475TIP3    H116389   1.586   2.390   0.923
 5475TIP3    H216390   1.470   2.487   0.919
 5476TIP3   OH216391   0.255   1.821   1.311
 5476TIP3    H116392   0.273   1.891   1.374
 5476TIP3    H216393   0.340   1.796   1.277
 5477TIP3   OH216394   6.483   4.167   3.870
 5477TIP3    H116395   6.466   4.111   3.946
 5477TIP3    H216396   6.495   4.105   3.798
 5478TIP3   OH216397   0.797   5.711   4.268
 5478TIP3    H116398   0.826   5.747   4.352
 5478TIP3    H216399   0.726   5.651   4.291
 5479TIP3   OH216400   7.035   6.594   2.466
 5479TIP3    H116401   6.978   6.671   2.466
 5479TIP3    H216402   6.978   6.522   2.494
 5480TIP3   OH216403   6.234   5.172   0.912
 5480TIP3    H116404   6.278   5.239   0.859
 5480TIP3    H216405   6.141   5.196   0.909
 5481TIP3   OH216406   6.663   3.438   5.754
 5481TIP3    H116407   6.650   3.362   5.810
 5481TIP3    H216408   6.740   3.482   5.791
 5482TIP3   OH216409   6.912   4.706   4.572
 5482TIP3    H116410   6.855   4.763   4.521
 5482TIP3    H216411   6.982   4.682   4.510
 5483TIP3   OH216412   5.136   2.200   3.256
 5483TIP3    H116413   5.182   2.245   3.326
 5483TIP3    H216414   5.077   2.266   3.219
 5484TIP3   OH216415   7.190   1.294   1.282
 5484TIP3    H116416   7.172   1.378   1.240
 5484TIP3    H216417   7.280   1.300   1.312
 5485TIP3   OH216418   2.436   2.278   3.355
 5485TIP3    H116419   2.400   2.344   3.414
 5485TIP3    H216420   2.374   2.205   3.360
 5486TIP3   OH216421   6.795   6.439   2.515
 5486TIP3    H116422   6.740   6.478   2.582
 5486TIP3    H216423   6.784   6.345   2.527
 5487TIP3   OH216424   3.154   6.684   3.414
 5487TIP3    H116425   3.234   6.737   3.413
 5487TIP3    H216426   3.181   6.602   3.455
 5488TIP3   OH216427   6.606   3.972   2.262
 5488TIP3    H116428   6.527   3.920   2.249
 5488TIP3    H216429   6.664   3.916   2.313
 5489TIP3   OH216430   0.664   2.017   4.352
 5489TIP3    H116431   0.746   2.037   4.307
 5489TIP3    H216432   0.601   2.080   4.317
 5490TIP3   OH216433   6.035   3.592   0.485
 5490TIP3    H116434   5.982   3.667   0.514
 5490TIP3    H216435   6.019   3.524   0.550
 5491TIP3   OH216436   0.424   6.364   3.259
 5491TIP3    H116437   0.488   6.383   3.328
 5491TIP3    H216438   0.339   6.384   3.299
 5492TIP3   OH216439   3.266   6.568   4.735
 5492TIP3    H116440   3.290   6.660   4.742
 5492TIP3    H216441   3.303   6.528   4.814
 5493TIP3   OH216442   4.549   5.352   1.512
 5493TIP3    H116443   4.506   5.436   1.497
 5493TIP3    H216444   4.477   5.288   1.510
 5494TIP3   OH216445   6.237   2.320   2.702
 5494TIP3    H116446   6.157   2.313   2.754
 5494TIP3    H216447   6.289   2.244   2.728
 5495TIP3   OH216448   6.062   3.578   5.295
 5495TIP3    H116449   6.118   3.510   5.332
 5495TIP3    H216450   6.077   3.655   5.350
 5496TIP3   OH216451   4.654   0.215   2.981
 5496TIP3    H116452   4.633   0.224   2.888
 5496TIP3    H216453   4.583   0.162   3.016
 5497TIP3   OH216454   0.695   5.310   1.071
 5497TIP3    H116455   0.740   5.285   1.152
 5497TIP3    H216456   0.726   5.247   1.006
 5498TIP3   OH216457   2.382   6.192   5.123
 5498TIP3    H116458   2.321   6.265   5.112
 5498TIP3    H216459   2.429   6.212   5.204
 5499TIP3   OH216460   4.386   6.426   4.781
 5499TIP3    H116461   4.391   6.407   4.875
 5499TIP3    H216462   4.311   6.375   4.750
 5500TIP3   OH216463   5.937   4.219   0.561
 5500TIP3    H116464   5.907   4.307   0.583
 5500TIP3    H216465   5.937   4.172   0.644
 5501TIP3   OH216466   4.861   2.790   3.863
 5501TIP3    H116467   4.767   2.783   3.877
 5501TIP3    H216468   4.870   2.824   3.774
 5502TIP3   OH216469   4.942   1.243   5.445
 5502TIP3    H116470   4.949   1.294   5.526
 5502TIP3    H216471   4.921   1.154   5.476
 5503TIP3   OH216472   1.382   2.587   3.196
 5503TIP3    H116473   1.295   2.555   3.217
 5503TIP3    H216474   1.384   2.676   3.233
 5504TIP3   OH216475   6.829   2.748   3.985
 5504TIP3    H116476   6.786   2.807   3.924
 5504TIP3    H216477   6.757   2.698   4.025
 5505TIP3   OH216478   0.247   6.266   4.751
 5505TIP3    H116479   0.218   6.312   4.830
 5505TIP3    H216480   0.167   6.251   4.701
 5506TIP3   OH216481   6.341   1.865   5.257
 5506TIP3    H116482   6.285   1.787   5.263
 5506TIP3    H216483   6.286   1.936   5.288
 5507TIP3   OH216484   1.681   5.212   2.182
 5507TIP3    H116485   1.620   5.143   2.208
 5507TIP3    H216486   1.733   5.228   2.261
 5508TIP3   OH216487   0.813   0.090   0.416
 5508TIP3    H116488   0.722   0.118   0.431
 5508TIP3    H216489   0.862   0.172   0.410
 5509TIP3   OH216490   4.046   4.582   0.079
 5509TIP3    H116491   4.058   4.578   0.174
 5509TIP3    H216492   4.052   4.492   0.050
 5510TIP3   OH216493   6.711   0.515   4.499
 5510TIP3    H116494   6.775   0.479   4.561
 5510TIP3    H216495   6.633   0.461   4.511
 5511TIP3   OH216496   7.043   1.499   4.321
 5511TIP3    H116497   7.123   1.526   4.367
 5511TIP3    H216498   7.073   1.440   4.252
 5512TIP3   OH216499   6.170   0.899   1.232
 5512TIP3    H116500   6.130   0.878   1.316
 5512TIP3    H216501   6.120   0.974   1.199
 5513TIP3   OH216502   3.489   5.570   1.892
 5513TIP3    H116503   3.536   5.574   1.976
 5513TIP3    H216504   3.520   5.646   1.844
 5514TIP3   OH216505   1.381   0.257   1.180
 5514TIP3    H116506   1.433   0.178   1.164
 5514TIP3    H216507   1.319   0.231   1.249
 5515TIP3   OH216508   2.001   0.207   5.867
 5515TIP3    H116509   1.999   0.175   5.777
 5515TIP3    H216510   1.917   0.179   5.904
 5516TIP3   OH216511   6.734   0.241   5.876
 5516TIP3    H116512   6.746   0.187   5.954
 5516TIP3    H216513   6.806   0.304   5.878
 5517TIP3   OH216514   6.123   4.094   4.970
 5517TIP3    H116515   6.075   4.100   5.053
 5517TIP3    H216516   6.085   4.019   4.925
 5518TIP3   OH216517   2.621   2.879   0.877
 5518TIP3    H116518   2.637   2.942   0.946
 5518TIP3    H216519   2.615   2.794   0.922
 5519TIP3   OH216520   5.864   2.986   0.246
 5519TIP3    H116521   5.772   3.000   0.268
 5519TIP3    H216522   5.894   2.922   0.311
 5520TIP3   OH216523   3.216   2.268   2.241
 5520TIP3    H116524   3.230   2.175   2.261
 5520TIP3    H216525   3.221   2.311   2.327
 5521TIP3   OH216526   3.461   5.978   2.021
 5521TIP3    H116527   3.414   5.896   2.035
 5521TIP3    H216528   3.400   6.046   2.049
 5522TIP3   OH216529   5.557   1.191   4.966
 5522TIP3    H116530   5.493   1.147   5.022
 5522TIP3    H216531   5.635   1.136   4.971
 5523TIP3   OH216532   3.735   3.871   0.280
 5523TIP3    H116533   3.765   3.824   0.358
 5523TIP3    H216534   3.641   3.853   0.276
 5524TIP3   OH216535   6.875   4.105   4.637
 5524TIP3    H116536   6.820   4.164   4.586
 5524TIP3    H216537   6.829   4.097   4.721
 5525TIP3   OH216538   6.667   4.245   4.169
 5525TIP3    H116539   6.755   4.210   4.154
 5525TIP3    H216540   6.652   4.306   4.097
 5526TIP3   OH216541   5.087   1.162   0.615
 5526TIP3    H116542   5.088   1.081   0.666
 5526TIP3    H216543   5.107   1.230   0.679
 5527TIP3   OH216544   5.283   2.584  -0.025
 5527TIP3    H116545   5.222   2.568  -0.097
 5527TIP3    H216546   5.297   2.497   0.014
 5528TIP3   OH216547   1.710   0.496   2.521
 5528TIP3    H116548   1.676   0.476   2.608
 5528TIP3    H216549   1.676   0.425   2.465
 5529TIP3   OH216550   2.996   3.099   2.809
 5529TIP3    H116551   3.034   3.187   2.810
 5529TIP3    H216552   3.033   3.058   2.731
 5530TIP3   OH216553   1.554   3.871   4.024
 5530TIP3    H116554   1.485   3.810   3.997
 5530TIP3    H216555   1.567   3.929   3.949
 5531TIP3   OH216556   5.210   4.777   5.764
 5531TIP3    H116557   5.136   4.837   5.775
 5531TIP3    H216558   5.281   4.817   5.814
 5532TIP3   OH216559   3.598   4.787   2.417
 5532TIP3    H116560   3.658   4.717   2.393
 5532TIP3    H216561   3.530   4.744   2.470
 5533TIP3   OH216562   6.979   1.067   5.462
 5533TIP3    H116563   6.988   0.992   5.520
 5533TIP3    H216564   6.899   1.050   5.412
 5534TIP3   OH216565   3.791   4.547   3.103
 5534TIP3    H116566   3.828   4.623   3.058
 5534TIP3    H216567   3.719   4.519   3.046
 5535TIP3   OH216568   3.387   4.153   1.155
 5535TIP3    H116569   3.441   4.100   1.213
 5535TIP3    H216570   3.440   4.165   1.076
 5536TIP3   OH216571   2.116   0.384   0.768
 5536TIP3    H116572   2.205   0.370   0.801
 5536TIP3    H216573   2.110   0.478   0.752
 5537TIP3   OH216574   5.704   5.630   0.936
 5537TIP3    H116575   5.727   5.582   1.016
 5537TIP3    H216576   5.750   5.713   0.944
 5538TIP3   OH216577   2.668   4.547   4.752
 5538TIP3    H116578   2.665   4.642   4.736
 5538TIP3    H216579   2.661   4.508   4.665
 5539TIP3   OH216580   4.504   6.023   0.165
 5539TIP3    H116581   4.537   6.112   0.168
 5539TIP3    H216582   4.567   5.975   0.111
 5540TIP3   OH216583   1.847   3.592   3.800
 5540TIP3    H116584   1.883   3.652   3.865
 5540TIP3    H216585   1.890   3.509   3.818
 5541TIP3   OH216586   6.040   2.328   3.418
 5541TIP3    H116587   5.993   2.284   3.347
 5541TIP3    H216588   6.131   2.300   3.408
 5542TIP3   OH216589   2.436   1.243   1.738
 5542TIP3    H116590   2.497   1.252   1.811
 5542TIP3    H216591   2.412   1.151   1.737
 5543TIP3   OH216592   0.913   3.832   2.378
 5543TIP3    H116593   0.935   3.882   2.299
 5543TIP3    H216594   0.818   3.838   2.384
 5544TIP3   OH216595   1.167   2.283   4.953
 5544TIP3    H116596   1.157   2.363   5.004
 5544TIP3    H216597   1.258   2.257   4.967
 5545TIP3   OH216598   3.009   1.965   4.852
 5545TIP3    H116599   3.084   1.916   4.886
 5545TIP3    H216600   3.026   1.974   4.758
 5546TIP3   OH216601   4.012   3.646   3.599
 5546TIP3    H116602   3.947   3.578   3.618
 5546TIP3    H216603   4.068   3.608   3.532
 5547TIP3   OH216604   4.698   4.675   4.458
 5547TIP3    H116605   4.725   4.620   4.385
 5547TIP3    H216606   4.778   4.685   4.511
 5548TIP3   OH216607   4.609   5.523   0.135
 5548TIP3    H116608   4.680   5.568   0.089
 5548TIP3    H216609   4.631   5.431   0.130
 5549TIP3   OH216610   0.749   6.686   0.203
 5549TIP3    H116611   0.759   6.754   0.138
 5549TIP3    H216612   0.826   6.629   0.191
 5550TIP3   OH216613   6.028   2.818   4.613
 5550TIP3    H116614   5.962   2.774   4.667
 5550TIP3    H216615   5.977   2.865   4.547
 5551TIP3   OH216616   2.813   4.240   4.180
 5551TIP3    H116617   2.787   4.238   4.272
 5551TIP3    H216618   2.852   4.154   4.164
 5552TIP3   OH216619   5.429   0.179   3.194
 5552TIP3    H116620   5.480   0.136   3.125
 5552TIP3    H216621   5.495   0.209   3.257
 5553TIP3   OH216622   6.790   0.258   3.892
 5553TIP3    H116623   6.819   0.345   3.918
 5553TIP3    H216624   6.801   0.205   3.971
 5554TIP3   OH216625   2.660   6.651  -0.001
 5554TIP3    H116626   2.596   6.653   0.070
 5554TIP3    H216627   2.729   6.592   0.029
 5555TIP3   OH216628   0.062   2.169   5.367
 5555TIP3    H116629   0.037   2.122   5.287
 5555TIP3    H216630  -0.018   2.171   5.420
 5556TIP3   OH216631   2.431   2.605   3.419
 5556TIP3    H116632   2.433   2.617   3.324
 5556TIP3    H216633   2.349   2.558   3.435
 5557TIP3   OH216634   0.756   3.256   5.215
 5557TIP3    H116635   0.793   3.168   5.213
 5557TIP3    H216636   0.723   3.266   5.305
 5558TIP3   OH216637   4.198   5.724   3.016
 5558TIP3    H116638   4.205   5.630   3.029
 5558TIP3    H216639   4.139   5.754   3.086
 5559TIP3   OH216640   4.445   5.062   1.838
 5559TIP3    H116641   4.365   5.013   1.817
 5559TIP3    H216642   4.423   5.153   1.820
 5560TIP3   OH216643   4.049   0.245   0.718
 5560TIP3    H116644   4.063   0.338   0.735
 5560TIP3    H216645   4.075   0.202   0.799
 5561TIP3   OH216646   6.997   1.097   3.896
 5561TIP3    H116647   6.987   1.190   3.877
 5561TIP3    H216648   7.076   1.072   3.849
 5562TIP3   OH216649   1.803   4.862   1.490
 5562TIP3    H116650   1.862   4.936   1.479
 5562TIP3    H216651   1.762   4.876   1.576
 5563TIP3   OH216652   5.893   4.143   2.991
 5563TIP3    H116653   5.888   4.110   2.901
 5563TIP3    H216654   5.979   4.183   2.997
 5564TIP3   OH216655   5.813   4.565   1.170
 5564TIP3    H116656   5.888   4.511   1.195
 5564TIP3    H216657   5.745   4.502   1.146
 5565TIP3   OH216658   3.746   0.567   5.610
 5565TIP3    H116659   3.809   0.494   5.609
 5565TIP3    H216660   3.794   0.639   5.651
 5566TIP3   OH216661   0.033   3.773   2.856
 5566TIP3    H116662   0.023   3.684   2.891
 5566TIP3    H216663  -0.056   3.808   2.853
 5567TIP3   OH216664   2.536   6.433   4.775
 5567TIP3    H116665   2.611   6.391   4.816
 5567TIP3    H216666   2.464   6.370   4.784
 5568TIP3   OH216667   0.123   3.335   4.129
 5568TIP3    H116668   0.097   3.419   4.167
 5568TIP3    H216669   0.133   3.352   4.036
 5569TIP3   OH216670   4.879   0.481   0.614
 5569TIP3    H116671   4.910   0.572   0.617
 5569TIP3    H216672   4.833   0.469   0.698
 5570TIP3   OH216673   4.799   5.209   2.072
 5570TIP3    H116674   4.714   5.166   2.057
 5570TIP3    H216675   4.776   5.294   2.108
 5571TIP3   OH216676   2.048   2.044   1.995
 5571TIP3    H116677   1.970   1.989   2.002
 5571TIP3    H216678   2.034   2.098   1.918
 5572TIP3   OH216679   0.746   3.005   3.047
 5572TIP3    H116680   0.685   2.931   3.051
 5572TIP3    H216681   0.747   3.041   3.136
 5573TIP3   OH216682   2.620   4.504   1.581
 5573TIP3    H116683   2.528   4.494   1.557
 5573TIP3    H216684   2.629   4.457   1.664
 5574TIP3   OH216685   1.079   1.781   1.490
 5574TIP3    H116686   1.144   1.740   1.432
 5574TIP3    H216687   1.041   1.852   1.438
 5575TIP3   OH216688   3.747   0.378   4.820
 5575TIP3    H116689   3.710   0.457   4.780
 5575TIP3    H216690   3.736   0.392   4.914
 5576TIP3   OH216691   2.019   4.375   3.182
 5576TIP3    H116692   2.040   4.282   3.186
 5576TIP3    H216693   2.029   4.398   3.090
 5577TIP3   OH216694   1.990   4.075   0.517
 5577TIP3    H116695   1.962   3.988   0.486
 5577TIP3    H216696   1.940   4.136   0.463
 5578TIP3   OH216697   0.343   6.146   5.409
 5578TIP3    H116698   0.426   6.171   5.368
 5578TIP3    H216699   0.331   6.207   5.481
 5579TIP3   OH216700   2.620   6.406   2.519
 5579TIP3    H116701   2.649   6.329   2.471
 5579TIP3    H216702   2.572   6.371   2.594
 5580TIP3   OH216703   1.273   5.236   0.235
 5580TIP3    H116704   1.342   5.274   0.290
 5580TIP3    H216705   1.254   5.304   0.171
 5581TIP3   OH216706   1.124   6.341   0.314
 5581TIP3    H116707   1.174   6.423   0.318
 5581TIP3    H216708   1.091   6.328   0.403
 5582TIP3   OH216709   5.690   3.220   4.306
 5582TIP3    H116710   5.684   3.315   4.303
 5582TIP3    H216711   5.616   3.193   4.361
 5583TIP3   OH216712   4.954   0.563   4.146
 5583TIP3    H116713   5.001   0.492   4.188
 5583TIP3    H216714   5.016   0.635   4.143
 5584TIP3   OH216715   0.727   0.596   2.582
 5584TIP3    H116716   0.774   0.617   2.663
 5584TIP3    H216717   0.790   0.612   2.512
 5585TIP3   OH216718   0.487   6.223   3.843
 5585TIP3    H116719   0.425   6.267   3.901
 5585TIP3    H216720   0.472   6.263   3.757
 5586TIP3   OH216721   1.970   3.698   3.578
 5586TIP3    H116722   1.934   3.680   3.664
 5586TIP3    H216723   2.046   3.640   3.571
 5587TIP3   OH216724   7.248   2.694   3.400
 5587TIP3    H116725   7.291   2.609   3.415
 5587TIP3    H216726   7.297   2.755   3.455
 5588TIP3   OH216727   4.498   0.908   1.951
 5588TIP3    H116728   4.422   0.938   1.900
 5588TIP3    H216729   4.471   0.919   2.042
 5589TIP3   OH216730   7.021   5.301   0.389
 5589TIP3    H116731   6.959   5.259   0.449
 5589TIP3    H216732   7.045   5.232   0.327
 5590TIP3   OH216733   5.321   5.228   5.052
 5590TIP3    H116734   5.348   5.182   5.132
 5590TIP3    H216735   5.228   5.245   5.064
 5591TIP3   OH216736   3.213   4.487   1.944
 5591TIP3    H116737   3.281   4.428   1.911
 5591TIP3    H216738   3.183   4.534   1.867
 5592TIP3   OH216739   0.998   6.622   2.371
 5592TIP3    H116740   1.025   6.710   2.346
 5592TIP3    H216741   1.051   6.564   2.315
 5593TIP3   OH216742   3.005   3.774   2.523
 5593TIP3    H116743   3.003   3.855   2.573
 5593TIP3    H216744   2.969   3.797   2.437
 5594TIP3   OH216745   5.423   2.791   0.096
 5594TIP3    H116746   5.401   2.709   0.053
 5594TIP3    H216747   5.400   2.859   0.033
 5595TIP3   OH216748   4.778   3.763   4.498
 5595TIP3    H116749   4.820   3.702   4.438
 5595TIP3    H216750   4.849   3.821   4.526
 5596TIP3   OH216751   0.485   3.961   1.606
 5596TIP3    H116752   0.511   3.916   1.525
 5596TIP3    H216753   0.405   3.917   1.633
 5597TIP3   OH216754   6.521   4.790   3.362
 5597TIP3    H116755   6.574   4.778   3.441
 5597TIP3    H216756   6.432   4.773   3.390
 5598TIP3   OH216757   6.487   3.295   1.938
 5598TIP3    H116758   6.514   3.365   1.997
 5598TIP3    H216759   6.544   3.305   1.862
 5599TIP3   OH216760   0.831   0.077   4.685
 5599TIP3    H116761   0.807   0.120   4.603
 5599TIP3    H216762   0.771   0.003   4.693
 5600TIP3   OH216763   3.619   6.259   4.169
 5600TIP3    H116764   3.679   6.287   4.238
 5600TIP3    H216765   3.579   6.340   4.137
 5601TIP3   OH216766   4.444   0.013   1.924
 5601TIP3    H116767   4.459   0.084   1.986
 5601TIP3    H216768   4.362   0.037   1.879
 5602TIP3   OH216769   2.669   4.348   5.543
 5602TIP3    H116770   2.648   4.406   5.616
 5602TIP3    H216771   2.675   4.406   5.467
 5603TIP3   OH216772   4.252   5.301   3.589
 5603TIP3    H116773   4.297   5.259   3.662
 5603TIP3    H216774   4.304   5.278   3.512
 5604TIP3   OH216775   2.411   6.292   2.103
 5604TIP3    H116776   2.415   6.325   2.014
 5604TIP3    H216777   2.455   6.206   2.099
 5605TIP3   OH216778   6.890   4.396   3.255
 5605TIP3    H116779   6.913   4.460   3.321
 5605TIP3    H216780   6.971   4.350   3.236
 5606TIP3   OH216781   5.033   2.363   4.138
 5606TIP3    H116782   5.012   2.456   4.130
 5606TIP3    H216783   5.005   2.340   4.226
 5607TIP3   OH216784   0.326   3.395   5.000
 5607TIP3    H116785   0.283   3.480   4.992
 5607TIP3    H216786   0.254   3.335   5.022
 5608TIP3   OH216787   3.951   2.343   0.805
 5608TIP3    H116788   4.046   2.331   0.799
 5608TIP3    H216789   3.919   2.260   0.840
 5609TIP3   OH216790   6.274   2.532   3.421
 5609TIP3    H116791   6.285   2.470   3.349
 5609TIP3    H216792   6.268   2.617   3.379
 5610TIP3   OH216793   4.054   3.749   4.071
 5610TIP3    H116794   4.076   3.726   3.981
 5610TIP3    H216795   4.109   3.692   4.125
 5611TIP3   OH216796   7.134   2.290   4.326
 5611TIP3    H116797   7.222   2.279   4.290
 5611TIP3    H216798   7.110   2.380   4.302
 5612TIP3   OH216799   1.042   2.901   0.766
 5612TIP3    H116800   1.092   2.902   0.848
 5612TIP3    H216801   0.974   2.967   0.779
 5613TIP3   OH216802   6.010   5.674   1.565
 5613TIP3    H116803   6.015   5.762   1.528
 5613TIP3    H216804   5.995   5.688   1.658
 5614TIP3   OH216805   3.782   5.470   5.048
 5614TIP3    H116806   3.731   5.529   4.993
 5614TIP3    H216807   3.794   5.519   5.130
 5615TIP3   OH216808   5.038   6.043   0.610
 5615TIP3    H116809   5.129   6.065   0.587
 5615TIP3    H216810   5.045   5.962   0.659
 5616TIP3   OH216811   7.199   0.153   0.245
 5616TIP3    H116812   7.131   0.212   0.278
 5616TIP3    H216813   7.274   0.168   0.301
 5617TIP3   OH216814   0.599   0.788   5.338
 5617TIP3    H116815   0.607   0.771   5.432
 5617TIP3    H216816   0.519   0.839   5.328
 5618TIP3   OH216817   6.287   6.356   0.287
 5618TIP3    H116818   6.192   6.344   0.293
 5618TIP3    H216819   6.297   6.438   0.240
 5619TIP3   OH216820   3.936   3.616   4.733
 5619TIP3    H116821   4.013   3.563   4.753
 5619TIP3    H216822   3.868   3.551   4.711
 5620TIP3   OH216823   2.205   6.255   0.917
 5620TIP3    H116824   2.204   6.162   0.894
 5620TIP3    H216825   2.115   6.274   0.945
 5621TIP3   OH216826   2.642   4.679   0.306
 5621TIP3    H116827   2.693   4.708   0.230
 5621TIP3    H216828   2.560   4.646   0.268
 5622TIP3   OH216829   1.816   0.391   2.223
 5622TIP3    H116830   1.748   0.336   2.262
 5622TIP3    H216831   1.824   0.466   2.282
 5623TIP3   OH216832   4.885   3.742   0.812
 5623TIP3    H116833   4.865   3.673   0.749
 5623TIP3    H216834   4.955   3.706   0.866
 5624TIP3   OH216835   1.725   3.762   1.190
 5624TIP3    H116836   1.809   3.780   1.234
 5624TIP3    H216837   1.686   3.691   1.241
 5625TIP3   OH216838   3.898   2.648   5.515
 5625TIP3    H116839   3.970   2.626   5.573
 5625TIP3    H216840   3.932   2.717   5.458
 5626TIP3   OH216841   3.189   6.054   0.888
 5626TIP3    H116842   3.178   6.149   0.884
 5626TIP3    H216843   3.283   6.041   0.898
 5627TIP3   OH216844   6.679   3.365   0.393
 5627TIP3    H116845   6.772   3.389   0.386
 5627TIP3    H216846   6.648   3.362   0.303
 5628TIP3   OH216847   1.991   6.384   4.899
 5628TIP3    H116848   2.021   6.295   4.919
 5628TIP3    H216849   1.969   6.422   4.984
 5629TIP3   OH216850   0.443   2.033   5.433
 5629TIP3    H116851   0.520   2.089   5.423
 5629TIP3    H216852   0.400   2.036   5.348
 5630TIP3   OH216853   6.051   3.694   0.829
 5630TIP3    H116854   6.132   3.664   0.789
 5630TIP3    H216855   6.078   3.743   0.906
 5631TIP3   OH216856   3.200   4.577   2.344
 5631TIP3    H116857   3.176   4.635   2.271
 5631TIP3    H216858   3.277   4.619   2.383
 5632TIP3   OH216859   1.476   0.082   1.725
 5632TIP3    H116860   1.465   0.012   1.660
 5632TIP3    H216861   1.403   0.071   1.785
 5633TIP3   OH216862   6.846   1.762   4.007
 5633TIP3    H116863   6.769   1.761   4.065
 5633TIP3    H216864   6.839   1.846   3.961
 5634TIP3   OH216865   4.344   2.468   5.448
 5634TIP3    H116866   4.356   2.446   5.356
 5634TIP3    H216867   4.331   2.563   5.448
 5635TIP3   OH216868   6.749   6.209   4.906
 5635TIP3    H116869   6.837   6.180   4.880
 5635TIP3    H216870   6.763   6.292   4.952
 5636TIP3   OH216871   6.747   0.647   0.532
 5636TIP3    H116872   6.756   0.555   0.510
 5636TIP3    H216873   6.696   0.648   0.613
 5637TIP3   OH216874   2.500   4.498   3.486
 5637TIP3    H116875   2.486   4.476   3.578
 5637TIP3    H216876   2.422   4.464   3.441
 5638TIP3   OH216877   2.978   5.174   3.828
 5638TIP3    H116878   2.983   5.095   3.882
 5638TIP3    H216879   3.063   5.177   3.783
 5639TIP3   OH216880   3.933   2.616   0.884
 5639TIP3    H116881   3.936   2.521   0.876
 5639TIP3    H216882   3.865   2.633   0.949
 5640TIP3   OH216883   4.791   1.277   5.684
 5640TIP3    H116884   4.759   1.188   5.674
 5640TIP3    H216885   4.729   1.331   5.634
 5641TIP3   OH216886   6.246   5.663   0.488
 5641TIP3    H116887   6.320   5.704   0.533
 5641TIP3    H216888   6.279   5.641   0.401
 5642TIP3   OH216889   3.852   3.304   3.158
 5642TIP3    H116890   3.942   3.291   3.189
 5642TIP3    H216891   3.862   3.351   3.075
 5643TIP3   OH216892   7.021   1.241   5.257
 5643TIP3    H116893   7.004   1.173   5.322
 5643TIP3    H216894   6.950   1.305   5.269
 5644TIP3   OH216895   6.662   2.042   0.019
 5644TIP3    H116896   6.735   2.080  -0.031
 5644TIP3    H216897   6.588   2.099   0.001
 5645TIP3   OH216898   0.118   0.441   5.374
 5645TIP3    H116899   0.047   0.378   5.387
 5645TIP3    H216900   0.198   0.389   5.375
 5646TIP3   OH216901   3.680   3.756   2.815
 5646TIP3    H116902   3.737   3.687   2.782
 5646TIP3    H216903   3.731   3.797   2.885
 5647TIP3   OH216904   2.250   2.499   3.158
 5647TIP3    H116905   2.171   2.451   3.134
 5647TIP3    H216906   2.282   2.535   3.075
 5648TIP3   OH216907   1.032   1.201   3.468
 5648TIP3    H116908   1.014   1.129   3.528
 5648TIP3    H216909   1.102   1.250   3.511
 5649TIP3   OH216910   1.843   2.861   5.014
 5649TIP3    H116911   1.775   2.812   4.967
 5649TIP3    H216912   1.905   2.886   4.946
 5650TIP3   OH216913   5.461   0.930   4.370
 5650TIP3    H116914   5.478   0.836   4.372
 5650TIP3    H216915   5.519   0.963   4.302
 5651TIP3   OH216916   5.586   3.034   4.120
 5651TIP3    H116917   5.622   3.102   4.176
 5651TIP3    H216918   5.505   3.072   4.085
 5652TIP3   OH216919   5.210   4.591   1.829
 5652TIP3    H116920   5.237   4.555   1.745
 5652TIP3    H216921   5.189   4.683   1.811
 5653TIP3   OH216922   1.144   3.682   2.214
 5653TIP3    H116923   1.148   3.700   2.120
 5653TIP3    H216924   1.051   3.688   2.237
 5654TIP3   OH216925   6.877   4.132   0.135
 5654TIP3    H116926   6.846   4.129   0.044
 5654TIP3    H216927   6.971   4.118   0.128
 5655TIP3   OH216928   4.561   5.115   2.811
 5655TIP3    H116929   4.606   5.031   2.817
 5655TIP3    H216930   4.537   5.123   2.719
 5656TIP3   OH216931   1.669   6.656   4.214
 5656TIP3    H116932   1.690   6.741   4.174
 5656TIP3    H216933   1.576   6.644   4.196
 5657TIP3   OH216934   1.170   2.852   1.040
 5657TIP3    H116935   1.214   2.819   1.118
 5657TIP3    H216936   1.152   2.944   1.060
 5658TIP3   OH216937   0.882   1.491   2.111
 5658TIP3    H116938   0.874   1.431   2.185
 5658TIP3    H216939   0.887   1.578   2.151
 5659TIP3   OH216940   4.263   3.854   1.050
 5659TIP3    H116941   4.233   3.851   0.959
 5659TIP3    H216942   4.346   3.901   1.047
 5660TIP3   OH216943   3.547   0.717   5.045
 5660TIP3    H116944   3.548   0.729   4.950
 5660TIP3    H216945   3.541   0.805   5.081
 5661TIP3   OH216946   2.620   4.082   0.197
 5661TIP3    H116947   2.623   4.114   0.107
 5661TIP3    H216948   2.542   4.123   0.234
 5662TIP3   OH216949   5.662   4.680   2.430
 5662TIP3    H116950   5.687   4.661   2.521
 5662TIP3    H216951   5.725   4.746   2.402
 5663TIP3   OH216952   7.034   5.061   1.528
 5663TIP3    H116953   7.117   5.104   1.547
 5663TIP3    H216954   6.970   5.104   1.585
 5664TIP3   OH216955   1.438   1.765   5.665
 5664TIP3    H116956   1.528   1.777   5.695
 5664TIP3    H216957   1.386   1.762   5.746
 5665TIP3   OH216958   5.427   0.146   0.436
 5665TIP3    H116959   5.414   0.232   0.476
 5665TIP3    H216960   5.422   0.085   0.509
 5666TIP3   OH216961   2.764   3.556   1.412
 5666TIP3    H116962   2.841   3.506   1.387
 5666TIP3    H216963   2.697   3.532   1.348
 5667TIP3   OH216964   1.638   0.669   3.225
 5667TIP3    H116965   1.713   0.633   3.272
 5667TIP3    H216966   1.574   0.689   3.294
 5668TIP3   OH216967   1.201   1.062   0.675
 5668TIP3    H116968   1.208   1.018   0.590
 5668TIP3    H216969   1.108   1.064   0.693
 5669TIP3   OH216970   3.607   2.763   3.548
 5669TIP3    H116971   3.594   2.857   3.532
 5669TIP3    H216972   3.525   2.733   3.586
 5670TIP3   OH216973   0.749   4.768   1.919
 5670TIP3    H116974   0.661   4.732   1.907
 5670TIP3    H216975   0.764   4.762   2.014
 5671TIP3   OH216976   2.989   2.550   4.178
 5671TIP3    H116977   2.991   2.586   4.266
 5671TIP3    H216978   2.998   2.456   4.190
 5672TIP3   OH216979   5.289   3.403   4.590
 5672TIP3    H116980   5.251   3.349   4.520
 5672TIP3    H216981   5.308   3.340   4.660
 5673TIP3   OH216982   5.060   3.409   0.786
 5673TIP3    H116983   4.971   3.374   0.779
 5673TIP3    H216984   5.059   3.465   0.863
 5674TIP3   OH216985   5.551   6.710   5.388
 5674TIP3    H116986   5.569   6.673   5.475
 5674TIP3    H216987   5.522   6.800   5.406
 5675TIP3   OH216988   6.699   2.072   1.875
 5675TIP3    H116989   6.719   2.148   1.929
 5675TIP3    H216990   6.784   2.042   1.842
 5676TIP3   OH216991   0.507   0.463   4.206
 5676TIP3    H116992   0.447   0.390   4.225
 5676TIP3    H216993   0.455   0.523   4.153
 5677TIP3   OH216994   0.057   0.587   5.135
 5677TIP3    H116995   0.014   0.671   5.148
 5677TIP3    H216996   0.062   0.548   5.222
 5678TIP3   OH216997   1.869   4.829   3.343
 5678TIP3    H116998   1.827   4.743   3.340
 5678TIP3    H216999   1.859   4.864   3.255
 5679TIP3   OH217000   4.320   1.358   2.448
 5679TIP3    H117001   4.370   1.436   2.422
 5679TIP3    H217002   4.346   1.291   2.385
 5680TIP3   OH217003   0.406   1.694   2.296
 5680TIP3    H117004   0.374   1.751   2.226
 5680TIP3    H217005   0.383   1.740   2.377
 5681TIP3   OH217006   0.319   2.819   4.531
 5681TIP3    H117007   0.257   2.884   4.565
 5681TIP3    H217008   0.405   2.851   4.559
 5682TIP3   OH217009   5.228   5.323   2.422
 5682TIP3    H117010   5.296   5.379   2.384
 5682TIP3    H217011   5.275   5.246   2.453
 5683TIP3   OH217012   1.848   2.071   4.448
 5683TIP3    H117013   1.933   2.095   4.483
 5683TIP3    H217014   1.854   1.976   4.434
 5684TIP3   OH217015   5.742   4.058   2.228
 5684TIP3    H117016   5.728   4.050   2.322
 5684TIP3    H217017   5.743   4.153   2.213
 5685TIP3   OH217018   6.942   0.525   2.914
 5685TIP3    H117019   6.851   0.532   2.943
 5685TIP3    H217020   6.982   0.607   2.943
 5686TIP3   OH217021   0.097   4.950   1.614
 5686TIP3    H117022   0.074   5.028   1.664
 5686TIP3    H217023   0.078   4.877   1.673
 5687TIP3   OH217024   4.338   1.457   4.069
 5687TIP3    H117025   4.257   1.415   4.095
 5687TIP3    H217026   4.327   1.476   3.976
 5688TIP3   OH217027   2.884   2.289   5.466
 5688TIP3    H117028   2.925   2.323   5.546
 5688TIP3    H217029   2.941   2.217   5.440
 5689TIP3   OH217030   3.897   6.440   2.650
 5689TIP3    H117031   3.879   6.392   2.569
 5689TIP3    H217032   3.966   6.390   2.693
 5690TIP3   OH217033   0.064   5.146   0.773
 5690TIP3    H117034  -0.011   5.090   0.795
 5690TIP3    H217035   0.033   5.200   0.701
 5691TIP3   OH217036   1.385   4.411   0.112
 5691TIP3    H117037   1.376   4.491   0.164
 5691TIP3    H217038   1.474   4.381   0.130
 5692TIP3   OH217039   2.953   6.307   3.510
 5692TIP3    H117040   2.887   6.264   3.565
 5692TIP3    H217041   2.904   6.340   3.435
 5693TIP3   OH217042   1.421   5.548   5.710
 5693TIP3    H117043   1.331   5.551   5.678
 5693TIP3    H217044   1.430   5.462   5.749
 5694TIP3   OH217045   0.774   2.613   2.294
 5694TIP3    H117046   0.839   2.592   2.362
 5694TIP3    H217047   0.692   2.576   2.327
 5695TIP3   OH217048   7.078   2.053   0.692
 5695TIP3    H117049   7.162   2.008   0.685
 5695TIP3    H217050   7.058   2.053   0.786
 5696TIP3   OH217051   7.042   2.639   1.294
 5696TIP3    H117052   7.028   2.555   1.250
 5696TIP3    H217053   6.979   2.638   1.366
 5697TIP3   OH217054   5.381   3.606   1.496
 5697TIP3    H117055   5.393   3.514   1.520
 5697TIP3    H217056   5.325   3.641   1.565
 5698TIP3   OH217057   6.437   6.360   5.438
 5698TIP3    H117058   6.387   6.289   5.478
 5698TIP3    H217059   6.391   6.440   5.466
 5699TIP3   OH217060   0.054   2.720   1.492
 5699TIP3    H117061  -0.035   2.705   1.521
 5699TIP3    H217062   0.045   2.765   1.408
 5700TIP3   OH217063   5.732   2.152   4.260
 5700TIP3    H117064   5.775   2.210   4.197
 5700TIP3    H217065   5.733   2.066   4.219
 5701TIP3   OH217066   3.497   0.009   4.252
 5701TIP3    H117067   3.587   0.028   4.279
 5701TIP3    H217068   3.505  -0.027   4.164
 5702TIP3   OH217069   5.510   5.575   2.176
 5702TIP3    H117070   5.502   5.670   2.170
 5702TIP3    H217071   5.420   5.544   2.178
 5703TIP3   OH217072   0.467   1.206   1.749
 5703TIP3    H117073   0.434   1.271   1.812
 5703TIP3    H217074   0.497   1.258   1.675
 5704TIP3   OH217075   3.276   6.691   2.040
 5704TIP3    H117076   3.319   6.682   1.955
 5704TIP3    H217077   3.261   6.602   2.070
 5705TIP3   OH217078   1.173   6.418   3.124
 5705TIP3    H117079   1.154   6.491   3.065
 5705TIP3    H217080   1.122   6.437   3.203
 5706TIP3   OH217081   1.880   6.550   3.766
 5706TIP3    H117082   1.825   6.544   3.844
 5706TIP3    H217083   1.823   6.591   3.700
 5707TIP3   OH217084   5.965   3.091   1.586
 5707TIP3    H117085   5.939   3.002   1.564
 5707TIP3    H217086   6.057   3.084   1.612
 5708TIP3   OH217087   4.498   1.459   2.150
 5708TIP3    H117088   4.562   1.503   2.094
 5708TIP3    H217089   4.484   1.520   2.223
 5709TIP3   OH217090   5.458   2.553   5.057
 5709TIP3    H117091   5.368   2.519   5.051
 5709TIP3    H217092   5.511   2.487   5.013
 5710TIP3   OH217093   5.503   5.294   3.616
 5710TIP3    H117094   5.484   5.365   3.677
 5710TIP3    H217095   5.462   5.322   3.534
 5711TIP3   OH217096   4.268   3.048   3.613
 5711TIP3    H117097   4.303   3.003   3.691
 5711TIP3    H217098   4.179   3.014   3.604
 5712TIP3   OH217099   2.668   4.078   1.283
 5712TIP3    H117100   2.622   4.012   1.335
 5712TIP3    H217101   2.647   4.056   1.192
 5713TIP3   OH217102   3.281   1.681   3.273
 5713TIP3    H117103   3.350   1.622   3.304
 5713TIP3    H217104   3.328   1.752   3.229
 5714TIP3   OH217105   3.492   1.108   5.325
 5714TIP3    H117106   3.455   1.071   5.405
 5714TIP3    H217107   3.416   1.135   5.274
 5715TIP3   OH217108   2.371   3.572   0.382
 5715TIP3    H117109   2.283   3.610   0.376
 5715TIP3    H217110   2.425   3.630   0.329
 5716TIP3   OH217111   6.595   5.142   4.844
 5716TIP3    H117112   6.607   5.208   4.776
 5716TIP3    H217113   6.622   5.060   4.804
 5717TIP3   OH217114   0.919   5.491   2.167
 5717TIP3    H117115   0.851   5.517   2.228
 5717TIP3    H217116   0.962   5.573   2.142
 5718TIP3   OH217117   2.044   3.335   3.767
 5718TIP3    H117118   2.134   3.367   3.755
 5718TIP3    H217119   2.027   3.281   3.690
 5719TIP3   OH217120   0.617   4.981   2.764
 5719TIP3    H117121   0.680   5.053   2.772
 5719TIP3    H217122   0.669   4.906   2.737
 5720TIP3   OH217123   1.309   5.430   1.088
 5720TIP3    H117124   1.274   5.518   1.074
 5720TIP3    H217125   1.237   5.383   1.130
 5721TIP3   OH217126   6.777   2.857   4.483
 5721TIP3    H117127   6.735   2.938   4.510
 5721TIP3    H217128   6.714   2.816   4.423
 5722TIP3   OH217129   4.551   1.067   0.163
 5722TIP3    H117130   4.482   1.017   0.205
 5722TIP3    H217131   4.545   1.155   0.201
 5723TIP3   OH217132   3.540   6.750   2.237
 5723TIP3    H117133   3.470   6.777   2.178
 5723TIP3    H217134   3.575   6.670   2.200
 5724TIP3   OH217135   5.720   2.271   0.589
 5724TIP3    H117136   5.684   2.266   0.678
 5724TIP3    H217137   5.814   2.286   0.602
 5725TIP3   OH217138   1.542   5.466   5.054
 5725TIP3    H117139   1.618   5.431   5.100
 5725TIP3    H217140   1.571   5.552   5.023
 5726TIP3   OH217141   1.299   1.564   0.202
 5726TIP3    H117142   1.263   1.518   0.278
 5726TIP3    H217143   1.237   1.635   0.186
 5727TIP3   OH217144   0.061   4.326   0.105
 5727TIP3    H117145   0.023   4.364   0.025
 5727TIP3    H217146  -0.003   4.261   0.133
 5728TIP3   OH217147   5.560   1.442   5.483
 5728TIP3    H117148   5.483   1.418   5.535
 5728TIP3    H217149   5.585   1.361   5.438
 5729TIP3   OH217150   1.847   1.527   5.748
 5729TIP3    H117151   1.815   1.492   5.831
 5729TIP3    H217152   1.915   1.465   5.721
 5730TIP3   OH217153   5.268   1.394   1.695
 5730TIP3    H117154   5.251   1.385   1.789
 5730TIP3    H217155   5.187   1.431   1.660
 5731TIP3   OH217156   6.666   5.856   1.981
 5731TIP3    H117157   6.657   5.867   2.075
 5731TIP3    H217158   6.584   5.889   1.944
 5732TIP3   OH217159   3.432   6.708   1.293
 5732TIP3    H117160   3.483   6.775   1.246
 5732TIP3    H217161   3.370   6.758   1.345
 5733TIP3   OH217162   5.565   3.130   1.158
 5733TIP3    H117163   5.630   3.089   1.100
 5733TIP3    H217164   5.543   3.062   1.221
 5734TIP3   OH217165   0.211   3.423   2.513
 5734TIP3    H117166   0.219   3.430   2.608
 5734TIP3    H217167   0.300   3.430   2.481
 5735TIP3   OH217168   4.000   5.179   2.618
 5735TIP3    H117169   3.929   5.125   2.653
 5735TIP3    H217170   4.080   5.128   2.633
 5736TIP3   OH217171   4.894   0.831   0.105
 5736TIP3    H117172   4.880   0.804   0.196
 5736TIP3    H217173   4.806   0.832   0.067
 5737TIP3   OH217174   5.233   6.484   5.376
 5737TIP3    H117175   5.242   6.414   5.440
 5737TIP3    H217176   5.202   6.440   5.296
 5738TIP3   OH217177   4.655   4.486   0.764
 5738TIP3    H117178   4.739   4.509   0.722
 5738TIP3    H217179   4.679   4.423   0.831
 5739TIP3   OH217180   2.773   3.282   3.483
 5739TIP3    H117181   2.837   3.350   3.505
 5739TIP3    H217182   2.825   3.210   3.447
 5740TIP3   OH217183   4.264   1.089   4.278
 5740TIP3    H117184   4.197   1.148   4.312
 5740TIP3    H217185   4.346   1.140   4.286
 5741TIP3   OH217186   2.024   6.296   5.818
 5741TIP3    H117187   2.036   6.358   5.746
 5741TIP3    H217188   2.098   6.235   5.810
 5742TIP3   OH217189   5.565   3.963   1.319
 5742TIP3    H117190   5.564   3.953   1.414
 5742TIP3    H217191   5.480   4.002   1.298
 5743TIP3   OH217192   1.015   0.068   1.456
 5743TIP3    H117193   0.985   0.055   1.545
 5743TIP3    H217194   0.950   0.127   1.417
 5744TIP3   OH217195   1.076   2.283   4.245
 5744TIP3    H117196   1.044   2.251   4.329
 5744TIP3    H217197   1.170   2.266   4.247
 5745TIP3   OH217198   1.293   6.573   1.453
 5745TIP3    H117199   1.298   6.520   1.533
 5745TIP3    H217200   1.208   6.552   1.416
 5746TIP3   OH217201   6.541   3.440   3.118
 5746TIP3    H117202   6.595   3.515   3.093
 5746TIP3    H217203   6.574   3.414   3.204
 5747TIP3   OH217204   2.845   6.290   1.764
 5747TIP3    H117205   2.932   6.254   1.744
 5747TIP3    H217206   2.789   6.213   1.770
 5748TIP3   OH217207   0.579   1.799   4.515
 5748TIP3    H117208   0.588   1.889   4.483
 5748TIP3    H217209   0.668   1.769   4.528
 5749TIP3   OH217210   6.090   1.743   5.053
 5749TIP3    H117211   6.079   1.754   4.959
 5749TIP3    H217212   6.166   1.685   5.061
 5750TIP3   OH217213   3.949   6.017   1.624
 5750TIP3    H117214   3.893   6.093   1.639
 5750TIP3    H217215   4.029   6.036   1.673
 5751TIP3   OH217216   6.510   2.500   5.692
 5751TIP3    H117217   6.562   2.521   5.769
 5751TIP3    H217218   6.434   2.558   5.697
 5752TIP3   OH217219   3.888   3.516   0.017
 5752TIP3    H117220   3.896   3.556  -0.069
 5752TIP3    H217221   3.918   3.426   0.005
 5753TIP3   OH217222   3.072   2.721   0.803
 5753TIP3    H117223   3.078   2.671   0.722
 5753TIP3    H217224   3.074   2.813   0.775
 5754TIP3   OH217225   3.316   5.306   1.242
 5754TIP3    H117226   3.262   5.238   1.283
 5754TIP3    H217227   3.339   5.270   1.157
 5755TIP3   OH217228   6.594   1.493   0.625
 5755TIP3    H117229   6.583   1.465   0.716
 5755TIP3    H217230   6.622   1.584   0.632
 5756TIP3   OH217231   1.416   6.487   4.369
 5756TIP3    H117232   1.497   6.527   4.401
 5756TIP3    H217233   1.369   6.460   4.448
 5757TIP3   OH217234   5.632   5.313   5.227
 5757TIP3    H117235   5.696   5.248   5.256
 5757TIP3    H217236   5.551   5.264   5.216
 5758TIP3   OH217237   1.753   1.359   3.854
 5758TIP3    H117238   1.673   1.403   3.826
 5758TIP3    H217239   1.822   1.424   3.841
 5759TIP3   OH217240   6.078   2.973   5.852
 5759TIP3    H117241   6.116   3.055   5.882
 5759TIP3    H217242   6.138   2.906   5.885
 5760TIP3   OH217243   3.528   5.756   3.608
 5760TIP3    H117244   3.578   5.832   3.638
 5760TIP3    H217245   3.440   5.769   3.644
 5761TIP3   OH217246   4.502   2.071   0.312
 5761TIP3    H117247   4.593   2.075   0.284
 5761TIP3    H217248   4.463   2.002   0.259
 5762TIP3   OH217249   0.793   0.961   3.693
 5762TIP3    H117250   0.735   0.982   3.766
 5762TIP3    H217251   0.736   0.957   3.617
 5763TIP3   OH217252   1.424   4.298   4.353
 5763TIP3    H117253   1.338   4.329   4.323
 5763TIP3    H217254   1.445   4.225   4.294
 5764TIP3   OH217255   1.115   3.110   1.153
 5764TIP3    H117256   1.076   3.195   1.132
 5764TIP3    H217257   1.052   3.068   1.212
 5765TIP3   OH217258   1.081   4.151   5.738
 5765TIP3    H117259   1.000   4.199   5.719
 5765TIP3    H217260   1.052   4.072   5.782
 5766TIP3   OH217261   4.118   4.250   4.162
 5766TIP3    H117262   4.024   4.254   4.183
 5766TIP3    H217263   4.141   4.158   4.173
 5767TIP3   OH217264   6.347   4.391   3.181
 5767TIP3    H117265   6.422   4.338   3.156
 5767TIP3    H217266   6.330   4.367   3.272
 5768TIP3   OH217267   3.108   6.789   4.386
 5768TIP3    H117268   3.025   6.796   4.339
 5768TIP3    H217269   3.111   6.869   4.439
 5769TIP3   OH217270   3.948   5.241   5.576
 5769TIP3    H117271   3.859   5.278   5.574
 5769TIP3    H217272   3.940   5.159   5.526
 5770TIP3   OH217273   4.294   1.019   1.376
 5770TIP3    H117274   4.251   0.992   1.457
 5770TIP3    H217275   4.221   1.041   1.317
 5771TIP3   OH217276   7.142   6.007   4.975
 5771TIP3    H117277   7.233   5.980   4.988
 5771TIP3    H217278   7.095   5.925   4.961
 5772TIP3   OH217279   2.186   6.541   5.847
 5772TIP3    H117280   2.189   6.534   5.751
 5772TIP3    H217281   2.152   6.456   5.876
 5773TIP3   OH217282   5.175   1.683   3.097
 5773TIP3    H117283   5.268   1.680   3.117
 5773TIP3    H217284   5.134   1.720   3.175
 5774TIP3   OH217285   6.795   3.680   2.230
 5774TIP3    H117286   6.834   3.725   2.305
 5774TIP3    H217287   6.746   3.607   2.269
 5775TIP3   OH217288   1.275   6.540   2.768
 5775TIP3    H117289   1.232   6.594   2.835
 5775TIP3    H217290   1.367   6.538   2.794
 5776TIP3   OH217291   6.806   2.704   0.648
 5776TIP3    H117292   6.805   2.773   0.714
 5776TIP3    H217293   6.719   2.708   0.608
 5777TIP3   OH217294   1.308   0.932   5.666
 5777TIP3    H117295   1.350   1.007   5.707
 5777TIP3    H217296   1.380   0.876   5.637
 5778TIP3   OH217297   3.910   3.739   0.430
 5778TIP3    H117298   3.930   3.763   0.339
 5778TIP3    H217299   3.875   3.650   0.424
 5779TIP3   OH217300   4.856   0.603   2.676
 5779TIP3    H117301   4.915   0.533   2.703
 5779TIP3    H217302   4.888   0.680   2.723
 5780TIP3   OH217303   1.920   4.560   2.155
 5780TIP3    H117304   1.983   4.551   2.083
 5780TIP3    H217305   1.958   4.508   2.226
 5781TIP3   OH217306   3.395   3.124   1.318
 5781TIP3    H117307   3.367   3.186   1.251
 5781TIP3    H217308   3.314   3.100   1.364
 5782TIP3   OH217309   4.123   2.956   0.002
 5782TIP3    H117310   4.125   3.010   0.080
 5782TIP3    H217311   4.196   2.894   0.013
 5783TIP3   OH217312   5.053   1.692   4.644
 5783TIP3    H117313   5.081   1.628   4.578
 5783TIP3    H217314   5.121   1.759   4.643
 5784TIP3   OH217315   2.000   3.942   2.290
 5784TIP3    H117316   1.932   3.887   2.252
 5784TIP3    H217317   2.075   3.933   2.231
 5785TIP3   OH217318   4.258   3.801   0.769
 5785TIP3    H117319   4.322   3.733   0.750
 5785TIP3    H217320   4.198   3.799   0.694
 5786TIP3   OH217321   3.698   3.237   2.740
 5786TIP3    H117322   3.720   3.155   2.785
 5786TIP3    H217323   3.707   3.305   2.807
 5787TIP3   OH217324   1.675   2.215   0.521
 5787TIP3    H117325   1.604   2.279   0.525
 5787TIP3    H217326   1.663   2.171   0.437
 5788TIP3   OH217327   4.569   1.310   0.302
 5788TIP3    H117328   4.511   1.378   0.335
 5788TIP3    H217329   4.657   1.338   0.328
 5789TIP3   OH217330   1.409   2.155   4.929
 5789TIP3    H117331   1.387   2.086   4.991
 5789TIP3    H217332   1.426   2.109   4.847
 5790TIP3   OH217333   3.118   0.395   0.502
 5790TIP3    H117334   3.163   0.478   0.490
 5790TIP3    H217335   3.025   0.417   0.495
 5791TIP3   OH217336   5.361   1.652   4.909
 5791TIP3    H117337   5.418   1.582   4.942
 5791TIP3    H217338   5.365   1.643   4.814
 5792TIP3   OH217339   5.469   4.952   4.994
 5792TIP3    H117340   5.511   4.893   5.056
 5792TIP3    H217341   5.401   4.899   4.953
 5793TIP3   OH217342   0.475   6.606   3.880
 5793TIP3    H117343   0.425   6.527   3.901
 5793TIP3    H217344   0.448   6.629   3.791
 5794TIP3   OH217345   1.694   3.107   4.352
 5794TIP3    H117346   1.669   3.051   4.425
 5794TIP3    H217347   1.749   3.174   4.391
 5795TIP3   OH217348   5.566   6.599   2.687
 5795TIP3    H117349   5.619   6.668   2.646
 5795TIP3    H217350   5.538   6.637   2.770
 5796TIP3   OH217351   4.247   0.824   4.853
 5796TIP3    H117352   4.340   0.812   4.873
 5796TIP3    H217353   4.222   0.745   4.807
 5797TIP3   OH217354   3.790   5.154   4.580
 5797TIP3    H117355   3.761   5.244   4.565
 5797TIP3    H217356   3.711   5.101   4.570
 5798TIP3   OH217357   2.972   4.570   0.062
 5798TIP3    H117358   2.906   4.633   0.091
 5798TIP3    H217359   3.055   4.617   0.071
 5799TIP3   OH217360   1.285   0.000   5.074
 5799TIP3    H117361   1.225   0.049   5.129
 5799TIP3    H217362   1.309   0.062   5.004
 5800TIP3   OH217363   6.939   4.960   4.862
 5800TIP3    H117364   6.945   5.043   4.909
 5800TIP3    H217365   7.030   4.932   4.852
 5801TIP3   OH217366   5.853   1.411   4.973
 5801TIP3    H117367   5.907   1.405   5.052
 5801TIP3    H217368   5.763   1.412   5.006
 5802TIP3   OH217369   1.538   6.005   0.824
 5802TIP3    H117370   1.504   6.043   0.743
 5802TIP3    H217371   1.532   6.075   0.888
 5803TIP3   OH217372   6.534   1.239   3.415
 5803TIP3    H117373   6.463   1.174   3.421
 5803TIP3    H217374   6.517   1.299   3.487
 5804TIP3   OH217375   3.887   1.641   4.399
 5804TIP3    H117376   3.962   1.654   4.457
 5804TIP3    H217377   3.812   1.667   4.452
 5805TIP3   OH217378   4.803   6.217   1.684
 5805TIP3    H117379   4.728   6.168   1.720
 5805TIP3    H217380   4.861   6.230   1.760
 5806TIP3   OH217381   1.266   3.451   4.469
 5806TIP3    H117382   1.278   3.519   4.403
 5806TIP3    H217383   1.238   3.498   4.547
 5807TIP3   OH217384   7.043   5.196   5.004
 5807TIP3    H117385   6.992   5.198   5.085
 5807TIP3    H217386   7.133   5.213   5.031
 5808TIP3   OH217387   6.586   4.948   3.147
 5808TIP3    H117388   6.672   4.981   3.170
 5808TIP3    H217389   6.560   4.895   3.223
 5809TIP3   OH217390   5.513   4.427   5.533
 5809TIP3    H117391   5.523   4.462   5.622
 5809TIP3    H217392   5.601   4.400   5.508
 5810TIP3   OH217393   1.230   4.827   4.581
 5810TIP3    H117394   1.273   4.837   4.666
 5810TIP3    H217395   1.232   4.733   4.564
 5811TIP3   OH217396   6.005   2.827   5.606
 5811TIP3    H117397   6.010   2.882   5.684
 5811TIP3    H217398   5.917   2.790   5.609
 5812TIP3   OH217399   5.880   4.764   5.599
 5812TIP3    H117400   5.935   4.834   5.565
 5812TIP3    H217401   5.809   4.809   5.645
 5813TIP3   OH217402   2.449   3.361   4.705
 5813TIP3    H117403   2.512   3.313   4.758
 5813TIP3    H217404   2.404   3.418   4.767
 5814TIP3   OH217405   6.428   4.142   2.329
 5814TIP3    H117406   6.506   4.106   2.288
 5814TIP3    H217407   6.357   4.084   2.301
 5815TIP3   OH217408   3.776   6.745   1.925
 5815TIP3    H117409   3.852   6.798   1.949
 5815TIP3    H217410   3.811   6.676   1.868
 5816TIP3   OH217411   5.213   2.283   3.531
 5816TIP3    H117412   5.230   2.245   3.617
 5816TIP3    H217413   5.168   2.365   3.549
 5817TIP3   OH217414   0.376   2.113   1.169
 5817TIP3    H117415   0.309   2.165   1.125
 5817TIP3    H217416   0.422   2.068   1.099
 5818TIP3   OH217417   5.471   1.202   0.850
 5818TIP3    H117418   5.491   1.294   0.861
 5818TIP3    H217419   5.511   1.159   0.926
 5819TIP3   OH217420   4.645   1.524   3.043
 5819TIP3    H117421   4.634   1.616   3.064
 5819TIP3    H217422   4.580   1.507   2.974
 5820TIP3   OH217423   4.275   1.426   5.600
 5820TIP3    H117424   4.371   1.424   5.609
 5820TIP3    H217425   4.243   1.435   5.689
 5821TIP3   OH217426   3.892   2.021   2.989
 5821TIP3    H117427   3.902   1.960   3.062
 5821TIP3    H217428   3.864   2.103   3.029
 5822TIP3   OH217429   0.215   1.958   1.575
 5822TIP3    H117430   0.305   1.980   1.551
 5822TIP3    H217431   0.224   1.900   1.651
 5823TIP3   OH217432   2.967   4.676   4.544
 5823TIP3    H117433   2.938   4.595   4.586
 5823TIP3    H217434   2.942   4.665   4.453
 5824TIP3   OH217435   5.655   3.333   3.922
 5824TIP3    H117436   5.733   3.302   3.968
 5824TIP3    H217437   5.652   3.427   3.942
 5825TIP3   OH217438   1.203   5.894   1.645
 5825TIP3    H117439   1.282   5.845   1.666
 5825TIP3    H217440   1.163   5.913   1.730
 5826TIP3   OH217441   2.371   1.427   3.799
 5826TIP3    H117442   2.276   1.438   3.800
 5826TIP3    H217443   2.393   1.403   3.889
 5827TIP3   OH217444   4.090   0.377   2.689
 5827TIP3    H117445   4.142   0.297   2.700
 5827TIP3    H217446   4.050   0.367   2.602
 5828TIP3   OH217447   4.190   3.797   2.295
 5828TIP3    H117448   4.175   3.707   2.325
 5828TIP3    H217449   4.166   3.796   2.202
 5829TIP3   OH217450   6.369   4.389   4.056
 5829TIP3    H117451   6.426   4.346   3.992
 5829TIP3    H217452   6.345   4.319   4.117
 5830TIP3   OH217453   1.536   2.443   4.255
 5830TIP3    H117454   1.621   2.416   4.291
 5830TIP3    H217455   1.552   2.454   4.161
 5831TIP3   OH217456   0.709   4.297   0.866
 5831TIP3    H117457   0.677   4.213   0.833
 5831TIP3    H217458   0.803   4.296   0.846
 5832TIP3   OH217459   0.727   5.856   1.334
 5832TIP3    H117460   0.687   5.839   1.419
 5832TIP3    H217461   0.773   5.775   1.312
 5833TIP3   OH217462   4.082   5.765   0.248
 5833TIP3    H117463   4.120   5.736   0.165
 5833TIP3    H217464   4.157   5.802   0.296
 5834TIP3   OH217465   1.772   6.768   5.141
 5834TIP3    H117466   1.679   6.773   5.161
 5834TIP3    H217467   1.780   6.810   5.055
 5835TIP3   OH217468   6.190   2.109   4.192
 5835TIP3    H117469   6.172   2.125   4.099
 5835TIP3    H217470   6.105   2.116   4.234
 5836TIP3   OH217471   0.507   3.000   1.133
 5836TIP3    H117472   0.589   2.951   1.131
 5836TIP3    H217473   0.440   2.936   1.109
 5837TIP3   OH217474   7.072   2.025   3.862
 5837TIP3    H117475   6.979   2.038   3.842
 5837TIP3    H217476   7.081   1.931   3.876
 5838TIP3   OH217477   4.701   4.520   2.874
 5838TIP3    H117478   4.761   4.582   2.915
 5838TIP3    H217479   4.614   4.546   2.904
 5839TIP3   OH217480   6.957   0.844   0.492
 5839TIP3    H117481   6.917   0.758   0.506
 5839TIP3    H217482   6.944   0.862   0.399
 5840TIP3   OH217483   1.237   6.829   5.003
 5840TIP3    H117484   1.190   6.801   5.080
 5840TIP3    H217485   1.188   6.793   4.929
 5841TIP3   OH217486   1.067   1.817   4.372
 5841TIP3    H117487   1.079   1.847   4.462
 5841TIP3    H217488   0.991   1.758   4.376
 5842TIP3   OH217489   3.971   3.377   5.514
 5842TIP3    H117490   4.038   3.397   5.450
 5842TIP3    H217491   3.918   3.309   5.473
 5843TIP3   OH217492   5.852   2.917   2.555
 5843TIP3    H117493   5.767   2.879   2.533
 5843TIP3    H217494   5.835   3.011   2.566
 5844TIP3   OH217495   3.754   4.509   5.486
 5844TIP3    H117496   3.787   4.429   5.445
 5844TIP3    H217497   3.832   4.561   5.505
 5845TIP3   OH217498   0.921   0.248   5.016
 5845TIP3    H117499   0.863   0.298   4.958
 5845TIP3    H217500   1.009   0.278   4.993
 5846TIP3   OH217501   5.166   5.583   3.351
 5846TIP3    H117502   5.231   5.568   3.419
 5846TIP3    H217503   5.147   5.677   3.357
 5847TIP3   OH217504   6.149   1.532   5.383
 5847TIP3    H117505   6.225   1.476   5.399
 5847TIP3    H217506   6.148   1.592   5.458
 5848TIP3   OH217507   6.528   2.775   2.175
 5848TIP3    H117508   6.608   2.744   2.219
 5848TIP3    H217509   6.459   2.722   2.215
 5849TIP3   OH217510   5.581   0.353   5.564
 5849TIP3    H117511   5.637   0.381   5.491
 5849TIP3    H217512   5.517   0.295   5.523
 5850TIP3   OH217513   6.707   5.196   0.237
 5850TIP3    H117514   6.748   5.147   0.309
 5850TIP3    H217515   6.616   5.166   0.236
 5851TIP3   OH217516   2.212   3.616   0.901
 5851TIP3    H117517   2.243   3.539   0.854
 5851TIP3    H217518   2.273   3.686   0.876
 5852TIP3   OH217519   1.383   6.053   2.304
 5852TIP3    H117520   1.370   5.988   2.374
 5852TIP3    H217521   1.296   6.091   2.290
 5853TIP3   OH217522   1.769   3.397   5.727
 5853TIP3    H117523   1.772   3.456   5.652
 5853TIP3    H217524   1.678   3.367   5.730
 5854TIP3   OH217525   4.045   0.950   4.435
 5854TIP3    H117526   4.033   0.989   4.521
 5854TIP3    H217527   4.107   1.008   4.391
 5855TIP3   OH217528   2.945   5.190   3.246
 5855TIP3    H117529   2.976   5.181   3.156
 5855TIP3    H217530   3.025   5.203   3.298
 5856TIP3   OH217531   3.871   0.055   4.516
 5856TIP3    H117532   3.819   0.038   4.594
 5856TIP3    H217533   3.956   0.083   4.549
 5857TIP3   OH217534   3.781   0.592   3.598
 5857TIP3    H117535   3.831   0.660   3.645
 5857TIP3    H217536   3.744   0.637   3.523
 5858TIP3   OH217537   1.448   6.757   5.716
 5858TIP3    H117538   1.512   6.733   5.649
 5858TIP3    H217539   1.379   6.802   5.668
 5859TIP3   OH217540   5.586   6.769   3.541
 5859TIP3    H117541   5.519   6.706   3.566
 5859TIP3    H217542   5.633   6.787   3.622
 5860TIP3   OH217543   3.918   1.320   5.547
 5860TIP3    H117544   3.838   1.295   5.501
 5860TIP3    H217545   3.890   1.332   5.638
 5861TIP3   OH217546   5.428   4.911   3.593
 5861TIP3    H117547   5.396   4.821   3.597
 5861TIP3    H217548   5.516   4.907   3.632
 5862TIP3   OH217549   3.911   1.325   3.901
 5862TIP3    H117550   3.981   1.390   3.894
 5862TIP3    H217551   3.922   1.270   3.824
 5863TIP3   OH217552   1.091   3.510   1.719
 5863TIP3    H117553   1.032   3.438   1.695
 5863TIP3    H217554   1.050   3.588   1.682
 5864TIP3   OH217555   6.478   6.347   0.515
 5864TIP3    H117556   6.423   6.399   0.573
 5864TIP3    H217557   6.424   6.331   0.437
 5865TIP3   OH217558   2.332   3.670   5.160
 5865TIP3    H117559   2.396   3.732   5.124
 5865TIP3    H217560   2.249   3.694   5.118
 5866TIP3   OH217561   4.733   2.509   5.888
 5866TIP3    H117562   4.702   2.420   5.903
 5866TIP3    H217563   4.704   2.557   5.966
 5867TIP3   OH217564   6.148   0.197   4.039
 5867TIP3    H117565   6.237   0.221   4.014
 5867TIP3    H217566   6.092   0.256   3.989
 5868TIP3   OH217567   6.977   4.210   0.409
 5868TIP3    H117568   6.948   4.126   0.442
 5868TIP3    H217569   6.947   4.211   0.318
 5869TIP3   OH217570   6.823   6.273   3.917
 5869TIP3    H117571   6.819   6.179   3.933
 5869TIP3    H217572   6.795   6.313   3.999
 5870TIP3   OH217573   0.916   5.920   2.343
 5870TIP3    H117574   0.964   6.001   2.360
 5870TIP3    H217575   0.840   5.924   2.401
 5871TIP3   OH217576   4.335   3.410   0.918
 5871TIP3    H117577   4.296   3.462   0.988
 5871TIP3    H217578   4.314   3.320   0.940
 5872TIP3   OH217579   7.018   1.141   2.819
 5872TIP3    H117580   6.941   1.106   2.864
 5872TIP3    H217581   7.013   1.104   2.730
 5873TIP3   OH217582   2.123   4.097   5.126
 5873TIP3    H117583   2.123   4.185   5.164
 5873TIP3    H217584   2.057   4.049   5.176
 5874TIP3   OH217585   3.603   4.936   5.554
 5874TIP3    H117586   3.552   4.867   5.595
 5874TIP3    H217587   3.579   5.015   5.603
 5875TIP3   OH217588   2.335   2.847   1.960
 5875TIP3    H117589   2.384   2.929   1.970
 5875TIP3    H217590   2.324   2.814   2.049
 5876TIP3   OH217591   5.883   1.375   2.557
 5876TIP3    H117592   5.891   1.280   2.559
 5876TIP3    H217593   5.855   1.399   2.645
 5877TIP3   OH217594   3.528   0.299   0.147
 5877TIP3    H117595   3.537   0.350   0.066
 5877TIP3    H217596   3.457   0.341   0.195
 5878TIP3   OH217597   5.168   4.487   0.727
 5878TIP3    H117598   5.218   4.416   0.768
 5878TIP3    H217599   5.235   4.544   0.689
 5879TIP3   OH217600   0.126   1.845   3.312
 5879TIP3    H117601   0.068   1.909   3.273
 5879TIP3    H217602   0.199   1.837   3.251
 5880TIP3   OH217603   0.676   6.144   3.548
 5880TIP3    H117604   0.652   6.166   3.458
 5880TIP3    H217605   0.658   6.224   3.597
 5881TIP3   OH217606   6.566   1.112   5.630
 5881TIP3    H117607   6.522   1.194   5.649
 5881TIP3    H217608   6.498   1.045   5.640
 5882TIP3   OH217609   3.879   6.585   1.277
 5882TIP3    H117610   3.803   6.563   1.222
 5882TIP3    H217611   3.949   6.528   1.246
 5883TIP3   OH217612   2.576   6.274   2.772
 5883TIP3    H117613   2.633   6.236   2.704
 5883TIP3    H217614   2.634   6.287   2.847
 5884TIP3   OH217615   5.154   3.834   2.139
 5884TIP3    H117616   5.204   3.753   2.153
 5884TIP3    H217617   5.117   3.854   2.224
 5885TIP3   OH217618   0.968   4.486   2.569
 5885TIP3    H117619   1.052   4.512   2.533
 5885TIP3    H217620   0.984   4.475   2.663
 5886TIP3   OH217621   5.924   3.348   5.809
 5886TIP3    H117622   5.934   3.370   5.716
 5886TIP3    H217623   6.005   3.378   5.849
 5887TIP3   OH217624   3.105   4.610   5.696
 5887TIP3    H117625   3.102   4.537   5.758
 5887TIP3    H217626   3.026   4.599   5.643
 5888TIP3   OH217627   2.332   1.986   3.182
 5888TIP3    H117628   2.415   2.034   3.181
 5888TIP3    H217629   2.267   2.052   3.207
 5889TIP3   OH217630  -0.009   2.113   3.198
 5889TIP3    H117631  -0.097   2.123   3.236
 5889TIP3    H217632  -0.025   2.079   3.110
 5890TIP3   OH217633   1.599   4.883   4.995
 5890TIP3    H117634   1.616   4.917   5.083
 5890TIP3    H217635   1.670   4.820   4.980
 5891TIP3   OH217636   4.815   0.578   1.508
 5891TIP3    H117637   4.822   0.485   1.487
 5891TIP3    H217638   4.893   0.597   1.561
 5892TIP3   OH217639   6.008   1.448   0.294
 5892TIP3    H117640   5.918   1.463   0.264
 5892TIP3    H217641   5.999   1.416   0.383
 5893TIP3   OH217642   0.378   5.595   4.263
 5893TIP3    H117643   0.454   5.537   4.256
 5893TIP3    H217644   0.410   5.670   4.314
 5894TIP3   OH217645   0.929   3.808   2.889
 5894TIP3    H117646   0.862   3.780   2.951
 5894TIP3    H217647   0.931   3.739   2.823
 5895TIP3   OH217648   0.398   4.481   1.678
 5895TIP3    H117649   0.489   4.452   1.685
 5895TIP3    H217650   0.403   4.575   1.661
 5896TIP3   OH217651   5.250   5.591   3.912
 5896TIP3    H117652   5.319   5.557   3.856
 5896TIP3    H217653   5.271   5.557   3.999
 5897TIP3   OH217654   0.655   6.641   1.248
 5897TIP3    H117655   0.580   6.665   1.302
 5897TIP3    H217656   0.676   6.552   1.275
 5898TIP3   OH217657   0.861   6.702   1.522
 5898TIP3    H117658   0.891   6.781   1.477
 5898TIP3    H217659   0.787   6.732   1.575
 5899TIP3   OH217660   3.821   3.480   0.357
 5899TIP3    H117661   3.848   3.400   0.312
 5899TIP3    H217662   3.731   3.464   0.383
 5900TIP3   OH217663   2.088   4.643   0.728
 5900TIP3    H117664   2.008   4.655   0.678
 5900TIP3    H217665   2.085   4.710   0.796
 5901TIP3   OH217666   4.786   0.118   1.948
 5901TIP3    H117667   4.780   0.042   1.891
 5901TIP3    H217668   4.695   0.143   1.964
 5902TIP3   OH217669   2.747   0.114   1.600
 5902TIP3    H117670   2.713   0.061   1.672
 5902TIP3    H217671   2.779   0.050   1.536
 5903TIP3   OH217672   5.726   3.433   1.607
 5903TIP3    H117673   5.718   3.513   1.556
 5903TIP3    H217674   5.683   3.454   1.691
 5904TIP3   OH217675   4.447   3.903   2.148
 5904TIP3    H117676   4.369   3.864   2.189
 5904TIP3    H217677   4.512   3.906   2.218
 5905TIP3   OH217678   4.678   3.848   5.383
 5905TIP3    H117679   4.754   3.793   5.362
 5905TIP3    H217680   4.651   3.819   5.470
 5906TIP3   OH217681   6.466   2.084   2.731
 5906TIP3    H117682   6.533   2.016   2.741
 5906TIP3    H217683   6.499   2.141   2.662
 5907TIP3   OH217684   0.707   0.715   0.162
 5907TIP3    H117685   0.792   0.729   0.119
 5907TIP3    H217686   0.643   0.732   0.092
 5908TIP3   OH217687   3.113   3.777   2.047
 5908TIP3    H117688   3.149   3.809   1.964
 5908TIP3    H217689   3.162   3.697   2.065
 5909TIP3   OH217690   4.739   2.975   0.611
 5909TIP3    H117691   4.708   2.943   0.526
 5909TIP3    H217692   4.793   2.904   0.645
 5910TIP3   OH217693   3.684   5.188   2.216
 5910TIP3    H117694   3.629   5.166   2.292
 5910TIP3    H217695   3.761   5.132   2.226
 5911TIP3   OH217696   1.674   4.980   2.755
 5911TIP3    H117697   1.704   4.903   2.804
 5911TIP3    H217698   1.620   5.029   2.817
 5912TIP3   OH217699   5.798   4.639   4.243
 5912TIP3    H117700   5.779   4.669   4.331
 5912TIP3    H217701   5.848   4.711   4.203
 5913TIP3   OH217702   7.219   3.818   2.288
 5913TIP3    H117703   7.167   3.859   2.219
 5913TIP3    H217704   7.219   3.725   2.266
 5914TIP3   OH217705   6.349   1.246   4.509
 5914TIP3    H117706   6.410   1.211   4.574
 5914TIP3    H217707   6.365   1.340   4.509
 5915TIP3   OH217708   0.582   5.417   4.327
 5915TIP3    H117709   0.650   5.379   4.271
 5915TIP3    H217710   0.612   5.399   4.416
 5916TIP3   OH217711   2.667   5.934   4.471
 5916TIP3    H117712   2.584   5.888   4.486
 5916TIP3    H217713   2.641   6.024   4.449
 5917TIP3   OH217714   2.063   3.143   4.470
 5917TIP3    H117715   2.002   3.145   4.544
 5917TIP3    H217716   2.034   3.213   4.412
 5918TIP3   OH217717   4.344   6.145   2.758
 5918TIP3    H117718   4.383   6.111   2.677
 5918TIP3    H217719   4.357   6.075   2.822
 5919TIP3   OH217720   1.885   4.650   2.723
 5919TIP3    H117721   1.850   4.699   2.798
 5919TIP3    H217722   1.970   4.689   2.707
 5920TIP3   OH217723   0.205   2.010   2.005
 5920TIP3    H117724   0.216   1.917   2.026
 5920TIP3    H217725   0.110   2.022   2.000
 5921TIP3   OH217726   2.064   2.728   0.000
 5921TIP3    H117727   1.995   2.725   0.066
 5921TIP3    H217728   2.052   2.813  -0.043
 5922TIP3   OH217729   4.769   5.521   2.246
 5922TIP3    H117730   4.681   5.510   2.284
 5922TIP3    H217731   4.828   5.487   2.313
 5923TIP3   OH217732   4.214   6.597   5.014
 5923TIP3    H117733   4.136   6.569   5.063
 5923TIP3    H217734   4.265   6.517   5.003
 5924TIP3   OH217735   3.279   0.084   4.969
 5924TIP3    H117736   3.322   0.015   5.019
 5924TIP3    H217737   3.328   0.089   4.887
 5925TIP3   OH217738   2.399   0.869   4.077
 5925TIP3    H117739   2.386   0.790   4.129
 5925TIP3    H217740   2.429   0.935   4.139
 5926TIP3   OH217741   5.685   3.340   4.787
 5926TIP3    H117742   5.642   3.259   4.815
 5926TIP3    H217743   5.632   3.410   4.825
 5927TIP3   OH217744   5.103   4.003   3.266
 5927TIP3    H117745   5.091   3.978   3.358
 5927TIP3    H217746   5.113   4.098   3.269
 5928TIP3   OH217747   4.577   1.357   3.298
 5928TIP3    H117748   4.578   1.434   3.241
 5928TIP3    H217749   4.556   1.391   3.384
 5929TIP3   OH217750   2.758   6.027   4.856
 5929TIP3    H117751   2.734   5.952   4.801
 5929TIP3    H217752   2.845   6.052   4.826
 5930TIP3   OH217753   6.684   1.438   4.540
 5930TIP3    H117754   6.653   1.456   4.629
 5930TIP3    H217755   6.759   1.380   4.552
 5931TIP3   OH217756   5.428   5.170   2.569
 5931TIP3    H117757   5.484   5.241   2.602
 5931TIP3    H217758   5.375   5.145   2.645
 5932TIP3   OH217759   4.197   1.686   5.054
 5932TIP3    H117760   4.177   1.772   5.091
 5932TIP3    H217761   4.160   1.623   5.116
 5933TIP3   OH217762   0.992   1.870   1.134
 5933TIP3    H117763   0.967   1.788   1.091
 5933TIP3    H217764   1.072   1.848   1.182
 5934TIP3   OH217765   6.950   2.166   3.276
 5934TIP3    H117766   6.916   2.207   3.197
 5934TIP3    H217767   6.872   2.133   3.321
 5935TIP3   OH217768   4.095   3.608   5.097
 5935TIP3    H117769   4.004   3.581   5.106
 5935TIP3    H217770   4.137   3.578   5.178
 5936TIP3   OH217771   3.252   1.893   1.695
 5936TIP3    H117772   3.230   1.978   1.733
 5936TIP3    H217773   3.323   1.911   1.633
 5937TIP3   OH217774   6.129   4.668   5.483
 5937TIP3    H117775   6.165   4.745   5.527
 5937TIP3    H217776   6.082   4.703   5.408
 5938TIP3   OH217777   1.113   0.396   3.038
 5938TIP3    H117778   1.097   0.400   2.944
 5938TIP3    H217779   1.202   0.431   3.048
 5939TIP3   OH217780   2.641   1.336   1.884
 5939TIP3    H117781   2.624   1.397   1.812
 5939TIP3    H217782   2.736   1.328   1.886
 5940TIP3   OH217783   5.156   6.616   0.083
 5940TIP3    H117784   5.238   6.662   0.099
 5940TIP3    H217785   5.133   6.576   0.167
 5941TIP3   OH217786   2.023   5.333   0.557
 5941TIP3    H117787   2.118   5.328   0.549
 5941TIP3    H217788   1.991   5.288   0.478
 5942TIP3   OH217789   5.727   6.758   1.818
 5942TIP3    H117790   5.716   6.760   1.913
 5942TIP3    H217791   5.641   6.733   1.785
 5943TIP3   OH217792   0.071   2.325   1.216
 5943TIP3    H117793   0.010   2.278   1.273
 5943TIP3    H217794   0.150   2.336   1.269
 5944TIP3   OH217795   5.440   4.478   5.274
 5944TIP3    H117796   5.530   4.493   5.245
 5944TIP3    H217797   5.445   4.477   5.370
 5945TIP3   OH217798   6.531   5.936   3.539
 5945TIP3    H117799   6.596   5.901   3.478
 5945TIP3    H217800   6.448   5.929   3.493
 5946TIP3   OH217801   4.777   4.152   5.318
 5946TIP3    H117802   4.814   4.087   5.378
 5946TIP3    H217803   4.828   4.231   5.333
 5947TIP3   OH217804   1.522   4.055   4.229
 5947TIP3    H117805   1.541   3.975   4.180
 5947TIP3    H217806   1.559   4.125   4.175
 5948TIP3   OH217807   1.970   4.723   4.333
 5948TIP3    H117808   1.900   4.785   4.350
 5948TIP3    H217809   2.041   4.749   4.391
 5949TIP3   OH217810   0.671   3.181   0.997
 5949TIP3    H117811   0.622   3.099   0.987
 5949TIP3    H217812   0.646   3.213   1.084
 5950TIP3   OH217813   5.799   6.518   3.561
 5950TIP3    H117814   5.704   6.520   3.552
 5950TIP3    H217815   5.814   6.487   3.651
 5951TIP3   OH217816   3.793   6.545   3.463
 5951TIP3    H117817   3.762   6.469   3.414
 5951TIP3    H217818   3.753   6.535   3.550
 5952TIP3   OH217819   5.325   3.185   4.773
 5952TIP3    H117820   5.234   3.166   4.797
 5952TIP3    H217821   5.360   3.101   4.744
 5953TIP3   OH217822   6.345   2.330   4.345
 5953TIP3    H117823   6.280   2.306   4.279
 5953TIP3    H217824   6.377   2.416   4.317
 5954TIP3   OH217825   5.109   5.844   5.350
 5954TIP3    H117826   5.142   5.929   5.321
 5954TIP3    H217827   5.014   5.852   5.343
 5955TIP3   OH217828   0.764   6.036   0.066
 5955TIP3    H117829   0.793   5.979   0.137
 5955TIP3    H217830   0.778   5.985  -0.014
 5956TIP3   OH217831   3.706   4.743   0.117
 5956TIP3    H117832   3.626   4.796   0.115
 5956TIP3    H217833   3.773   4.803   0.151
 5957TIP3   OH217834   2.995   0.251   5.556
 5957TIP3    H117835   3.084   0.280   5.576
 5957TIP3    H217836   2.996   0.235   5.462
 5958TIP3   OH217837   1.843   1.502   1.416
 5958TIP3    H117838   1.913   1.443   1.445
 5958TIP3    H217839   1.886   1.565   1.359
 5959TIP3   OH217840   7.088   4.947   0.586
 5959TIP3    H117841   7.069   4.991   0.669
 5959TIP3    H217842   7.007   4.900   0.566
 5960TIP3   OH217843   2.324   5.516   3.319
 5960TIP3    H117844   2.245   5.481   3.277
 5960TIP3    H217845   2.309   5.611   3.323
 5961TIP3   OH217846   7.206   0.368   4.001
 5961TIP3    H117847   7.287   0.400   3.962
 5961TIP3    H217848   7.163   0.447   4.035
 5962TIP3   OH217849   5.090   6.372   4.563
 5962TIP3    H117850   4.996   6.384   4.547
 5962TIP3    H217851   5.097   6.285   4.603
 5963TIP3   OH217852   2.210   3.496   1.733
 5963TIP3    H117853   2.254   3.447   1.663
 5963TIP3    H217854   2.255   3.470   1.813
 5964TIP3   OH217855   1.922   1.955   0.763
 5964TIP3    H117856   1.924   1.975   0.670
 5964TIP3    H217857   2.008   1.917   0.782
 5965TIP3   OH217858   3.117   2.624   1.519
 5965TIP3    H117859   3.208   2.652   1.532
 5965TIP3    H217860   3.085   2.681   1.449
 5966TIP3   OH217861   6.034   6.459   2.533
 5966TIP3    H117862   6.043   6.459   2.629
 5966TIP3    H217863   6.107   6.512   2.502
 5967TIP3   OH217864   3.081   3.333   1.202
 5967TIP3    H117865   3.175   3.326   1.219
 5967TIP3    H217866   3.070   3.301   1.112
 5968TIP3   OH217867   3.162   5.516   3.903
 5968TIP3    H117868   3.077   5.502   3.945
 5968TIP3    H217869   3.222   5.459   3.950
 5969TIP3   OH217870   4.480   0.073   3.185
 5969TIP3    H117871   4.530   0.098   3.263
 5969TIP3    H217872   4.466  -0.021   3.195
 5970TIP3   OH217873   5.229   3.173   4.087
 5970TIP3    H117874   5.304   3.177   4.028
 5970TIP3    H217875   5.173   3.104   4.050
 5971TIP3   OH217876   1.411   2.578   4.784
 5971TIP3    H117877   1.484   2.519   4.798
 5971TIP3    H217878   1.401   2.583   4.689
 5972TIP3   OH217879   0.930   1.189   0.366
 5972TIP3    H117880   0.975   1.212   0.448
 5972TIP3    H217881   0.838   1.205   0.385
 5973TIP3   OH217882   4.990   5.629   3.080
 5973TIP3    H117883   5.037   5.569   3.137
 5973TIP3    H217884   4.996   5.590   2.993
 5974TIP3   OH217885   1.172   4.715   4.889
 5974TIP3    H117886   1.232   4.789   4.875
 5974TIP3    H217887   1.086   4.755   4.902
 5975TIP3   OH217888   1.953   1.304   5.671
 5975TIP3    H117889   1.969   1.287   5.764
 5975TIP3    H217890   1.894   1.233   5.644
 5976TIP3   OH217891   3.918   6.045   2.226
 5976TIP3    H117892   3.943   6.025   2.136
 5976TIP3    H217893   3.846   6.108   2.218
 5977TIP3   OH217894   1.956   3.959   0.173
 5977TIP3    H117895   2.002   3.950   0.090
 5977TIP3    H217896   2.002   3.901   0.233
 5978TIP3   OH217897   6.512   1.429   2.365
 5978TIP3    H117898   6.505   1.499   2.301
 5978TIP3    H217899   6.453   1.455   2.436
 5979TIP3   OH217900   0.440   3.038   2.095
 5979TIP3    H117901   0.454   3.001   2.183
 5979TIP3    H217902   0.346   3.056   2.092
 5980TIP3   OH217903   0.304   5.040   4.004
 5980TIP3    H117904   0.266   5.054   4.090
 5980TIP3    H217905   0.369   4.971   4.017
 5981TIP3   OH217906   6.158   5.560   0.127
 5981TIP3    H117907   6.233   5.557   0.187
 5981TIP3    H217908   6.084   5.530   0.180
 5982TIP3   OH217909   5.614   5.196   4.403
 5982TIP3    H117910   5.575   5.111   4.380
 5982TIP3    H217911   5.587   5.210   4.494
 5983TIP3   OH217912   7.061   1.241   0.692
 5983TIP3    H117913   6.966   1.245   0.694
 5983TIP3    H217914   7.085   1.200   0.775
 5984TIP3   OH217915   4.576   2.848   3.029
 5984TIP3    H117916   4.484   2.868   3.049
 5984TIP3    H217917   4.624   2.918   3.072
 5985TIP3   OH217918   4.174   4.113   0.924
 5985TIP3    H117919   4.177   4.126   0.829
 5985TIP3    H217920   4.114   4.039   0.936
 5986TIP3   OH217921   5.145   6.653   4.546
 5986TIP3    H117922   5.101   6.713   4.606
 5986TIP3    H217923   5.117   6.566   4.576
 5987TIP3   OH217924   0.195   5.264   2.891
 5987TIP3    H117925   0.162   5.186   2.936
 5987TIP3    H217926   0.286   5.243   2.870
 5988TIP3   OH217927   0.714   1.158   4.177
 5988TIP3    H117928   0.748   1.210   4.105
 5988TIP3    H217929   0.622   1.181   4.184
 5989TIP3   OH217930   7.083   4.502   4.118
 5989TIP3    H117931   7.147   4.432   4.114
 5989TIP3    H217932   7.008   4.464   4.163
 5990TIP3   OH217933   4.054   4.853   5.540
 5990TIP3    H117934   4.036   4.930   5.486
 5990TIP3    H217935   4.055   4.780   5.478
 5991TIP3   OH217936   5.083   4.470   1.258
 5991TIP3    H117937   5.042   4.522   1.327
 5991TIP3    H217938   5.009   4.427   1.214
 5992TIP3   OH217939   2.913   0.896   5.190
 5992TIP3    H117940   2.980   0.840   5.229
 5992TIP3    H217941   2.871   0.841   5.125
 5993TIP3   OH217942   6.321   5.274   3.974
 5993TIP3    H117943   6.320   5.304   4.065
 5993TIP3    H217944   6.406   5.304   3.940
 5994TIP3   OH217945   3.025   4.990   5.591
 5994TIP3    H117946   3.016   5.060   5.657
 5994TIP3    H217947   3.009   5.034   5.508
 5995TIP3   OH217948   0.339   2.720   3.196
 5995TIP3    H117949   0.257   2.722   3.145
 5995TIP3    H217950   0.319   2.767   3.276
 5996TIP3   OH217951   6.562   3.670   5.587
 5996TIP3    H117952   6.604   3.755   5.600
 5996TIP3    H217953   6.629   3.606   5.611
 5997TIP3   OH217954   5.819   4.342   2.732
 5997TIP3    H117955   5.809   4.325   2.639
 5997TIP3    H217956   5.903   4.388   2.739
 5998TIP3   OH217957   1.629   2.677   1.061
 5998TIP3    H117958   1.689   2.602   1.063
 5998TIP3    H217959   1.570   2.662   1.135
 5999TIP3   OH217960   0.684   0.683   3.970
 5999TIP3    H117961   0.737   0.720   3.899
 5999TIP3    H217962   0.594   0.708   3.948
 6000TIP3   OH217963   6.530   2.335   3.360
 6000TIP3    H117964   6.573   2.420   3.365
 6000TIP3    H217965   6.476   2.339   3.281
 6001TIP3   OH217966   0.967   0.948   4.670
 6001TIP3    H117967   1.060   0.942   4.646
 6001TIP3    H217968   0.967   0.990   4.756
 6002TIP3   OH217969   4.131   3.314   5.014
 6002TIP3    H117970   4.052   3.310   5.067
 6002TIP3    H217971   4.196   3.357   5.069
 6003TIP3   OH217972   5.975   6.552   1.704
 6003TIP3    H117973   5.884   6.523   1.695
 6003TIP3    H217974   5.985   6.571   1.797
 6004TIP3   OH217975   2.749   2.670   0.655
 6004TIP3    H117976   2.762   2.754   0.611
 6004TIP3    H217977   2.755   2.690   0.748
 6005TIP3   OH217978   3.252   5.794   1.196
 6005TIP3    H117979   3.220   5.708   1.222
 6005TIP3    H217980   3.347   5.789   1.207
 6006TIP3   OH217981   5.838  -0.061   0.496
 6006TIP3    H117982   5.836   0.033   0.509
 6006TIP3    H217983   5.774  -0.096   0.557
 6007TIP3   OH217984   5.445   6.284   5.269
 6007TIP3    H117985   5.359   6.316   5.239
 6007TIP3    H217986   5.505   6.356   5.251
 6008TIP3   OH217987   0.986   1.411   5.298
 6008TIP3    H117988   1.040   1.333   5.292
 6008TIP3    H217989   0.924   1.393   5.368
 6009TIP3   OH217990   4.599   3.402   3.612
 6009TIP3    H117991   4.521   3.434   3.567
 6009TIP3    H217992   4.584   3.422   3.704
 6010TIP3   OH217993   3.571   4.045   4.380
 6010TIP3    H117994   3.627   4.066   4.455
 6010TIP3    H217995   3.551   3.952   4.391
 6011TIP3   OH217996   2.761   3.929   3.175
 6011TIP3    H117997   2.812   4.004   3.204
 6011TIP3    H217998   2.747   3.945   3.082
 6012TIP3   OH217999   0.224   5.060   5.154
 6012TIP3    H118000   0.135   5.036   5.181
 6012TIP3    H218001   0.273   4.978   5.158
 6013TIP3   OH218002   1.226   1.982   1.622
 6013TIP3    H118003   1.306   1.936   1.647
 6013TIP3    H218004   1.183   1.924   1.559
 6014TIP3   OH218005   6.995   6.539   4.057
 6014TIP3    H118006   6.965   6.560   3.968
 6014TIP3    H218007   6.916   6.537   4.109
 6015TIP3   OH218008   2.831   2.646   3.796
 6015TIP3    H118009   2.739   2.631   3.776
 6015TIP3    H218010   2.831   2.679   3.886
 6016TIP3   OH218011   6.988   2.401   1.170
 6016TIP3    H118012   7.009   2.310   1.187
 6016TIP3    H218013   6.957   2.402   1.079
 6017TIP3   OH218014   6.063   5.863   2.959
 6017TIP3    H118015   6.091   5.954   2.950
 6017TIP3    H218016   6.131   5.822   3.012
 6018TIP3   OH218017   2.156   6.069   5.728
 6018TIP3    H118018   2.164   6.019   5.810
 6018TIP3    H218019   2.246   6.081   5.699
 6019TIP3   OH218020   6.256   3.863   5.211
 6019TIP3    H118021   6.315   3.887   5.139
 6019TIP3    H218022   6.293   3.781   5.245
 6020TIP3   OH218023   0.841   3.333   4.511
 6020TIP3    H118024   0.896   3.409   4.533
 6020TIP3    H218025   0.753   3.359   4.537
 6021TIP3   OH218026   4.467   0.691   3.487
 6021TIP3    H118027   4.432   0.685   3.576
 6021TIP3    H218028   4.391   0.711   3.433
 6022TIP3   OH218029   3.044   0.563   2.805
 6022TIP3    H118030   3.112   0.504   2.774
 6022TIP3    H218031   3.056   0.567   2.900
 6023TIP3   OH218032   4.881   3.044   1.363
 6023TIP3    H118033   4.840   3.035   1.277
 6023TIP3    H218034   4.816   3.091   1.415
 6024TIP3   OH218035   5.115   3.338   5.697
 6024TIP3    H118036   5.108   3.253   5.655
 6024TIP3    H218037   5.207   3.345   5.725
 6025TIP3   OH218038   2.377   4.126   3.544
 6025TIP3    H118039   2.358   4.094   3.632
 6025TIP3    H218040   2.468   4.101   3.528
 6026TIP3   OH218041   4.854   5.434   0.977
 6026TIP3    H118042   4.771   5.469   1.010
 6026TIP3    H218043   4.868   5.480   0.894
 6027TIP3   OH218044   1.625   3.078   1.611
 6027TIP3    H118045   1.652   3.108   1.698
 6027TIP3    H218046   1.569   3.148   1.578
 6028TIP3   OH218047   1.585   1.435   0.800
 6028TIP3    H118048   1.517   1.495   0.769
 6028TIP3    H218049   1.538   1.354   0.820
 6029TIP3   OH218050   0.035   1.850   3.621
 6029TIP3    H118051  -0.012   1.850   3.704
 6029TIP3    H218052   0.122   1.815   3.642
 6030TIP3   OH218053   3.127   4.694   4.052
 6030TIP3    H118054   3.128   4.636   3.976
 6030TIP3    H218055   3.061   4.655   4.110
 6031TIP3   OH218056   1.048   6.240   4.760
 6031TIP3    H118057   1.129   6.265   4.803
 6031TIP3    H218058   0.979   6.262   4.823
 6032TIP3   OH218059   0.067   3.006   3.823
 6032TIP3    H118060   0.161   3.020   3.827
 6032TIP3    H218061   0.056   2.911   3.829
 6033TIP3   OH218062   4.804   1.844   1.915
 6033TIP3    H118063   4.748   1.921   1.927
 6033TIP3    H218064   4.814   1.808   2.003
 6034TIP3   OH218065   6.277   4.944   0.764
 6034TIP3    H118066   6.282   5.019   0.822
 6034TIP3    H218067   6.323   4.874   0.810
 6035TIP3   OH218068   1.724   6.522   3.980
 6035TIP3    H118069   1.714   6.427   3.977
 6035TIP3    H218070   1.728   6.543   4.074
 6036TIP3   OH218071   0.579   5.396   2.680
 6036TIP3    H118072   0.666   5.426   2.705
 6036TIP3    H218073   0.525   5.413   2.757
 6037TIP3   OH218074   5.929   6.253   3.437
 6037TIP3    H118075   5.884   6.239   3.353
 6037TIP3    H218076   5.962   6.343   3.431
 6038TIP3   OH218077   2.922   2.613   1.699
 6038TIP3    H118078   2.999   2.601   1.644
 6038TIP3    H218079   2.856   2.648   1.639
 6039TIP3   OH218080   4.320   4.001   4.581
 6039TIP3    H118081   4.391   3.994   4.645
 6039TIP3    H218082   4.262   4.069   4.616
 6040TIP3   OH218083   6.424   1.727   3.692
 6040TIP3    H118084   6.495   1.790   3.679
 6040TIP3    H218085   6.443   1.687   3.777
 6041TIP3   OH218086   3.344   4.495   0.848
 6041TIP3    H118087   3.265   4.547   0.867
 6041TIP3    H218088   3.320   4.405   0.872
 6042TIP3   OH218089   5.620   2.454   5.601
 6042TIP3    H118090   5.641   2.547   5.607
 6042TIP3    H218091   5.656   2.416   5.681
 6043TIP3   OH218092   0.270   4.292   5.823
 6043TIP3    H118093   0.222   4.336   5.753
 6043TIP3    H218094   0.205   4.278   5.892
 6044TIP3   OH218095   1.557   1.713   1.397
 6044TIP3    H118096   1.578   1.644   1.335
 6044TIP3    H218097   1.505   1.671   1.465
 6045TIP3   OH218098   2.138   5.778  -0.010
 6045TIP3    H118099   2.162   5.800   0.081
 6045TIP3    H218100   2.222   5.779  -0.057
 6046TIP3   OH218101   3.961   0.780   0.892
 6046TIP3    H118102   3.970   0.687   0.875
 6046TIP3    H218103   4.047   0.817   0.874
 6047TIP3   OH218104   0.187   4.533   2.871
 6047TIP3    H118105   0.207   4.445   2.902
 6047TIP3    H218106   0.142   4.574   2.945
 6048TIP3   OH218107   4.904   2.083   5.821
 6048TIP3    H118108   4.833   2.093   5.885
 6048TIP3    H218109   4.944   2.169   5.815
 6049TIP3   OH218110   3.513   6.256   2.984
 6049TIP3    H118111   3.508   6.342   3.026
 6049TIP3    H218112   3.601   6.251   2.948
 6050TIP3   OH218113   6.777   5.495   1.415
 6050TIP3    H118114   6.820   5.579   1.402
 6050TIP3    H218115   6.822   5.436   1.354
 6051TIP3   OH218116   3.941   0.085   2.115
 6051TIP3    H118117   3.903   0.088   2.203
 6051TIP3    H218118   3.892   0.151   2.066
 6052TIP3   OH218119   5.647   3.685   1.513
 6052TIP3    H118120   5.559   3.650   1.499
 6052TIP3    H218121   5.633   3.770   1.555
 6053TIP3   OH218122   5.329   0.265   3.504
 6053TIP3    H118123   5.311   0.278   3.597
 6053TIP3    H218124   5.347   0.353   3.470
 6054TIP3   OH218125   1.664   6.293   3.558
 6054TIP3    H118126   1.624   6.343   3.629
 6054TIP3    H218127   1.611   6.213   3.552
 6055TIP3   OH218128   2.023   3.649   4.572
 6055TIP3    H118129   2.065   3.565   4.554
 6055TIP3    H218130   2.087   3.697   4.624
 6056TIP3   OH218131   0.712   1.841   1.080
 6056TIP3    H118132   0.678   1.909   1.022
 6056TIP3    H218133   0.802   1.868   1.099
 6057TIP3   OH218134   3.263   0.938   3.931
 6057TIP3    H118135   3.300   1.008   3.878
 6057TIP3    H218136   3.170   0.938   3.911
 6058TIP3   OH218137   3.277   5.349   2.107
 6058TIP3    H118138   3.275   5.421   2.170
 6058TIP3    H218139   3.369   5.321   2.107
 6059TIP3   OH218140   2.481   6.409   4.035
 6059TIP3    H118141   2.465   6.423   4.129
 6059TIP3    H218142   2.554   6.467   4.014
 6060TIP3   OH218143   2.978   3.850   2.868
 6060TIP3    H118144   2.948   3.920   2.810
 6060TIP3    H218145   2.898   3.809   2.901
 6061TIP3   OH218146   3.838   0.970   1.078
 6061TIP3    H118147   3.880   0.907   1.019
 6061TIP3    H218148   3.767   1.008   1.027
 6062TIP3   OH218149   1.253   0.042   1.883
 6062TIP3    H118150   1.242   0.078   1.971
 6062TIP3    H218151   1.165   0.048   1.844
 6063TIP3   OH218152   5.007   0.796   2.794
 6063TIP3    H118153   5.003   0.865   2.859
 6063TIP3    H218154   5.097   0.764   2.799
 6064TIP3   OH218155   0.801   2.734   2.771
 6064TIP3    H118156   0.730   2.795   2.748
 6064TIP3    H218157   0.757   2.662   2.815
 6065TIP3   OH218158   3.885   1.866   2.610
 6065TIP3    H118159   3.917   1.854   2.521
 6065TIP3    H218160   3.895   1.780   2.651
 6066TIP3   OH218161   6.726   6.071   5.225
 6066TIP3    H118162   6.819   6.082   5.206
 6066TIP3    H218163   6.690   6.031   5.146
 6067TIP3   OH218164   1.765   3.554   1.970
 6067TIP3    H118165   1.821   3.515   1.904
 6067TIP3    H218166   1.680   3.564   1.927
 6068TIP3   OH218167   1.935   5.816   0.708
 6068TIP3    H118168   1.851   5.813   0.754
 6068TIP3    H218169   1.957   5.725   0.690
 6069TIP3   OH218170   1.044   0.112   5.757
 6069TIP3    H118171   1.088   0.160   5.827
 6069TIP3    H218172   1.005   0.180   5.702
 6070TIP3   OH218173   1.837   4.823   5.513
 6070TIP3    H118174   1.809   4.864   5.595
 6070TIP3    H218175   1.877   4.893   5.463
 6071TIP3   OH218176   6.317   6.594   2.887
 6071TIP3    H118177   6.361   6.520   2.928
 6071TIP3    H218178   6.238   6.557   2.848
 6072TIP3   OH218179   3.746   6.397   4.951
 6072TIP3    H118180   3.800   6.323   4.925
 6072TIP3    H218181   3.747   6.456   4.876
 6073TIP3   OH218182   5.073   3.641   0.978
 6073TIP3    H118183   5.137   3.705   0.948
 6073TIP3    H218184   5.123   3.578   1.030
 6074TIP3   OH218185   3.778   3.581   2.224
 6074TIP3    H118186   3.804   3.673   2.222
 6074TIP3    H218187   3.841   3.539   2.282
 6075TIP3   OH218188   1.177   6.819   1.592
 6075TIP3    H118189   1.160   6.741   1.539
 6075TIP3    H218190   1.110   6.816   1.660
 6076TIP3   OH218191   5.314   6.138   2.035
 6076TIP3    H118192   5.345   6.064   2.088
 6076TIP3    H218193   5.381   6.150   1.968
 6077TIP3   OH218194   1.461   5.899   3.313
 6077TIP3    H118195   1.382   5.871   3.360
 6077TIP3    H218196   1.502   5.818   3.282
 6078TIP3   OH218197   0.934   5.634   1.030
 6078TIP3    H118198   0.966   5.702   0.971
 6078TIP3    H218199   0.934   5.554   0.978
 6079TIP3   OH218200   3.980   0.040   0.340
 6079TIP3    H118201   3.994  -0.002   0.426
 6079TIP3    H218202   3.924   0.115   0.359
 6080TIP3   OH218203   4.466   1.829   1.489
 6080TIP3    H118204   4.383   1.789   1.517
 6080TIP3    H218205   4.530   1.795   1.551
 6081TIP3   OH218206   5.076   4.913   5.037
 6081TIP3    H118207   5.118   4.861   4.968
 6081TIP3    H218208   5.053   4.848   5.104
 6082TIP3   OH218209   4.061   4.814   0.911
 6082TIP3    H118210   4.070   4.729   0.954
 6082TIP3    H218211   4.031   4.873   0.980
 6083TIP3   OH218212   6.075   1.230   1.559
 6083TIP3    H118213   5.988   1.238   1.522
 6083TIP3    H218214   6.134   1.246   1.485
 6084TIP3   OH218215   2.083   4.958   4.993
 6084TIP3    H118216   2.000   4.997   5.020
 6084TIP3    H218217   2.139   4.965   5.071
 6085TIP3   OH218218   6.467   2.985   1.398
 6085TIP3    H118219   6.527   3.000   1.326
 6085TIP3    H218220   6.382   2.969   1.356
 6086TIP3   OH218221   4.892   4.807   2.285
 6086TIP3    H118222   4.806   4.836   2.316
 6086TIP3    H218223   4.878   4.717   2.254
 6087TIP3   OH218224   0.532   0.485   1.421
 6087TIP3    H118225   0.604   0.492   1.358
 6087TIP3    H218226   0.572   0.445   1.498
 6088TIP3   OH218227   6.373   4.655   0.512
 6088TIP3    H118228   6.419   4.732   0.543
 6088TIP3    H218229   6.366   4.667   0.417
 6089TIP3   OH218230   1.157   0.980   1.883
 6089TIP3    H118231   1.201   0.905   1.923
 6089TIP3    H218232   1.066   0.952   1.874
 6090TIP3   OH218233   6.258   5.972   3.525
 6090TIP3    H118234   6.282   6.065   3.522
 6090TIP3    H218235   6.188   5.963   3.460
 6091TIP3   OH218236   5.509   1.180   3.951
 6091TIP3    H118237   5.423   1.170   3.912
 6091TIP3    H218238   5.565   1.206   3.878
 6092TIP3   OH218239   0.068   1.141   1.809
 6092TIP3    H118240   0.110   1.219   1.843
 6092TIP3    H218241   0.136   1.097   1.758
 6093TIP3   OH218242   6.068   0.886   4.079
 6093TIP3    H118243   6.014   0.811   4.103
 6093TIP3    H218244   6.090   0.928   4.162
 6094TIP3   OH218245   5.283   2.371   0.626
 6094TIP3    H118246   5.285   2.326   0.710
 6094TIP3    H218247   5.350   2.439   0.632
 6095TIP3   OH218248   0.904   5.327   4.956
 6095TIP3    H118249   0.980   5.279   4.923
 6095TIP3    H218250   0.870   5.271   5.026
 6096TIP3   OH218251   1.988   3.015   0.430
 6096TIP3    H118252   2.074   3.053   0.448
 6096TIP3    H218253   1.932   3.091   0.410
 6097TIP3   OH218254   0.994   3.069   3.389
 6097TIP3    H118255   0.968   3.006   3.456
 6097TIP3    H218256   0.919   3.073   3.329
 6098TIP3   OH218257   1.016   1.521   3.286
 6098TIP3    H118258   0.951   1.546   3.352
 6098TIP3    H218259   0.972   1.456   3.231
 6099TIP3   OH218260   0.326   5.948   5.635
 6099TIP3    H118261   0.335   5.856   5.661
 6099TIP3    H218262   0.377   5.955   5.554
 6100TIP3   OH218263   1.415   2.523   2.645
 6100TIP3    H118264   1.479   2.472   2.596
 6100TIP3    H218265   1.413   2.608   2.601
 6101TIP3   OH218266   0.485   0.738   5.031
 6101TIP3    H118267   0.432   0.701   5.102
 6101TIP3    H218268   0.567   0.689   5.034
 6102TIP3   OH218269   6.354   5.472   4.162
 6102TIP3    H118270   6.297   5.549   4.157
 6102TIP3    H218271   6.429   5.501   4.214
 6103TIP3   OH218272   6.669   5.831   2.527
 6103TIP3    H118273   6.748   5.817   2.475
 6103TIP3    H218274   6.667   5.756   2.586
 6104TIP3   OH218275   2.475   0.610   0.750
 6104TIP3    H118276   2.454   0.528   0.796
 6104TIP3    H218277   2.571   0.617   0.756
 6105TIP3   OH218278   4.974   3.029   4.252
 6105TIP3    H118279   5.018   2.945   4.236
 6105TIP3    H218280   4.936   3.053   4.167
 6106TIP3   OH218281   4.657   1.151   2.527
 6106TIP3    H118282   4.715   1.220   2.557
 6106TIP3    H218283   4.653   1.090   2.601
 6107TIP3   OH218284   3.608   3.273   5.399
 6107TIP3    H118285   3.540   3.241   5.458
 6107TIP3    H218286   3.688   3.229   5.427
 6108TIP3   OH218287   6.544   4.846   1.575
 6108TIP3    H118288   6.478   4.915   1.577
 6108TIP3    H218289   6.498   4.770   1.539
 6109TIP3   OH218290   4.370   5.456   2.785
 6109TIP3    H118291   4.413   5.381   2.827
 6109TIP3    H218292   4.424   5.531   2.807
 6110TIP3   OH218293   0.964   4.668   1.799
 6110TIP3    H118294   0.877   4.699   1.822
 6110TIP3    H218295   1.004   4.741   1.752
 6111TIP3   OH218296   1.076   3.755   2.607
 6111TIP3    H118297   1.095   3.666   2.577
 6111TIP3    H218298   1.013   3.789   2.544
 6112TIP3   OH218299   5.318   1.361   5.609
 6112TIP3    H118300   5.255   1.389   5.542
 6112TIP3    H218301   5.320   1.265   5.601
 6113TIP3   OH218302   3.466   0.088   4.762
 6113TIP3    H118303   3.432   0.157   4.706
 6113TIP3    H218304   3.474   0.012   4.705
 6114TIP3   OH218305   2.002   5.290   2.550
 6114TIP3    H118306   1.988   5.326   2.462
 6114TIP3    H218307   2.088   5.322   2.576
 6115TIP3   OH218308   5.013   2.348   5.841
 6115TIP3    H118309   5.045   2.419   5.897
 6115TIP3    H218310   5.093   2.307   5.808
 6116TIP3   OH218311   0.051   2.657   5.371
 6116TIP3    H118312   0.119   2.631   5.308
 6116TIP3    H218313   0.098   2.701   5.441
 6117TIP3   OH218314   6.907   1.930   3.607
 6117TIP3    H118315   6.828   1.982   3.623
 6117TIP3    H218316   6.894   1.850   3.658
 6118TIP3   OH218317   3.333   2.098   4.640
 6118TIP3    H118318   3.378   2.043   4.705
 6118TIP3    H218319   3.351   2.187   4.668
 6119TIP3   OH218320   2.055   6.291   2.437
 6119TIP3    H118321   2.002   6.318   2.362
 6119TIP3    H218322   1.993   6.282   2.509
 6120TIP3   OH218323   0.141   6.552   3.575
 6120TIP3    H118324   0.149   6.456   3.576
 6120TIP3    H218325   0.191   6.579   3.499
 6121TIP3   OH218326   0.441   3.484   2.371
 6121TIP3    H118327   0.406   3.514   2.287
 6121TIP3    H218328   0.485   3.561   2.407
 6122TIP3   OH218329   5.448   0.327   0.953
 6122TIP3    H118330   5.357   0.353   0.942
 6122TIP3    H218331   5.496   0.410   0.961
 6123TIP3   OH218332   4.038   1.365   2.496
 6123TIP3    H118333   4.127   1.341   2.471
 6123TIP3    H218334   3.994   1.282   2.511
 6124TIP3   OH218335   0.927   5.854   0.236
 6124TIP3    H118336   0.877   5.854   0.317
 6124TIP3    H218337   0.996   5.919   0.250
 6125TIP3   OH218338   1.209   2.504   2.842
 6125TIP3    H118339   1.297   2.518   2.806
 6125TIP3    H218340   1.169   2.442   2.781
 6126TIP3   OH218341   0.942   2.706   0.951
 6126TIP3    H118342   1.016   2.763   0.973
 6126TIP3    H218343   0.944   2.637   1.018
 6127TIP3   OH218344   2.108   0.550   2.709
 6127TIP3    H118345   2.117   0.646   2.712
 6127TIP3    H218346   2.114   0.524   2.801
 6128TIP3   OH218347   2.098   2.945   2.184
 6128TIP3    H118348   2.070   2.909   2.100
 6128TIP3    H218349   2.174   2.892   2.209
 6129TIP3   OH218350   4.704   6.242   2.802
 6129TIP3    H118351   4.720   6.159   2.757
 6129TIP3    H218352   4.763   6.304   2.760
 6130TIP3   OH218353   3.905   0.716   5.395
 6130TIP3    H118354   3.937   0.658   5.326
 6130TIP3    H218355   3.925   0.670   5.476
 6131TIP3   OH218356   0.402   6.714   3.619
 6131TIP3    H118357   0.491   6.749   3.612
 6131TIP3    H218358   0.356   6.748   3.542
 6132TIP3   OH218359   6.918   0.233   4.714
 6132TIP3    H118360   6.886   0.243   4.804
 6132TIP3    H218361   6.859   0.169   4.674
 6133TIP3   OH218362   4.096   1.070   1.220
 6133TIP3    H118363   4.006   1.091   1.245
 6133TIP3    H218364   4.108   1.112   1.134
 6134TIP3   OH218365   3.732   1.448   2.515
 6134TIP3    H118366   3.820   1.418   2.539
 6134TIP3    H218367   3.713   1.404   2.433
 6135TIP3   OH218368   1.681   5.028   5.210
 6135TIP3    H118369   1.688   5.104   5.268
 6135TIP3    H218370   1.605   4.980   5.242
 6136TIP3   OH218371   5.620   6.203   4.608
 6136TIP3    H118372   5.648   6.113   4.623
 6136TIP3    H218373   5.527   6.204   4.632
 6137TIP3   OH218374   0.074   4.521   3.557
 6137TIP3    H118375   0.131   4.565   3.494
 6137TIP3    H218376   0.118   4.531   3.641
 6138TIP3   OH218377   2.598   0.989   1.716
 6138TIP3    H118378   2.628   0.898   1.710
 6138TIP3    H218379   2.504   0.982   1.733
 6139TIP3   OH218380   3.154   1.756   1.070
 6139TIP3    H118381   3.116   1.681   1.116
 6139TIP3    H218382   3.177   1.722   0.984
 6140TIP3   OH218383   0.528   2.523   4.754
 6140TIP3    H118384   0.471   2.562   4.688
 6140TIP3    H218385   0.524   2.429   4.736
 6141TIP3   OH218386   6.061   4.440   2.826
 6141TIP3    H118387   6.062   4.514   2.765
 6141TIP3    H218388   6.099   4.476   2.907
 6142TIP3   OH218389   2.690   2.563   3.371
 6142TIP3    H118390   2.729   2.610   3.298
 6142TIP3    H218391   2.604   2.602   3.383
 6143TIP3   OH218392   1.369   2.120   5.255
 6143TIP3    H118393   1.412   2.052   5.204
 6143TIP3    H218394   1.287   2.080   5.284
 6144TIP3   OH218395   2.030   5.944   0.482
 6144TIP3    H118396   1.996   5.901   0.560
 6144TIP3    H218397   2.116   5.904   0.468
 6145TIP3   OH218398   4.792   3.377   4.367
 6145TIP3    H118399   4.831   3.461   4.388
 6145TIP3    H218400   4.800   3.370   4.272
 6146TIP3   OH218401   5.186   6.639   4.264
 6146TIP3    H118402   5.280   6.621   4.265
 6146TIP3    H218403   5.172   6.689   4.345
 6147TIP3   OH218404   6.209   5.355   0.518
 6147TIP3    H118405   6.170   5.442   0.519
 6147TIP3    H218406   6.134   5.296   0.518
 6148TIP3   OH218407   6.115   4.230   3.130
 6148TIP3    H118408   6.086   4.249   3.219
 6148TIP3    H218409   6.194   4.283   3.119
 6149TIP3   OH218410   3.038   0.127   1.289
 6149TIP3    H118411   3.123   0.139   1.332
 6149TIP3    H218412   3.037   0.034   1.265
 6150TIP3   OH218413   3.626   3.068   5.727
 6150TIP3    H118414   3.599   3.159   5.732
 6150TIP3    H218415   3.643   3.043   5.819
 6151TIP3   OH218416   5.926   5.270   4.037
 6151TIP3    H118417   5.996   5.220   4.078
 6151TIP3    H218418   5.966   5.309   3.960
 6152TIP3   OH218419   6.809   6.596   3.552
 6152TIP3    H118420   6.750   6.551   3.612
 6152TIP3    H218421   6.753   6.662   3.510
 6153TIP3   OH218422   4.156   4.561   0.332
 6153TIP3    H118423   4.243   4.571   0.293
 6153TIP3    H218424   4.171   4.555   0.426
 6154TIP3   OH218425   0.663   3.778   4.979
 6154TIP3    H118426   0.601   3.791   5.051
 6154TIP3    H218427   0.657   3.859   4.928
 6155TIP3   OH218428   5.155   4.464   4.836
 6155TIP3    H118429   5.202   4.437   4.915
 6155TIP3    H218430   5.224   4.482   4.773
 6156TIP3   OH218431   6.619   0.984   4.921
 6156TIP3    H118432   6.553   0.961   4.986
 6156TIP3    H218433   6.699   0.997   4.971
 6157TIP3   OH218434   4.992   4.825   0.219
 6157TIP3    H118435   5.037   4.822   0.135
 6157TIP3    H218436   5.026   4.904   0.261
 6158TIP3   OH218437   6.168   4.614   3.954
 6158TIP3    H118438   6.163   4.606   3.859
 6158TIP3    H218439   6.178   4.524   3.986
 6159TIP3   OH218440   4.852   3.488   3.667
 6159TIP3    H118441   4.784   3.448   3.614
 6159TIP3    H218442   4.811   3.567   3.704
 6160TIP3   OH218443   0.366   4.315   5.063
 6160TIP3    H118444   0.340   4.236   5.016
 6160TIP3    H218445   0.454   4.335   5.030
 6161TIP3   OH218446   1.672   6.729   3.134
 6161TIP3    H118447   1.697   6.776   3.214
 6161TIP3    H218448   1.709   6.641   3.146
 6162TIP3   OH218449   6.116   3.026   0.062
 6162TIP3    H118450   6.036   3.028   0.116
 6162TIP3    H218451   6.083   3.015  -0.027
 6163TIP3   OH218452   6.289   3.944   0.636
 6163TIP3    H118453   6.242   4.027   0.636
 6163TIP3    H218454   6.223   3.879   0.660
 6164TIP3   OH218455   5.208   6.701   0.562
 6164TIP3    H118456   5.297   6.692   0.596
 6164TIP3    H218457   5.152   6.667   0.631
 6165TIP3   OH218458   7.064   0.814   3.217
 6165TIP3    H118459   6.975   0.804   3.183
 6165TIP3    H218460   7.070   0.906   3.243
 6166TIP3   OH218461   1.621   4.023   5.003
 6166TIP3    H118462   1.613   4.102   5.057
 6166TIP3    H218463   1.650   4.055   4.917
 6167TIP3   OH218464   0.777   3.171   0.511
 6167TIP3    H118465   0.851   3.194   0.567
 6167TIP3    H218466   0.786   3.227   0.434
 6168TIP3   OH218467   3.904   4.034   0.863
 6168TIP3    H118468   3.891   3.987   0.780
 6168TIP3    H218469   3.896   4.127   0.839
 6169TIP3   OH218470   4.822   5.906   4.488
 6169TIP3    H118471   4.732   5.901   4.521
 6169TIP3    H218472   4.875   5.865   4.556
 6170TIP3   OH218473   5.701   5.511   1.184
 6170TIP3    H118474   5.706   5.603   1.211
 6170TIP3    H218475   5.754   5.465   1.249
 6171TIP3   OH218476   5.931   1.498   0.772
 6171TIP3    H118477   6.020   1.533   0.784
 6171TIP3    H218478   5.874   1.566   0.808
 6172TIP3   OH218479   7.207   1.169   5.543
 6172TIP3    H118480   7.201   1.166   5.639
 6172TIP3    H218481   7.124   1.135   5.512
 6173TIP3   OH218482   0.852   0.235   2.079
 6173TIP3    H118483   0.916   0.289   2.126
 6173TIP3    H218484   0.839   0.159   2.136
 6174TIP3   OH218485   4.863   1.274   1.920
 6174TIP3    H118486   4.835   1.185   1.898
 6174TIP3    H218487   4.864   1.275   2.016
 6175TIP3   OH218488   4.461   1.591   2.399
 6175TIP3    H118489   4.389   1.654   2.405
 6175TIP3    H218490   4.525   1.622   2.463
 6176TIP3   OH218491   4.156   5.514   3.982
 6176TIP3    H118492   4.151   5.603   3.947
 6176TIP3    H218493   4.130   5.523   4.074
 6177TIP3   OH218494   3.470   4.314   1.860
 6177TIP3    H118495   3.447   4.236   1.809
 6177TIP3    H218496   3.506   4.278   1.942
 6178TIP3   OH218497   6.527   2.692   3.229
 6178TIP3    H118498   6.516   2.725   3.318
 6178TIP3    H218499   6.618   2.661   3.227
 6179TIP3   OH218500   5.597   2.195   1.508
 6179TIP3    H118501   5.522   2.140   1.484
 6179TIP3    H218502   5.603   2.187   1.603
 6180TIP3   OH218503   5.545   6.658   5.665
 6180TIP3    H118504   5.587   6.709   5.734
 6180TIP3    H218505   5.452   6.663   5.684
 6181TIP3   OH218506   0.619   0.855   2.093
 6181TIP3    H118507   0.675   0.790   2.051
 6181TIP3    H218508   0.596   0.916   2.023
 6182TIP3   OH218509   4.264   4.813   5.095
 6182TIP3    H118510   4.179   4.782   5.126
 6182TIP3    H218511   4.254   4.820   5.000
 6183TIP3   OH218512   3.996   3.470   4.406
 6183TIP3    H118513   3.970   3.383   4.437
 6183TIP3    H218514   4.065   3.452   4.342
 6184TIP3   OH218515   1.295   4.888   3.408
 6184TIP3    H118516   1.272   4.859   3.496
 6184TIP3    H218517   1.339   4.972   3.421
 6185TIP3   OH218518   3.330   1.660   5.501
 6185TIP3    H118519   3.306   1.718   5.573
 6185TIP3    H218520   3.369   1.719   5.436
 6186TIP3   OH218521   0.390   1.642   4.215
 6186TIP3    H118522   0.452   1.685   4.156
 6186TIP3    H218523   0.306   1.649   4.170
 6187TIP3   OH218524   2.578   1.757   2.203
 6187TIP3    H118525   2.565   1.664   2.223
 6187TIP3    H218526   2.603   1.796   2.287
 6188TIP3   OH218527   2.613   4.989   2.099
 6188TIP3    H118528   2.562   4.909   2.112
 6188TIP3    H218529   2.691   4.961   2.051
 6189TIP3   OH218530   5.510   4.280   4.395
 6189TIP3    H118531   5.497   4.345   4.326
 6189TIP3    H218532   5.500   4.196   4.350
 6190TIP3   OH218533   1.358   3.773   0.860
 6190TIP3    H118534   1.284   3.761   0.920
 6190TIP3    H218535   1.435   3.763   0.916
 6191TIP3   OH218536   2.263   2.035   3.791
 6191TIP3    H118537   2.231   1.983   3.865
 6191TIP3    H218538   2.198   2.021   3.722
 6192TIP3   OH218539   2.601   2.664   1.083
 6192TIP3    H118540   2.628   2.574   1.104
 6192TIP3    H218541   2.543   2.688   1.155
 6193TIP3   OH218542   2.230   5.050   1.510
 6193TIP3    H118543   2.299   4.992   1.541
 6193TIP3    H218544   2.275   5.116   1.458
 6194TIP3   OH218545   6.092   2.386   4.211
 6194TIP3    H118546   6.014   2.431   4.245
 6194TIP3    H218547   6.069   2.366   4.120
 6195TIP3   OH218548   3.973   1.673   0.084
 6195TIP3    H118549   3.880   1.688   0.103
 6195TIP3    H218550   4.013   1.759   0.092
 6196TIP3   OH218551   4.847   2.025   2.870
 6196TIP3    H118552   4.828   2.029   2.963
 6196TIP3    H218553   4.881   2.111   2.848
 6197TIP3   OH218554   1.519   2.006   3.065
 6197TIP3    H118555   1.540   1.944   3.134
 6197TIP3    H218556   1.430   1.981   3.037
 6198TIP3   OH218557   5.687   2.295   1.271
 6198TIP3    H118558   5.671   2.257   1.358
 6198TIP3    H218559   5.642   2.380   1.274
 6199TIP3   OH218560   0.059   6.119   0.715
 6199TIP3    H118561   0.050   6.154   0.803
 6199TIP3    H218562   0.116   6.181   0.670
 6200TIP3   OH218563   4.637   3.082   3.815
 6200TIP3    H118564   4.629   3.025   3.739
 6200TIP3    H218565   4.555   3.131   3.818
 6201TIP3   OH218566   3.621   0.452   5.375
 6201TIP3    H118567   3.660   0.482   5.457
 6201TIP3    H218568   3.579   0.530   5.339
 6202TIP3   OH218569   2.932   4.465   2.345
 6202TIP3    H118570   3.004   4.462   2.407
 6202TIP3    H218571   2.962   4.413   2.270
 6203TIP3   OH218572   5.439   1.381   2.127
 6203TIP3    H118573   5.373   1.316   2.155
 6203TIP3    H218574   5.511   1.328   2.092
 6204TIP3   OH218575   7.139   4.722   1.173
 6204TIP3    H118576   7.079   4.681   1.235
 6204TIP3    H218577   7.186   4.788   1.224
 6205TIP3   OH218578   4.896   0.972   1.952
 6205TIP3    H118579   4.982   0.938   1.929
 6205TIP3    H218580   4.848   0.974   1.869
 6206TIP3   OH218581   1.112   0.430   1.049
 6206TIP3    H118582   1.133   0.446   1.141
 6206TIP3    H218583   1.073   0.513   1.019
 6207TIP3   OH218584   5.592   3.046   3.644
 6207TIP3    H118585   5.686   3.052   3.657
 6207TIP3    H218586   5.573   2.952   3.651
 6208TIP3   OH218587   6.834   1.836   1.520
 6208TIP3    H118588   6.907   1.803   1.468
 6208TIP3    H218589   6.810   1.919   1.479
 6209TIP3   OH218590   5.976   4.228   3.393
 6209TIP3    H118591   5.967   4.253   3.485
 6209TIP3    H218592   5.899   4.176   3.373
 6210TIP3   OH218593   3.707   2.770   1.816
 6210TIP3    H118594   3.757   2.773   1.735
 6210TIP3    H218595   3.702   2.861   1.845
 6211TIP3   OH218596   7.045   5.977   4.613
 6211TIP3    H118597   6.973   5.952   4.670
 6211TIP3    H218598   7.092   5.896   4.596
 6212TIP3   OH218599   5.288   5.484   5.611
 6212TIP3    H118600   5.258   5.498   5.521
 6212TIP3    H218601   5.328   5.397   5.609
 6213TIP3   OH218602   2.821   1.375   4.633
 6213TIP3    H118603   2.876   1.432   4.686
 6213TIP3    H218604   2.830   1.409   4.544
 6214TIP3   OH218605   0.758   1.375   5.493
 6214TIP3    H118606   0.788   1.296   5.537
 6214TIP3    H218607   0.664   1.378   5.510
 6215TIP3   OH218608   5.842   3.996   5.457
 6215TIP3    H118609   5.808   4.009   5.368
 6215TIP3    H218610   5.890   4.077   5.476
 6216TIP3   OH218611   1.783   3.693   4.681
 6216TIP3    H118612   1.804   3.665   4.771
 6216TIP3    H218613   1.868   3.699   4.638
 6217TIP3   OH218614   1.818   5.527   5.430
 6217TIP3    H118615   1.846   5.617   5.447
 6217TIP3    H218616   1.851   5.509   5.342
 6218TIP3   OH218617   2.829   1.113   2.810
 6218TIP3    H118618   2.841   1.088   2.718
 6218TIP3    H218619   2.855   1.034   2.858
 6219TIP3   OH218620   4.106   1.658   4.579
 6219TIP3    H118621   4.154   1.646   4.662
 6219TIP3    H218622   4.169   1.700   4.521
 6220TIP3   OH218623   7.059   3.652   1.466
 6220TIP3    H118624   7.002   3.578   1.485
 6220TIP3    H218625   7.147   3.613   1.463
 6221TIP3   OH218626   0.786   6.147   0.757
 6221TIP3    H118627   0.773   6.237   0.788
 6221TIP3    H218628   0.725   6.095   0.811
 6222TIP3   OH218629   1.079   6.569   3.347
 6222TIP3    H118630   1.080   6.500   3.413
 6222TIP3    H218631   0.993   6.563   3.306
 6223TIP3   OH218632   6.005   6.323   0.092
 6223TIP3    H118633   5.918   6.363   0.092
 6223TIP3    H218634   6.018   6.295   0.183
 6224TIP3   OH218635   3.021   0.562   1.758
 6224TIP3    H118636   2.948   0.505   1.735
 6224TIP3    H218637   3.017   0.633   1.693
 6225TIP3   OH218638   7.031   6.403   5.326
 6225TIP3    H118639   7.069   6.348   5.394
 6225TIP3    H218640   7.105   6.428   5.270
 6226TIP3   OH218641   0.627   2.826   1.488
 6226TIP3    H118642   0.608   2.778   1.408
 6226TIP3    H218643   0.545   2.871   1.508
 6227TIP3   OH218644   4.432   4.527   0.269
 6227TIP3    H118645   4.421   4.472   0.191
 6227TIP3    H218646   4.527   4.532   0.281
 6228TIP3   OH218647   3.218   0.413   2.666
 6228TIP3    H118648   3.264   0.329   2.667
 6228TIP3    H218649   3.139   0.396   2.614
 6229TIP3   OH218650   0.216   1.045   4.573
 6229TIP3    H118651   0.176   0.969   4.530
 6229TIP3    H218652   0.147   1.081   4.628
 6230TIP3   OH218653   3.770   3.283   4.042
 6230TIP3    H118654   3.765   3.240   4.128
 6230TIP3    H218655   3.722   3.225   3.983
 6231TIP3   OH218656   3.986   1.471   1.227
 6231TIP3    H118657   3.908   1.525   1.215
 6231TIP3    H218658   3.957   1.383   1.202
 6232TIP3   OH218659   4.582   0.820   4.651
 6232TIP3    H118660   4.541   0.893   4.604
 6232TIP3    H218661   4.673   0.847   4.663
 6233TIP3   OH218662   3.486   6.067   0.919
 6233TIP3    H118663   3.550   5.999   0.942
 6233TIP3    H218664   3.454   6.040   0.833
 6234TIP3   OH218665   5.870   3.872   5.837
 6234TIP3    H118666   5.853   3.807   5.768
 6234TIP3    H218667   5.947   3.920   5.806
 6235TIP3   OH218668   6.179   2.312   1.562
 6235TIP3    H118669   6.258   2.327   1.509
 6235TIP3    H218670   6.202   2.348   1.648
 6236TIP3   OH218671   0.153   6.148   0.352
 6236TIP3    H118672   0.141   6.054   0.366
 6236TIP3    H218673   0.145   6.186   0.440
 6237TIP3   OH218674   2.996   6.281   2.762
 6237TIP3    H118675   3.079   6.262   2.806
 6237TIP3    H218676   2.929   6.257   2.826
 6238TIP3   OH218677   3.143   4.737   2.113
 6238TIP3    H118678   3.205   4.783   2.056
 6238TIP3    H218679   3.091   4.683   2.054
 6239TIP3   OH218680   3.872   1.121   4.959
 6239TIP3    H118681   3.880   1.080   5.045
 6239TIP3    H218682   3.961   1.149   4.937
 6240TIP3   OH218683   6.629   3.373   1.443
 6240TIP3    H118684   6.597   3.363   1.532
 6240TIP3    H218685   6.564   3.329   1.389
 6241TIP3   OH218686   2.693   6.451   2.941
 6241TIP3    H118687   2.766   6.510   2.925
 6241TIP3    H218688   2.661   6.476   3.028
 6242TIP3   OH218689   6.150   0.392   2.481
 6242TIP3    H118690   6.132   0.415   2.390
 6242TIP3    H218691   6.068   0.353   2.513
 6243TIP3   OH218692   1.887   2.882   0.889
 6243TIP3    H118693   1.965   2.828   0.879
 6243TIP3    H218694   1.917   2.957   0.940
 6244TIP3   OH218695   5.026   6.328   0.463
 6244TIP3    H118696   5.032   6.282   0.547
 6244TIP3    H218697   4.932   6.335   0.446
 6245TIP3   OH218698   4.332   3.690   4.961
 6245TIP3    H118699   4.390   3.740   5.018
 6245TIP3    H218700   4.253   3.676   5.012
 6246TIP3   OH218701   4.326   4.835   1.176
 6246TIP3    H118702   4.323   4.772   1.248
 6246TIP3    H218703   4.327   4.781   1.097
 6247TIP3   OH218704   6.933   6.134   5.529
 6247TIP3    H118705   6.840   6.155   5.531
 6247TIP3    H218706   6.948   6.102   5.440
 6248TIP3   OH218707   6.933   1.485   1.287
 6248TIP3    H118708   6.914   1.409   1.232
 6248TIP3    H218709   6.887   1.558   1.244
 6249TIP3   OH218710   1.217   5.768   0.079
 6249TIP3    H118711   1.168   5.850   0.088
 6249TIP3    H218712   1.206   5.724   0.163
 6250TIP3   OH218713   7.194   5.595   1.002
 6250TIP3    H118714   7.286   5.571   1.017
 6250TIP3    H218715   7.155   5.598   1.089
 6251TIP3   OH218716   3.946   6.516   5.152
 6251TIP3    H118717   3.897   6.494   5.073
 6251TIP3    H218718   3.913   6.456   5.219
 6252TIP3   OH218719   1.570   2.644   5.234
 6252TIP3    H118720   1.647   2.699   5.251
 6252TIP3    H218721   1.600   2.579   5.171
 6253TIP3   OH218722   2.603   6.499   5.768
 6253TIP3    H118723   2.523   6.448   5.777
 6253TIP3    H218724   2.670   6.448   5.814
 6254TIP3   OH218725   3.083   5.780   4.467
 6254TIP3    H118726   3.176   5.759   4.464
 6254TIP3    H218727   3.080   5.876   4.460
 6255TIP3   OH218728   5.900   4.475   4.977
 6255TIP3    H118729   5.914   4.423   4.897
 6255TIP3    H218730   5.889   4.564   4.946
 6256TIP3   OH218731   2.514   2.798   1.685
 6256TIP3    H118732   2.505   2.886   1.649
 6256TIP3    H218733   2.425   2.769   1.700
 6257TIP3   OH218734   2.265   0.794   1.667
 6257TIP3    H118735   2.338   0.800   1.605
 6257TIP3    H218736   2.253   0.700   1.680
 6258TIP3   OH218737   5.050   0.090   3.033
 6258TIP3    H118738   4.979   0.140   2.993
 6258TIP3    H218739   5.066   0.133   3.116
 6259TIP3   OH218740   3.381   3.773   4.482
 6259TIP3    H118741   3.330   3.700   4.519
 6259TIP3    H218742   3.466   3.733   4.460
 6260TIP3   OH218743   0.358   6.676   5.789
 6260TIP3    H118744   0.273   6.654   5.750
 6260TIP3    H218745   0.381   6.761   5.750
 6261TIP3   OH218746   2.965   5.438   2.627
 6261TIP3    H118747   2.963   5.503   2.557
 6261TIP3    H218748   3.027   5.372   2.596
 6262TIP3   OH218749   2.555   5.632   3.085
 6262TIP3    H118750   2.526   5.597   3.001
 6262TIP3    H218751   2.529   5.565   3.149
 6263TIP3   OH218752   0.814  -0.015   5.047
 6263TIP3    H118753   0.832   0.074   5.079
 6263TIP3    H218754   0.890  -0.038   4.996
 6264TIP3   OH218755   6.794   5.629   1.905
 6264TIP3    H118756   6.739   5.706   1.915
 6264TIP3    H218757   6.847   5.627   1.985
 6265TIP3   OH218758   5.048   0.822   0.376
 6265TIP3    H118759   5.106   0.859   0.309
 6265TIP3    H218760   5.107   0.779   0.438
 6266TIP3   OH218761   0.532   5.544   2.475
 6266TIP3    H118762   0.567   5.490   2.546
 6266TIP3    H218763   0.610   5.578   2.430
 6267TIP3   OH218764   1.859   6.473   1.553
 6267TIP3    H118765   1.917   6.530   1.602
 6267TIP3    H218766   1.876   6.385   1.589
 6268TIP3   OH218767   3.255   0.298   5.604
 6268TIP3    H118768   3.333   0.269   5.558
 6268TIP3    H218769   3.283   0.308   5.695
 6269TIP3   OH218770   1.389   2.678   2.196
 6269TIP3    H118771   1.380   2.590   2.233
 6269TIP3    H218772   1.324   2.682   2.126
 6270TIP3   OH218773   1.493   0.125   2.209
 6270TIP3    H118774   1.419   0.065   2.206
 6270TIP3    H218775   1.548   0.099   2.135
 6271TIP3   OH218776   4.920   5.390   2.438
 6271TIP3    H118777   4.933   5.344   2.521
 6271TIP3    H218778   4.995   5.365   2.385
 6272TIP3   OH218779   1.938   4.879   1.827
 6272TIP3    H118780   1.915   4.957   1.879
 6272TIP3    H218781   1.855   4.852   1.788
 6273TIP3   OH218782   1.920   0.249   0.266
 6273TIP3    H118783   1.861   0.247   0.190
 6273TIP3    H218784   1.881   0.186   0.327
 6274TIP3   OH218785   4.676   4.509   5.428
 6274TIP3    H118786   4.754   4.460   5.402
 6274TIP3    H218787   4.605   4.471   5.376
 6275TIP3   OH218788   4.511   5.683   4.064
 6275TIP3    H118789   4.574   5.741   4.021
 6275TIP3    H218790   4.444   5.667   3.998
 6276TIP3   OH218791   2.027   5.014   0.612
 6276TIP3    H118792   2.097   5.046   0.556
 6276TIP3    H218793   1.964   4.974   0.552
 6277TIP3   OH218794   4.129   6.394   4.659
 6277TIP3    H118795   4.110   6.301   4.671
 6277TIP3    H218796   4.110   6.411   4.567
 6278TIP3   OH218797   5.036   1.594   2.455
 6278TIP3    H118798   5.062   1.636   2.373
 6278TIP3    H218799   5.090   1.515   2.460
 6279TIP3   OH218800   3.170   3.265   0.575
 6279TIP3    H118801   3.246   3.262   0.516
 6279TIP3    H218802   3.119   3.340   0.544
 6280TIP3   OH218803   2.417   6.136   5.605
 6280TIP3    H118804   2.427   6.225   5.571
 6280TIP3    H218805   2.497   6.091   5.580
 6281TIP3   OH218806   3.140   0.950   5.006
 6281TIP3    H118807   3.165   0.859   4.990
 6281TIP3    H218808   3.066   0.944   5.066
 6282TIP3   OH218809   1.342   1.138   4.429
 6282TIP3    H118810   1.284   1.166   4.359
 6282TIP3    H218811   1.388   1.217   4.455
 6283TIP3   OH218812   1.094   5.285   2.066
 6283TIP3    H118813   1.070   5.376   2.087
 6283TIP3    H218814   1.089   5.239   2.150
 6284TIP3   OH218815   6.219   3.169   4.163
 6284TIP3    H118816   6.279   3.095   4.150
 6284TIP3    H218817   6.250   3.212   4.242
 6285TIP3   OH218818   4.107   4.850   2.221
 6285TIP3    H118819   4.055   4.774   2.195
 6285TIP3    H218820   4.166   4.817   2.288
 6286TIP3   OH218821   3.185   5.814   0.419
 6286TIP3    H118822   3.163   5.735   0.370
 6286TIP3    H218823   3.251   5.858   0.365
 6287TIP3   OH218824   3.301   0.403   0.260
 6287TIP3    H118825   3.257   0.367   0.183
 6287TIP3    H218826   3.261   0.489   0.273
 6288TIP3   OH218827   6.006   6.220   1.626
 6288TIP3    H118828   5.939   6.228   1.695
 6288TIP3    H218829   6.088   6.240   1.671
 6289TIP3   OH218830   5.553   2.156   3.930
 6289TIP3    H118831   5.628   2.204   3.964
 6289TIP3    H218832   5.544   2.080   3.987
 6290TIP3   OH218833   6.278   0.439   1.665
 6290TIP3    H118834   6.331   0.372   1.707
 6290TIP3    H218835   6.326   0.521   1.679
 6291TIP3   OH218836  -0.005   4.265   4.073
 6291TIP3    H118837   0.031   4.213   4.001
 6291TIP3    H218838   0.051   4.246   4.147
 6292TIP3   OH218839   3.654   2.831   0.458
 6292TIP3    H118840   3.669   2.784   0.376
 6292TIP3    H218841   3.736   2.822   0.506
 6293TIP3   OH218842   4.125   5.390   2.902
 6293TIP3    H118843   4.171   5.336   2.966
 6293TIP3    H218844   4.184   5.394   2.826
 6294TIP3   OH218845   1.587   3.204   2.546
 6294TIP3    H118846   1.594   3.264   2.620
 6294TIP3    H218847   1.619   3.254   2.471
 6295TIP3   OH218848   1.545   6.713   0.619
 6295TIP3    H118849   1.486   6.786   0.599
 6295TIP3    H218850   1.582   6.735   0.704
 6296TIP3   OH218851   4.655   5.656   5.333
 6296TIP3    H118852   4.655   5.566   5.367
 6296TIP3    H218853   4.638   5.646   5.239
 6297TIP3   OH218854   1.779   2.403   4.420
 6297TIP3    H118855   1.856   2.355   4.390
 6297TIP3    H218856   1.725   2.337   4.462
 6298TIP3   OH218857   6.040   3.233   3.397
 6298TIP3    H118858   6.081   3.294   3.336
 6298TIP3    H218859   6.060   3.269   3.484
 6299TIP3   OH218860   5.914   1.986   3.345
 6299TIP3    H118861   5.989   1.950   3.297
 6299TIP3    H218862   5.881   2.056   3.288
 6300TIP3   OH218863   1.416   3.743   5.330
 6300TIP3    H118864   1.395   3.797   5.254
 6300TIP3    H218865   1.502   3.707   5.311
 6301TIP3   OH218866   1.663   3.820   0.906
 6301TIP3    H118867   1.698   3.778   0.985
 6301TIP3    H218868   1.739   3.831   0.849
 6302TIP3   OH218869   2.181   6.462   4.169
 6302TIP3    H118870   2.121   6.396   4.135
 6302TIP3    H218871   2.188   6.527   4.098
 6303TIP3   OH218872   7.192   6.184   1.312
 6303TIP3    H118873   7.137   6.106   1.306
 6303TIP3    H218874   7.133   6.256   1.289
 6304TIP3   OH218875   5.147   4.522   5.788
 6304TIP3    H118876   5.134   4.617   5.790
 6304TIP3    H218877   5.097   4.489   5.862
 6305TIP3   OH218878   2.932   4.508   4.099
 6305TIP3    H118879   2.892   4.444   4.157
 6305TIP3    H218880   2.934   4.465   4.014
 6306TIP3   OH218881   5.736   4.639   5.378
 6306TIP3    H118882   5.730   4.544   5.375
 6306TIP3    H218883   5.765   4.658   5.468
 6307TIP3   OH218884   0.227   2.379   1.819
 6307TIP3    H118885   0.291   2.421   1.763
 6307TIP3    H218886   0.259   2.290   1.830
 6308TIP3   OH218887   5.287   4.932   2.343
 6308TIP3    H118888   5.339   4.994   2.292
 6308TIP3    H218889   5.206   4.979   2.363
 6309TIP3   OH218890   1.932   3.033   1.645
 6309TIP3    H118891   1.890   3.092   1.707
 6309TIP3    H218892   2.022   3.025   1.677
 6310TIP3   OH218893   0.858   5.011   4.772
 6310TIP3    H118894   0.829   4.923   4.796
 6310TIP3    H218895   0.891   5.048   4.854
 6311TIP3   OH218896   2.642   5.379   3.790
 6311TIP3    H118897   2.731   5.414   3.791
 6311TIP3    H218898   2.651   5.290   3.755
 6312TIP3   OH218899   2.235   4.265   2.181
 6312TIP3    H118900   2.163   4.227   2.131
 6312TIP3    H218901   2.245   4.353   2.147
 6313TIP3   OH218902   2.354   0.945   0.796
 6313TIP3    H118903   2.423   0.982   0.851
 6313TIP3    H218904   2.378   0.852   0.787
 6314TIP3   OH218905   6.696   5.579   2.719
 6314TIP3    H118906   6.625   5.521   2.745
 6314TIP3    H218907   6.750   5.589   2.797
 6315TIP3   OH218908   3.261   0.646   1.187
 6315TIP3    H118909   3.270   0.660   1.093
 6315TIP3    H218910   3.187   0.586   1.196
 6316TIP3   OH218911   5.536   3.960   2.968
 6316TIP3    H118912   5.515   3.877   3.012
 6316TIP3    H218913   5.499   4.027   3.025
 6317TIP3   OH218914   0.387   2.120   4.809
 6317TIP3    H118915   0.363   2.211   4.829
 6317TIP3    H218916   0.362   2.108   4.718
 6318TIP3   OH218917   2.507   0.849   0.390
 6318TIP3    H118918   2.592   0.821   0.424
 6318TIP3    H218919   2.523   0.872   0.299
 6319TIP3   OH218920   4.403   1.431   0.662
 6319TIP3    H118921   4.387   1.424   0.756
 6319TIP3    H218922   4.428   1.522   0.648
 6320TIP3   OH218923   3.428   3.531   3.842
 6320TIP3    H118924   3.395   3.486   3.920
 6320TIP3    H218925   3.519   3.502   3.834
 6321TIP3   OH218926   2.181   2.301   1.570
 6321TIP3    H118927   2.149   2.211   1.562
 6321TIP3    H218928   2.223   2.304   1.656
 6322TIP3   OH218929   2.975   1.992   5.878
 6322TIP3    H118930   2.974   1.902   5.910
 6322TIP3    H218931   3.067   2.016   5.875
 6323TIP3   OH218932   6.650   6.469   2.761
 6323TIP3    H118933   6.696   6.474   2.844
 6323TIP3    H218934   6.600   6.388   2.765
 6324TIP3   OH218935   6.894   5.403   5.835
 6324TIP3    H118936   6.909   5.460   5.760
 6324TIP3    H218937   6.962   5.337   5.829
 6325TIP3   OH218938   6.794   6.734   2.055
 6325TIP3    H118939   6.846   6.695   2.125
 6325TIP3    H218940   6.845   6.719   1.975
 6326TIP3   OH218941   6.729   3.848   4.127
 6326TIP3    H118942   6.793   3.814   4.189
 6326TIP3    H218943   6.779   3.867   4.047
 6327TIP3   OH218944   2.096   2.444   4.080
 6327TIP3    H118945   2.137   2.524   4.047
 6327TIP3    H218946   2.072   2.464   4.170
 6328TIP3   OH218947   6.421   3.684   1.741
 6328TIP3    H118948   6.445   3.680   1.648
 6328TIP3    H218949   6.358   3.756   1.747
 6329TIP3   OH218950   6.294   1.202   3.671
 6329TIP3    H118951   6.325   1.130   3.726
 6329TIP3    H218952   6.213   1.230   3.714
 6330TIP3   OH218953   5.884   4.350   3.852
 6330TIP3    H118954   5.860   4.313   3.937
 6330TIP3    H218955   5.823   4.423   3.839
 6331TIP3   OH218956   6.260   1.342   2.005
 6331TIP3    H118957   6.318   1.359   1.931
 6331TIP3    H218958   6.173   1.335   1.965
 6332TIP3   OH218959   3.061   2.446   0.944
 6332TIP3    H118960   3.082   2.537   0.921
 6332TIP3    H218961   3.109   2.394   0.880
 6333TIP3   OH218962   3.426   2.335   4.787
 6333TIP3    H118963   3.448   2.269   4.852
 6333TIP3    H218964   3.342   2.371   4.815
 6334TIP3   OH218965   2.439   0.069   5.558
 6334TIP3    H118966   2.368   0.008   5.538
 6334TIP3    H218967   2.399   0.155   5.549
 6335TIP3   OH218968   3.678   5.626   4.844
 6335TIP3    H118969   3.631   5.547   4.817
 6335TIP3    H218970   3.718   5.659   4.764
 6336TIP3   OH218971   2.023   1.066   1.751
 6336TIP3    H118972   1.952   1.044   1.812
 6336TIP3    H218973   2.076   1.130   1.798
 6337TIP3   OH218974   0.717   4.863   3.979
 6337TIP3    H118975   0.708   4.897   3.889
 6337TIP3    H218976   0.627   4.846   4.007
 6338TIP3   OH218977   3.681   4.849   1.584
 6338TIP3    H118978   3.763   4.879   1.546
 6338TIP3    H218979   3.687   4.871   1.677
 6339TIP3   OH218980   0.795   4.584   0.099
 6339TIP3    H118981   0.800   4.675   0.069
 6339TIP3    H218982   0.796   4.533   0.018
 6340TIP3   OH218983   1.821   1.095   2.237
 6340TIP3    H118984   1.738   1.141   2.242
 6340TIP3    H218985   1.799   1.004   2.256
 6341TIP3   OH218986   4.160   5.997   5.685
 6341TIP3    H118987   4.167   5.940   5.608
 6341TIP3    H218988   4.164   5.938   5.760
 6342TIP3   OH218989   6.300   4.475   5.025
 6342TIP3    H118990   6.258   4.538   4.966
 6342TIP3    H218991   6.382   4.516   5.049
 6343TIP3   OH218992   2.810   1.495   2.333
 6343TIP3    H118993   2.782   1.566   2.390
 6343TIP3    H218994   2.822   1.420   2.391
 6344TIP3   OH218995   0.299   0.419   3.456
 6344TIP3    H118996   0.328   0.374   3.535
 6344TIP3    H218997   0.234   0.361   3.417
 6345TIP3   OH218998   6.452   2.048   4.226
 6345TIP3    H118999   6.458   2.059   4.321
 6345TIP3    H219000   6.358   2.043   4.208
 6346TIP3   OH219001   6.340   4.970   2.616
 6346TIP3    H119002   6.410   4.958   2.552
 6346TIP3    H219003   6.383   4.954   2.701
 6347TIP3   OH219004   0.515   0.602   4.444
 6347TIP3    H119005   0.519   0.547   4.365
 6347TIP3    H219006   0.554   0.685   4.417
 6348TIP3   OH219007   0.141   2.793   2.166
 6348TIP3    H119008   0.143   2.888   2.158
 6348TIP3    H219009   0.084   2.764   2.095
 6349TIP3   OH219010   2.768   0.582   4.029
 6349TIP3    H119011   2.793   0.648   4.094
 6349TIP3    H219012   2.707   0.628   3.971
 6350TIP3   OH219013   6.620   3.615   1.183
 6350TIP3    H119014   6.530   3.627   1.212
 6350TIP3    H219015   6.672   3.666   1.246
 6351TIP3   OH219016   1.657   5.842   2.823
 6351TIP3    H119017   1.728   5.795   2.867
 6351TIP3    H219018   1.660   5.812   2.733
 6352TIP3   OH219019   4.065   1.928   0.111
 6352TIP3    H119020   4.155   1.902   0.128
 6352TIP3    H219021   4.073   1.999   0.047
 6353TIP3   OH219022   3.405   2.711   1.537
 6353TIP3    H119023   3.398   2.788   1.592
 6353TIP3    H219024   3.460   2.650   1.587
 6354TIP3   OH219025   3.138   3.065   5.622
 6354TIP3    H119026   3.053   3.060   5.665
 6354TIP3    H219027   3.134   2.999   5.553
 6355TIP3   OH219028   5.947   5.395   3.599
 6355TIP3    H119029   5.893   5.474   3.597
 6355TIP3    H219030   5.979   5.390   3.689
 6356TIP3   OH219031   0.184   6.682   2.701
 6356TIP3    H119032   0.235   6.721   2.630
 6356TIP3    H219033   0.247   6.667   2.771
 6357TIP3   OH219034   3.305   0.703   3.804
 6357TIP3    H119035   3.341   0.649   3.874
 6357TIP3    H219036   3.308   0.792   3.837
 6358TIP3   OH219037   4.577   4.857   2.390
 6358TIP3    H119038   4.523   4.780   2.407
 6358TIP3    H219039   4.623   4.873   2.472
 6359TIP3   OH219040   7.114   0.470   4.418
 6359TIP3    H119041   7.088   0.559   4.396
 6359TIP3    H219042   7.078   0.456   4.506
 6360TIP3   OH219043   6.532   4.107   1.909
 6360TIP3    H119044   6.531   4.012   1.922
 6360TIP3    H219045   6.463   4.139   1.966
 6361TIP3   OH219046   1.801   4.174   1.142
 6361TIP3    H119047   1.738   4.134   1.201
 6361TIP3    H219048   1.777   4.267   1.139
 6362TIP3   OH219049   5.134   6.546   4.026
 6362TIP3    H119050   5.101   6.624   3.981
 6362TIP3    H219051   5.153   6.576   4.114
 6363TIP3   OH219052   6.285   4.664   2.595
 6363TIP3    H119053   6.289   4.683   2.501
 6363TIP3    H219054   6.372   4.684   2.627
 6364TIP3   OH219055   4.154   2.014   1.766
 6364TIP3    H119056   4.235   1.983   1.725
 6364TIP3    H219057   4.124   2.085   1.709
 6365TIP3   OH219058   5.766   6.770   0.667
 6365TIP3    H119059   5.749   6.836   0.734
 6365TIP3    H219060   5.720   6.801   0.589
 6366TIP3   OH219061   1.105   4.299   0.096
 6366TIP3    H119062   1.089   4.294   0.002
 6366TIP3    H219063   1.200   4.305   0.104
 6367TIP3   OH219064   6.693   4.750   2.919
 6367TIP3    H119065   6.737   4.834   2.908
 6367TIP3    H219066   6.644   4.758   3.001
 6368TIP3   OH219067   0.863   0.456   3.349
 6368TIP3    H119068   0.828   0.402   3.420
 6368TIP3    H219069   0.957   0.439   3.349
 6369TIP3   OH219070   0.538   5.421   3.803
 6369TIP3    H119071   0.608   5.380   3.853
 6369TIP3    H219072   0.553   5.393   3.713
 6370TIP3   OH219073   5.702   3.965   1.080
 6370TIP3    H119074   5.645   3.943   1.154
 6370TIP3    H219075   5.731   4.054   1.098
 6371TIP3   OH219076   5.704   3.295   0.940
 6371TIP3    H119077   5.751   3.373   0.910
 6371TIP3    H219078   5.756   3.222   0.909
 6372TIP3   OH219079   6.131   3.436   4.573
 6372TIP3    H119080   6.055   3.472   4.619
 6372TIP3    H219081   6.108   3.345   4.557
 6373TIP3   OH219082   4.665   5.128   5.775
 6373TIP3    H119083   4.646   5.201   5.834
 6373TIP3    H219084   4.660   5.050   5.831
 6374TIP3   OH219085   6.298   2.829   3.428
 6374TIP3    H119086   6.330   2.920   3.425
 6374TIP3    H219087   6.364   2.782   3.478
 6375TIP3   OH219088   6.528   3.760   3.007
 6375TIP3    H119089   6.615   3.800   3.017
 6375TIP3    H219090   6.522   3.741   2.913
 6376TIP3   OH219091   5.059   2.442   5.362
 6376TIP3    H119092   4.979   2.419   5.314
 6376TIP3    H219093   5.045   2.407   5.450
 6377TIP3   OH219094   4.131   1.669   1.708
 6377TIP3    H119095   4.079   1.607   1.657
 6377TIP3    H219096   4.213   1.678   1.659
 6378TIP3   OH219097   5.201   0.220   2.415
 6378TIP3    H119098   5.151   0.142   2.391
 6378TIP3    H219099   5.292   0.190   2.418
 6379TIP3   OH219100   4.425   4.137   1.359
 6379TIP3    H119101   4.364   4.209   1.340
 6379TIP3    H219102   4.370   4.069   1.398
 6380TIP3   OH219103   5.990   6.846   2.763
 6380TIP3    H119104   6.047   6.858   2.839
 6380TIP3    H219105   5.936   6.771   2.785
 6381TIP3   OH219106   6.502   6.228   2.736
 6381TIP3    H119107   6.406   6.225   2.730
 6381TIP3    H219108   6.524   6.159   2.798
 6382TIP3   OH219109   5.512   5.677   2.976
 6382TIP3    H119110   5.528   5.727   3.056
 6382TIP3    H219111   5.600   5.658   2.942
 6383TIP3   OH219112   6.460   0.450   4.110
 6383TIP3    H119113   6.402   0.448   4.034
 6383TIP3    H219114   6.494   0.360   4.116
 6384TIP3   OH219115   1.643   2.906   2.477
 6384TIP3    H119116   1.732   2.907   2.443
 6384TIP3    H219117   1.623   2.999   2.493
 6385TIP3   OH219118   3.473   0.413   3.343
 6385TIP3    H119119   3.476   0.459   3.427
 6385TIP3    H219120   3.379   0.400   3.326
 6386TIP3   OH219121   5.436   5.858   0.258
 6386TIP3    H119122   5.414   5.939   0.213
 6386TIP3    H219123   5.354   5.831   0.300
 6387TIP3   OH219124   0.511   0.379   2.547
 6387TIP3    H119125   0.500   0.319   2.621
 6387TIP3    H219126   0.569   0.447   2.579
 6388TIP3   OH219127   4.508   1.820   4.098
 6388TIP3    H119128   4.527   1.909   4.068
 6388TIP3    H219129   4.413   1.813   4.094
 6389TIP3   OH219130   6.881   5.049   3.684
 6389TIP3    H119131   6.811   5.111   3.667
 6389TIP3    H219132   6.939   5.094   3.746
 6390TIP3   OH219133   7.162   1.735   5.905
 6390TIP3    H119134   7.094   1.800   5.922
 6390TIP3    H219135   7.206   1.767   5.826
 6391TIP3   OH219136   2.960   3.536   2.263
 6391TIP3    H119137   2.953   3.536   2.358
 6391TIP3    H219138   3.052   3.556   2.246
 6392TIP3   OH219139   3.814   2.036   4.501
 6392TIP3    H119140   3.831   1.987   4.420
 6392TIP3    H219141   3.888   2.013   4.558
 6393TIP3   OH219142   4.017   5.197   4.715
 6393TIP3    H119143   3.939   5.189   4.660
 6393TIP3    H219144   4.090   5.172   4.658
 6394TIP3   OH219145   2.403   5.655   1.181
 6394TIP3    H119146   2.330   5.611   1.137
 6394TIP3    H219147   2.454   5.585   1.221
 6395TIP3   OH219148   0.899   2.977   4.898
 6395TIP3    H119149   0.897   3.068   4.926
 6395TIP3    H219150   0.868   2.928   4.974
 6396TIP3   OH219151   6.772   5.736   3.073
 6396TIP3    H119152   6.827   5.682   3.017
 6396TIP3    H219153   6.758   5.817   3.023
 6397TIP3   OH219154   2.475   4.897   0.405
 6397TIP3    H119155   2.421   4.893   0.484
 6397TIP3    H219156   2.512   4.809   0.398
 6398TIP3   OH219157   4.307   2.154   4.539
 6398TIP3    H119158   4.373   2.089   4.516
 6398TIP3    H219159   4.289   2.139   4.632
 6399TIP3   OH219160   1.859   6.365   4.666
 6399TIP3    H119161   1.935   6.401   4.620
 6399TIP3    H219162   1.883   6.369   4.759
 6400TIP3   OH219163   6.134   6.702   0.724
 6400TIP3    H119164   6.126   6.775   0.663
 6400TIP3    H219165   6.066   6.719   0.790
 6401TIP3   OH219166   4.052   2.417   5.227
 6401TIP3    H119167   4.143   2.402   5.203
 6401TIP3    H219168   4.051   2.412   5.323
 6402TIP3   OH219169   1.368   5.741   1.396
 6402TIP3    H119170   1.403   5.787   1.320
 6402TIP3    H219171   1.319   5.807   1.444
 6403TIP3   OH219172   6.807   4.069   1.893
 6403TIP3    H119173   6.861   4.134   1.939
 6403TIP3    H219174   6.718   4.093   1.916
 6404TIP3   OH219175   6.738   2.772   2.595
 6404TIP3    H119176   6.779   2.702   2.647
 6404TIP3    H219177   6.652   2.737   2.571
 6405TIP3   OH219178   3.285   0.121   2.686
 6405TIP3    H119179   3.199   0.121   2.728
 6405TIP3    H219180   3.266   0.126   2.592
 6406TIP3   OH219181   1.239   0.967   4.621
 6406TIP3    H119182   1.282   0.991   4.703
 6406TIP3    H219183   1.278   1.025   4.555
 6407TIP3   OH219184   4.290   2.362   4.904
 6407TIP3    H119185   4.219   2.381   4.843
 6407TIP3    H219186   4.286   2.268   4.918
 6408TIP3   OH219187   7.020   4.725   5.056
 6408TIP3    H119188   7.097   4.672   5.035
 6408TIP3    H219189   7.022   4.796   4.991
 6409TIP3   OH219190   1.335   1.385   1.181
 6409TIP3    H119191   1.422   1.358   1.208
 6409TIP3    H219192   1.342   1.480   1.169
 6410TIP3   OH219193   3.608   2.849   2.639
 6410TIP3    H119194   3.654   2.835   2.721
 6410TIP3    H219195   3.515   2.848   2.662
 6411TIP3   OH219196   1.409   2.018   3.420
 6411TIP3    H119197   1.455   1.935   3.423
 6411TIP3    H219198   1.335   2.002   3.360
 6412TIP3   OH219199   2.430   0.440   1.914
 6412TIP3    H119200   2.351   0.466   1.868
 6412TIP3    H219201   2.500   0.491   1.874
 6413TIP3   OH219202   3.851   3.871   1.508
 6413TIP3    H119203   3.920   3.806   1.521
 6413TIP3    H219204   3.893   3.955   1.529
 6414TIP3   OH219205   6.081   6.469   3.463
 6414TIP3    H119206   6.036   6.546   3.428
 6414TIP3    H219207   6.069   6.475   3.557
 6415TIP3   OH219208   3.448   2.168   2.783
 6415TIP3    H119209   3.359   2.141   2.761
 6415TIP3    H219210   3.437   2.227   2.858
 6416TIP3   OH219211   2.730   6.261   5.246
 6416TIP3    H119212   2.745   6.171   5.276
 6416TIP3    H219213   2.751   6.316   5.322
 6417TIP3   OH219214   0.772   1.649   4.826
 6417TIP3    H119215   0.766   1.667   4.919
 6417TIP3    H219216   0.694   1.687   4.788
 6418TIP3   OH219217   0.110   0.700   0.357
 6418TIP3    H119218   0.200   0.672   0.375
 6418TIP3    H219219   0.067   0.622   0.323
 6419TIP3   OH219220   1.479   3.325   5.661
 6419TIP3    H119221   1.468   3.418   5.639
 6419TIP3    H219222   1.430   3.279   5.592
 6420TIP3   OH219223   6.228   1.072   5.526
 6420TIP3    H119224   6.236   1.041   5.436
 6420TIP3    H219225   6.134   1.086   5.538
 6421TIP3   OH219226   2.915   0.099   2.156
 6421TIP3    H119227   2.909   0.193   2.173
 6421TIP3    H219228   2.837   0.061   2.196
 6422TIP3   OH219229   3.724   4.649   1.839
 6422TIP3    H119230   3.633   4.640   1.809
 6422TIP3    H219231   3.761   4.561   1.831
 6423TIP3   OH219232   5.636   5.377   0.566
 6423TIP3    H119233   5.646   5.300   0.621
 6423TIP3    H219234   5.547   5.408   0.582
 6424TIP3   OH219235   6.476   2.118   5.641
 6424TIP3    H119236   6.546   2.181   5.627
 6424TIP3    H219237   6.488   2.053   5.572
 6425TIP3   OH219238   6.683   5.685   0.084
 6425TIP3    H119239   6.739   5.740   0.138
 6425TIP3    H219240   6.606   5.739   0.067
 6426TIP3   OH219241   2.916   4.204   5.338
 6426TIP3    H119242   2.943   4.263   5.409
 6426TIP3    H219243   2.995   4.154   5.317
 6427TIP3   OH219244   5.526   1.243   3.651
 6427TIP3    H119245   5.500   1.335   3.645
 6427TIP3    H219246   5.454   1.194   3.612
 6428TIP3   OH219247   2.925   3.309   1.407
 6428TIP3    H119248   2.971   3.307   1.324
 6428TIP3    H219249   2.859   3.239   1.400
 6429TIP3   OH219250   2.741   2.756   3.165
 6429TIP3    H119251   2.771   2.796   3.083
 6429TIP3    H219252   2.650   2.785   3.174
 6430TIP3   OH219253   6.674   1.820   4.407
 6430TIP3    H119254   6.609   1.846   4.474
 6430TIP3    H219255   6.728   1.755   4.451
 6431TIP3   OH219256   6.357   0.373   3.585
 6431TIP3    H119257   6.423   0.358   3.652
 6431TIP3    H219258   6.404   0.417   3.514
 6432TIP3   OH219259   4.353   1.617   5.399
 6432TIP3    H119260   4.362   1.696   5.453
 6432TIP3    H219261   4.286   1.565   5.444
 6433TIP3   OH219262   2.407   1.767   0.585
 6433TIP3    H119263   2.473   1.722   0.638
 6433TIP3    H219264   2.450   1.848   0.557
 6434TIP3   OH219265   6.568   0.069   0.515
 6434TIP3    H119266   6.561   0.127   0.439
 6434TIP3    H219267   6.617  -0.007   0.482
 6435TIP3   OH219268   2.726   3.102   1.317
 6435TIP3    H119269   2.673   3.026   1.343
 6435TIP3    H219270   2.723   3.101   1.221
 6436TIP3   OH219271   2.624   6.446   4.495
 6436TIP3    H119272   2.541   6.450   4.448
 6436TIP3    H219273   2.599   6.453   4.587
 6437TIP3   OH219274   6.719   5.400   0.778
 6437TIP3    H119275   6.665   5.471   0.814
 6437TIP3    H219276   6.765   5.440   0.704
 6438TIP3   OH219277   6.413   5.187   0.405
 6438TIP3    H119278   6.343   5.131   0.440
 6438TIP3    H219279   6.395   5.274   0.442
 6439TIP3   OH219280   1.326   1.482   5.414
 6439TIP3    H119281   1.367   1.430   5.344
 6439TIP3    H219282   1.398   1.503   5.473
 6440TIP3   OH219283   3.735   1.744   1.470
 6440TIP3    H119284   3.830   1.753   1.466
 6440TIP3    H219285   3.706   1.814   1.527
 6441TIP3   OH219286   6.806   0.264   4.957
 6441TIP3    H119287   6.716   0.256   4.926
 6441TIP3    H219288   6.798   0.270   5.052
 6442TIP3   OH219289   0.140   2.331   0.468
 6442TIP3    H119290   0.065   2.377   0.507
 6442TIP3    H219291   0.216   2.385   0.490
 6443TIP3   OH219292   1.205   4.538   2.382
 6443TIP3    H119293   1.287   4.585   2.367
 6443TIP3    H219294   1.136   4.597   2.351
 6444TIP3   OH219295   6.986   4.035   2.660
 6444TIP3    H119296   6.957   3.969   2.596
 6444TIP3    H219297   6.911   4.044   2.719
 6445TIP3   OH219298   1.166   3.867   0.028
 6445TIP3    H119299   1.107   3.801  -0.008
 6445TIP3    H219300   1.234   3.879  -0.039
 6446TIP3   OH219301   7.104   3.818   0.410
 6446TIP3    H119302   7.058   3.782   0.335
 6446TIP3    H219303   7.043   3.809   0.483
 6447TIP3   OH219304   0.959   2.375   0.137
 6447TIP3    H119305   0.893   2.312   0.108
 6447TIP3    H219306   0.919   2.461   0.122
 6448TIP3   OH219307   4.365   0.735   5.766
 6448TIP3    H119308   4.275   0.703   5.767
 6448TIP3    H219309   4.360   0.820   5.724
 6449TIP3   OH219310   5.287   2.858   0.339
 6449TIP3    H119311   5.235   2.778   0.349
 6449TIP3    H219312   5.350   2.836   0.269
 6450TIP3   OH219313   0.836   2.457   2.074
 6450TIP3    H119314   0.813   2.489   2.161
 6450TIP3    H219315   0.919   2.501   2.053
 6451TIP3   OH219316   3.180   6.192   1.151
 6451TIP3    H119317   3.197   6.286   1.141
 6451TIP3    H219318   3.146   6.164   1.066
 6452TIP3   OH219319   2.044   5.787   3.609
 6452TIP3    H119320   2.031   5.692   3.605
 6452TIP3    H219321   2.137   5.798   3.628
 6453TIP3   OH219322   3.431   6.759   3.010
 6453TIP3    H119323   3.524   6.779   3.020
 6453TIP3    H219324   3.424   6.715   2.925
 6454TIP3   OH219325   4.607   4.412   1.813
 6454TIP3    H119326   4.626   4.428   1.905
 6454TIP3    H219327   4.630   4.494   1.769
 6455TIP3   OH219328   5.901   6.664   0.425
 6455TIP3    H119329   5.874   6.720   0.497
 6455TIP3    H219330   5.872   6.576   0.450
 6456TIP3   OH219331   3.844   0.455   1.716
 6456TIP3    H119332   3.831   0.544   1.681
 6456TIP3    H219333   3.926   0.426   1.677
 6457TIP3   OH219334   1.847   5.212   3.158
 6457TIP3    H119335   1.935   5.217   3.196
 6457TIP3    H219336   1.788   5.224   3.232
 6458TIP3   OH219337   0.829   0.256   1.337
 6458TIP3    H119338   0.834   0.345   1.372
 6458TIP3    H219339   0.739   0.246   1.306
 6459TIP3   OH219340   4.711   3.334   1.682
 6459TIP3    H119341   4.639   3.279   1.715
 6459TIP3    H219342   4.742   3.381   1.759
 6460TIP3   OH219343   5.475   2.685   4.730
 6460TIP3    H119344   5.406   2.627   4.763
 6460TIP3    H219345   5.507   2.642   4.651
 6461TIP3   OH219346   1.149   1.706   5.381
 6461TIP3    H119347   1.226   1.649   5.381
 6461TIP3    H219348   1.075   1.646   5.389
 6462TIP3   OH219349   1.305   4.882   1.253
 6462TIP3    H119350   1.385   4.908   1.299
 6462TIP3    H219351   1.305   4.935   1.174
 6463TIP3   OH219352   6.239   3.081   4.830
 6463TIP3    H119353   6.155   3.099   4.787
 6463TIP3    H219354   6.221   3.009   4.889
 6464TIP3   OH219355   5.077   5.492   5.801
 6464TIP3    H119356   5.073   5.408   5.848
 6464TIP3    H219357   5.161   5.489   5.755
 6465TIP3   OH219358   0.734   5.707   3.145
 6465TIP3    H119359   0.735   5.677   3.236
 6465TIP3    H219360   0.789   5.644   3.099
 6466TIP3   OH219361   0.788   3.590   0.537
 6466TIP3    H119362   0.778   3.501   0.504
 6466TIP3    H219363   0.840   3.635   0.470
 6467TIP3   OH219364   5.913   3.488   4.733
 6467TIP3    H119365   5.940   3.501   4.824
 6467TIP3    H219366   5.832   3.438   4.739
 6468TIP3   OH219367   5.689   0.569   4.520
 6468TIP3    H119368   5.725   0.574   4.432
 6468TIP3    H219369   5.722   0.487   4.556
 6469TIP3   OH219370   1.125   5.080   1.899
 6469TIP3    H119371   1.034   5.094   1.872
 6469TIP3    H219372   1.140   5.146   1.967
 6470TIP3   OH219373   4.817   1.442   2.405
 6470TIP3    H119374   4.749   1.434   2.473
 6470TIP3    H219375   4.888   1.490   2.448
 6471TIP3   OH219376   1.103   4.871   0.966
 6471TIP3    H119377   1.070   4.845   0.880
 6471TIP3    H219378   1.134   4.790   1.006
 6472TIP3   OH219379   0.673   6.380   1.379
 6472TIP3    H119380   0.609   6.311   1.360
 6472TIP3    H219381   0.717   6.351   1.459
 6473TIP3   OH219382   4.355   2.064   1.398
 6473TIP3    H119383   4.434   2.013   1.410
 6473TIP3    H219384   4.285   2.000   1.387
 6474TIP3   OH219385   2.092   3.697   1.570
 6474TIP3    H119386   2.107   3.608   1.604
 6474TIP3    H219387   2.004   3.719   1.600
 6475TIP3   OH219388   3.613   4.953   1.853
 6475TIP3    H119389   3.557   4.881   1.879
 6475TIP3    H219390   3.570   5.031   1.888
 6476TIP3   OH219391   1.513   1.091   0.146
 6476TIP3    H119392   1.426   1.057   0.122
 6476TIP3    H219393   1.503   1.186   0.142
 6477TIP3   OH219394   5.337   1.831   1.862
 6477TIP3    H119395   5.243   1.828   1.842
 6477TIP3    H219396   5.344   1.786   1.946
 6478TIP3   OH219397   2.950   6.422   5.820
 6478TIP3    H119398   3.019   6.372   5.864
 6478TIP3    H219399   2.987   6.444   5.735
 6479TIP3   OH219400   0.040   1.852   5.635
 6479TIP3    H119401   0.081   1.802   5.564
 6479TIP3    H219402  -0.024   1.908   5.590
 6480TIP3   OH219403   2.010   5.073   5.592
 6480TIP3    H119404   1.994   5.164   5.618
 6480TIP3    H219405   2.038   5.029   5.672
 6481TIP3   OH219406   5.325   5.811   3.510
 6481TIP3    H119407   5.302   5.826   3.601
 6481TIP3    H219408   5.417   5.783   3.512
 6482TIP3   OH219409   4.681   3.741   1.774
 6482TIP3    H119410   4.614   3.788   1.725
 6482TIP3    H219411   4.764   3.782   1.749
 6483TIP3   OH219412   5.026   1.241   2.642
 6483TIP3    H119413   4.945   1.202   2.677
 6483TIP3    H219414   5.034   1.324   2.690
 6484TIP3   OH219415   0.450   5.935   3.102
 6484TIP3    H119416   0.453   5.939   3.006
 6484TIP3    H219417   0.539   5.910   3.127
 6485TIP3   OH219418   2.094   0.382   2.954
 6485TIP3    H119419   2.132   0.294   2.950
 6485TIP3    H219420   2.132   0.422   3.032
 6486TIP3   OH219421   1.450   0.284   3.438
 6486TIP3    H119422   1.443   0.197   3.479
 6486TIP3    H219423   1.471   0.343   3.510
 6487TIP3   OH219424   4.056   2.807   5.316
 6487TIP3    H119425   3.995   2.832   5.246
 6487TIP3    H219426   4.128   2.763   5.271
 6488TIP3   OH219427   0.995   6.521   0.844
 6488TIP3    H119428   1.008   6.447   0.784
 6488TIP3    H219429   0.908   6.507   0.882
 6489TIP3   OH219430   5.131   5.838   2.070
 6489TIP3    H119431   5.123   5.876   2.158
 6489TIP3    H219432   5.043   5.843   2.034
 6490TIP3   OH219433   2.330   0.786   2.409
 6490TIP3    H119434   2.299   0.791   2.319
 6490TIP3    H219435   2.342   0.692   2.424
 6491TIP3   OH219436   5.080   0.454   3.242
 6491TIP3    H119437   5.163   0.449   3.194
 6491TIP3    H219438   5.014   0.448   3.173
 6492TIP3   OH219439   6.281   6.189   4.425
 6492TIP3    H119440   6.273   6.151   4.513
 6492TIP3    H219441   6.336   6.266   4.438
 6493TIP3   OH219442   5.153   0.256   1.151
 6493TIP3    H119443   5.164   0.296   1.238
 6493TIP3    H219444   5.232   0.202   1.140
 6494TIP3   OH219445   4.730   6.724   3.015
 6494TIP3    H119446   4.799   6.692   2.956
 6494TIP3    H219447   4.663   6.760   2.956
 6495TIP3   OH219448   6.387   2.580   4.532
 6495TIP3    H119449   6.302   2.537   4.532
 6495TIP3    H219450   6.367   2.672   4.517
 6496TIP3   OH219451   0.301   3.909   3.879
 6496TIP3    H119452   0.369   3.913   3.947
 6496TIP3    H219453   0.348   3.882   3.800
 6497TIP3   OH219454   6.807   2.021   3.927
 6497TIP3    H119455   6.826   2.018   4.021
 6497TIP3    H219456   6.712   2.031   3.922
 6498TIP3   OH219457   2.313   4.503   2.062
 6498TIP3    H119458   2.255   4.569   2.100
 6498TIP3    H219459   2.370   4.552   2.002
 6499TIP3   OH219460   3.691   5.877   4.939
 6499TIP3    H119461   3.682   5.783   4.952
 6499TIP3    H219462   3.704   5.913   5.027
 6500TIP3   OH219463   3.342   5.702   4.556
 6500TIP3    H119464   3.339   5.676   4.648
 6500TIP3    H219465   3.406   5.773   4.553
 6501TIP3   OH219466   5.120   5.291   4.298
 6501TIP3    H119467   5.103   5.298   4.392
 6501TIP3    H219468   5.193   5.229   4.292
 6502TIP3   OH219469   0.546   4.757   3.059
 6502TIP3    H119470   0.531   4.689   2.993
 6502TIP3    H219471   0.471   4.816   3.050
 6503TIP3   OH219472   4.344   1.327   1.745
 6503TIP3    H119473   4.412   1.387   1.775
 6503TIP3    H219474   4.318   1.361   1.660
 6504TIP3   OH219475   2.453   1.397   3.398
 6504TIP3    H119476   2.476   1.440   3.481
 6504TIP3    H219477   2.483   1.459   3.331
 6505TIP3   OH219478   2.739   1.841   1.502
 6505TIP3    H119479   2.745   1.839   1.406
 6505TIP3    H219480   2.666   1.899   1.520
 6506TIP3   OH219481   3.737   5.980   1.043
 6506TIP3    H119482   3.751   6.038   1.118
 6506TIP3    H219483   3.776   5.896   1.070
 6507TIP3   OH219484   2.703   1.678   1.853
 6507TIP3    H119485   2.708   1.634   1.938
 6507TIP3    H219486   2.688   1.607   1.790
 6508TIP3   OH219487   6.194   1.161   5.016
 6508TIP3    H119488   6.165   1.069   5.013
 6508TIP3    H219489   6.210   1.184   4.925
 6509TIP3   OH219490   2.365   0.249   3.911
 6509TIP3    H119491   2.447   0.285   3.946
 6509TIP3    H219492   2.301   0.266   3.980
 6510TIP3   OH219493   3.131   3.382   1.571
 6510TIP3    H119494   3.049   3.387   1.523
 6510TIP3    H219495   3.165   3.295   1.552
 6511TIP3   OH219496   3.293   4.946   5.648
 6511TIP3    H119497   3.198   4.934   5.639
 6511TIP3    H219498   3.313   4.915   5.736
 6512TIP3   OH219499   4.495   3.253   3.078
 6512TIP3    H119500   4.407   3.238   3.043
 6512TIP3    H219501   4.538   3.306   3.011
 6513TIP3   OH219502   3.119   0.190   3.115
 6513TIP3    H119503   3.057   0.242   3.167
 6513TIP3    H219504   3.163   0.134   3.178
 6514TIP3   OH219505   4.346   6.700   0.256
 6514TIP3    H119506   4.300   6.783   0.242
 6514TIP3    H219507   4.284   6.633   0.226
 6515TIP3   OH219508   0.975   4.485   2.831
 6515TIP3    H119509   0.953   4.497   2.924
 6515TIP3    H219510   0.948   4.396   2.811
 6516TIP3   OH219511   1.946   1.665   1.202
 6516TIP3    H119512   1.983   1.739   1.250
 6516TIP3    H219513   1.893   1.705   1.133
 6517TIP3   OH219514   4.877   2.818   4.494
 6517TIP3    H119515   4.837   2.769   4.566
 6517TIP3    H219516   4.956   2.856   4.533
 6518TIP3   OH219517   4.242   1.492   1.306
 6518TIP3    H119518   4.273   1.523   1.221
 6518TIP3    H219519   4.153   1.461   1.289
 6519TIP3   OH219520   0.922   0.203   0.833
 6519TIP3    H119521   0.832   0.197   0.801
 6519TIP3    H219522   0.916   0.254   0.914
 6520TIP3   OH219523   5.824   1.258   3.490
 6520TIP3    H119524   5.780   1.342   3.508
 6520TIP3    H219525   5.768   1.193   3.531
 6521TIP3   OH219526   4.764   0.068   3.603
 6521TIP3    H119527   4.753  -0.020   3.638
 6521TIP3    H219528   4.840   0.062   3.545
 6522TIP3   OH219529   0.550   5.622   5.184
 6522TIP3    H119530   0.511   5.625   5.271
 6522TIP3    H219531   0.617   5.554   5.190
 6523TIP3   OH219532   4.291   2.577   0.735
 6523TIP3    H119533   4.375   2.613   0.706
 6523TIP3    H219534   4.289   2.595   0.829
 6524TIP3   OH219535   7.230   5.685   4.102
 6524TIP3    H119536   7.309   5.632   4.099
 6524TIP3    H219537   7.159   5.624   4.081
 6525TIP3   OH219538   6.975   2.671   3.725
 6525TIP3    H119539   6.963   2.577   3.729
 6525TIP3    H219540   6.906   2.707   3.781
 6526TIP3   OH219541   6.276   0.782   4.307
 6526TIP3    H119542   6.349   0.734   4.348
 6526TIP3    H219543   6.215   0.713   4.280
 6527TIP3   OH219544   4.863   6.761   5.003
 6527TIP3    H119545   4.881   6.686   5.059
 6527TIP3    H219546   4.849   6.834   5.064
 6528TIP3   OH219547   2.774   5.792   4.714
 6528TIP3    H119548   2.834   5.722   4.689
 6528TIP3    H219549   2.744   5.829   4.630
 6529TIP3   OH219550   1.196   3.391   3.453
 6529TIP3    H119551   1.204   3.393   3.549
 6529TIP3    H219552   1.199   3.483   3.428
 6530TIP3   OH219553   1.778   0.609   4.172
 6530TIP3    H119554   1.700   0.554   4.164
 6530TIP3    H219555   1.850   0.552   4.146
 6531TIP3   OH219556   1.088   4.828   3.872
 6531TIP3    H119557   1.076   4.783   3.789
 6531TIP3    H219558   1.002   4.824   3.915
 6532TIP3   OH219559   0.914   0.993   0.880
 6532TIP3    H119560   0.995   0.944   0.889
 6532TIP3    H219561   0.881   1.002   0.970
 6533TIP3   OH219562   0.451   4.235   0.662
 6533TIP3    H119563   0.382   4.169   0.653
 6533TIP3    H219564   0.436   4.272   0.750
 6534TIP3   OH219565   1.593   4.874   0.179
 6534TIP3    H119566   1.545   4.810   0.232
 6534TIP3    H219567   1.659   4.910   0.238
 6535TIP3   OH219568   2.650   3.352   3.162
 6535TIP3    H119569   2.640   3.283   3.228
 6535TIP3    H219570   2.737   3.389   3.179
 6536TIP3   OH219571   3.090   0.777   5.388
 6536TIP3    H119572   3.111   0.697   5.339
 6536TIP3    H219573   3.078   0.747   5.478
 6537TIP3   OH219574   5.412   1.405   4.079
 6537TIP3    H119575   5.350   1.358   4.136
 6537TIP3    H219576   5.452   1.336   4.026
 6538TIP3   OH219577   7.085   1.021   1.662
 6538TIP3    H119578   7.140   1.063   1.728
 6538TIP3    H219579   7.112   0.929   1.664
 6539TIP3   OH219580   1.150   5.382   5.841
 6539TIP3    H119581   1.204   5.332   5.780
 6539TIP3    H219582   1.079   5.322   5.865
 6540TIP3   OH219583   4.057   0.015   3.675
 6540TIP3    H119584   4.041   0.060   3.758
 6540TIP3    H219585   3.971   0.008   3.634
 6541TIP3   OH219586   0.610   6.158   2.932
 6541TIP3    H119587   0.642   6.091   2.993
 6541TIP3    H219588   0.548   6.112   2.876
 6542TIP3   OH219589   1.822   3.134   1.395
 6542TIP3    H119590   1.886   3.094   1.454
 6542TIP3    H219591   1.738   3.114   1.434
 6543TIP3   OH219592   3.155   1.912   2.101
 6543TIP3    H119593   3.109   1.888   2.181
 6543TIP3    H219594   3.123   1.850   2.035
 6544TIP3   OH219595   0.422   3.325   5.331
 6544TIP3    H119596   0.341   3.298   5.374
 6544TIP3    H219597   0.456   3.244   5.292
 6545TIP3   OH219598   1.578   3.536   1.288
 6545TIP3    H119599   1.569   3.482   1.210
 6545TIP3    H219600   1.500   3.514   1.341
 6546TIP3   OH219601   6.911   4.063   1.650
 6546TIP3    H119602   6.879   4.047   1.739
 6546TIP3    H219603   7.002   4.035   1.651
 6547TIP3   OH219604   5.700   4.235   4.598
 6547TIP3    H119605   5.651   4.248   4.679
 6547TIP3    H219606   5.638   4.259   4.528
 6548TIP3   OH219607   1.111   6.193   2.125
 6548TIP3    H119608   1.106   6.289   2.118
 6548TIP3    H219609   1.020   6.164   2.120
 6549TIP3   OH219610   4.548   6.151   5.246
 6549TIP3    H119611   4.458   6.181   5.263
 6549TIP3    H219612   4.578   6.118   5.330
 6550TIP3   OH219613   4.390   3.157   3.941
 6550TIP3    H119614   4.453   3.161   4.013
 6550TIP3    H219615   4.345   3.241   3.943
 6551TIP3   OH219616   0.263   6.024   1.088
 6551TIP3    H119617   0.290   5.965   1.158
 6551TIP3    H219618   0.301   5.986   1.008
 6552TIP3   OH219619   0.876   0.998   3.033
 6552TIP3    H119620   0.905   0.930   2.973
 6552TIP3    H219621   0.954   1.021   3.083
 6553TIP3   OH219622   7.046   5.651   0.067
 6553TIP3    H119623   6.978   5.666   0.133
 6553TIP3    H219624   6.998   5.619  -0.009
 6554TIP3   OH219625   5.684   3.220   5.750
 6554TIP3    H119626   5.646   3.216   5.838
 6554TIP3    H219627   5.754   3.284   5.758
 6555TIP3   OH219628   4.638   3.646   1.407
 6555TIP3    H119629   4.648   3.570   1.350
 6555TIP3    H219630   4.608   3.715   1.349
 6556TIP3   OH219631   5.913   5.273   5.458
 6556TIP3    H119632   5.911   5.366   5.437
 6556TIP3    H219633   6.005   5.255   5.478
 6557TIP3   OH219634   2.784   0.709   5.042
 6557TIP3    H119635   2.766   0.775   4.974
 6557TIP3    H219636   2.798   0.628   4.993
 6558TIP3   OH219637   2.430   0.929   1.466
 6558TIP3    H119638   2.429   0.962   1.377
 6558TIP3    H219639   2.514   0.883   1.474
 6559TIP3   OH219640   1.953   1.904   3.289
 6559TIP3    H119641   1.962   1.870   3.200
 6559TIP3    H219642   1.883   1.969   3.283
 6560TIP3   OH219643   1.327   3.241   1.252
 6560TIP3    H119644   1.243   3.211   1.216
 6560TIP3    H219645   1.383   3.164   1.251
 6561TIP3   OH219646   2.029   5.665   2.130
 6561TIP3    H119647   2.030   5.755   2.098
 6561TIP3    H219648   2.086   5.666   2.206
 6562TIP3   OH219649   3.133   0.525   3.082
 6562TIP3    H119650   3.219   0.566   3.066
 6562TIP3    H219651   3.152   0.431   3.085
 6563TIP3   OH219652   3.412   0.603   5.298
 6563TIP3    H119653   3.414   0.681   5.243
 6563TIP3    H219654   3.349   0.545   5.254
 6564TIP3   OH219655   5.918   3.467   4.392
 6564TIP3    H119656   6.012   3.449   4.398
 6564TIP3    H219657   5.909   3.556   4.426
 6565TIP3   OH219658   3.348   0.472   0.725
 6565TIP3    H119659   3.261   0.478   0.685
 6565TIP3    H219660   3.400   0.537   0.679
 6566TIP3   OH219661   2.699   1.157   4.130
 6566TIP3    H119662   2.754   1.140   4.054
 6566TIP3    H219663   2.662   1.071   4.153
 6567TIP3   OH219664   0.334   0.065   1.673
 6567TIP3    H119665   0.373  -0.018   1.701
 6567TIP3    H219666   0.249   0.042   1.637
 6568TIP3   OH219667   2.358   1.723   2.000
 6568TIP3    H119668   2.276   1.691   2.040
 6568TIP3    H219669   2.419   1.730   2.074
 6569TIP3   OH219670   3.691   0.883   3.076
 6569TIP3    H119671   3.727   0.937   3.147
 6569TIP3    H219672   3.723   0.925   2.996
 6570TIP3   OH219673   4.015   6.562   0.475
 6570TIP3    H119674   3.962   6.488   0.503
 6570TIP3    H219675   4.032   6.611   0.555
 6571TIP3   OH219676   1.385   6.022   4.322
 6571TIP3    H119677   1.354   6.049   4.409
 6571TIP3    H219678   1.481   6.026   4.329
 6572TIP3   OH219679   2.325   5.891   2.353
 6572TIP3    H119680   2.372   5.935   2.423
 6572TIP3    H219681   2.234   5.922   2.361
 6573TIP3   OH219682   2.340   6.627   2.534
 6573TIP3    H119683   2.359   6.543   2.491
 6573TIP3    H219684   2.371   6.615   2.624
 6574TIP3   OH219685   6.464   2.136   4.492
 6574TIP3    H119686   6.488   2.155   4.583
 6574TIP3    H219687   6.421   2.215   4.461
 6575TIP3   OH219688   3.557   2.037   1.286
 6575TIP3    H119689   3.561   1.979   1.209
 6575TIP3    H219690   3.597   2.119   1.257
 6576TIP3   OH219691   2.999   2.784   3.297
 6576TIP3    H119692   2.961   2.774   3.385
 6576TIP3    H219693   2.924   2.797   3.240
 6577TIP3   OH219694   2.037   2.575   4.321
 6577TIP3    H119695   1.968   2.634   4.290
 6577TIP3    H219696   2.091   2.629   4.379
 6578TIP3   OH219697   1.443   5.334   5.282
 6578TIP3    H119698   1.504   5.339   5.208
 6578TIP3    H219699   1.490   5.376   5.354
 6579TIP3   OH219700   1.586   1.820   0.359
 6579TIP3    H119701   1.665   1.786   0.316
 6579TIP3    H219702   1.617   1.849   0.444
 6580TIP3   OH219703   2.894   1.752   0.835
 6580TIP3    H119704   2.969   1.786   0.786
 6580TIP3    H219705   2.822   1.809   0.812
 6581TIP3   OH219706   2.601   5.796   2.281
 6581TIP3    H119707   2.603   5.707   2.245
 6581TIP3    H219708   2.508   5.820   2.278
 6582TIP3   OH219709   6.119   2.113   1.291
 6582TIP3    H119710   6.099   2.119   1.384
 6582TIP3    H219711   6.214   2.124   1.286
 6583TIP3   OH219712   3.163   2.002   0.100
 6583TIP3    H119713   3.254   1.974   0.099
 6583TIP3    H219714   3.114   1.925   0.128
 6584TIP3   OH219715   2.781   0.120   5.639
 6584TIP3    H119716   2.705   0.176   5.651
 6584TIP3    H219717   2.852   0.180   5.618
 6585TIP3   OH219718   4.676   0.348   3.632
 6585TIP3    H119719   4.713   0.270   3.591
 6585TIP3    H219720   4.585   0.324   3.652
 6586TIP3   OH219721   1.877   1.597   4.762
 6586TIP3    H119722   1.964   1.632   4.743
 6586TIP3    H219723   1.863   1.615   4.855
 6587TIP3   OH219724   2.662   5.383   1.028
 6587TIP3    H119725   2.637   5.424   1.111
 6587TIP3    H219726   2.621   5.437   0.961
 6588TIP3   OH219727   4.433   2.676   1.841
 6588TIP3    H119728   4.523   2.707   1.833
 6588TIP3    H219729   4.414   2.635   1.756
 6589TIP3   OH219730   3.733   2.416   2.244
 6589TIP3    H119731   3.717   2.339   2.190
 6589TIP3    H219732   3.714   2.490   2.187
 6590TIP3   OH219733   5.279   6.273   0.757
 6590TIP3    H119734   5.285   6.365   0.731
 6590TIP3    H219735   5.243   6.275   0.845
 6591TIP3   OH219736   0.230   5.549   0.249
 6591TIP3    H119737   0.147   5.512   0.220
 6591TIP3    H219738   0.205   5.620   0.308
 6592TIP3   OH219739   2.774   6.697   4.096
 6592TIP3    H119740   2.719   6.685   4.019
 6592TIP3    H219741   2.723   6.752   4.155
 6593TIP3   OH219742   3.731   3.470   1.673
 6593TIP3    H119743   3.641   3.479   1.644
 6593TIP3    H219744   3.746   3.544   1.730
 6594TIP3   OH219745   4.930   3.964   0.648
 6594TIP3    H119746   4.867   4.002   0.710
 6594TIP3    H219747   4.938   3.873   0.675
 6595TIP3   OH219748   6.908   4.486   0.140
 6595TIP3    H119749   6.890   4.528   0.056
 6595TIP3    H219750   6.821   4.476   0.181
 6596TIP3   OH219751   4.452   0.429   0.639
 6596TIP3    H119752   4.381   0.493   0.636
 6596TIP3    H219753   4.474   0.413   0.548
 6597TIP3   OH219754   6.544   1.915   0.237
 6597TIP3    H119755   6.600   1.948   0.166
 6597TIP3    H219756   6.461   1.961   0.224
 6598TIP3   OH219757   6.172   0.506   3.286
 6598TIP3    H119758   6.194   0.423   3.245
 6598TIP3    H219759   6.135   0.482   3.371
 6599TIP3   OH219760   0.075   0.433   2.581
 6599TIP3    H119761   0.009   0.439   2.650
 6599TIP3    H219762   0.099   0.341   2.579
 6600TIP3   OH219763   6.430   0.103   5.040
 6600TIP3    H119764   6.423   0.198   5.027
 6600TIP3    H219765   6.403   0.065   4.956
 6601TIP3   OH219766   4.244   0.586   1.038
 6601TIP3    H119767   4.254   0.662   1.096
 6601TIP3    H219768   4.149   0.570   1.037
 6602TIP3   OH219769   6.936   4.675   3.022
 6602TIP3    H119770   6.915   4.677   3.115
 6602TIP3    H219771   6.853   4.659   2.978
 6603TIP3   OH219772   1.820   1.794   3.789
 6603TIP3    H119773   1.765   1.798   3.711
 6603TIP3    H219774   1.790   1.866   3.844
 6604TIP3   OH219775   6.318   3.375   4.335
 6604TIP3    H119776   6.389   3.380   4.399
 6604TIP3    H219777   6.245   3.421   4.378
 6605TIP3   OH219778   2.799   1.607   4.892
 6605TIP3    H119779   2.789   1.692   4.935
 6605TIP3    H219780   2.833   1.549   4.961
 6606TIP3   OH219781   6.306   1.601   5.117
 6606TIP3    H119782   6.262   1.537   5.172
 6606TIP3    H219783   6.394   1.608   5.154
 6607TIP3   OH219784   1.492   0.886   1.947
 6607TIP3    H119785   1.408   0.839   1.943
 6607TIP3    H219786   1.540   0.857   1.870
 6608TIP3   OH219787   1.764   2.833   0.569
 6608TIP3    H119788   1.774   2.873   0.656
 6608TIP3    H219789   1.847   2.851   0.525
 6609TIP3   OH219790   0.781   4.783   0.945
 6609TIP3    H119791   0.841   4.717   0.982
 6609TIP3    H219792   0.695   4.740   0.946
 6610TIP3   OH219793   0.192   0.890   4.202
 6610TIP3    H119794   0.138   0.926   4.132
 6610TIP3    H219795   0.221   0.804   4.169
 6611TIP3   OH219796   3.275   5.673   0.676
 6611TIP3    H119797   3.240   5.714   0.755
 6611TIP3    H219798   3.237   5.722   0.604
 6612TIP3   OH219799   3.874   0.629   4.226
 6612TIP3    H119800   3.821   0.601   4.301
 6612TIP3    H219801   3.899   0.548   4.182
 6613TIP3   OH219802   2.180   2.981   1.739
 6613TIP3    H119803   2.208   2.891   1.755
 6613TIP3    H219804   2.242   3.034   1.789
 6614TIP3   OH219805   5.279   4.866   4.035
 6614TIP3    H119806   5.207   4.928   4.045
 6614TIP3    H219807   5.260   4.795   4.097
 6615TIP3   OH219808   6.791   1.562   0.297
 6615TIP3    H119809   6.859   1.582   0.362
 6615TIP3    H219810   6.833   1.500   0.237
 6616TIP3   OH219811   7.206   0.426   3.121
 6616TIP3    H119812   7.236   0.378   3.198
 6616TIP3    H219813   7.219   0.518   3.143
 6617TIP3   OH219814   1.032   3.696   0.315
 6617TIP3    H119815   0.952   3.747   0.302
 6617TIP3    H219816   1.090   3.723   0.244
 6618TIP3   OH219817   3.626   1.706   4.317
 6618TIP3    H119818   3.578   1.762   4.378
 6618TIP3    H219819   3.559   1.675   4.256
 6619TIP3   OH219820   3.185   4.507   0.530
 6619TIP3    H119821   3.211   4.517   0.621
 6619TIP3    H219822   3.090   4.501   0.533
 6620TIP3   OH219823   6.049   1.144   1.227
 6620TIP3    H119824   6.089   1.175   1.146
 6620TIP3    H219825   6.088   1.198   1.296
 6621TIP3   OH219826   3.589   3.765   3.466
 6621TIP3    H119827   3.584   3.686   3.411
 6621TIP3    H219828   3.611   3.732   3.553
 6622TIP3   OH219829   3.721   1.507   3.274
 6622TIP3    H119830   3.742   1.578   3.213
 6622TIP3    H219831   3.781   1.520   3.348
 6623TIP3   OH219832   3.503   4.569   4.783
 6623TIP3    H119833   3.557   4.531   4.715
 6623TIP3    H219834   3.432   4.613   4.736
 6624TIP3   OH219835   3.582   4.825   0.391
 6624TIP3    H119836   3.519   4.756   0.369
 6624TIP3    H219837   3.616   4.799   0.477
 6625TIP3   OH219838   2.987   1.110   1.052
 6625TIP3    H119839   3.056   1.059   1.094
 6625TIP3    H219840   2.926   1.131   1.123
 6626TIP3   OH219841   4.066   6.476   2.390
 6626TIP3    H119842   4.072   6.477   2.485
 6626TIP3    H219843   3.990   6.531   2.369
 6627TIP3   OH219844   1.720   4.885   0.863
 6627TIP3    H119845   1.680   4.967   0.836
 6627TIP3    H219846   1.784   4.909   0.930
 6628TIP3   OH219847   5.854   3.355   0.614
 6628TIP3    H119848   5.830   3.382   0.703
 6628TIP3    H219849   5.791   3.399   0.558
 6629TIP3   OH219850   5.826   3.831   2.983
 6629TIP3    H119851   5.801   3.878   3.063
 6629TIP3    H219852   5.868   3.897   2.928
 6630TIP3   OH219853   6.947   1.470   3.579
 6630TIP3    H119854   7.021   1.529   3.568
 6630TIP3    H219855   6.926   1.441   3.491
 6631TIP3   OH219856   1.705   5.449   2.035
 6631TIP3    H119857   1.794   5.437   2.070
 6631TIP3    H219858   1.655   5.375   2.071
 6632TIP3   OH219859   0.632   0.164   5.427
 6632TIP3    H119860   0.543   0.154   5.395
 6632TIP3    H219861   0.652   0.257   5.416
 6633TIP3   OH219862   3.899   4.713   0.535
 6633TIP3    H119863   3.984   4.673   0.553
 6633TIP3    H219864   3.896   4.789   0.593
 6634TIP3   OH219865   0.505   3.887   1.317
 6634TIP3    H119866   0.446   3.958   1.344
 6634TIP3    H219867   0.453   3.836   1.255
 6635TIP3   OH219868   5.899   2.792   0.743
 6635TIP3    H119869   5.827   2.742   0.781
 6635TIP3    H219870   5.869   2.814   0.654
 6636TIP3   OH219871   2.042   4.043   4.874
 6636TIP3    H119872   2.087   4.055   4.958
 6636TIP3    H219873   2.028   4.132   4.842
 6637TIP3   OH219874   1.256   4.430   5.187
 6637TIP3    H119875   1.203   4.359   5.220
 6637TIP3    H219876   1.293   4.397   5.105
 6638TIP3   OH219877   1.601   3.390   4.887
 6638TIP3    H119878   1.563   3.304   4.872
 6638TIP3    H219879   1.526   3.449   4.893
 6639TIP3   OH219880   4.882   1.936   3.714
 6639TIP3    H119881   4.973   1.967   3.713
 6639TIP3    H219882   4.871   1.896   3.800
 6640TIP3   OH219883   2.894   3.114   3.058
 6640TIP3    H119884   2.930   3.114   2.969
 6640TIP3    H219885   2.939   3.186   3.102
 6641TIP3   OH219886   2.048   5.030   2.677
 6641TIP3    H119887   2.073   4.977   2.602
 6641TIP3    H219888   2.022   5.114   2.640
 6642TIP3   OH219889   3.574   2.568   4.047
 6642TIP3    H119890   3.553   2.661   4.061
 6642TIP3    H219891   3.510   2.538   3.982
 6643TIP3   OH219892   5.264   1.885   4.381
 6643TIP3    H119893   5.230   1.877   4.471
 6643TIP3    H219894   5.352   1.846   4.385
 6644TIP3   OH219895   6.816   3.068   1.472
 6644TIP3    H119896   6.755   3.059   1.399
 6644TIP3    H219897   6.903   3.070   1.431
 6645TIP3   OH219898   3.896   1.027   3.255
 6645TIP3    H119899   3.971   1.019   3.314
 6645TIP3    H219900   3.842   1.096   3.293
 6646TIP3   OH219901   0.807   6.005   1.676
 6646TIP3    H119902   0.783   5.919   1.639
 6646TIP3    H219903   0.725   6.040   1.712
 6647TIP3   OH219904   4.375   0.247   5.112
 6647TIP3    H119905   4.285   0.275   5.094
 6647TIP3    H219906   4.423   0.328   5.128
 6648TIP3   OH219907   4.773   2.254   5.423
 6648TIP3    H119908   4.741   2.318   5.359
 6648TIP3    H219909   4.742   2.170   5.391
 6649TIP3   OH219910   1.998   4.346   4.134
 6649TIP3    H119911   1.954   4.262   4.118
 6649TIP3    H219912   1.995   4.391   4.049
 6650TIP3   OH219913   1.952   4.068   1.986
 6650TIP3    H119914   2.037   4.025   1.983
 6650TIP3    H219915   1.897   4.012   2.041
 6651TIP3   OH219916   6.320   3.461   5.024
 6651TIP3    H119917   6.255   3.394   5.044
 6651TIP3    H219918   6.292   3.498   4.940
 6652TIP3   OH219919   3.022   0.978   4.314
 6652TIP3    H119920   3.077   0.932   4.251
 6652TIP3    H219921   3.047   1.070   4.306
 6653TIP3   OH219922   7.073   1.068   4.451
 6653TIP3    H119923   7.036   1.053   4.539
 6653TIP3    H219924   7.137   0.998   4.440
 6654TIP3   OH219925   6.962   4.774   3.666
 6654TIP3    H119926   7.045   4.817   3.685
 6654TIP3    H219927   6.897   4.845   3.667
 6655TIP3   OH219928   6.563   5.603   0.871
 6655TIP3    H119929   6.473   5.627   0.847
 6655TIP3    H219930   6.567   5.615   0.965
 6656TIP3   OH219931   3.445   1.806   2.826
 6656TIP3    H119932   3.469   1.715   2.806
 6656TIP3    H219933   3.528   1.854   2.822
 6657TIP3   OH219934   7.151   0.399   0.587
 6657TIP3    H119935   7.222   0.449   0.626
 6657TIP3    H219936   7.179   0.385   0.496
 6658TIP3   OH219937   5.322   2.502   5.696
 6658TIP3    H119938   5.408   2.463   5.680
 6658TIP3    H219939   5.341   2.584   5.741
 6659TIP3   OH219940   0.504   5.888   4.784
 6659TIP3    H119941   0.436   5.823   4.767
 6659TIP3    H219942   0.462   5.972   4.770
 6660TIP3   OH219943   6.714   2.843   5.677
 6660TIP3    H119944   6.673   2.843   5.763
 6660TIP3    H219945   6.653   2.891   5.621
 6661TIP3   OH219946   5.981   3.100   4.734
 6661TIP3    H119947   5.899   3.075   4.690
 6661TIP3    H219948   5.959   3.100   4.827
 6662TIP3   OH219949   4.634   4.249   2.925
 6662TIP3    H119950   4.658   4.341   2.928
 6662TIP3    H219951   4.552   4.247   2.875
 6663TIP3   OH219952   1.148   2.487   3.280
 6663TIP3    H119953   1.056   2.466   3.298
 6663TIP3    H219954   1.195   2.459   3.358
 6664TIP3   OH219955   5.958   1.708   0.253
 6664TIP3    H119956   5.913   1.713   0.337
 6664TIP3    H219957   6.015   1.632   0.261
 6665TIP3   OH219958   6.143   1.643   2.193
 6665TIP3    H119959   6.135   1.609   2.104
 6665TIP3    H219960   6.095   1.580   2.247
 6666TIP3   OH219961   2.134   3.953   4.428
 6666TIP3    H119962   2.202   4.020   4.430
 6666TIP3    H219963   2.171   3.881   4.481
 6667TIP3   OH219964   6.152   1.172   4.751
 6667TIP3    H119965   6.194   1.110   4.692
 6667TIP3    H219966   6.083   1.212   4.698
 6668TIP3   OH219967   3.183   0.875   2.884
 6668TIP3    H119968   3.276   0.878   2.862
 6668TIP3    H219969   3.161   0.782   2.887
 6669TIP3   OH219970   0.800   0.795   5.153
 6669TIP3    H119971   0.779   0.706   5.126
 6669TIP3    H219972   0.735   0.815   5.221
 6670TIP3   OH219973   5.001   3.619   1.341
 6670TIP3    H119974   4.995   3.524   1.333
 6670TIP3    H219975   4.979   3.637   1.433
 6671TIP3   OH219976   0.230   2.083   0.537
 6671TIP3    H119977   0.178   2.161   0.516
 6671TIP3    H219978   0.237   2.083   0.632
 6672TIP3   OH219979   3.071   0.586   0.788
 6672TIP3    H119980   3.042   0.495   0.789
 6672TIP3    H219981   2.991   0.638   0.786
 6673TIP3   OH219982   3.079   0.053   1.670
 6673TIP3    H119983   3.004   0.081   1.722
 6673TIP3    H219984   3.104   0.131   1.620
 6674TIP3   OH219985   1.486   6.218   5.786
 6674TIP3    H119986   1.486   6.279   5.713
 6674TIP3    H219987   1.578   6.207   5.809
 6675TIP3   OH219988   7.109   5.433   4.458
 6675TIP3    H119989   7.162   5.510   4.440
 6675TIP3    H219990   7.139   5.402   4.544
 6676TIP3   OH219991   5.452   5.912   5.561
 6676TIP3    H119992   5.415   5.880   5.478
 6676TIP3    H219993   5.383   5.895   5.626
 6677TIP3   OH219994   2.011   6.262   4.017
 6677TIP3    H119995   1.920   6.274   4.045
 6677TIP3    H219996   2.012   6.290   3.926
 6678TIP3   OH219997   0.611   5.781   1.019
 6678TIP3    H119998   0.526   5.779   0.975
 6678TIP3    H219999   0.652   5.862   0.987
 6679TIP3   OH220000   6.060   3.742   4.015
 6679TIP3    H120001   6.112   3.702   3.945
 6679TIP3    H220002   5.973   3.754   3.978
 6680TIP3   OH220003   4.563   6.357   2.589
 6680TIP3    H120004   4.575   6.358   2.684
 6680TIP3    H220005   4.472   6.386   2.576
 6681TIP3   OH220006   4.464   4.343   5.602
 6681TIP3    H120007   4.468   4.278   5.672
 6681TIP3    H220008   4.456   4.427   5.648
 6682TIP3   OH220009   3.805   4.399   2.146
 6682TIP3    H120010   3.832   4.490   2.142
 6682TIP3    H220011   3.712   4.400   2.128
 6683TIP3   OH220012   6.963   0.485   4.656
 6683TIP3    H120013   6.953   0.390   4.662
 6683TIP3    H220014   6.991   0.512   4.743
 6684TIP3   OH220015   1.753   4.449   4.259
 6684TIP3    H120016   1.845   4.468   4.240
 6684TIP3    H220017   1.713   4.437   4.173
 6685TIP3   OH220018   3.493   4.684   2.169
 6685TIP3    H120019   3.582   4.670   2.138
 6685TIP3    H220020   3.499   4.755   2.233
 6686TIP3   OH220021   3.608   1.440   2.182
 6686TIP3    H120022   3.647   1.482   2.106
 6686TIP3    H220023   3.516   1.464   2.179
 6687TIP3   OH220024   1.690   2.700   3.914
 6687TIP3    H120025   1.623   2.707   3.981
 6687TIP3    H220026   1.700   2.789   3.881
 6688TIP3   OH220027   2.843   3.586   2.653
 6688TIP3    H120028   2.847   3.574   2.748
 6688TIP3    H220029   2.917   3.643   2.632
 6689TIP3   OH220030   4.036   1.497   0.419
 6689TIP3    H120031   3.959   1.469   0.370
 6689TIP3    H220032   4.001   1.552   0.489
 6690TIP3   OH220033   2.227   2.326   4.667
 6690TIP3    H120034   2.187   2.412   4.657
 6690TIP3    H220035   2.320   2.341   4.653
 6691TIP3   OH220036   3.091   0.954   4.667
 6691TIP3    H120037   3.009   0.996   4.642
 6691TIP3    H220038   3.068   0.862   4.680
 6692TIP3   OH220039   3.403   0.188   0.408
 6692TIP3    H120040   3.418   0.210   0.500
 6692TIP3    H220041   3.352   0.261   0.374
 6693TIP3   OH220042   1.039   1.182   2.890
 6693TIP3    H120043   1.050   1.181   2.985
 6693TIP3    H220044   1.067   1.269   2.863
 6694TIP3   OH220045   0.300   6.188   4.226
 6694TIP3    H120046   0.350   6.210   4.304
 6694TIP3    H220047   0.208   6.201   4.251
 6695TIP3   OH220048   4.322   4.295   3.626
 6695TIP3    H120049   4.413   4.308   3.653
 6695TIP3    H220050   4.326   4.298   3.530
 6696TIP3   OH220051   6.978   3.654   4.678
 6696TIP3    H120052   6.948   3.652   4.769
 6696TIP3    H220053   6.899   3.635   4.627
 6697TIP3   OH220054   3.316   4.006   4.611
 6697TIP3    H120055   3.363   3.929   4.581
 6697TIP3    H220056   3.371   4.044   4.679
 6698TIP3   OH220057   1.202   1.755   3.244
 6698TIP3    H120058   1.255   1.736   3.322
 6698TIP3    H220059   1.126   1.697   3.253
 6699TIP3   OH220060   2.179   5.456   4.956
 6699TIP3    H120061   2.184   5.533   5.013
 6699TIP3    H220062   2.234   5.479   4.881
 6700TIP3   OH220063   1.994   0.136   0.758
 6700TIP3    H120064   2.020   0.228   0.762
 6700TIP3    H220065   1.938   0.130   0.681
 6701TIP3   OH220066   2.483   1.980   2.113
 6701TIP3    H120067   2.545   2.000   2.182
 6701TIP3    H220068   2.493   1.886   2.097
 6702TIP3   OH220069   1.508   3.092   4.053
 6702TIP3    H120070   1.561   3.167   4.079
 6702TIP3    H220071   1.426   3.102   4.102
 6703TIP3   OH220072   6.884   0.523   3.676
 6703TIP3    H120073   6.865   0.518   3.769
 6703TIP3    H220074   6.814   0.577   3.639
 6704TIP3   OH220075   1.215   2.414   1.549
 6704TIP3    H120076   1.299   2.447   1.580
 6704TIP3    H220077   1.163   2.401   1.628
 6705TIP3   OH220078   5.215   2.658   1.176
 6705TIP3    H120079   5.194   2.743   1.214
 6705TIP3    H220080   5.189   2.665   1.085
 6706TIP3   OH220081   6.623   3.225   4.303
 6706TIP3    H120082   6.656   3.182   4.381
 6706TIP3    H220083   6.585   3.307   4.335
 6707TIP3   OH220084   6.534   6.289   5.206
 6707TIP3    H120085   6.628   6.295   5.222
 6707TIP3    H220086   6.493   6.315   5.288
 6708TIP3   OH220087   5.510   1.588   3.284
 6708TIP3    H120088   5.561   1.656   3.327
 6708TIP3    H220089   5.575   1.532   3.242
 6709TIP3   OH220090   1.126   2.002   5.318
 6709TIP3    H120091   1.108   1.908   5.321
 6709TIP3    H220092   1.058   2.037   5.260
 6710TIP3   OH220093   0.280   3.914   5.348
 6710TIP3    H120094   0.318   3.835   5.387
 6710TIP3    H220095   0.205   3.882   5.298
 6711TIP3   OH220096   3.859   2.030   5.452
 6711TIP3    H120097   3.818   2.011   5.536
 6711TIP3    H220098   3.922   1.959   5.439
 6712TIP3   OH220099   4.303   1.596   1.047
 6712TIP3    H120100   4.304   1.503   1.021
 6712TIP3    H220101   4.281   1.642   0.966
 6713TIP3   OH220102   1.298   4.685   0.838
 6713TIP3    H120103   1.285   4.701   0.932
 6713TIP3    H220104   1.326   4.769   0.802
 6714TIP3   OH220105   6.839   5.500   0.248
 6714TIP3    H120106   6.812   5.590   0.265
 6714TIP3    H220107   6.892   5.476   0.325
 6715TIP3   OH220108   6.784   2.167   1.575
 6715TIP3    H120109   6.726   2.093   1.591
 6715TIP3    H220110   6.747   2.211   1.498
 6716TIP3   OH220111   5.680   4.878   3.718
 6716TIP3    H120112   5.727   4.834   3.789
 6716TIP3    H220113   5.730   4.856   3.639
 6717TIP3   OH220114   6.612   6.698   4.016
 6717TIP3    H120115   6.612   6.785   4.056
 6717TIP3    H220116   6.693   6.694   3.966
 6718TIP3   OH220117   5.441   3.163   0.891
 6718TIP3    H120118   5.474   3.250   0.869
 6718TIP3    H220119   5.493   3.136   0.967
 6719TIP3   OH220120   5.714   5.661   1.571
 6719TIP3    H120121   5.645   5.726   1.575
 6719TIP3    H220122   5.778   5.697   1.510
 6720TIP3   OH220123   0.235   0.528   4.883
 6720TIP3    H120124   0.214   0.522   4.976
 6720TIP3    H220125   0.302   0.597   4.878
 6721TIP3   OH220126   6.430   4.612   2.898
 6721TIP3    H120127   6.488   4.580   2.967
 6721TIP3    H220128   6.473   4.586   2.816
 6722TIP3   OH220129   2.115   1.302   4.926
 6722TIP3    H120130   2.190   1.346   4.885
 6722TIP3    H220131   2.095   1.229   4.868
 6723TIP3   OH220132   1.668   1.699   5.299
 6723TIP3    H120133   1.674   1.624   5.358
 6723TIP3    H220134   1.592   1.749   5.331
 6724TIP3   OH220135   4.018   1.857   1.963
 6724TIP3    H120136   3.994   1.889   2.050
 6724TIP3    H220137   4.059   1.932   1.920
 6725TIP3   OH220138   5.627   5.966   2.954
 6725TIP3    H120139   5.538   5.954   2.989
 6725TIP3    H220140   5.631   6.059   2.932
 6726TIP3   OH220141   4.983   2.358   0.963
 6726TIP3    H120142   4.918   2.415   1.004
 6726TIP3    H220143   4.988   2.388   0.872
 6727TIP3   OH220144   6.129   6.037   5.577
 6727TIP3    H120145   6.188   6.078   5.515
 6727TIP3    H220146   6.042   6.051   5.540
 6728TIP3   OH220147   4.598   6.717   4.456
 6728TIP3    H120148   4.608   6.661   4.533
 6728TIP3    H220149   4.563   6.659   4.388
 6729TIP3   OH220150   4.398   3.519   3.487
 6729TIP3    H120151   4.426   3.474   3.407
 6729TIP3    H220152   4.446   3.602   3.486
 6730TIP3   OH220153   5.328   1.973   0.119
 6730TIP3    H120154   5.349   1.952   0.209
 6730TIP3    H220155   5.244   2.020   0.123
 6731TIP3   OH220156   3.740   5.368   3.028
 6731TIP3    H120157   3.751   5.402   3.117
 6731TIP3    H220158   3.645   5.370   3.014
 6732TIP3   OH220159   6.874   3.556   0.137
 6732TIP3    H120160   6.915   3.585   0.219
 6732TIP3    H220161   6.882   3.460   0.140
 6733TIP3   OH220162   0.713   2.710   3.348
 6733TIP3    H120163   0.743   2.667   3.268
 6733TIP3    H220164   0.651   2.777   3.318
 6734TIP3   OH220165   5.533   3.458   0.720
 6734TIP3    H120166   5.504   3.455   0.811
 6734TIP3    H220167   5.565   3.547   0.708
 6735TIP3   OH220168   3.887   1.656   2.766
 6735TIP3    H120169   3.795   1.667   2.790
 6735TIP3    H220170   3.914   1.576   2.810
 6736TIP3   OH220171   1.096   6.388   1.659
 6736TIP3    H120172   1.172   6.330   1.653
 6736TIP3    H220173   1.093   6.413   1.752
 6737TIP3   OH220174   6.247   2.147   3.092
 6737TIP3    H120175   6.207   2.142   3.005
 6737TIP3    H220176   6.329   2.195   3.078
 6738TIP3   OH220177   2.978   6.629   1.315
 6738TIP3    H120178   2.983   6.577   1.395
 6738TIP3    H220179   2.949   6.568   1.247
 6739TIP3   OH220180   5.362   6.599   3.195
 6739TIP3    H120181   5.347   6.672   3.255
 6739TIP3    H220182   5.274   6.570   3.170
 6740TIP3   OH220183   4.410   6.547   5.608
 6740TIP3    H120184   4.347   6.597   5.659
 6740TIP3    H220185   4.480   6.527   5.669
 6741TIP3   OH220186   5.694   1.182   2.145
 6741TIP3    H120187   5.671   1.164   2.236
 6741TIP3    H220188   5.784   1.214   2.149
 6742TIP3   OH220189   6.424   3.736   2.168
 6742TIP3    H120190   6.468   3.652   2.155
 6742TIP3    H220191   6.358   3.718   2.234
 6743TIP3   OH220192   3.625   5.111   0.421
 6743TIP3    H120193   3.606   5.018   0.410
 6743TIP3    H220194   3.717   5.114   0.447
 6744TIP3   OH220195   6.802   5.389   4.158
 6744TIP3    H120196   6.810   5.430   4.244
 6744TIP3    H220197   6.812   5.296   4.175
 6745TIP3   OH220198   6.404   2.731   5.240
 6745TIP3    H120199   6.355   2.696   5.314
 6745TIP3    H220200   6.410   2.658   5.178
 6746TIP3   OH220201   0.384   5.248   0.107
 6746TIP3    H120202   0.419   5.336   0.097
 6746TIP3    H220203   0.333   5.250   0.188
 6747TIP3   OH220204   6.632   5.000   0.924
 6747TIP3    H120205   6.721   4.964   0.929
 6747TIP3    H220206   6.582   4.945   0.984
 6748TIP3   OH220207   4.628   2.224   4.279
 6748TIP3    H120208   4.543   2.228   4.235
 6748TIP3    H220209   4.656   2.133   4.270
 6749TIP3   OH220210   1.030   2.637   5.761
 6749TIP3    H120211   0.972   2.620   5.835
 6749TIP3    H220212   0.975   2.685   5.698
 6750TIP3   OH220213   1.811   0.520   5.804
 6750TIP3    H120214   1.816   0.543   5.711
 6750TIP3    H220215   1.895   0.479   5.823
 6751TIP3   OH220216   2.779   2.185   5.119
 6751TIP3    H120217   2.752   2.155   5.206
 6751TIP3    H220218   2.864   2.143   5.105
 6752TIP3   OH220219   0.335   4.328   0.217
 6752TIP3    H120220   0.430   4.343   0.214
 6752TIP3    H220221   0.302   4.373   0.139
 6753TIP3   OH220222   5.199   3.706   5.056
 6753TIP3    H120223   5.237   3.774   4.999
 6753TIP3    H220224   5.267   3.690   5.122
 6754TIP3   OH220225   6.798   4.870   0.297
 6754TIP3    H120226   6.831   4.817   0.369
 6754TIP3    H220227   6.708   4.841   0.285
 6755TIP3   OH220228   3.264   1.975   3.902
 6755TIP3    H120229   3.174   1.995   3.927
 6755TIP3    H220230   3.260   1.887   3.864
 6756TIP3   OH220231   6.466   4.878   1.112
 6756TIP3    H120232   6.437   4.809   1.052
 6756TIP3    H220233   6.386   4.926   1.133
 6757TIP3   OH220234   3.396   1.880   0.117
 6757TIP3    H120235   3.416   1.788   0.101
 6757TIP3    H220236   3.471   1.928   0.081
 6758TIP3   OH220237  -0.021   2.840   2.372
 6758TIP3    H120238   0.050   2.805   2.318
 6758TIP3    H220239   0.023   2.879   2.447
 6759TIP3   OH220240   1.052   4.826   3.059
 6759TIP3    H120241   1.133   4.871   3.083
 6759TIP3    H220242   1.070   4.787   2.974
 6760TIP3   OH220243   5.327   5.873   2.516
 6760TIP3    H120244   5.241   5.914   2.531
 6760TIP3    H220245   5.372   5.881   2.600
 6761TIP3   OH220246   2.568   3.448   5.675
 6761TIP3    H120247   2.618   3.528   5.694
 6761TIP3    H220248   2.515   3.435   5.754
 6762TIP3   OH220249   2.417   3.831   0.231
 6762TIP3    H120250   2.440   3.871   0.147
 6762TIP3    H220251   2.433   3.899   0.296
 6763TIP3   OH220252   6.926   3.292   5.242
 6763TIP3    H120253   6.836   3.266   5.224
 6763TIP3    H220254   6.920   3.382   5.273
 6764TIP3   OH220255   6.438   2.177   4.788
 6764TIP3    H120256   6.524   2.144   4.812
 6764TIP3    H220257   6.437   2.268   4.820
 6765TIP3   OH220258   4.684   3.171   0.433
 6765TIP3    H120259   4.759   3.198   0.380
 6765TIP3    H220260   4.722   3.133   0.512
 6766TIP3   OH220261   5.616   3.773   2.371
 6766TIP3    H120262   5.577   3.796   2.455
 6766TIP3    H220263   5.595   3.846   2.314
 6767TIP3   OH220264   5.349   4.807   4.616
 6767TIP3    H120265   5.413   4.754   4.568
 6767TIP3    H220266   5.385   4.896   4.612
 6768TIP3   OH220267   4.476   1.933   4.524
 6768TIP3    H120268   4.555   1.958   4.476
 6768TIP3    H220269   4.506   1.870   4.590
 6769TIP3   OH220270   3.371   5.528   5.111
 6769TIP3    H120271   3.430   5.520   5.185
 6769TIP3    H220272   3.386   5.616   5.077
 6770TIP3   OH220273   2.800   1.737   0.531
 6770TIP3    H120274   2.717   1.723   0.577
 6770TIP3    H220275   2.795   1.680   0.454
 6771TIP3   OH220276   6.079   3.247   1.026
 6771TIP3    H120277   6.043   3.186   1.090
 6771TIP3    H220278   6.033   3.227   0.945
 6772TIP3   OH220279   2.453   5.635   0.142
 6772TIP3    H120280   2.474   5.586   0.062
 6772TIP3    H220281   2.473   5.574   0.213
 6773TIP3   OH220282   6.935   1.129   4.784
 6773TIP3    H120283   6.880   1.077   4.725
 6773TIP3    H220284   6.999   1.066   4.818
 6774TIP3   OH220285   4.376   2.698   1.009
 6774TIP3    H120286   4.396   2.642   1.084
 6774TIP3    H220287   4.443   2.766   1.011
 6775TIP3   OH220288   5.000   4.250   5.050
 6775TIP3    H120289   4.943   4.280   4.979
 6775TIP3    H220290   4.942   4.243   5.126
 6776TIP3   OH220291   4.638   2.354   3.658
 6776TIP3    H120292   4.564   2.414   3.666
 6776TIP3    H220293   4.713   2.410   3.639
 6777TIP3   OH220294   6.786   3.332   3.365
 6777TIP3    H120295   6.785   3.248   3.320
 6777TIP3    H220296   6.868   3.331   3.415
 6778TIP3   OH220297   6.348   3.498   1.230
 6778TIP3    H120298   6.373   3.420   1.281
 6778TIP3    H220299   6.254   3.487   1.216
 6779TIP3   OH220300   7.172   6.267   5.515
 6779TIP3    H120301   7.231   6.207   5.562
 6779TIP3    H220302   7.085   6.244   5.545
 6780TIP3   OH220303   1.240   5.008   3.149
 6780TIP3    H120304   1.230   5.103   3.140
 6780TIP3    H220305   1.250   4.993   3.243
 6781TIP3   OH220306   3.338   4.898   2.297
 6781TIP3    H120307   3.278   4.836   2.255
 6781TIP3    H220308   3.327   4.882   2.391
 6782TIP3   OH220309   1.955   5.574   1.390
 6782TIP3    H120310   1.901   5.546   1.316
 6782TIP3    H220311   2.040   5.594   1.352
 6783TIP3   OH220312   4.784   1.794   3.939
 6783TIP3    H120313   4.836   1.842   4.003
 6783TIP3    H220314   4.703   1.772   3.986
 6784TIP3   OH220315   0.432   0.939   1.404
 6784TIP3    H120316   0.404   0.949   1.313
 6784TIP3    H220317   0.387   0.861   1.435
 6785TIP3   OH220318   5.761   5.132   2.242
 6785TIP3    H120319   5.790   5.191   2.312
 6785TIP3    H220320   5.703   5.069   2.287
 6786TIP3   OH220321   4.400   6.650   0.527
 6786TIP3    H120322   4.485   6.690   0.548
 6786TIP3    H220323   4.391   6.661   0.432
 6787TIP3   OH220324   4.002   5.452   1.943
 6787TIP3    H120325   4.003   5.499   2.026
 6787TIP3    H220326   3.971   5.516   1.879
 6788TIP3   OH220327   3.086   4.533   3.822
 6788TIP3    H120328   3.068   4.445   3.790
 6788TIP3    H220329   3.052   4.591   3.754
 6789TIP3   OH220330   5.347   1.919   0.396
 6789TIP3    H120331   5.360   2.010   0.421
 6789TIP3    H220332   5.275   1.888   0.451
 6790TIP3   OH220333   7.032   6.125   2.503
 6790TIP3    H120334   7.032   6.213   2.541
 6790TIP3    H220335   7.107   6.082   2.543
 6791TIP3   OH220336   6.966   0.225   3.106
 6791TIP3    H120337   6.967   0.218   3.202
 6791TIP3    H220338   7.036   0.287   3.086
 6792TIP3   OH220339   6.474   2.871   3.019
 6792TIP3    H120340   6.493   2.816   3.094
 6792TIP3    H220341   6.380   2.889   3.024
 6793TIP3   OH220342   1.013   1.109   2.127
 6793TIP3    H120343   0.953   1.035   2.137
 6793TIP3    H220344   1.088   1.072   2.079
 6794TIP3   OH220345   2.397   0.942   4.887
 6794TIP3    H120346   2.364   0.989   4.810
 6794TIP3    H220347   2.435   0.861   4.851
 6795TIP3   OH220348   6.011   0.991   3.641
 6795TIP3    H120349   5.951   0.959   3.574
 6795TIP3    H220350   5.997   1.086   3.643
 6796TIP3   OH220351   4.798   2.835   4.816
 6796TIP3    H120352   4.764   2.801   4.899
 6796TIP3    H220353   4.802   2.759   4.758
 6797TIP3   OH220354   3.781   4.816   3.885
 6797TIP3    H120355   3.839   4.892   3.883
 6797TIP3    H220356   3.787   4.779   3.797
 6798TIP3   OH220357   4.367   3.140   2.232
 6798TIP3    H120358   4.349   3.152   2.138
 6798TIP3    H220359   4.286   3.164   2.275
 6799TIP3   OH220360   5.764   2.226   3.751
 6799TIP3    H120361   5.806   2.165   3.691
 6799TIP3    H220362   5.706   2.171   3.804
 6800TIP3   OH220363   0.780   6.566   5.500
 6800TIP3    H120364   0.783   6.637   5.436
 6800TIP3    H220365   0.691   6.569   5.535
 6801TIP3   OH220366   5.029   0.068   4.981
 6801TIP3    H120367   5.002   0.119   4.905
 6801TIP3    H220368   4.970   0.095   5.051
 6802TIP3   OH220369   7.120   5.484   2.029
 6802TIP3    H120370   7.114   5.558   1.969
 6802TIP3    H220371   7.185   5.426   1.989
 6803TIP3   OH220372   6.054   5.588   5.113
 6803TIP3    H120373   5.978   5.641   5.138
 6803TIP3    H220374   6.019   5.524   5.051
 6804TIP3   OH220375   1.568   6.203   1.017
 6804TIP3    H120376   1.627   6.198   1.092
 6804TIP3    H220377   1.491   6.248   1.050
 6805TIP3   OH220378   1.491   1.345   4.165
 6805TIP3    H120379   1.437   1.326   4.088
 6805TIP3    H220380   1.520   1.436   4.152
 6806TIP3   OH220381   0.961   5.380   0.899
 6806TIP3    H120382   1.002   5.367   0.985
 6806TIP3    H220383   0.896   5.310   0.892
 6807TIP3   OH220384   6.936   3.205   2.894
 6807TIP3    H120385   6.842   3.219   2.904
 6807TIP3    H220386   6.955   3.235   2.806
 6808TIP3   OH220387   4.803   3.610   4.047
 6808TIP3    H120388   4.743   3.630   3.974
 6808TIP3    H220389   4.815   3.515   4.042
 6809TIP3   OH220390   4.703   6.117   0.831
 6809TIP3    H120391   4.655   6.085   0.755
 6809TIP3    H220392   4.731   6.038   0.877
 6810TIP3   OH220393   6.963   6.213   0.355
 6810TIP3    H120394   6.991   6.302   0.331
 6810TIP3    H220395   6.885   6.226   0.408
 6811TIP3   OH220396   6.438   1.679   1.908
 6811TIP3    H120397   6.409   1.606   1.854
 6811TIP3    H220398   6.399   1.757   1.868
 6812TIP3   OH220399   1.630   0.502   5.513
 6812TIP3    H120400   1.609   0.413   5.543
 6812TIP3    H220401   1.646   0.492   5.419
 6813TIP3   OH220402   7.008   4.282   3.652
 6813TIP3    H120403   7.046   4.341   3.718
 6813TIP3    H220404   7.081   4.262   3.593
 6814TIP3   OH220405   6.243   0.664   5.858
 6814TIP3    H120406   6.222   0.657   5.951
 6814TIP3    H220407   6.310   0.732   5.855
 6815TIP3   OH220408   5.737   1.131   0.672
 6815TIP3    H120409   5.671   1.192   0.640
 6815TIP3    H220410   5.754   1.159   0.762
 6816TIP3   OH220411   2.671   6.024   5.613
 6816TIP3    H120412   2.635   5.947   5.656
 6816TIP3    H220413   2.734   6.060   5.675
 6817TIP3   OH220414   2.713   0.691   4.534
 6817TIP3    H120415   2.767   0.770   4.537
 6817TIP3    H220416   2.630   0.720   4.495
 6818TIP3   OH220417   3.988   3.147   1.186
 6818TIP3    H120418   3.984   3.097   1.105
 6818TIP3    H220419   3.897   3.156   1.214
 6819TIP3   OH220420   1.814   6.692   1.389
 6819TIP3    H120421   1.722   6.682   1.367
 6819TIP3    H220422   1.830   6.626   1.457
 6820TIP3   OH220423   3.005   5.345   2.072
 6820TIP3    H120424   3.028   5.424   2.024
 6820TIP3    H220425   3.076   5.334   2.136
 6821TIP3   OH220426   0.384   0.549   2.039
 6821TIP3    H120427   0.388   0.553   2.134
 6821TIP3    H220428   0.343   0.632   2.013
 6822TIP3   OH220429   6.876   5.923   0.839
 6822TIP3    H120430   6.955   5.868   0.841
 6822TIP3    H220431   6.895   5.990   0.774
 6823TIP3   OH220432   0.394   0.210   4.242
 6823TIP3    H120433   0.442   0.193   4.161
 6823TIP3    H220434   0.308   0.171   4.228
 6824TIP3   OH220435   6.401   1.700   2.660
 6824TIP3    H120436   6.403   1.750   2.579
 6824TIP3    H220437   6.331   1.740   2.712
 6825TIP3   OH220438   0.729   4.290   1.848
 6825TIP3    H120439   0.812   4.263   1.809
 6825TIP3    H220440   0.663   4.260   1.785
 6826TIP3   OH220441   2.598   1.485   1.659
 6826TIP3    H120442   2.525   1.546   1.669
 6826TIP3    H220443   2.559   1.409   1.616
 6827TIP3   OH220444   5.423   2.749   5.283
 6827TIP3    H120445   5.424   2.703   5.199
 6827TIP3    H220446   5.387   2.686   5.345
 6828TIP3   OH220447   3.723   0.554   0.259
 6828TIP3    H120448   3.649   0.593   0.306
 6828TIP3    H220449   3.741   0.473   0.306
 6829TIP3   OH220450   3.494   4.044   3.989
 6829TIP3    H120451   3.406   4.069   4.017
 6829TIP3    H220452   3.501   4.077   3.899
 6830TIP3   OH220453   4.978   4.883   3.044
 6830TIP3    H120454   4.997   4.820   3.114
 6830TIP3    H220455   4.961   4.965   3.090
 6831TIP3   OH220456   4.942   0.872   5.033
 6831TIP3    H120457   4.947   0.791   4.982
 6831TIP3    H220458   5.023   0.871   5.085
 6832TIP3   OH220459   0.537   0.298   1.659
 6832TIP3    H120460   0.613   0.250   1.693
 6832TIP3    H220461   0.486   0.232   1.612
 6833TIP3   OH220462   1.758   4.142   4.803
 6833TIP3    H120463   1.834   4.191   4.836
 6833TIP3    H220464   1.794   4.085   4.735
 6834TIP3   OH220465   5.037   2.488   0.738
 6834TIP3    H120466   4.987   2.488   0.657
 6834TIP3    H220467   5.122   2.451   0.714
 6835TIP3   OH220468   4.360   4.575   5.724
 6835TIP3    H120469   4.357   4.598   5.817
 6835TIP3    H220470   4.297   4.635   5.683
 6836TIP3   OH220471   0.937   1.074   5.126
 6836TIP3    H120472   0.889   0.991   5.131
 6836TIP3    H220473   0.881   1.137   5.170
 6837TIP3   OH220474   0.261   4.441   5.293
 6837TIP3    H120475   0.302   4.389   5.362
 6837TIP3    H220476   0.294   4.404   5.211
 6838TIP3   OH220477   3.202   6.782   1.437
 6838TIP3    H120478   3.168   6.704   1.394
 6838TIP3    H220479   3.152   6.789   1.518
 6839TIP3   OH220480   2.647   0.537   3.205
 6839TIP3    H120481   2.652   0.571   3.116
 6839TIP3    H220482   2.588   0.598   3.251
 6840TIP3   OH220483   1.803   1.009   0.374
 6840TIP3    H120484   1.710   0.985   0.366
 6840TIP3    H220485   1.805   1.073   0.446
 6841TIP3   OH220486   2.586   4.771   1.666
 6841TIP3    H120487   2.531   4.807   1.597
 6841TIP3    H220488   2.611   4.684   1.635
 6842TIP3   OH220489   1.631   3.111   5.654
 6842TIP3    H120490   1.651   3.115   5.748
 6842TIP3    H220491   1.557   3.170   5.643
 6843TIP3   OH220492   0.064   3.302   1.950
 6843TIP3    H120493  -0.006   3.352   1.990
 6843TIP3    H220494   0.095   3.243   2.019
 6844TIP3   OH220495   2.257   0.540   4.100
 6844TIP3    H120496   2.344   0.572   4.120
 6844TIP3    H220497   2.255   0.452   4.138
 6845TIP3   OH220498   4.902   6.691   0.301
 6845TIP3    H120499   4.972   6.675   0.238
 6845TIP3    H220500   4.852   6.764   0.263
 6846TIP3   OH220501   5.368   4.686   5.559
 6846TIP3    H120502   5.323   4.666   5.477
 6846TIP3    H220503   5.297   4.699   5.622
 6847TIP3   OH220504   2.617   1.094   4.952
 6847TIP3    H120505   2.531   1.053   4.963
 6847TIP3    H220506   2.672   1.024   4.919
 6848TIP3   OH220507   3.483   5.114   3.957
 6848TIP3    H120508   3.542   5.106   3.882
 6848TIP3    H220509   3.454   5.024   3.974
 6849TIP3   OH220510   4.824   0.066   0.468
 6849TIP3    H120511   4.888   0.004   0.432
 6849TIP3    H220512   4.865   0.152   0.457
 6850TIP3   OH220513   1.354   4.269   1.273
 6850TIP3    H120514   1.356   4.363   1.253
 6850TIP3    H220515   1.407   4.229   1.203
 6851TIP3   OH220516   0.353   2.032   5.175
 6851TIP3    H120517   0.287   1.963   5.172
 6851TIP3    H220518   0.395   2.028   5.088
 6852TIP3   OH220519   0.396   2.191   3.660
 6852TIP3    H120520   0.475   2.195   3.714
 6852TIP3    H220521   0.421   2.135   3.586
 6853TIP3   OH220522   1.532   1.490   3.770
 6853TIP3    H120523   1.452   1.441   3.791
 6853TIP3    H220524   1.499   1.572   3.733
 6854TIP3   OH220525   2.164   5.544   0.719
 6854TIP3    H120526   2.176   5.470   0.779
 6854TIP3    H220527   2.195   5.620   0.768
 6855TIP3   OH220528   2.804   2.283   0.870
 6855TIP3    H120529   2.844   2.212   0.920
 6855TIP3    H220530   2.820   2.361   0.923
 6856TIP3   OH220531   1.138   1.432   1.858
 6856TIP3    H120532   1.152   1.378   1.937
 6856TIP3    H220533   1.199   1.395   1.794
 6857TIP3   OH220534   2.040   5.979   1.425
 6857TIP3    H120535   2.084   5.903   1.387
 6857TIP3    H220536   2.014   5.951   1.513
 6858TIP3   OH220537   0.492   0.119   0.883
 6858TIP3    H120538   0.426   0.172   0.927
 6858TIP3    H220539   0.524   0.175   0.812
 6859TIP3   OH220540   5.646   5.359   3.172
 6859TIP3    H120541   5.613   5.352   3.082
 6859TIP3    H220542   5.721   5.419   3.165
 6860TIP3   OH220543   2.524   0.334   4.263
 6860TIP3    H120544   2.492   0.396   4.329
 6860TIP3    H220545   2.445   0.291   4.231
 6861TIP3   OH220546   3.259   0.313   0.917
 6861TIP3    H120547   3.167   0.336   0.914
 6861TIP3    H220548   3.303   0.379   0.864
 6862TIP3   OH220549   5.094  -0.013   2.358
 6862TIP3    H120550   5.045  -0.014   2.276
 6862TIP3    H220551   5.143  -0.095   2.358
 6863TIP3   OH220552   6.906   1.405   3.316
 6863TIP3    H120553   6.987   1.449   3.290
 6863TIP3    H220554   6.928   1.312   3.312
 6864TIP3   OH220555   2.533   3.865   3.316
 6864TIP3    H120556   2.558   3.820   3.396
 6864TIP3    H220557   2.616   3.883   3.271
 6865TIP3   OH220558   1.876   1.846   1.848
 6865TIP3    H120559   1.846   1.808   1.765
 6865TIP3    H220560   1.812   1.816   1.913
 6866TIP3   OH220561   6.570   2.080   5.087
 6866TIP3    H120562   6.626   2.006   5.063
 6866TIP3    H220563   6.481   2.050   5.069
 6867TIP3   OH220564   2.340   5.953   2.082
 6867TIP3    H120565   2.245   5.942   2.077
 6867TIP3    H220566   2.367   5.895   2.153
 6868TIP3   OH220567   4.761   4.030   2.746
 6868TIP3    H120568   4.844   4.015   2.792
 6868TIP3    H220569   4.733   4.117   2.774
 6869TIP3   OH220570   4.613   0.821   0.080
 6869TIP3    H120571   4.575   0.907   0.097
 6869TIP3    H220572   4.582   0.766   0.152
 6870TIP3   OH220573   0.348   1.520   5.769
 6870TIP3    H120574   0.264   1.495   5.806
 6870TIP3    H220575   0.353   1.615   5.781
 6871TIP3   OH220576   6.453   4.234   5.362
 6871TIP3    H120577   6.403   4.249   5.443
 6871TIP3    H220578   6.514   4.308   5.357
 6872TIP3   OH220579   5.021   1.909   1.383
 6872TIP3    H120580   5.009   1.932   1.290
 6872TIP3    H220581   5.004   1.991   1.430
 6873TIP3   OH220582   5.350   3.653   2.491
 6873TIP3    H120583   5.375   3.735   2.534
 6873TIP3    H220584   5.415   3.589   2.522
 6874TIP3   OH220585   3.059   4.951   0.843
 6874TIP3    H120586   3.070   4.881   0.779
 6874TIP3    H220587   3.146   4.989   0.852
 6875TIP3   OH220588   6.704   3.877   5.702
 6875TIP3    H120589   6.745   3.882   5.788
 6875TIP3    H220590   6.763   3.928   5.645
 6876TIP3   OH220591   2.681   4.973   5.213
 6876TIP3    H120592   2.656   4.931   5.131
 6876TIP3    H220593   2.654   5.065   5.202
 6877TIP3   OH220594   1.135   3.023   5.539
 6877TIP3    H120595   1.063   3.007   5.478
 6877TIP3    H220596   1.203   2.961   5.513
 6878TIP3   OH220597   5.495   3.768   4.009
 6878TIP3    H120598   5.522   3.859   4.014
 6878TIP3    H220599   5.416   3.768   3.954
 6879TIP3   OH220600   6.437   2.326   5.057
 6879TIP3    H120601   6.414   2.345   5.148
 6879TIP3    H220602   6.505   2.258   5.063
 6880TIP3   OH220603   4.135   6.608   2.026
 6880TIP3    H120604   4.057   6.662   2.012
 6880TIP3    H220605   4.179   6.649   2.100
 6881TIP3   OH220606   3.042   2.323   5.709
 6881TIP3    H120607   3.105   2.267   5.754
 6881TIP3    H220608   3.093   2.366   5.641
 6882TIP3   OH220609   5.819   1.422   2.842
 6882TIP3    H120610   5.755   1.371   2.892
 6882TIP3    H220611   5.877   1.459   2.909
 6883TIP3   OH220612   7.025   4.739   2.761
 6883TIP3    H120613   6.986   4.719   2.846
 6883TIP3    H220614   7.094   4.803   2.781
 6884TIP3   OH220615   2.401   3.403   4.225
 6884TIP3    H120616   2.313   3.377   4.198
 6884TIP3    H220617   2.440   3.324   4.261
 6885TIP3   OH220618   4.595   0.334   4.167
 6885TIP3    H120619   4.534   0.404   4.190
 6885TIP3    H220620   4.645   0.369   4.094
 6886TIP3   OH220621   0.789   1.615   0.854
 6886TIP3    H120622   0.738   1.534   0.854
 6886TIP3    H220623   0.725   1.684   0.835
 6887TIP3   OH220624   4.598   1.569   4.104
 6887TIP3    H120625   4.525   1.507   4.109
 6887TIP3    H220626   4.558   1.651   4.073
 6888TIP3   OH220627   0.173   5.980   5.293
 6888TIP3    H120628   0.112   5.955   5.363
 6888TIP3    H220629   0.240   6.031   5.337
 6889TIP3   OH220630   5.896   6.474   4.319
 6889TIP3    H120631   5.951   6.398   4.300
 6889TIP3    H220632   5.834   6.443   4.385
 6890TIP3   OH220633   5.376   4.472   4.624
 6890TIP3    H120634   5.403   4.438   4.539
 6890TIP3    H220635   5.457   4.504   4.664
 6891TIP3   OH220636   4.851   1.131   3.841
 6891TIP3    H120637   4.871   1.128   3.934
 6891TIP3    H220638   4.757   1.118   3.835
 6892TIP3   OH220639   0.273   6.310   1.091
 6892TIP3    H120640   0.197   6.368   1.096
 6892TIP3    H220641   0.236   6.222   1.090
 6893TIP3   OH220642   0.574   3.430   4.916
 6893TIP3    H120643   0.482   3.424   4.943
 6893TIP3    H220644   0.624   3.401   4.992
 6894TIP3   OH220645   0.735   2.152   3.491
 6894TIP3    H120646   0.658   2.107   3.456
 6894TIP3    H220647   0.707   2.183   3.577
 6895TIP3   OH220648   4.501   3.693   5.688
 6895TIP3    H120649   4.485   3.609   5.731
 6895TIP3    H220650   4.589   3.719   5.717
 6896TIP3   OH220651   1.189   6.047   0.925
 6896TIP3    H120652   1.139   6.128   0.927
 6896TIP3    H220653   1.187   6.020   0.833
 6897TIP3   OH220654   3.235   1.840   2.603
 6897TIP3    H120655   3.289   1.847   2.681
 6897TIP3    H220656   3.267   1.763   2.557
 6898TIP3   OH220657   0.237   1.288   4.410
 6898TIP3    H120658   0.221   1.218   4.474
 6898TIP3    H220659   0.198   1.366   4.450
 6899TIP3   OH220660   3.683   6.204   2.243
 6899TIP3    H120661   3.690   6.245   2.157
 6899TIP3    H220662   3.601   6.238   2.280
 6900TIP3   OH220663   4.907   3.627   4.321
 6900TIP3    H120664   4.999   3.652   4.317
 6900TIP3    H220665   4.880   3.619   4.229
 6901TIP3   OH220666   6.121   0.889   4.813
 6901TIP3    H120667   6.045   0.933   4.776
 6901TIP3    H220668   6.194   0.915   4.756
 6902TIP3   OH220669   4.927   3.161   4.481
 6902TIP3    H120670   4.950   3.102   4.410
 6902TIP3    H220671   4.881   3.233   4.438
 6903TIP3   OH220672   5.893   0.469   5.625
 6903TIP3    H120673   5.807   0.507   5.645
 6903TIP3    H220674   5.946   0.543   5.597
 6904TIP3   OH220675   5.060   4.313   2.867
 6904TIP3    H120676   5.105   4.348   2.790
 6904TIP3    H220677   5.079   4.220   2.866
 6905TIP3   OH220678   6.905   4.982   3.299
 6905TIP3    H120679   6.843   5.043   3.341
 6905TIP3    H220680   6.979   4.978   3.360
 6906TIP3   OH220681   5.338   3.025   1.918
 6906TIP3    H120682   5.367   3.008   1.829
 6906TIP3    H220683   5.333   2.938   1.959
 6907TIP3   OH220684   4.317   1.072   1.806
 6907TIP3    H120685   4.236   1.071   1.857
 6907TIP3    H220686   4.344   1.164   1.806
 6908TIP3   OH220687   6.372   0.322   0.183
 6908TIP3    H120688   6.347   0.281   0.100
 6908TIP3    H220689   6.398   0.411   0.159
 6909TIP3   OH220690   1.918   2.395   2.746
 6909TIP3    H120691   1.863   2.430   2.676
 6909TIP3    H220692   1.856   2.374   2.817
 6910TIP3   OH220693   6.519   5.341   1.453
 6910TIP3    H120694   6.584   5.396   1.408
 6910TIP3    H220695   6.561   5.255   1.459
 6911TIP3   OH220696   4.069   2.443   3.576
 6911TIP3    H120697   4.052   2.460   3.669
 6911TIP3    H220698   4.007   2.500   3.530
 6912TIP3   OH220699   2.230   4.572   1.168
 6912TIP3    H120700   2.277   4.515   1.229
 6912TIP3    H220701   2.294   4.639   1.143
 6913TIP3   OH220702   7.049   6.175   3.079
 6913TIP3    H120703   7.112   6.110   3.112
 6913TIP3    H220704   7.073   6.256   3.124
 6914TIP3   OH220705   3.923   4.545   4.022
 6914TIP3    H120706   3.882   4.601   4.088
 6914TIP3    H220707   3.855   4.483   3.996
 6915TIP3   OH220708   0.124   1.951   1.042
 6915TIP3    H120709   0.075   2.030   1.066
 6915TIP3    H220710   0.183   1.936   1.115
 6916TIP3   OH220711   1.937   3.482   0.848
 6916TIP3    H120712   1.997   3.551   0.877
 6916TIP3    H220713   1.850   3.515   0.872
 6917TIP3   OH220714   3.121   6.098   3.158
 6917TIP3    H120715   3.092   6.186   3.136
 6917TIP3    H220716   3.113   6.094   3.254
 6918TIP3   OH220717   2.003   2.839   1.934
 6918TIP3    H120718   2.056   2.760   1.923
 6918TIP3    H220719   2.027   2.894   1.860
 6919TIP3   OH220720   6.204   0.595   2.670
 6919TIP3    H120721   6.179   0.662   2.607
 6919TIP3    H220722   6.224   0.518   2.617
 6920TIP3   OH220723   0.507   5.814   4.444
 6920TIP3    H120724   0.519   5.756   4.519
 6920TIP3    H220725   0.427   5.862   4.463
 6921TIP3   OH220726   5.775   3.633   2.062
 6921TIP3    H120727   5.710   3.619   2.130
 6921TIP3    H220728   5.754   3.569   1.994
 6922TIP3   OH220729   6.800   4.446   1.862
 6922TIP3    H120730   6.841   4.471   1.945
 6922TIP3    H220731   6.873   4.425   1.804
 6923TIP3   OH220732   4.059   0.579   0.407
 6923TIP3    H120733   4.071   0.518   0.334
 6923TIP3    H220734   4.096   0.661   0.376
 6924TIP3   OH220735   0.013   3.735   0.939
 6924TIP3    H120736   0.085   3.712   0.880
 6924TIP3    H220737   0.023   3.676   1.014
 6925TIP3   OH220738   1.834   3.206   2.989
 6925TIP3    H120739   1.766   3.271   3.009
 6925TIP3    H220740   1.863   3.229   2.901
 6926TIP3   OH220741   7.096   4.637   4.372
 6926TIP3    H120742   7.017   4.608   4.326
 6926TIP3    H220743   7.152   4.560   4.376
 6927TIP3   OH220744   2.175   5.260   2.276
 6927TIP3    H120745   2.248   5.245   2.336
 6927TIP3    H220746   2.205   5.225   2.193
 6928TIP3   OH220747   1.704   1.763   5.763
 6928TIP3    H120748   1.757   1.839   5.739
 6928TIP3    H220749   1.762   1.688   5.751
 6929TIP3   OH220750   4.653   2.219   0.763
 6929TIP3    H120751   4.717   2.281   0.728
 6929TIP3    H220752   4.586   2.212   0.695
 6930TIP3   OH220753   1.530   2.041   5.825
 6930TIP3    H120754   1.561   2.125   5.861
 6930TIP3    H220755   1.501   2.062   5.736
 6931TIP3   OH220756   5.797   4.953   3.329
 6931TIP3    H120757   5.858   5.000   3.272
 6931TIP3    H220758   5.785   5.011   3.404
 6932TIP3   OH220759   0.171   6.335   0.570
 6932TIP3    H120760   0.229   6.411   0.570
 6932TIP3    H220761   0.084   6.371   0.590
 6933TIP3   OH220762   3.005   5.283   4.258
 6933TIP3    H120763   2.936   5.301   4.323
 6933TIP3    H220764   3.075   5.345   4.281
 6934TIP3   OH220765   1.956   0.471   1.259
 6934TIP3    H120766   2.035   0.430   1.225
 6934TIP3    H220767   1.885   0.418   1.223
 6935TIP3   OH220768   0.103   0.186   1.420
 6935TIP3    H120769   0.126   0.093   1.428
 6935TIP3    H220770   0.186   0.231   1.407
 6936TIP3   OH220771   1.086   0.472   4.072
 6936TIP3    H120772   1.069   0.562   4.099
 6936TIP3    H220773   1.128   0.431   4.147
 6937TIP3   OH220774   0.724   0.818   0.412
 6937TIP3    H120775   0.649   0.876   0.422
 6937TIP3    H220776   0.717   0.785   0.322
 6938TIP3   OH220777   6.203   5.181   3.051
 6938TIP3    H120778   6.219   5.094   3.087
 6938TIP3    H220779   6.192   5.167   2.958
 6939TIP3   OH220780   0.570   6.427   5.832
 6939TIP3    H120781   0.608   6.402   5.748
 6939TIP3    H220782   0.486   6.467   5.809
 6940TIP3   OH220783   5.654   2.147   5.751
 6940TIP3    H120784   5.575   2.126   5.702
 6940TIP3    H220785   5.699   2.063   5.762
 6941TIP3   OH220786   6.284   1.899   3.401
 6941TIP3    H120787   6.270   1.901   3.307
 6941TIP3    H220788   6.345   1.826   3.414
 6942TIP3   OH220789   4.601   6.269   3.918
 6942TIP3    H120790   4.563   6.210   3.984
 6942TIP3    H220791   4.673   6.219   3.880
 6943TIP3   OH220792   1.489   4.799   4.340
 6943TIP3    H120793   1.458   4.828   4.426
 6943TIP3    H220794   1.447   4.714   4.328
 6944TIP3   OH220795   1.566   2.369   4.889
 6944TIP3    H120796   1.526   2.283   4.901
 6944TIP3    H220797   1.560   2.409   4.976
 6945TIP3   OH220798   1.662   5.467   0.769
 6945TIP3    H120799   1.571   5.455   0.796
 6945TIP3    H220800   1.676   5.562   0.774
 6946TIP3   OH220801   5.804   1.515   3.561
 6946TIP3    H120802   5.871   1.543   3.623
 6946TIP3    H220803   5.742   1.587   3.559
 6947TIP3   OH220804   7.186   3.998   1.652
 6947TIP3    H120805   7.197   4.048   1.571
 6947TIP3    H220806   7.220   4.055   1.720
 6948TIP3   OH220807   0.809   0.566   4.471
 6948TIP3    H120808   0.722   0.589   4.502
 6948TIP3    H220809   0.829   0.631   4.403
 6949TIP3   OH220810   2.914   5.563   3.620
 6949TIP3    H120811   2.928   5.632   3.685
 6949TIP3    H220812   2.999   5.550   3.579
 6950TIP3   OH220813   1.820   1.724   2.252
 6950TIP3    H120814   1.760   1.745   2.324
 6950TIP3    H220815   1.823   1.628   2.252
 6951TIP3   OH220816   0.682   4.859   3.561
 6951TIP3    H120817   0.730   4.907   3.629
 6951TIP3    H220818   0.726   4.882   3.479
 6952TIP3   OH220819   4.087   3.118   0.313
 6952TIP3    H120820   4.011   3.176   0.311
 6952TIP3    H220821   4.162   3.176   0.298
 6953TIP3   OH220822   0.394   0.789   0.138
 6953TIP3    H120823   0.419   0.766   0.227
 6953TIP3    H220824   0.418   0.714   0.085
 6954TIP3   OH220825   0.536   3.302   2.161
 6954TIP3    H120826   0.479   3.321   2.234
 6954TIP3    H220827   0.544   3.207   2.161
 6955TIP3   OH220828   2.312   4.167   2.428
 6955TIP3    H120829   2.322   4.249   2.476
 6955TIP3    H220830   2.262   4.191   2.350
 6956TIP3   OH220831   2.486   5.739   4.805
 6956TIP3    H120832   2.556   5.728   4.741
 6956TIP3    H220833   2.525   5.714   4.889
 6957TIP3   OH220834   6.851   3.583   3.963
 6957TIP3    H120835   6.915   3.513   3.953
 6957TIP3    H220836   6.841   3.594   4.057
 6958TIP3   OH220837   5.922   2.218   3.198
 6958TIP3    H120838   5.836   2.215   3.156
 6958TIP3    H220839   5.984   2.202   3.127
 6959TIP3   OH220840   1.259   2.358   0.740
 6959TIP3    H120841   1.327   2.346   0.673
 6959TIP3    H220842   1.302   2.411   0.808
 6960TIP3   OH220843   0.155   0.948   3.347
 6960TIP3    H120844   0.185   0.860   3.369
 6960TIP3    H220845   0.233   0.992   3.313
 6961TIP3   OH220846   1.828   1.083   5.596
 6961TIP3    H120847   1.785   1.126   5.523
 6961TIP3    H220848   1.757   1.060   5.656
 6962TIP3   OH220849   3.281   1.879   3.038
 6962TIP3    H120850   3.313   1.968   3.027
 6962TIP3    H220851   3.326   1.828   2.970
 6963TIP3   OH220852   1.711   5.773   0.453
 6963TIP3    H120853   1.723   5.748   0.362
 6963TIP3    H220854   1.780   5.726   0.501
 6964TIP3   OH220855   6.773   3.680   4.882
 6964TIP3    H120856   6.738   3.764   4.912
 6964TIP3    H220857   6.746   3.617   4.949
 6965TIP3   OH220858   2.332   3.179   3.878
 6965TIP3    H120859   2.260   3.130   3.839
 6965TIP3    H220860   2.404   3.115   3.885
 6966TIP3   OH220861   5.442   1.838   5.698
 6966TIP3    H120862   5.406   1.925   5.715
 6966TIP3    H220863   5.464   1.838   5.605
 6967TIP3   OH220864   2.356   5.103   3.270
 6967TIP3    H120865   2.372   5.173   3.334
 6967TIP3    H220866   2.419   5.035   3.293
 6968TIP3   OH220867   5.241   0.653   2.755
 6968TIP3    H120868   5.237   0.562   2.785
 6968TIP3    H220869   5.296   0.649   2.677
 6969TIP3   OH220870   5.828   1.890   5.465
 6969TIP3    H120871   5.867   1.967   5.423
 6969TIP3    H220872   5.852   1.818   5.408
 6970TIP3   OH220873   2.627   2.776   1.946
 6970TIP3    H120874   2.584   2.812   1.869
 6970TIP3    H220875   2.619   2.844   2.013
 6971TIP3   OH220876   0.685   5.222   3.908
 6971TIP3    H120877   0.777   5.198   3.907
 6971TIP3    H220878   0.659   5.218   4.000
 6972TIP3   OH220879   5.878   1.741   5.208
 6972TIP3    H120880   5.897   1.653   5.239
 6972TIP3    H220881   5.955   1.766   5.156
 6973TIP3   OH220882   0.551   3.832   4.347
 6973TIP3    H120883   0.524   3.743   4.366
 6973TIP3    H220884   0.646   3.826   4.334
 6974TIP3   OH220885   4.579   5.958   3.892
 6974TIP3    H120886   4.674   5.967   3.879
 6974TIP3    H220887   4.566   5.970   3.986
 6975TIP3   OH220888   0.474   0.440   2.905
 6975TIP3    H120889   0.520   0.408   2.982
 6975TIP3    H220890   0.387   0.399   2.910
 6976TIP3   OH220891   5.305   0.352   2.837
 6976TIP3    H120892   5.395   0.360   2.807
 6976TIP3    H220893   5.299   0.265   2.876
 6977TIP3   OH220894   6.175   3.152   1.974
 6977TIP3    H120895   6.212   3.232   2.010
 6977TIP3    H220896   6.151   3.175   1.884
 6978TIP3   OH220897   5.729   3.610   4.030
 6978TIP3    H120898   5.800   3.643   3.975
 6978TIP3    H220899   5.656   3.669   4.013
 6979TIP3   OH220900   5.868   0.956   3.346
 6979TIP3    H120901   5.933   1.019   3.316
 6979TIP3    H220902   5.913   0.871   3.344
 6980TIP3   OH220903   3.169   2.267   0.725
 6980TIP3    H120904   3.254   2.281   0.684
 6980TIP3    H220905   3.105   2.287   0.657
 6981TIP3   OH220906   6.818   5.582   3.840
 6981TIP3    H120907   6.854   5.518   3.779
 6981TIP3    H220908   6.769   5.644   3.786
 6982TIP3   OH220909   6.704   3.992   0.449
 6982TIP3    H120910   6.665   3.905   0.441
 6982TIP3    H220911   6.791   3.975   0.487
 6983TIP3   OH220912   6.113   2.372   4.786
 6983TIP3    H120913   6.108   2.391   4.692
 6983TIP3    H220914   6.156   2.448   4.824
 6984TIP3   OH220915   6.088   0.702   2.089
 6984TIP3    H120916   6.172   0.739   2.116
 6984TIP3    H220917   6.073   0.739   2.002
 6985TIP3   OH220918   5.105   6.545   3.138
 6985TIP3    H120919   5.067   6.459   3.119
 6985TIP3    H220920   5.045   6.584   3.201
 6986TIP3   OH220921   6.120   3.992   3.627
 6986TIP3    H120922   6.209   4.002   3.594
 6986TIP3    H220923   6.130   3.987   3.722
 6987TIP3   OH220924   0.407   5.257   1.132
 6987TIP3    H120925   0.501   5.270   1.120
 6987TIP3    H220926   0.398   5.217   1.218
 6988TIP3   OH220927   0.556   3.849   5.428
 6988TIP3    H120928   0.649   3.831   5.441
 6988TIP3    H220929   0.512   3.766   5.447
 6989TIP3   OH220930   2.754   0.597   2.679
 6989TIP3    H120931   2.738   0.560   2.592
 6989TIP3    H220932   2.847   0.619   2.679
 6990TIP3   OH220933   3.567   0.194   1.967
 6990TIP3    H120934   3.651   0.232   1.994
 6990TIP3    H220935   3.535   0.253   1.899
 6991TIP3   OH220936   4.861   2.371   2.052
 6991TIP3    H120937   4.903   2.415   1.978
 6991TIP3    H220938   4.778   2.418   2.063
 6992TIP3   OH220939   6.816   3.764   1.915
 6992TIP3    H120940   6.830   3.772   2.009
 6992TIP3    H220941   6.724   3.789   1.903
 6993TIP3   OH220942   1.928   4.950   1.029
 6993TIP3    H120943   1.943   5.025   1.086
 6993TIP3    H220944   1.995   4.956   0.961
 6994TIP3   OH220945   4.540   3.364   2.040
 6994TIP3    H120946   4.500   3.307   1.974
 6994TIP3    H220947   4.598   3.422   1.991
 6995TIP3   OH220948   3.616   2.365   0.777
 6995TIP3    H120949   3.644   2.297   0.716
 6995TIP3    H220950   3.674   2.355   0.853
 6996TIP3   OH220951   2.312   6.494   0.416
 6996TIP3    H120952   2.251   6.474   0.345
 6996TIP3    H220953   2.303   6.421   0.477
 6997TIP3   OH220954   0.551   1.715   4.009
 6997TIP3    H120955   0.628   1.716   4.066
 6997TIP3    H220956   0.555   1.630   3.964
 6998TIP3   OH220957   0.152   0.447   4.277
 6998TIP3    H120958   0.065   0.472   4.306
 6998TIP3    H220959   0.180   0.381   4.340
 6999TIP3   OH220960   5.377   1.920   3.142
 6999TIP3    H120961   5.308   1.928   3.207
 6999TIP3    H220962   5.335   1.943   3.059
 7000TIP3   OH220963   4.022   1.973   4.653
 7000TIP3    H120964   4.099   2.026   4.670
 7000TIP3    H220965   4.004   1.929   4.735
 7001TIP3   OH220966   4.974   1.067   1.488
 7001TIP3    H120967   5.029   1.099   1.560
 7001TIP3    H220968   5.036   1.042   1.420
 7002TIP3   OH220969   2.613   5.497   0.581
 7002TIP3    H120970   2.680   5.521   0.645
 7002TIP3    H220971   2.661   5.489   0.498
 7003TIP3   OH220972   3.333   6.466   4.985
 7003TIP3    H120973   3.285   6.452   5.067
 7003TIP3    H220974   3.378   6.549   4.998
 7004TIP3   OH220975   4.542   6.283   2.322
 7004TIP3    H120976   4.537   6.314   2.412
 7004TIP3    H220977   4.557   6.189   2.329
 7005TIP3   OH220978   3.779   3.580   1.043
 7005TIP3    H120979   3.746   3.638   0.975
 7005TIP3    H220980   3.826   3.637   1.103
 7006TIP3   OH220981   7.100   1.784   2.514
 7006TIP3    H120982   7.150   1.774   2.432
 7006TIP3    H220983   7.149   1.732   2.578
 7007TIP3   OH220984   1.446   4.020   5.429
 7007TIP3    H120985   1.438   3.931   5.395
 7007TIP3    H220986   1.360   4.060   5.412
 7008TIP3   OH220987   0.507   5.942   3.897
 7008TIP3    H120988   0.520   6.021   3.844
 7008TIP3    H220989   0.512   5.870   3.835
 7009TIP3   OH220990   1.700   4.908   2.503
 7009TIP3    H120991   1.752   4.830   2.487
 7009TIP3    H220992   1.682   4.906   2.597
 7010TIP3   OH220993   2.428   4.476   3.009
 7010TIP3    H120994   2.402   4.550   3.063
 7010TIP3    H220995   2.435   4.512   2.920
 7011TIP3   OH220996   4.435   0.605   1.789
 7011TIP3    H120997   4.517   0.651   1.805
 7011TIP3    H220998   4.391   0.657   1.721
 7012TIP3   OH220999   6.859   3.670   0.448
 7012TIP3    H121000   6.780   3.711   0.412
 7012TIP3    H221001   6.848   3.674   0.543
 7013TIP3   OH221002   3.721   6.431   3.016
 7013TIP3    H121003   3.771   6.357   3.051
 7013TIP3    H221004   3.674   6.466   3.092
 7014TIP3   OH221005   5.254   1.982   2.194
 7014TIP3    H121006   5.265   2.041   2.268
 7014TIP3    H221007   5.325   2.006   2.134
 7015TIP3   OH221008   1.628   2.440   3.235
 7015TIP3    H121009   1.699   2.499   3.209
 7015TIP3    H221010   1.551   2.496   3.241
 7016TIP3   OH221011   5.099   2.896   4.616
 7016TIP3    H121012   5.110   2.986   4.647
 7016TIP3    H221013   5.184   2.873   4.577
 7017TIP3   OH221014   3.461   3.024   0.404
 7017TIP3    H121015   3.518   2.948   0.419
 7017TIP3    H221016   3.377   2.986   0.379
 7018TIP3   OH221017   0.333   6.546   0.512
 7018TIP3    H121018   0.307   6.522   0.423
 7018TIP3    H221019   0.331   6.642   0.512
 7019TIP3   OH221020   1.116   2.675   1.419
 7019TIP3    H121021   1.144   2.603   1.477
 7019TIP3    H221022   1.076   2.631   1.344
 7020TIP3   OH221023   2.439   0.230   2.282
 7020TIP3    H121024   2.409   0.204   2.195
 7020TIP3    H221025   2.365   0.212   2.340
 7021TIP3   OH221026   3.842   2.323   2.785
 7021TIP3    H121027   3.849   2.269   2.707
 7021TIP3    H221028   3.903   2.395   2.770
 7022TIP3   OH221029   1.628   1.274   3.561
 7022TIP3    H121030   1.550   1.328   3.550
 7022TIP3    H221031   1.640   1.268   3.655
 7023TIP3   OH221032   3.926   2.510   0.555
 7023TIP3    H121033   3.908   2.593   0.598
 7023TIP3    H221034   3.974   2.459   0.621
 7024TIP3   OH221035   5.201   6.080   1.673
 7024TIP3    H121036   5.280   6.099   1.724
 7024TIP3    H221037   5.129   6.117   1.725
 7025TIP3   OH221038   5.505   1.137   0.365
 7025TIP3    H121039   5.470   1.049   0.357
 7025TIP3    H221040   5.510   1.170   0.275
 7026TIP3   OH221041   1.912   6.561   2.579
 7026TIP3    H121042   1.831   6.518   2.607
 7026TIP3    H221043   1.970   6.554   2.654
 7027TIP3   OH221044   5.159   1.015   4.369
 7027TIP3    H121045   5.242   0.969   4.370
 7027TIP3    H221046   5.096   0.953   4.405
 7028TIP3   OH221047   1.272   2.824   3.990
 7028TIP3    H121048   1.223   2.839   4.071
 7028TIP3    H221049   1.205   2.803   3.925
 7029TIP3   OH221050   5.963   3.842   2.082
 7029TIP3    H121051   5.927   3.858   2.169
 7029TIP3    H221052   5.909   3.770   2.047
 7030TIP3   OH221053   1.630   4.582   2.651
 7030TIP3    H121054   1.666   4.506   2.607
 7030TIP3    H221055   1.706   4.626   2.689
 7031TIP3   OH221056   3.124   6.374   0.365
 7031TIP3    H121057   3.066   6.351   0.293
 7031TIP3    H221058   3.164   6.457   0.339
 7032TIP3   OH221059   6.271   6.695   0.442
 7032TIP3    H121060   6.241   6.620   0.493
 7032TIP3    H221061   6.193   6.726   0.396
 7033TIP3   OH221062   4.806   4.265   4.218
 7033TIP3    H121063   4.777   4.339   4.272
 7033TIP3    H221064   4.784   4.291   4.129
 7034TIP3   OH221065   6.551   1.620   5.808
 7034TIP3    H121066   6.583   1.704   5.840
 7034TIP3    H221067   6.501   1.642   5.729
 7035TIP3   OH221068   1.346   2.503   5.830
 7035TIP3    H121069   1.359   2.433   5.765
 7035TIP3    H221070   1.261   2.541   5.806
 7036TIP3   OH221071   3.826   4.763   5.349
 7036TIP3    H121072   3.796   4.849   5.379
 7036TIP3    H221073   3.750   4.706   5.362
 7037TIP3   OH221074   2.080   1.350   4.446
 7037TIP3    H121075   2.055   1.300   4.369
 7037TIP3    H221076   2.172   1.373   4.430
 7038TIP3   OH221077   2.658   1.125   4.478
 7038TIP3    H121078   2.579   1.178   4.491
 7038TIP3    H221079   2.730   1.188   4.486
 7039TIP3   OH221080   2.569   6.525   5.231
 7039TIP3    H121081   2.593   6.447   5.183
 7039TIP3    H221082   2.498   6.565   5.179
 7040TIP3   OH221083   5.875   5.293   4.415
 7040TIP3    H121084   5.781   5.280   4.401
 7040TIP3    H221085   5.900   5.358   4.348
 7041TIP3   OH221086   6.669   0.209   1.446
 7041TIP3    H121087   6.646   0.208   1.539
 7041TIP3    H221088   6.671   0.301   1.423
 7042TIP3   OH221089   3.638   4.792   1.148
 7042TIP3    H121090   3.616   4.881   1.175
 7042TIP3    H221091   3.556   4.744   1.153
 7043TIP3   OH221092   3.055   2.407   3.493
 7043TIP3    H121093   3.000   2.330   3.482
 7043TIP3    H221094   3.093   2.421   3.406
 7044TIP3   OH221095   4.273   1.014   5.573
 7044TIP3    H121096   4.240   0.941   5.520
 7044TIP3    H221097   4.234   1.092   5.534
 7045TIP3   OH221098   0.907   5.481   3.979
 7045TIP3    H121099   0.989   5.517   4.012
 7045TIP3    H221100   0.848   5.556   3.971
 7046TIP3   OH221101   4.722   0.997   2.780
 7046TIP3    H121102   4.787   0.929   2.763
 7046TIP3    H221103   4.735   1.021   2.872
 7047TIP3   OH221104   6.811   1.470   1.555
 7047TIP3    H121105   6.750   1.521   1.503
 7047TIP3    H221106   6.886   1.456   1.497
 7048TIP3   OH221107   1.122   0.381   4.909
 7048TIP3    H121108   1.061   0.397   4.837
 7048TIP3    H221109   1.204   0.423   4.881
 7049TIP3   OH221110   1.300   4.960   3.694
 7049TIP3    H121111   1.228   4.923   3.745
 7049TIP3    H221112   1.366   4.890   3.691
 7050TIP3   OH221113   6.260   0.070   0.486
 7050TIP3    H121114   6.238   0.163   0.498
 7050TIP3    H221115   6.352   0.064   0.510
 7051TIP3   OH221116   0.860   4.952   1.139
 7051TIP3    H121117   0.816   4.920   1.060
 7051TIP3    H221118   0.953   4.940   1.121
 7052TIP3   OH221119   1.223   6.735   5.330
 7052TIP3    H121120   1.227   6.645   5.299
 7052TIP3    H221121   1.311   6.769   5.319
 7053TIP3   OH221122   3.394   4.147   5.937
 7053TIP3    H121123   3.389   4.060   5.895
 7053TIP3    H221124   3.405   4.207   5.863
 7054TIP3   OH221125   3.503   2.325   0.261
 7054TIP3    H121126   3.566   2.394   0.281
 7054TIP3    H221127   3.449   2.319   0.340
 7055TIP3   OH221128   5.537   1.490   5.056
 7055TIP3    H121129   5.492   1.501   5.140
 7055TIP3    H221130   5.538   1.395   5.042
 7056TIP3   OH221131   1.012   0.192   1.776
 7056TIP3    H121132   0.939   0.244   1.743
 7056TIP3    H221133   0.972   0.112   1.810
 7057TIP3   OH221134   4.987   4.190   2.072
 7057TIP3    H121135   4.964   4.190   2.165
 7057TIP3    H221136   4.990   4.283   2.048
 7058TIP3   OH221137   4.180   4.515   0.894
 7058TIP3    H121138   4.232   4.460   0.953
 7058TIP3    H221139   4.100   4.533   0.943
 7059TIP3   OH221140   2.431   5.215   5.465
 7059TIP3    H121141   2.485   5.283   5.505
 7059TIP3    H221142   2.389   5.258   5.391
 7060TIP3   OH221143   0.024   6.792   0.533
 7060TIP3    H121144   0.118   6.783   0.515
 7060TIP3    H221145  -0.013   6.821   0.450
 7061TIP3   OH221146   5.603   2.769   4.031
 7061TIP3    H121147   5.552   2.715   4.092
 7061TIP3    H221148   5.601   2.856   4.069
 7062TIP3   OH221149   1.580   4.018   1.257
 7062TIP3    H121150   1.613   3.997   1.344
 7062TIP3    H221151   1.612   3.947   1.201
 7063TIP3   OH221152   3.326   0.287   4.639
 7063TIP3    H121153   3.355   0.337   4.563
 7063TIP3    H221154   3.339   0.346   4.713
 7064TIP3   OH221155   1.925   5.800   5.898
 7064TIP3    H121156   1.985   5.746   5.846
 7064TIP3    H221157   1.848   5.810   5.843
 7065TIP3   OH221158   1.330   5.213   5.702
 7065TIP3    H121159   1.344   5.178   5.790
 7065TIP3    H221160   1.416   5.209   5.660
 7066TIP3   OH221161   5.073   4.489   4.398
 7066TIP3    H121162   5.101   4.522   4.484
 7066TIP3    H221163   4.978   4.490   4.401
 7067TIP3   OH221164   2.160   1.810   0.841
 7067TIP3    H121165   2.220   1.766   0.780
 7067TIP3    H221166   2.213   1.877   0.884
 7068TIP3   OH221167   0.361   3.430   0.695
 7068TIP3    H121168   0.385   3.366   0.628
 7068TIP3    H221169   0.440   3.482   0.708
 7069TIP3   OH221170   1.815   1.192   1.601
 7069TIP3    H121171   1.870   1.130   1.648
 7069TIP3    H221172   1.875   1.235   1.540
 7070TIP3   OH221173   7.146   0.234   2.344
 7070TIP3    H121174   7.181   0.146   2.362
 7070TIP3    H221175   7.102   0.259   2.425
 7071TIP3   OH221176   5.741   2.949   2.885
 7071TIP3    H121177   5.772   2.870   2.841
 7071TIP3    H221178   5.674   2.984   2.827
 7072TIP3   OH221179   4.483   1.579   1.788
 7072TIP3    H121180   4.459   1.671   1.795
 7072TIP3    H221181   4.557   1.569   1.848
 7073TIP3   OH221182   0.542   0.664   1.131
 7073TIP3    H121183   0.573   0.576   1.113
 7073TIP3    H221184   0.447   0.660   1.118
 7074TIP3   OH221185   3.179   1.055   5.434
 7074TIP3    H121186   3.217   1.048   5.521
 7074TIP3    H221187   3.146   0.967   5.415
 7075TIP3   OH221188   2.702   3.472   2.216
 7075TIP3    H121189   2.690   3.523   2.297
 7075TIP3    H221190   2.792   3.490   2.189
 7076TIP3   OH221191   2.325   1.146   5.376
 7076TIP3    H121192   2.247   1.099   5.344
 7076TIP3    H221193   2.360   1.189   5.298
 7077TIP3   OH221194   1.645   6.017   3.539
 7077TIP3    H121195   1.695   5.981   3.466
 7077TIP3    H221196   1.554   5.996   3.518
 7078TIP3   OH221197   6.570   6.713   2.336
 7078TIP3    H121198   6.520   6.700   2.416
 7078TIP3    H221199   6.520   6.778   2.286
 7079TIP3   OH221200   3.543   1.235   0.660
 7079TIP3    H121201   3.565   1.171   0.728
 7079TIP3    H221202   3.454   1.263   0.680
 7080TIP3   OH221203   0.790   3.018   1.527
 7080TIP3    H121204   0.809   3.021   1.621
 7080TIP3    H221205   0.726   2.946   1.518
 7081TIP3   OH221206   3.417   3.593   0.927
 7081TIP3    H121207   3.468   3.622   1.003
 7081TIP3    H221208   3.370   3.672   0.899
 7082TIP3   OH221209   4.258   2.264   0.269
 7082TIP3    H121210   4.308   2.286   0.191
 7082TIP3    H221211   4.307   2.193   0.310
 7083TIP3   OH221212   1.209   2.416   4.012
 7083TIP3    H121213   1.179   2.349   4.074
 7083TIP3    H221214   1.209   2.371   3.927
 7084TIP3   OH221215   5.112   4.000   1.905
 7084TIP3    H121216   5.055   4.068   1.941
 7084TIP3    H221217   5.126   3.939   1.977
 7085TIP3   OH221218   5.367   6.158   4.380
 7085TIP3    H121219   5.450   6.156   4.334
 7085TIP3    H221220   5.307   6.204   4.321
 7086TIP3   OH221221   5.270   5.481   4.170
 7086TIP3    H121222   5.348   5.435   4.201
 7086TIP3    H221223   5.196   5.430   4.204
 7087TIP3   OH221224   3.056   4.402   3.247
 7087TIP3    H121225   3.066   4.478   3.304
 7087TIP3    H221226   3.068   4.436   3.159
 7088TIP3   OH221227   4.194   6.784   1.303
 7088TIP3    H121228   4.246   6.858   1.336
 7088TIP3    H221229   4.206   6.787   1.208
 7089TIP3   OH221230   1.023   2.564   3.608
 7089TIP3    H121231   1.082   2.507   3.559
 7089TIP3    H221232   1.046   2.652   3.581
 7090TIP3   OH221233   1.643   6.518   4.616
 7090TIP3    H121234   1.670   6.589   4.674
 7090TIP3    H221235   1.724   6.467   4.602
 7091TIP3   OH221236   2.316   3.401   0.777
 7091TIP3    H121237   2.365   3.328   0.813
 7091TIP3    H221238   2.377   3.444   0.716
 7092TIP3   OH221239   6.433   6.583   3.678
 7092TIP3    H121240   6.525   6.557   3.686
 7092TIP3    H221241   6.391   6.551   3.758
 7093TIP3   OH221242   1.526   2.919   1.000
 7093TIP3    H121243   1.561   2.830   0.997
 7093TIP3    H221244   1.595   2.974   0.964
 7094TIP3   OH221245   2.357   5.163   3.649
 7094TIP3    H121246   2.411   5.162   3.728
 7094TIP3    H221247   2.411   5.207   3.584
 7095TIP3   OH221248   5.868   1.060   3.009
 7095TIP3    H121249   5.784   1.026   2.979
 7095TIP3    H221250   5.854   1.155   3.018
 7096TIP3   OH221251   2.223   4.267   0.783
 7096TIP3    H121252   2.261   4.349   0.815
 7096TIP3    H221253   2.147   4.252   0.839
 7097TIP3   OH221254   3.636   5.748   5.781
 7097TIP3    H121255   3.593   5.666   5.806
 7097TIP3    H221256   3.625   5.805   5.856
 7098TIP3   OH221257   1.537   4.415   0.843
 7098TIP3    H121258   1.450   4.395   0.808
 7098TIP3    H221259   1.579   4.329   0.853
 7099TIP3   OH221260   1.692   3.590   4.055
 7099TIP3    H121261   1.668   3.526   3.988
 7099TIP3    H221262   1.632   3.663   4.041
 7100TIP3   OH221263   1.831   3.725   2.556
 7100TIP3    H121264   1.891   3.799   2.555
 7100TIP3    H221265   1.780   3.735   2.636
 7101TIP3   OH221266   3.238   0.073   0.029
 7101TIP3    H121267   3.334   0.078   0.029
 7101TIP3    H221268   3.210   0.164   0.030
 7102TIP3   OH221269   1.623   1.380   1.815
 7102TIP3    H121270   1.587   1.298   1.850
 7102TIP3    H221271   1.694   1.352   1.757
 7103TIP3   OH221272   0.299   5.538   0.917
 7103TIP3    H121273   0.384   5.507   0.887
 7103TIP3    H221274   0.272   5.475   0.984
 7104TIP3   OH221275   0.970   5.354   2.577
 7104TIP3    H121276   0.946   5.292   2.646
 7104TIP3    H221277   1.001   5.432   2.624
 7105TIP3   OH221278   5.632   4.327   3.497
 7105TIP3    H121279   5.632   4.232   3.488
 7105TIP3    H221280   5.603   4.343   3.586
 7106TIP3   OH221281   3.491   5.444   5.596
 7106TIP3    H121282   3.471   5.427   5.688
 7106TIP3    H221283   3.450   5.371   5.549
 7107TIP3   OH221284   7.111   0.161   1.837
 7107TIP3    H121285   7.149   0.214   1.766
 7107TIP3    H221286   7.152   0.075   1.828
 7108TIP3   OH221287   1.989   1.148   2.519
 7108TIP3    H121288   2.047   1.074   2.500
 7108TIP3    H221289   1.964   1.182   2.433
 7109TIP3   OH221290   3.793   3.598   1.930
 7109TIP3    H121291   3.741   3.572   2.005
 7109TIP3    H221292   3.863   3.533   1.925
 7110TIP3   OH221293   1.773   5.938   5.328
 7110TIP3    H121294   1.724   5.865   5.290
 7110TIP3    H221295   1.841   5.897   5.382
 7111TIP3   OH221296   5.386   4.202   2.986
 7111TIP3    H121297   5.373   4.296   2.999
 7111TIP3    H221298   5.380   4.165   3.074
 7112TIP3   OH221299   6.567   4.720   2.653
 7112TIP3    H121300   6.587   4.634   2.616
 7112TIP3    H221301   6.611   4.721   2.738
 7113TIP3   OH221302   0.857   5.010   3.712
 7113TIP3    H121303   0.800   5.084   3.730
 7113TIP3    H221304   0.945   5.046   3.713
 7114TIP3   OH221305   0.527   4.266   5.720
 7114TIP3    H121306   0.574   4.265   5.803
 7114TIP3    H221307   0.435   4.251   5.743
 7115TIP3   OH221308   5.649   6.241   3.006
 7115TIP3    H121309   5.693   6.294   2.939
 7115TIP3    H221310   5.558   6.272   3.005
 7116TIP3   OH221311   6.182   4.051   3.883
 7116TIP3    H121312   6.225   4.137   3.890
 7116TIP3    H221313   6.132   4.043   3.965
 7117TIP3   OH221314   2.473   3.979   2.353
 7117TIP3    H121315   2.467   3.979   2.257
 7117TIP3    H221316   2.425   4.058   2.380
 7118TIP3   OH221317   2.178   2.183   3.285
 7118TIP3    H121318   2.140   2.192   3.372
 7118TIP3    H221319   2.132   2.247   3.231
 7119TIP3   OH221320   4.665   3.050   3.198
 7119TIP3    H121321   4.655   3.070   3.291
 7119TIP3    H221322   4.610   3.116   3.153
 7120TIP3   OH221323   4.217   2.267   0.802
 7120TIP3    H121324   4.241   2.301   0.888
 7120TIP3    H221325   4.257   2.329   0.740
 7121TIP3   OH221326   3.709   4.147   5.395
 7121TIP3    H121327   3.722   4.212   5.325
 7121TIP3    H221328   3.776   4.081   5.378
 7122TIP3   OH221329   0.341   4.910   3.101
 7122TIP3    H121330   0.247   4.891   3.106
 7122TIP3    H221331   0.361   4.954   3.184
 7123TIP3   OH221332   5.378   4.171   2.429
 7123TIP3    H121333   5.398   4.254   2.472
 7123TIP3    H221334   5.349   4.195   2.342
 7124TIP3   OH221335   2.019   5.200   4.320
 7124TIP3    H121336   1.957   5.220   4.390
 7124TIP3    H221337   2.104   5.226   4.356
 7125TIP3   OH221338   6.232   3.007   5.346
 7125TIP3    H121339   6.222   2.912   5.347
 7125TIP3    H221340   6.288   3.026   5.421
 7126TIP3   OH221341   5.423   2.232   0.858
 7126TIP3    H121342   5.495   2.296   0.854
 7126TIP3    H221343   5.458   2.160   0.909
 7127TIP3   OH221344   3.695   1.976   2.389
 7127TIP3    H121345   3.622   2.026   2.428
 7127TIP3    H221346   3.660   1.887   2.379
 7128TIP3   OH221347   0.903   0.901   1.913
 7128TIP3    H121348   0.869   0.817   1.943
 7128TIP3    H221349   0.827   0.960   1.915
 7129TIP3   OH221350   3.364   1.328   1.012
 7129TIP3    H121351   3.280   1.310   0.971
 7129TIP3    H221352   3.342   1.353   1.102
 7130TIP3   OH221353   3.886   6.328   5.335
 7130TIP3    H121354   3.947   6.353   5.404
 7130TIP3    H221355   3.917   6.243   5.305
 7131TIP3   OH221356   6.329   2.206   0.752
 7131TIP3    H121357   6.313   2.291   0.794
 7131TIP3    H221358   6.362   2.228   0.665
 7132TIP3   OH221359   2.984   4.929   2.302
 7132TIP3    H121360   2.982   4.849   2.249
 7132TIP3    H221361   3.060   4.977   2.270
 7133TIP3   OH221362   2.685   1.938   4.685
 7133TIP3    H121363   2.592   1.958   4.679
 7133TIP3    H221364   2.729   2.022   4.668
 7134TIP3   OH221365   2.865   1.912   5.634
 7134TIP3    H121366   2.914   1.831   5.644
 7134TIP3    H221367   2.885   1.962   5.713
 7135TIP3   OH221368   2.099   0.711   3.620
 7135TIP3    H121369   2.121   0.707   3.713
 7135TIP3    H221370   2.053   0.795   3.610
 7136TIP3   OH221371   4.866   2.520   1.613
 7136TIP3    H121372   4.804   2.588   1.587
 7136TIP3    H221373   4.925   2.511   1.538
 7137TIP3   OH221374   2.733   6.334   2.025
 7137TIP3    H121375   2.665   6.267   2.039
 7137TIP3    H221376   2.775   6.309   1.943
 7138TIP3   OH221377   6.107   4.946   0.065
 7138TIP3    H121378   6.017   4.966   0.042
 7138TIP3    H221379   6.101   4.895   0.146
 7139TIP3   OH221380   4.619   1.539   1.532
 7139TIP3    H121381   4.612   1.553   1.626
 7139TIP3    H221382   4.703   1.577   1.507
 7140TIP3   OH221383   6.469   4.142   5.084
 7140TIP3    H121384   6.397   4.197   5.054
 7140TIP3    H221385   6.461   4.143   5.179
 7141TIP3   OH221386   3.452   3.998   3.568
 7141TIP3    H121387   3.514   3.941   3.523
 7141TIP3    H221388   3.411   3.942   3.635
 7142TIP3   OH221389   4.143   5.996   0.038
 7142TIP3    H121390   4.177   5.907   0.038
 7142TIP3    H221391   4.187   6.038  -0.036
 7143TIP3   OH221392   3.597   6.531   2.086
 7143TIP3    H121393   3.526   6.468   2.085
 7143TIP3    H221394   3.608   6.557   1.994
 7144TIP3   OH221395   0.928   5.454   1.660
 7144TIP3    H121396   0.969   5.523   1.712
 7144TIP3    H221397   1.001   5.398   1.632
 7145TIP3   OH221398   0.726   4.715   2.766
 7145TIP3    H121399   0.658   4.651   2.784
 7145TIP3    H221400   0.808   4.672   2.792
 7146TIP3   OH221401   4.619   5.846   1.076
 7146TIP3    H121402   4.662   5.775   1.125
 7146TIP3    H221403   4.685   5.915   1.073
 7147TIP3   OH221404   4.749   3.081   1.841
 7147TIP3    H121405   4.737   3.055   1.749
 7147TIP3    H221406   4.662   3.107   1.870
 7148TIP3   OH221407   0.251   1.479   2.185
 7148TIP3    H121408   0.233   1.397   2.231
 7148TIP3    H221409   0.256   1.544   2.254
 7149TIP3   OH221410   4.853   2.258   0.439
 7149TIP3    H121411   4.831   2.262   0.346
 7149TIP3    H221412   4.811   2.336   0.476
 7150TIP3   OH221413   4.160   6.370   3.657
 7150TIP3    H121414   4.212   6.450   3.670
 7150TIP3    H221415   4.126   6.378   3.568
 7151TIP3   OH221416   0.366   0.030   1.274
 7151TIP3    H121417   0.308  -0.045   1.285
 7151TIP3    H221418   0.320   0.088   1.213
 7152TIP3   OH221419   0.796   1.781   5.318
 7152TIP3    H121420   0.829   1.753   5.403
 7152TIP3    H221421   0.786   1.876   5.327
 7153TIP3   OH221422   3.365   5.445   3.506
 7153TIP3    H121423   3.409   5.402   3.433
 7153TIP3    H221424   3.431   5.448   3.575
 7154TIP3   OH221425   5.702   3.314   3.253
 7154TIP3    H121426   5.709   3.402   3.289
 7154TIP3    H221427   5.752   3.318   3.171
 7155TIP3   OH221428   4.939   3.769   5.113
 7155TIP3    H121429   4.935   3.853   5.066
 7155TIP3    H221430   5.026   3.735   5.094
 7156TIP3   OH221431   2.504   0.443   4.733
 7156TIP3    H121432   2.558   0.365   4.725
 7156TIP3    H221433   2.474   0.442   4.824
 7157TIP3   OH221434   4.573   4.479   3.257
 7157TIP3    H121435   4.616   4.413   3.311
 7157TIP3    H221436   4.555   4.435   3.174
 7158TIP3   OH221437   1.597   1.813   4.916
 7158TIP3    H121438   1.668   1.767   4.960
 7158TIP3    H221439   1.639   1.862   4.846
 7159TIP3   OH221440   4.388   6.366   1.196
 7159TIP3    H121441   4.432   6.409   1.123
 7159TIP3    H221442   4.429   6.403   1.274
 7160TIP3   OH221443   0.929   6.418   4.059
 7160TIP3    H121444   0.865   6.364   4.106
 7160TIP3    H221445   0.985   6.354   4.014
 7161TIP3   OH221446   6.356   0.711   4.713
 7161TIP3    H121447   6.314   0.626   4.701
 7161TIP3    H221448   6.432   0.708   4.655
 7162TIP3   OH221449   5.749   5.769   5.163
 7162TIP3    H121450   5.680   5.832   5.140
 7162TIP3    H221451   5.746   5.704   5.093
 7163TIP3   OH221452   3.457   1.162   1.884
 7163TIP3    H121453   3.465   1.257   1.875
 7163TIP3    H221454   3.364   1.147   1.903
 7164TIP3   OH221455   5.038   3.452   2.034
 7164TIP3    H121456   5.121   3.490   2.006
 7164TIP3    H221457   5.038   3.364   1.997
 7165TIP3   OH221458   1.556   1.940   2.375
 7165TIP3    H121459   1.606   1.999   2.432
 7165TIP3    H221460   1.556   1.856   2.422
 7166TIP3   OH221461   4.880   5.608   0.052
 7166TIP3    H121462   4.971   5.592   0.077
 7166TIP3    H221463   4.873   5.578  -0.038
 7167TIP3   OH221464   5.484   0.017   4.799
 7167TIP3    H121465   5.421   0.088   4.816
 7167TIP3    H221466   5.432  -0.063   4.805
 7168TIP3   OH221467   2.271   1.008   2.627
 7168TIP3    H121468   2.366   1.016   2.627
 7168TIP3    H221469   2.248   0.992   2.535
 7169TIP3   OH221470   1.102   2.324   1.055
 7169TIP3    H121471   1.189   2.284   1.059
 7169TIP3    H221472   1.047   2.265   1.106
 7170TIP3   OH221473   2.368   5.259   5.876
 7170TIP3    H121474   2.390   5.344   5.839
 7170TIP3    H221475   2.277   5.267   5.903
 7171TIP3   OH221476   0.669   5.115   5.553
 7171TIP3    H121477   0.628   5.120   5.467
 7171TIP3    H221478   0.627   5.184   5.604
 7172TIP3   OH221479   6.267   3.412   3.229
 7172TIP3    H121480   6.193   3.461   3.194
 7172TIP3    H221481   6.336   3.422   3.163
 7173TIP3   OH221482   6.376   0.370   4.998
 7173TIP3    H121483   6.299   0.424   4.978
 7173TIP3    H221484   6.450   0.426   4.976
 7174TIP3   OH221485   6.475   0.361   4.497
 7174TIP3    H121486   6.453   0.325   4.583
 7174TIP3    H221487   6.397   0.408   4.469
 7175TIP3   OH221488   2.908   6.103   4.002
 7175TIP3    H121489   2.921   6.052   3.922
 7175TIP3    H221490   2.978   6.169   4.000
 7176TIP3   OH221491   1.318   6.076   1.955
 7176TIP3    H121492   1.312   6.002   2.017
 7176TIP3    H221493   1.270   6.147   1.998
 7177TIP3   OH221494   7.086   3.436   2.142
 7177TIP3    H121495   7.100   3.517   2.093
 7177TIP3    H221496   7.118   3.456   2.230
 7178TIP3   OH221497   2.709   6.099   1.476
 7178TIP3    H121498   2.773   6.076   1.409
 7178TIP3    H221499   2.626   6.110   1.428
 7179TIP3   OH221500   5.977   0.038   5.776
 7179TIP3    H121501   6.039   0.058   5.846
 7179TIP3    H221502   5.971  -0.058   5.777
 7180TIP3   OH221503   3.199   4.382   5.124
 7180TIP3    H121504   3.127   4.336   5.081
 7180TIP3    H221505   3.156   4.448   5.179
 7181TIP3   OH221506   0.851   0.520   3.072
 7181TIP3    H121507   0.944   0.497   3.078
 7181TIP3    H221508   0.816   0.502   3.159
 7182TIP3   OH221509   2.357   4.648   4.119
 7182TIP3    H121510   2.358   4.555   4.098
 7182TIP3    H221511   2.330   4.652   4.211
 7183TIP3   OH221512   4.384   5.208   0.852
 7183TIP3    H121513   4.476   5.218   0.827
 7183TIP3    H221514   4.367   5.114   0.841
 7184TIP3   OH221515   6.972   2.840   0.445
 7184TIP3    H121516   6.924   2.777   0.498
 7184TIP3    H221517   6.905   2.884   0.393
 7185TIP3   OH221518   5.438   3.174   3.911
 7185TIP3    H121519   5.521   3.220   3.900
 7185TIP3    H221520   5.411   3.151   3.822
 7186TIP3   OH221521   2.357   4.487   1.530
 7186TIP3    H121522   2.319   4.563   1.488
 7186TIP3    H221523   2.293   4.461   1.596
 7187TIP3   OH221524   4.884   2.289   2.788
 7187TIP3    H121525   4.914   2.332   2.708
 7187TIP3    H221526   4.797   2.326   2.803
 7188TIP3   OH221527   6.565   3.738   0.027
 7188TIP3    H121528   6.591   3.812   0.083
 7188TIP3    H221529   6.517   3.680   0.086
 7189TIP3   OH221530   3.251   4.920   3.909
 7189TIP3    H121531   3.229   4.840   3.957
 7189TIP3    H221532   3.215   4.991   3.962
 7190TIP3   OH221533   1.579   1.702   4.003
 7190TIP3    H121534   1.520   1.746   3.941
 7190TIP3    H221535   1.654   1.675   3.949
 7191TIP3   OH221536   3.273   3.281   5.274
 7191TIP3    H121537   3.251   3.374   5.265
 7191TIP3    H221538   3.364   3.274   5.244
 7192TIP3   OH221539   3.532   3.531   3.346
 7192TIP3    H121540   3.498   3.535   3.435
 7192TIP3    H221541   3.565   3.442   3.337
 7193TIP3   OH221542   4.558   0.436   3.175
 7193TIP3    H121543   4.596   0.499   3.236
 7193TIP3    H221544   4.633   0.388   3.139
 7194TIP3   OH221545   6.061   4.447   5.705
 7194TIP3    H121546   6.114   4.490   5.638
 7194TIP3    H221547   6.018   4.519   5.752
 7195TIP3   OH221548   6.432   1.687   3.310
 7195TIP3    H121549   6.519   1.651   3.329
 7195TIP3    H221550   6.373   1.612   3.321
 7196TIP3   OH221551   5.337   4.151   4.690
 7196TIP3    H121552   5.245   4.151   4.665
 7196TIP3    H221553   5.372   4.233   4.656
 7197TIP3   OH221554   0.173   4.583   3.287
 7197TIP3    H121555   0.114   4.635   3.232
 7197TIP3    H221556   0.248   4.640   3.302
 7198TIP3   OH221557   1.797   6.509   0.289
 7198TIP3    H121558   1.877   6.496   0.339
 7198TIP3    H221559   1.763   6.593   0.320
 7199TIP3   OH221560   7.010   1.295   4.143
 7199TIP3    H121561   6.928   1.329   4.108
 7199TIP3    H221562   6.989   1.204   4.167
 7200TIP3   OH221563   2.311   6.766   4.756
 7200TIP3    H121564   2.270   6.851   4.773
 7200TIP3    H221565   2.273   6.707   4.821
 7201TIP3   OH221566   5.927   5.421   4.917
 7201TIP3    H121567   5.962   5.411   4.828
 7201TIP3    H221568   5.833   5.430   4.905
 7202TIP3   OH221569   2.895   0.973   2.564
 7202TIP3    H121570   2.914   0.979   2.470
 7202TIP3    H221571   2.976   1.000   2.607
 7203TIP3   OH221572   2.580   6.528   3.635
 7203TIP3    H121573   2.541   6.442   3.620
 7203TIP3    H221574   2.608   6.558   3.549
 7204TIP3   OH221575   1.503   3.165   0.091
 7204TIP3    H121576   1.589   3.188   0.126
 7204TIP3    H221577   1.441   3.218   0.140
 7205TIP3   OH221578   6.955   5.980   1.913
 7205TIP3    H121579   6.924   6.063   1.875
 7205TIP3    H221580   6.875   5.932   1.933
 7206TIP3   OH221581   6.633   1.078   2.958
 7206TIP3    H121582   6.539   1.060   2.953
 7206TIP3    H221583   6.650   1.134   2.882
 7207TIP3   OH221584   5.363   2.060   1.427
 7207TIP3    H121585   5.349   1.966   1.417
 7207TIP3    H221586   5.325   2.081   1.513
 7208TIP3   OH221587   5.959   1.527   3.065
 7208TIP3    H121588   5.908   1.596   3.107
 7208TIP3    H221589   6.046   1.565   3.053
 7209TIP3   OH221590   3.450   4.203   3.729
 7209TIP3    H121591   3.522   4.265   3.717
 7209TIP3    H221592   3.452   4.148   3.650
 7210TIP3   OH221593   5.879   2.412   1.893
 7210TIP3    H121594   5.937   2.353   1.942
 7210TIP3    H221595   5.882   2.494   1.941
 7211TIP3   OH221596   5.241   2.450   2.861
 7211TIP3    H121597   5.337   2.455   2.864
 7211TIP3    H221598   5.216   2.520   2.800
 7212TIP3   OH221599   2.582   0.734   3.891
 7212TIP3    H121600   2.551   0.763   3.977
 7212TIP3    H221601   2.524   0.777   3.829
 7213TIP3   OH221602   2.326   3.188   3.110
 7213TIP3    H121603   2.233   3.166   3.104
 7213TIP3    H221604   2.329   3.283   3.096
 7214TIP3   OH221605   2.954   0.712   1.213
 7214TIP3    H121606   2.974   0.629   1.257
 7214TIP3    H221607   2.976   0.779   1.278
 7215TIP3   OH221608   1.699   4.185   2.221
 7215TIP3    H121609   1.604   4.173   2.226
 7215TIP3    H221610   1.718   4.188   2.127
 7216TIP3   OH221611   0.516   2.328   0.688
 7216TIP3    H121612   0.444   2.387   0.663
 7216TIP3    H221613   0.497   2.246   0.642
 7217TIP3   OH221614   4.504   1.763   0.884
 7217TIP3    H121615   4.479   1.850   0.915
 7217TIP3    H221616   4.505   1.770   0.789
 7218TIP3   OH221617   2.461   4.082   2.991
 7218TIP3    H121618   2.546   4.039   2.977
 7218TIP3    H221619   2.476   4.142   3.064
 7219TIP3   OH221620   5.459   4.298   1.477
 7219TIP3    H121621   5.398   4.365   1.510
 7219TIP3    H221622   5.533   4.302   1.537
 7220TIP3   OH221623   4.778   5.667   4.240
 7220TIP3    H121624   4.788   5.601   4.309
 7220TIP3    H221625   4.826   5.632   4.166
 7221TIP3   OH221626   1.153   5.937   0.681
 7221TIP3    H121627   1.219   5.966   0.618
 7221TIP3    H221628   1.141   5.844   0.662
 7222TIP3   OH221629   5.499   3.722   1.062
 7222TIP3    H121630   5.437   3.734   1.134
 7222TIP3    H221631   5.584   3.741   1.100
 7223TIP3   OH221632   5.457   0.271   4.461
 7223TIP3    H121633   5.547   0.270   4.494
 7223TIP3    H221634   5.403   0.287   4.539
 7224TIP3   OH221635   3.926   5.593   0.924
 7224TIP3    H121636   3.991   5.609   0.992
 7224TIP3    H221637   3.939   5.501   0.900
 7225TIP3   OH221638   1.114   2.236   3.527
 7225TIP3    H121639   1.107   2.152   3.480
 7225TIP3    H221640   1.032   2.281   3.508
 7226TIP3   OH221641   7.006   6.205   1.696
 7226TIP3    H121642   6.965   6.121   1.719
 7226TIP3    H221643   6.932   6.263   1.678
 7227TIP3   OH221644   3.645   3.787   0.871
 7227TIP3    H121645   3.552   3.788   0.845
 7227TIP3    H221646   3.692   3.802   0.789
 7228TIP3   OH221647   0.522   3.248   3.040
 7228TIP3    H121648   0.447   3.224   2.985
 7228TIP3    H221649   0.485   3.303   3.108
 7229TIP3   OH221650   2.560   2.186   0.342
 7229TIP3    H121651   2.559   2.171   0.247
 7229TIP3    H221652   2.549   2.280   0.352
 7230TIP3   OH221653   5.139   3.133   3.729
 7230TIP3    H121654   5.196   3.056   3.719
 7230TIP3    H221655   5.193   3.206   3.701
 7231TIP3   OH221656   5.562   1.871   2.207
 7231TIP3    H121657   5.644   1.872   2.257
 7231TIP3    H221658   5.503   1.927   2.257
 7232TIP3   OH221659   3.747   2.842   2.919
 7232TIP3    H121660   3.720   2.928   2.950
 7232TIP3    H221661   3.681   2.782   2.954
 7233TIP3   OH221662   0.606   4.391   0.215
 7233TIP3    H121663   0.623   4.300   0.240
 7233TIP3    H221664   0.690   4.422   0.180
 7234TIP3   OH221665  -0.068   5.563   4.789
 7234TIP3    H121666   0.018   5.557   4.831
 7234TIP3    H221667  -0.092   5.472   4.771
 7235TIP3   OH221668   5.377   4.032   3.219
 7235TIP3    H121669   5.283   4.038   3.238
 7235TIP3    H221670   5.411   3.975   3.289
 7236TIP3   OH221671   1.935   5.806   5.514
 7236TIP3    H121672   1.925   5.882   5.572
 7236TIP3    H221673   2.020   5.769   5.536
 7237TIP3   OH221674   0.245   5.905   0.656
 7237TIP3    H121675   0.329   5.952   0.652
 7237TIP3    H221676   0.180   5.974   0.669
 7238TIP3   OH221677   2.798   5.980   2.169
 7238TIP3    H121678   2.763   5.999   2.082
 7238TIP3    H221679   2.731   5.925   2.210
 7239TIP3   OH221680   4.074   2.228   5.460
 7239TIP3    H121681   3.997   2.190   5.418
 7239TIP3    H221682   4.145   2.167   5.439
 7240TIP3   OH221683   4.907   3.345   5.899
 7240TIP3    H121684   4.969   3.324   5.829
 7240TIP3    H221685   4.962   3.375   5.971
 7241TIP3   OH221686   5.663   5.325   3.999
 7241TIP3    H121687   5.757   5.317   4.013
 7241TIP3    H221688   5.640   5.249   3.945
 7242TIP3   OH221689   6.249   2.642   5.712
 7242TIP3    H121690   6.240   2.701   5.787
 7242TIP3    H221691   6.174   2.583   5.719
 7243TIP3   OH221692   6.894   3.571   5.296
 7243TIP3    H121693   6.843   3.563   5.377
 7243TIP3    H221694   6.838   3.623   5.238
 7244TIP3   OH221695   3.941   5.069   2.279
 7244TIP3    H121696   3.990   5.027   2.208
 7244TIP3    H221697   4.004   5.126   2.321
 7245TIP3   OH221698   6.329   2.598   4.249
 7245TIP3    H121699   6.304   2.643   4.330
 7245TIP3    H221700   6.251   2.604   4.194
 7246TIP3   OH221701   1.738   0.448   0.790
 7246TIP3    H121702   1.713   0.405   0.708
 7246TIP3    H221703   1.749   0.540   0.767
 7247TIP3   OH221704   1.575   0.495   2.870
 7247TIP3    H121705   1.663   0.457   2.873
 7247TIP3    H221706   1.582   0.576   2.920
 7248TIP3   OH221707   6.652   3.084   0.417
 7248TIP3    H121708   6.682   3.175   0.420
 7248TIP3    H221709   6.557   3.090   0.428
 7249TIP3   OH221710   6.565   3.993   4.573
 7249TIP3    H121711   6.586   4.064   4.634
 7249TIP3    H221712   6.598   4.023   4.489
 7250TIP3   OH221713   5.271   0.618   1.095
 7250TIP3    H121714   5.261   0.579   1.182
 7250TIP3    H221715   5.343   0.681   1.106
 7251TIP3   OH221716   1.094   3.770   0.968
 7251TIP3    H121717   1.023   3.749   0.909
 7251TIP3    H221718   1.080   3.862   0.991
 7252TIP3   OH221719   1.369   2.319   5.649
 7252TIP3    H121720   1.417   2.236   5.642
 7252TIP3    H221721   1.310   2.318   5.573
 7253TIP3   OH221722   1.331   0.617   3.958
 7253TIP3    H121723   1.256   0.572   3.996
 7253TIP3    H221724   1.378   0.549   3.909
 7254TIP3   OH221725   2.528   3.463   2.607
 7254TIP3    H121726   2.528   3.559   2.602
 7254TIP3    H221727   2.527   3.444   2.701
 7255TIP3   OH221728   6.463   3.484   0.554
 7255TIP3    H121729   6.527   3.440   0.498
 7255TIP3    H221730   6.381   3.482   0.505
 7256TIP3   OH221731   0.392   6.460   2.462
 7256TIP3    H121732   0.297   6.463   2.446
 7256TIP3    H221733   0.415   6.550   2.484
 7257TIP3   OH221734   4.462   3.552   1.601
 7257TIP3    H121735   4.495   3.468   1.634
 7257TIP3    H221736   4.538   3.592   1.558
 7258TIP3   OH221737   2.962   0.692   1.516
 7258TIP3    H121738   2.961   0.777   1.472
 7258TIP3    H221739   2.870   0.672   1.532
 7259TIP3   OH221740   4.642   1.700   5.887
 7259TIP3    H121741   4.654   1.686   5.981
 7259TIP3    H221742   4.728   1.683   5.849
 7260TIP3   OH221743   0.630   2.254   4.647
 7260TIP3    H121744   0.593   2.209   4.571
 7260TIP3    H221745   0.680   2.187   4.693
 7261TIP3   OH221746   2.742   2.699   1.520
 7261TIP3    H121747   2.706   2.613   1.499
 7261TIP3    H221748   2.680   2.737   1.581
 7262TIP3   OH221749   0.359   4.556   4.472
 7262TIP3    H121750   0.325   4.519   4.553
 7262TIP3    H221751   0.454   4.543   4.478
 7263TIP3   OH221752   1.253   5.342   3.406
 7263TIP3    H121753   1.169   5.338   3.361
 7263TIP3    H221754   1.313   5.379   3.342
 7264TIP3   OH221755   1.214   3.907   1.254
 7264TIP3    H121756   1.136   3.961   1.242
 7264TIP3    H221757   1.268   3.926   1.177
 7265TIP3   OH221758   6.120   1.423   2.400
 7265TIP3    H121759   6.200   1.408   2.451
 7265TIP3    H221760   6.049   1.410   2.462
 7266TIP3   OH221761   4.797   4.206   5.825
 7266TIP3    H121762   4.793   4.124   5.874
 7266TIP3    H221763   4.884   4.207   5.787
 7267TIP3   OH221764   2.082   5.080   0.865
 7267TIP3    H121765   2.076   5.175   0.871
 7267TIP3    H221766   2.055   5.059   0.775
 7268TIP3   OH221767   1.072   5.510   2.815
 7268TIP3    H121768   1.093   5.419   2.835
 7268TIP3    H221769   1.148   5.560   2.846
 7269TIP3   OH221770   5.585   1.886   4.599
 7269TIP3    H121771   5.541   1.922   4.676
 7269TIP3    H221772   5.664   1.938   4.589
 7270TIP3   OH221773   1.900   3.444   2.223
 7270TIP3    H121774   1.852   3.492   2.156
 7270TIP3    H221775   1.941   3.512   2.277
 7271TIP3   OH221776   2.129   0.698   1.396
 7271TIP3    H121777   2.115   0.790   1.420
 7271TIP3    H221778   2.068   0.682   1.324
 7272TIP3   OH221779   3.321   3.244   4.608
 7272TIP3    H121780   3.364   3.285   4.532
 7272TIP3    H221781   3.388   3.185   4.644
 7273TIP3   OH221782   4.428   3.906   3.500
 7273TIP3    H121783   4.499   3.849   3.469
 7273TIP3    H221784   4.375   3.922   3.422
 7274TIP3   OH221785   0.187   2.662   0.582
 7274TIP3    H121786   0.244   2.665   0.659
 7274TIP3    H221787   0.246   2.646   0.509
 7275TIP3   OH221788   0.521   6.242   2.568
 7275TIP3    H121789   0.454   6.174   2.560
 7275TIP3    H221790   0.479   6.321   2.533
 7276TIP3   OH221791   6.953   2.519   0.126
 7276TIP3    H121792   6.963   2.504   0.220
 7276TIP3    H221793   6.870   2.478   0.104
 7277TIP3   OH221794   0.962   5.542   3.073
 7277TIP3    H121795   0.982   5.628   3.109
 7277TIP3    H221796   0.975   5.552   2.979
 7278TIP3   OH221797   0.422   5.621   5.456
 7278TIP3    H121798   0.394   5.657   5.540
 7278TIP3    H221799   0.350   5.639   5.396
 7279TIP3   OH221800   2.409   6.361   1.834
 7279TIP3    H121801   2.346   6.425   1.801
 7279TIP3    H221802   2.455   6.330   1.756
 7280TIP3   OH221803   5.778   1.818   2.355
 7280TIP3    H121804   5.817   1.730   2.356
 7280TIP3    H221805   5.782   1.847   2.445
 7281TIP3   OH221806   0.799   0.327   2.740
 7281TIP3    H121807   0.746   0.381   2.799
 7281TIP3    H221808   0.888   0.361   2.749
 7282TIP3   OH221809   2.987   3.648   5.048
 7282TIP3    H121810   2.915   3.658   4.987
 7282TIP3    H221811   2.964   3.572   5.101
 7283TIP3   OH221812   4.012   4.284   0.401
 7283TIP3    H121813   4.107   4.280   0.413
 7283TIP3    H221814   3.984   4.359   0.454
 7284TIP3   OH221815   3.487   3.059   4.740
 7284TIP3    H121816   3.536   3.051   4.658
 7284TIP3    H221817   3.531   3.000   4.801
 7285TIP3   OH221818   7.011   1.812   0.214
 7285TIP3    H121819   7.087   1.864   0.243
 7285TIP3    H221820   6.966   1.789   0.295
 7286TIP3   OH221821   2.555   2.752   3.730
 7286TIP3    H121822   2.577   2.821   3.793
 7286TIP3    H221823   2.578   2.789   3.645
 7287TIP3   OH221824   0.235   0.750   5.814
 7287TIP3    H121825   0.222   0.680   5.750
 7287TIP3    H221826   0.312   0.796   5.783
 7288TIP3   OH221827   4.438   4.813   3.270
 7288TIP3    H121828   4.497   4.786   3.199
 7288TIP3    H221829   4.372   4.867   3.227
 7289TIP3   OH221830   5.465   3.422   2.605
 7289TIP3    H121831   5.392   3.361   2.620
 7289TIP3    H221832   5.530   3.370   2.557
 7290TIP3   OH221833   4.873   1.002   5.560
 7290TIP3    H121834   4.818   0.983   5.636
 7290TIP3    H221835   4.944   0.939   5.565
 7291TIP3   OH221836   2.647   3.993   1.891
 7291TIP3    H121837   2.732   3.966   1.926
 7291TIP3    H221838   2.652   3.971   1.798
 7292TIP3   OH221839   5.173   0.375   3.707
 7292TIP3    H121840   5.086   0.402   3.679
 7292TIP3    H221841   5.227   0.453   3.695
 7293TIP3   OH221842   2.553   2.331   3.112
 7293TIP3    H121843   2.504   2.341   3.194
 7293TIP3    H221844   2.536   2.241   3.085
 7294TIP3   OH221845   1.162   4.863   4.305
 7294TIP3    H121846   1.118   4.948   4.303
 7294TIP3    H221847   1.145   4.830   4.393
 7295TIP3   OH221848   4.983   4.546   1.527
 7295TIP3    H121849   4.890   4.538   1.508
 7295TIP3    H221850   4.990   4.622   1.584
 7296TIP3   OH221851   1.677   3.079   0.855
 7296TIP3    H121852   1.763   3.119   0.871
 7296TIP3    H221853   1.648   3.118   0.773
 7297TIP3   OH221854   5.993   1.680   1.743
 7297TIP3    H121855   6.064   1.616   1.746
 7297TIP3    H221856   5.917   1.629   1.712
 7298TIP3   OH221857   3.714   3.738   3.899
 7298TIP3    H121858   3.718   3.655   3.851
 7298TIP3    H221859   3.636   3.731   3.953
 7299TIP3   OH221860   6.186   5.682   4.251
 7299TIP3    H121861   6.173   5.734   4.330
 7299TIP3    H221862   6.112   5.621   4.250
 7300TIP3   OH221863   1.472   3.294   3.540
 7300TIP3    H121864   1.470   3.235   3.616
 7300TIP3    H221865   1.385   3.284   3.501
 7301TIP3   OH221866   4.647   5.416   5.814
 7301TIP3    H121867   4.671   5.441   5.725
 7301TIP3    H221868   4.551   5.421   5.815
 7302TIP3   OH221869   1.189   3.343   3.724
 7302TIP3    H121870   1.247   3.418   3.738
 7302TIP3    H221871   1.137   3.338   3.804
 7303TIP3   OH221872   4.425   3.905   5.849
 7303TIP3    H121873   4.345   3.857   5.831
 7303TIP3    H221874   4.457   3.868   5.932
 7304TIP3   OH221875   2.872   6.296   4.482
 7304TIP3    H121876   2.873   6.208   4.444
 7304TIP3    H221877   2.783   6.328   4.467
 7305TIP3   OH221878   7.030   5.104   2.469
 7305TIP3    H121879   6.961   5.039   2.483
 7305TIP3    H221880   7.094   5.059   2.414
 7306TIP3   OH221881   3.838   0.601   1.441
 7306TIP3    H121882   3.814   0.684   1.399
 7306TIP3    H221883   3.821   0.534   1.375
 7307TIP3   OH221884   0.986   5.927   5.361
 7307TIP3    H121885   1.062   5.892   5.408
 7307TIP3    H221886   0.943   5.849   5.326
 7308TIP3   OH221887   1.806   0.655   3.719
 7308TIP3    H121888   1.802   0.746   3.692
 7308TIP3    H221889   1.821   0.658   3.814
 7309TIP3   OH221890   3.253   4.925   4.344
 7309TIP3    H121891   3.168   4.940   4.304
 7309TIP3    H221892   3.272   4.832   4.329
 7310TIP3   OH221893   6.560   0.022   2.527
 7310TIP3    H121894   6.480   0.073   2.542
 7310TIP3    H221895   6.631   0.083   2.544
 7311TIP3   OH221896   1.366   2.250   1.084
 7311TIP3    H121897   1.454   2.287   1.085
 7311TIP3    H221898   1.380   2.156   1.074
 7312TIP3   OH221899   1.317   3.884   2.627
 7312TIP3    H121900   1.337   3.860   2.536
 7312TIP3    H221901   1.226   3.856   2.639
 7313TIP3   OH221902   0.156   4.351   3.772
 7313TIP3    H121903   0.082   4.404   3.802
 7313TIP3    H221904   0.146   4.267   3.816
 7314TIP3   OH221905   2.429   1.796   1.048
 7314TIP3    H121906   2.377   1.787   1.127
 7314TIP3    H221907   2.392   1.872   1.003
 7315TIP3   OH221908   1.635   3.213   3.282
 7315TIP3    H121909   1.569   3.184   3.218
 7315TIP3    H221910   1.590   3.209   3.366
 7316TIP3   OH221911   3.139   1.464   4.505
 7316TIP3    H121912   3.099   1.496   4.586
 7316TIP3    H221913   3.129   1.536   4.443
 7317TIP3   OH221914   3.905   0.109   5.057
 7317TIP3    H121915   3.903   0.075   5.146
 7317TIP3    H221916   3.816   0.095   5.024
 7318TIP3   OH221917   5.024   2.878   0.664
 7318TIP3    H121918   5.002   2.941   0.733
 7318TIP3    H221919   5.099   2.917   0.619
 7319TIP3   OH221920   7.272   3.112   0.722
 7319TIP3    H121921   7.303   3.059   0.649
 7319TIP3    H221922   7.176   3.107   0.717
 7320TIP3   OH221923   4.560   5.682   1.368
 7320TIP3    H121924   4.525   5.606   1.320
 7320TIP3    H221925   4.638   5.648   1.412
 7321TIP3   OH221926   3.626   4.589   3.934
 7321TIP3    H121927   3.535   4.609   3.913
 7321TIP3    H221928   3.672   4.672   3.924
 7322TIP3   OH221929   6.238   1.320   0.880
 7322TIP3    H121930   6.235   1.363   0.795
 7322TIP3    H221931   6.166   1.257   0.878
 7323TIP3   OH221932   0.057   1.055   2.849
 7323TIP3    H121933  -0.036   1.071   2.832
 7323TIP3    H221934   0.057   0.989   2.919
 7324TIP3   OH221935   5.541   6.263   4.098
 7324TIP3    H121936   5.622   6.274   4.049
 7324TIP3    H221937   5.521   6.349   4.134
 7325TIP3   OH221938   4.984   6.127   4.627
 7325TIP3    H121939   4.979   6.031   4.629
 7325TIP3    H221940   4.919   6.156   4.691
 7326TIP3   OH221941   0.621   1.769  -0.005
 7326TIP3    H121942   0.563   1.693  -0.009
 7326TIP3    H221943   0.709   1.732  -0.005
 7327TIP3   OH221944   0.529   3.659   4.722
 7327TIP3    H121945   0.518   3.646   4.816
 7327TIP3    H221946   0.596   3.727   4.715
 7328TIP3   OH221947   6.177   6.741   5.345
 7328TIP3    H121948   6.149   6.705   5.261
 7328TIP3    H221949   6.197   6.664   5.399
 7329TIP3   OH221950   2.260   2.690   1.739
 7329TIP3    H121951   2.254   2.595   1.732
 7329TIP3    H221952   2.255   2.708   1.833
 7330TIP3   OH221953   0.122   0.150   2.796
 7330TIP3    H121954   0.140   0.058   2.818
 7330TIP3    H221955   0.109   0.150   2.701
 7331TIP3   OH221956   1.848   4.741   0.651
 7331TIP3    H121957   1.859   4.802   0.578
 7331TIP3    H221958   1.798   4.791   0.716
 7332TIP3   OH221959   2.063   0.138   1.032
 7332TIP3    H121960   2.135   0.075   1.043
 7332TIP3    H221961   2.037   0.129   0.940
 7333TIP3   OH221962   1.992   2.446   1.798
 7333TIP3    H121963   1.932   2.411   1.731
 7333TIP3    H221964   2.057   2.377   1.810
 7334TIP3   OH221965   6.931   6.607   5.800
 7334TIP3    H121966   6.840   6.637   5.805
 7334TIP3    H221967   6.977   6.660   5.864
 7335TIP3   OH221968  -0.046   4.832   4.786
 7335TIP3    H121969   0.036   4.808   4.830
 7335TIP3    H221970  -0.018   4.865   4.700
 7336TIP3   OH221971   3.566   5.539   2.436
 7336TIP3    H121972   3.628   5.471   2.462
 7336TIP3    H221973   3.491   5.491   2.401
 7337TIP3   OH221974   6.558   1.187   4.681
 7337TIP3    H121975   6.559   1.263   4.740
 7337TIP3    H221976   6.562   1.111   4.739
 7338TIP3   OH221977   2.398   0.482   2.625
 7338TIP3    H121978   2.349   0.471   2.706
 7338TIP3    H221979   2.331   0.494   2.557
 7339TIP3   OH221980   6.136   3.946   5.753
 7339TIP3    H121981   6.209   3.944   5.691
 7339TIP3    H221982   6.167   3.894   5.827
 7340TIP3   OH221983   1.550   3.876   5.700
 7340TIP3    H121984   1.530   3.814   5.770
 7340TIP3    H221985   1.464   3.910   5.673
 7341TIP3   OH221986   6.062   2.800   2.015
 7341TIP3    H121987   6.098   2.845   2.090
 7341TIP3    H221988   5.989   2.748   2.050
 7342TIP3   OH221989   5.604   5.840   0.645
 7342TIP3    H121990   5.529   5.893   0.672
 7342TIP3    H221991   5.669   5.853   0.714
 7343TIP3   OH221992   0.858   2.135   1.092
 7343TIP3    H121993   0.856   2.185   1.173
 7343TIP3    H221994   0.888   2.048   1.118
 7344TIP3   OH221995   5.735   6.450   1.980
 7344TIP3    H121996   5.712   6.453   1.887
 7344TIP3    H221997   5.714   6.537   2.013
 7345TIP3   OH221998   2.027   5.510   1.762
 7345TIP3    H121999   1.936   5.511   1.793
 7345TIP3    H222000   2.059   5.423   1.785
 7346TIP3   OH222001   2.720   3.591   1.889
 7346TIP3    H122002   2.646   3.652   1.898
 7346TIP3    H222003   2.716   3.563   1.798
 7347TIP3   OH222004   0.785   3.838   1.359
 7347TIP3    H122005   0.697   3.874   1.354
 7347TIP3    H222006   0.843   3.907   1.327
 7348TIP3   OH222007   1.107   5.736   3.179
 7348TIP3    H122008   1.152   5.712   3.260
 7348TIP3    H222009   1.094   5.831   3.187
 7349TIP3   OH222010   2.343   2.119   2.803
 7349TIP3    H122011   2.293   2.182   2.751
 7349TIP3    H222012   2.435   2.136   2.779
 7350TIP3   OH222013   3.711   3.180   0.502
 7350TIP3    H122014   3.683   3.089   0.491
 7350TIP3    H222015   3.636   3.232   0.474
 7351TIP3   OH222016   2.624   0.842   5.296
 7351TIP3    H122017   2.662   0.756   5.277
 7351TIP3    H222018   2.558   0.855   5.228
 7352TIP3   OH222019   1.435   3.280   1.589
 7352TIP3    H122020   1.407   3.352   1.532
 7352TIP3    H222021   1.365   3.273   1.654
 7353TIP3   OH222022   4.776   4.481   5.738
 7353TIP3    H122023   4.740   4.393   5.744
 7353TIP3    H222024   4.758   4.509   5.648
 7354TIP3   OH222025   5.879   0.229   2.481
 7354TIP3    H122026   5.885   0.139   2.513
 7354TIP3    H222027   5.854   0.220   2.389
 7355TIP3   OH222028   0.621   5.935   5.438
 7355TIP3    H122029   0.673   5.856   5.448
 7355TIP3    H222030   0.656   5.976   5.359
 7356TIP3   OH222031   6.764   0.368   0.520
 7356TIP3    H122032   6.670   0.387   0.526
 7356TIP3    H222033   6.774   0.282   0.562
 7357TIP3   OH222034   4.766   1.670   4.537
 7357TIP3    H122035   4.815   1.663   4.619
 7357TIP3    H222036   4.675   1.685   4.565
 7358TIP3   OH222037   3.765   2.375   0.363
 7358TIP3    H122038   3.788   2.434   0.434
 7358TIP3    H222039   3.841   2.316   0.356
 7359TIP3   OH222040   3.849   5.861   3.221
 7359TIP3    H122041   3.791   5.935   3.208
 7359TIP3    H222042   3.870   5.830   3.133
 7360TIP3   OH222043   0.576   0.202   1.208
 7360TIP3    H122044   0.486   0.170   1.215
 7360TIP3    H222045   0.627   0.125   1.183
 7361TIP3   OH222046   6.985   3.128   0.666
 7361TIP3    H122047   6.928   3.197   0.701
 7361TIP3    H222048   6.954   3.048   0.709
 7362TIP3   OH222049   1.823   1.216   0.552
 7362TIP3    H122050   1.784   1.296   0.516
 7362TIP3    H222051   1.908   1.245   0.587
 7363TIP3   OH222052   3.781   6.053   5.405
 7363TIP3    H122053   3.855   6.071   5.464
 7363TIP3    H222054   3.814   6.075   5.318
 7364TIP3   OH222055   4.206   3.199   1.405
 7364TIP3    H122056   4.150   3.265   1.364
 7364TIP3    H222057   4.156   3.169   1.482
 7365TIP3   OH222058   3.851   4.297   4.701
 7365TIP3    H122059   3.869   4.348   4.622
 7365TIP3    H222060   3.814   4.215   4.667
 7366TIP3   OH222061   5.776   0.251   5.818
 7366TIP3    H122062   5.747   0.297   5.739
 7366TIP3    H222063   5.820   0.172   5.786
 7367TIP3   OH222064   1.451   1.217   2.501
 7367TIP3    H122065   1.524   1.174   2.546
 7367TIP3    H222066   1.419   1.152   2.438
 7368TIP3   OH222067   3.548   4.786   0.663
 7368TIP3    H122068   3.585   4.817   0.746
 7368TIP3    H222069   3.518   4.698   0.682
 7369TIP3   OH222070   1.909   0.944   2.913
 7369TIP3    H122071   1.992   0.930   2.959
 7369TIP3    H222072   1.871   1.021   2.955
 7370TIP3   OH222073   1.798   3.460   1.656
 7370TIP3    H122074   1.864   3.398   1.685
 7370TIP3    H222075   1.803   3.459   1.561
 7371TIP3   OH222076   7.054   6.013   0.216
 7371TIP3    H122077   7.142   6.017   0.253
 7371TIP3    H222078   7.010   6.090   0.252
 7372TIP3   OH222079   0.276   5.767   4.773
 7372TIP3    H122080   0.206   5.803   4.827
 7372TIP3    H222081   0.305   5.688   4.819
 7373TIP3   OH222082   4.812   5.390   3.249
 7373TIP3    H122083   4.903   5.389   3.218
 7373TIP3    H222084   4.816   5.443   3.329
 7374TIP3   OH222085   4.120   5.209   5.772
 7374TIP3    H122086   4.056   5.196   5.842
 7374TIP3    H222087   4.067   5.212   5.692
 7375TIP3   OH222088   0.236   3.269   0.858
 7375TIP3    H122089   0.290   3.324   0.801
 7375TIP3    H222090   0.181   3.218   0.797
 7376TIP3   OH222091   3.025   5.274   5.234
 7376TIP3    H122092   2.999   5.187   5.202
 7376TIP3    H222093   3.092   5.303   5.172
 7377TIP3   OH222094   1.649   1.511   1.209
 7377TIP3    H122095   1.699   1.479   1.284
 7377TIP3    H222096   1.699   1.480   1.133
 7378TIP3   OH222097   4.900   5.063   0.764
 7378TIP3    H122098   4.958   5.010   0.819
 7378TIP3    H222099   4.954   5.090   0.690
 7379TIP3   OH222100   3.397   3.517   1.783
 7379TIP3    H122101   3.305   3.543   1.785
 7379TIP3    H222102   3.445   3.600   1.780
 7380TIP3   OH222103   1.220   5.670   5.121
 7380TIP3    H122104   1.276   5.747   5.110
 7380TIP3    H222105   1.130   5.704   5.114
 7381TIP3   OH222106   3.177   5.643   3.499
 7381TIP3    H122107   3.242   5.574   3.486
 7381TIP3    H222108   3.215   5.699   3.568
 7382TIP3   OH222109   5.795   1.759   0.024
 7382TIP3    H122110   5.863   1.723   0.081
 7382TIP3    H222111   5.729   1.792   0.085
 7383TIP3   OH222112   6.686   2.468   0.485
 7383TIP3    H122113   6.612   2.469   0.424
 7383TIP3    H222114   6.684   2.554   0.526
 7384TIP3   OH222115   6.793   5.732   1.595
 7384TIP3    H122116   6.789   5.795   1.667
 7384TIP3    H222117   6.734   5.661   1.623
 7385TIP3   OH222118   2.320   3.849   0.779
 7385TIP3    H122119   2.299   3.888   0.864
 7385TIP3    H222120   2.297   3.917   0.716
 7386TIP3   OH222121   2.668   1.683   4.577
 7386TIP3    H122122   2.717   1.638   4.646
 7386TIP3    H222123   2.661   1.773   4.607
 7387TIP3   OH222124   3.990   5.113   0.156
 7387TIP3    H122125   3.953   5.122   0.069
 7387TIP3    H222126   4.017   5.202   0.180
 7388TIP3   OH222127   5.046   0.399   2.740
 7388TIP3    H122128   5.138   0.382   2.758
 7388TIP3    H222129   5.001   0.321   2.773
 7389TIP3   OH222130   3.790   3.869   0.660
 7389TIP3    H122131   3.769   3.961   0.649
 7389TIP3    H222132   3.850   3.849   0.587
 7390TIP3   OH222133   2.961   1.488   3.872
 7390TIP3    H122134   2.979   1.398   3.843
 7390TIP3    H222135   2.898   1.521   3.809
 7391TIP3   OH222136   5.757   4.731   3.078
 7391TIP3    H122137   5.806   4.715   3.158
 7391TIP3    H222138   5.743   4.644   3.040
 7392TIP3   OH222139   2.130   1.242   0.152
 7392TIP3    H122140   2.169   1.157   0.132
 7392TIP3    H222141   2.201   1.294   0.189
 7393TIP3   OH222142   2.590   1.439   4.762
 7393TIP3    H122143   2.665   1.405   4.713
 7393TIP3    H222144   2.628   1.490   4.834
 7394TIP3   OH222145   1.085   6.332   3.506
 7394TIP3    H122146   1.118   6.242   3.510
 7394TIP3    H222147   1.007   6.327   3.451
 7395TIP3   OH222148   0.574   3.667   3.564
 7395TIP3    H122149   0.615   3.660   3.651
 7395TIP3    H222150   0.645   3.649   3.503
 7396TIP3   OH222151   2.453   5.262   4.990
 7396TIP3    H122152   2.510   5.252   5.066
 7396TIP3    H222153   2.410   5.346   5.003
 7397TIP3   OH222154   6.617   3.216   4.010
 7397TIP3    H122155   6.589   3.307   4.009
 7397TIP3    H222156   6.614   3.191   4.102
 7398TIP3   OH222157   1.640   4.657   2.136
 7398TIP3    H122158   1.636   4.671   2.042
 7398TIP3    H222159   1.717   4.601   2.149
 7399TIP3   OH222160   0.430   3.444   3.260
 7399TIP3    H122161   0.359   3.399   3.305
 7399TIP3    H222162   0.484   3.481   3.331
 7400TIP3   OH222163   0.925   2.940   1.286
 7400TIP3    H122164   0.966   2.854   1.299
 7400TIP3    H222165   0.886   2.960   1.371
 7401TIP3   OH222166   3.488   5.836   3.279
 7401TIP3    H122167   3.394   5.838   3.296
 7401TIP3    H222168   3.529   5.852   3.364
 7402TIP3   OH222169   3.941   0.379   5.721
 7402TIP3    H122170   3.881   0.397   5.794
 7402TIP3    H222171   4.025   0.362   5.763
 7403TIP3   OH222172   0.584   6.452   0.566
 7403TIP3    H122173   0.515   6.493   0.515
 7403TIP3    H222174   0.613   6.519   0.627
 7404TIP3   OH222175   4.943   6.629   3.744
 7404TIP3    H122176   4.917   6.691   3.677
 7404TIP3    H222177   4.984   6.683   3.812
 7405TIP3   OH222178   0.996   4.687   2.280
 7405TIP3    H122179   0.905   4.672   2.255
 7405TIP3    H222180   1.037   4.722   2.200
 7406TIP3   OH222181   2.939   2.771   3.561
 7406TIP3    H122182   2.884   2.714   3.614
 7406TIP3    H222183   2.894   2.856   3.563
 7407TIP3   OH222184   6.572   3.993   5.403
 7407TIP3    H122185   6.644   4.002   5.466
 7407TIP3    H222186   6.548   4.084   5.382
 7408TIP3   OH222187   5.554   1.838   5.443
 7408TIP3    H122188   5.648   1.833   5.462
 7408TIP3    H222189   5.550   1.869   5.352
 7409TIP3   OH222190   0.270   0.137   0.557
 7409TIP3    H122191   0.322   0.057   0.552
 7409TIP3    H222192   0.291   0.185   0.477
 7410TIP3   OH222193   0.258   5.922   4.526
 7410TIP3    H122194   0.186   5.929   4.463
 7410TIP3    H222195   0.237   5.844   4.577
 7411TIP3   OH222196   4.051   1.381   4.618
 7411TIP3    H122197   4.056   1.471   4.588
 7411TIP3    H222198   4.143   1.353   4.626
 7412TIP3   OH222199   4.022   1.782   2.377
 7412TIP3    H122200   4.116   1.794   2.387
 7412TIP3    H222201   4.011   1.689   2.359
 7413TIP3   OH222202   6.814   1.405   5.314
 7413TIP3    H122203   6.724   1.379   5.296
 7413TIP3    H222204   6.809   1.455   5.395
 7414TIP3   OH222205   3.191   4.038   0.186
 7414TIP3    H122206   3.174   4.097   0.112
 7414TIP3    H222207   3.125   4.061   0.251
 7415TIP3   OH222208   5.360   3.465   5.755
 7415TIP3    H122209   5.408   3.443   5.835
 7415TIP3    H222210   5.426   3.462   5.686
 7416TIP3   OH222211   6.922   4.944   1.948
 7416TIP3    H122212   6.920   4.873   1.884
 7416TIP3    H222213   6.857   4.919   2.013
 7417TIP3   OH222214   2.147   2.506   2.232
 7417TIP3    H122215   2.182   2.549   2.310
 7417TIP3    H222216   2.204   2.430   2.218
 7418TIP3   OH222217   3.205   4.313   1.466
 7418TIP3    H122218   3.137   4.313   1.399
 7418TIP3    H222219   3.229   4.221   1.475
 7419TIP3   OH222220   3.113   5.897   1.529
 7419TIP3    H122221   3.058   5.952   1.584
 7419TIP3    H222222   3.133   5.951   1.453
 7420TIP3   OH222223   5.793   2.563   0.406
 7420TIP3    H122224   5.873   2.534   0.364
 7420TIP3    H222225   5.723   2.518   0.358
 7421TIP3   OH222226   5.592   4.054   3.570
 7421TIP3    H122227   5.678   4.061   3.612
 7421TIP3    H222228   5.553   3.976   3.610
 7422TIP3   OH222229   0.557   0.170   0.414
 7422TIP3    H122230   0.536   0.260   0.390
 7422TIP3    H222231   0.474   0.123   0.407
 7423TIP3   OH222232   0.848   1.285   2.302
 7423TIP3    H122233   0.753   1.268   2.304
 7423TIP3    H222234   0.882   1.220   2.241
 7424TIP3   OH222235   0.030   0.240   3.737
 7424TIP3    H122236   0.023   0.321   3.687
 7424TIP3    H222237  -0.033   0.251   3.809
 7425TIP3   OH222238   2.336   3.719   2.365
 7425TIP3    H122239   2.366   3.644   2.314
 7425TIP3    H222240   2.390   3.793   2.334
 7426TIP3   OH222241   6.461   2.413   3.922
 7426TIP3    H122242   6.500   2.392   3.836
 7426TIP3    H222243   6.372   2.440   3.902
 7427TIP3   OH222244   2.065   2.263   0.869
 7427TIP3    H122245   2.006   2.301   0.804
 7427TIP3    H222246   2.133   2.329   0.882
 7428TIP3   OH222247   6.631   5.949   0.281
 7428TIP3    H122248   6.539   5.968   0.264
 7428TIP3    H222249   6.646   5.984   0.369
 7429TIP3   OH222250   4.809   6.762   2.376
 7429TIP3    H122251   4.776   6.679   2.408
 7429TIP3    H222252   4.771   6.770   2.288
 7430TIP3   OH222253   3.522   6.545   0.847
 7430TIP3    H122254   3.529   6.556   0.942
 7430TIP3    H222255   3.609   6.516   0.820
 7431TIP3   OH222256   3.240   1.201   4.013
 7431TIP3    H122257   3.265   1.240   3.929
 7431TIP3    H222258   3.300   1.126   4.022
 7432TIP3   OH222259   3.325   0.262   1.634
 7432TIP3    H122260   3.297   0.350   1.611
 7432TIP3    H222261   3.407   0.274   1.682
 7433TIP3   OH222262   4.683   4.864   4.078
 7433TIP3    H122263   4.717   4.950   4.102
 7433TIP3    H222264   4.627   4.881   4.002
 7434TIP3   OH222265   0.208   3.612   5.223
 7434TIP3    H122266   0.146   3.558   5.272
 7434TIP3    H222267   0.171   3.619   5.136
 7435TIP3   OH222268   0.748   1.745   1.944
 7435TIP3    H122269   0.819   1.688   1.915
 7435TIP3    H222270   0.718   1.706   2.026
 7436TIP3   OH222271   6.437   3.372   5.573
 7436TIP3    H122272   6.382   3.442   5.609
 7436TIP3    H222273   6.522   3.385   5.615
 7437TIP3   OH222274   7.013   0.259   2.074
 7437TIP3    H122275   7.048   0.211   1.999
 7437TIP3    H222276   7.045   0.210   2.150
 7438TIP3   OH222277   2.206   3.871   1.243
 7438TIP3    H122278   2.204   3.911   1.156
 7438TIP3    H222279   2.135   3.914   1.291
 7439TIP3   OH222280   2.513   3.774   2.884
 7439TIP3    H122281   2.484   3.767   2.793
 7439TIP3    H222282   2.432   3.782   2.934
 7440TIP3   OH222283   0.393   3.868   3.605
 7440TIP3    H122284   0.455   3.938   3.584
 7440TIP3    H222285   0.448   3.796   3.636
 7441TIP3   OH222286   0.117   5.886   4.289
 7441TIP3    H122287   0.082   5.801   4.264
 7441TIP3    H222288   0.154   5.922   4.209
 7442TIP3   OH222289   4.469   2.986   0.443
 7442TIP3    H122290   4.481   2.925   0.370
 7442TIP3    H222291   4.508   3.068   0.413
 7443TIP3   OH222292   4.680   3.826   2.310
 7443TIP3    H122293   4.681   3.895   2.377
 7443TIP3    H222294   4.674   3.745   2.359
 7444TIP3   OH222295   2.967   4.026   1.418
 7444TIP3    H122296   2.892   3.966   1.421
 7444TIP3    H222297   2.992   4.028   1.326
 7445TIP3   OH222298   0.415   6.724   5.444
 7445TIP3    H122299   0.468   6.656   5.485
 7445TIP3    H222300   0.403   6.790   5.512
 7446TIP3   OH222301   1.024   6.817   3.723
 7446TIP3    H122302   0.986   6.730   3.730
 7446TIP3    H222303   1.118   6.805   3.738
 7447TIP3   OH222304   1.724   1.484   0.435
 7447TIP3    H122305   1.705   1.567   0.479
 7447TIP3    H222306   1.638   1.447   0.415
 7448TIP3   OH222307   3.854   0.826   5.727
 7448TIP3    H122308   3.816   0.846   5.813
 7448TIP3    H222309   3.840   0.906   5.676
 7449TIP3   OH222310   7.058   5.039   0.292
 7449TIP3    H122311   7.139   5.000   0.324
 7449TIP3    H222312   7.003   4.964   0.268
 7450TIP3   OH222313   0.611   0.779   1.681
 7450TIP3    H122314   0.527   0.763   1.638
 7450TIP3    H222315   0.660   0.698   1.668
 7451TIP3   OH222316   7.064   0.131   1.389
 7451TIP3    H122317   7.097   0.069   1.324
 7451TIP3    H222318   7.140   0.155   1.442
 7452TIP3   OH222319   6.698   4.282   3.446
 7452TIP3    H122320   6.734   4.195   3.430
 7452TIP3    H222321   6.744   4.340   3.386
 7453TIP3   OH222322   4.017   6.116   1.111
 7453TIP3    H122323   4.034   6.070   1.193
 7453TIP3    H222324   3.994   6.047   1.048
 7454TIP3   OH222325   5.005   3.707   5.864
 7454TIP3    H122326   4.979   3.645   5.795
 7454TIP3    H222327   4.968   3.670   5.944
 7455TIP3   OH222328   6.716   2.486   3.225
 7455TIP3    H122329   6.731   2.453   3.136
 7455TIP3    H222330   6.802   2.482   3.267
 7456TIP3   OH222331   3.936   3.083   0.920
 7456TIP3    H122332   3.995   3.010   0.900
 7456TIP3    H222333   3.907   3.114   0.834
 7457TIP3   OH222334   1.771   3.126   0.268
 7457TIP3    H122335   1.787   3.185   0.341
 7457TIP3    H222336   1.694   3.075   0.293
 7458TIP3   OH222337   5.599   0.978   1.569
 7458TIP3    H122338   5.690   0.953   1.549
 7458TIP3    H222339   5.605   1.025   1.652
 7459TIP3   OH222340   3.604   4.686   2.864
 7459TIP3    H122341   3.693   4.653   2.865
 7459TIP3    H222342   3.554   4.622   2.915
 7460TIP3   OH222343   2.558   5.440   5.520
 7460TIP3    H122344   2.521   5.497   5.588
 7460TIP3    H222345   2.613   5.498   5.467
 7461TIP3   OH222346   3.443   5.913   0.281
 7461TIP3    H122347   3.489   5.978   0.335
 7461TIP3    H222348   3.511   5.875   0.226
 7462TIP3   OH222349   6.310   5.405   2.507
 7462TIP3    H122350   6.248   5.469   2.542
 7462TIP3    H222351   6.257   5.330   2.483
 7463TIP3   OH222352   3.370   2.858   5.098
 7463TIP3    H122353   3.434   2.926   5.075
 7463TIP3    H222354   3.286   2.903   5.095
 7464TIP3   OH222355   6.970   1.963   1.881
 7464TIP3    H122356   7.010   2.027   1.820
 7464TIP3    H222357   7.023   1.970   1.960
 7465TIP3   OH222358   1.820   3.339   4.495
 7465TIP3    H122359   1.858   3.309   4.578
 7465TIP3    H222360   1.746   3.393   4.521
 7466TIP3   OH222361   0.057   4.103   2.092
 7466TIP3    H122362   0.092   4.014   2.091
 7466TIP3    H222363   0.098   4.144   2.168
 7467TIP3   OH222364   3.974   2.423   1.694
 7467TIP3    H122365   3.992   2.446   1.603
 7467TIP3    H222366   3.999   2.501   1.744
 7468TIP3   OH222367   4.446   0.386   0.051
 7468TIP3    H122368   4.446   0.471   0.095
 7468TIP3    H222369   4.416   0.325   0.119
 7469TIP3   OH222370   0.085   6.366   2.263
 7469TIP3    H122371   0.071   6.420   2.341
 7469TIP3    H222372   0.138   6.420   2.205
 7470TIP3   OH222373   3.888   4.281   2.911
 7470TIP3    H122374   3.899   4.330   2.993
 7470TIP3    H222375   3.945   4.205   2.921
 7471TIP3   OH222376   6.554   5.378   0.073
 7471TIP3    H122377   6.529   5.461   0.032
 7471TIP3    H222378   6.485   5.317   0.047
 7472TIP3   OH222379   5.045   6.586   1.255
 7472TIP3    H122380   4.951   6.602   1.244
 7472TIP3    H222381   5.078   6.577   1.166
 7473TIP3   OH222382   4.852   2.620   5.245
 7473TIP3    H122383   4.903   2.587   5.171
 7473TIP3    H222384   4.900   2.697   5.274
 7474TIP3   OH222385   4.969   4.686   5.226
 7474TIP3    H122386   4.925   4.739   5.292
 7474TIP3    H222387   4.911   4.610   5.213
 7475TIP3   OH222388   5.460   0.649   4.379
 7475TIP3    H122389   5.394   0.615   4.439
 7475TIP3    H222390   5.539   0.600   4.399
 7476TIP3   OH222391   3.095   1.705   0.599
 7476TIP3    H122392   3.157   1.701   0.526
 7476TIP3    H222393   3.010   1.715   0.557
 7477TIP3   OH222394   0.111   1.282   5.270
 7477TIP3    H122395   0.016   1.272   5.272
 7477TIP3    H222396   0.139   1.257   5.358
 7478TIP3   OH222397   0.122   5.712   5.395
 7478TIP3    H122398   0.039   5.665   5.392
 7478TIP3    H222399   0.119   5.760   5.478
 7479TIP3   OH222400   6.215   2.752   5.454
 7479TIP3    H122401   6.271   2.741   5.531
 7479TIP3    H222402   6.127   2.762   5.489
 7480TIP3   OH222403   6.931   0.871   5.686
 7480TIP3    H122404   6.860   0.806   5.689
 7480TIP3    H222405   6.966   0.873   5.775
 7481TIP3   OH222406   2.067   0.789   4.141
 7481TIP3    H122407   2.134   0.732   4.180
 7481TIP3    H222408   2.061   0.864   4.200
 7482TIP3   OH222409   4.055   0.895   3.636
 7482TIP3    H122410   4.067   0.892   3.541
 7482TIP3    H222411   4.144   0.886   3.671
 7483TIP3   OH222412   6.647   5.816   2.263
 7483TIP3    H122413   6.726   5.866   2.243
 7483TIP3    H222414   6.635   5.827   2.357
 7484TIP3   OH222415   3.865   0.765   3.788
 7484TIP3    H122416   3.918   0.822   3.730
 7484TIP3    H222417   3.916   0.760   3.868
 7485TIP3   OH222418   6.126   6.746   2.223
 7485TIP3    H122419   6.180   6.704   2.290
 7485TIP3    H222420   6.039   6.751   2.263
 7486TIP3   OH222421   1.969   4.153   0.915
 7486TIP3    H122422   1.892   4.129   0.863
 7486TIP3    H222423   1.938   4.223   0.973
 7487TIP3   OH222424   6.801   6.699   0.232
 7487TIP3    H122425   6.711   6.669   0.243
 7487TIP3    H222426   6.810   6.719   0.139
 7488TIP3   OH222427   5.423   5.783   1.559
 7488TIP3    H122428   5.345   5.726   1.561
 7488TIP3    H222429   5.414   5.832   1.477
 7489TIP3   OH222430   1.892   2.927   2.368
 7489TIP3    H122431   1.921   2.836   2.378
 7489TIP3    H222432   1.962   2.969   2.319
 7490TIP3   OH222433   3.066  -0.012   5.701
 7490TIP3    H122434   3.157  -0.012   5.672
 7490TIP3    H222435   3.027   0.063   5.656
 7491TIP3   OH222436   0.657   0.411   2.226
 7491TIP3    H122437   0.721   0.477   2.256
 7491TIP3    H222438   0.706   0.356   2.165
 7492TIP3   OH222439   1.167   5.575   5.600
 7492TIP3    H122440   1.163   5.524   5.519
 7492TIP3    H222441   1.078   5.569   5.636
 7493TIP3   OH222442   2.383   2.886   3.478
 7493TIP3    H122443   2.309   2.881   3.418
 7493TIP3    H222444   2.421   2.799   3.478
 7494TIP3   OH222445   3.162   3.304   4.946
 7494TIP3    H122446   3.099   3.332   5.013
 7494TIP3    H222447   3.114   3.313   4.863
 7495TIP3   OH222448   3.364   2.471   0.801
 7495TIP3    H122449   3.455   2.446   0.787
 7495TIP3    H222450   3.320   2.390   0.827
 7496TIP3   OH222451   2.277   5.991   3.379
 7496TIP3    H122452   2.287   5.920   3.442
 7496TIP3    H222453   2.367   6.012   3.352
 7497TIP3   OH222454   2.954   4.904   3.976
 7497TIP3    H122455   3.022   4.842   4.004
 7497TIP3    H222456   2.888   4.849   3.934
 7498TIP3   OH222457   1.406   1.921   5.091
 7498TIP3    H122458   1.392   1.839   5.137
 7498TIP3    H222459   1.464   1.898   5.018
 7499TIP3   OH222460   5.975   4.564   2.347
 7499TIP3    H122461   6.038   4.520   2.290
 7499TIP3    H222462   5.951   4.644   2.301
 7500TIP3   OH222463   5.265   4.665   4.259
 7500TIP3    H122464   5.329   4.633   4.323
 7500TIP3    H222465   5.182   4.630   4.289
 7501TIP3   OH222466   2.426   0.161   1.557
 7501TIP3    H122467   2.395   0.105   1.628
 7501TIP3    H222468   2.522   0.152   1.559
 7502TIP3   OH222469   0.194   1.347   1.949
 7502TIP3    H122470   0.224   1.393   2.027
 7502TIP3    H222471   0.200   1.412   1.879
 7503TIP3   OH222472   1.999   3.830   3.308
 7503TIP3    H122473   1.909   3.826   3.276
 7503TIP3    H222474   1.995   3.794   3.396
 7504TIP3   OH222475   5.795   0.564   3.865
 7504TIP3    H122476   5.770   0.651   3.834
 7504TIP3    H222477   5.713   0.522   3.889
 7505TIP3   OH222478   4.672   3.214   1.425
 7505TIP3    H122479   4.642   3.298   1.390
 7505TIP3    H222480   4.690   3.232   1.517
 7506TIP3   OH222481   1.382   3.656   4.033
 7506TIP3    H122482   1.393   3.577   4.086
 7506TIP3    H222483   1.289   3.676   4.038
 7507TIP3   OH222484   4.956   6.152   5.400
 7507TIP3    H122485   4.912   6.229   5.436
 7507TIP3    H222486   4.886   6.101   5.360
 7508TIP3   OH222487   6.699   1.532   1.806
 7508TIP3    H122488   6.709   1.627   1.816
 7508TIP3    H222489   6.745   1.512   1.724
 7509TIP3   OH222490   3.912   3.019   2.754
 7509TIP3    H122491   3.926   2.946   2.816
 7509TIP3    H222492   3.921   2.979   2.668
 7510TIP3   OH222493   5.636   0.577   5.722
 7510TIP3    H122494   5.565   0.606   5.779
 7510TIP3    H222495   5.593   0.526   5.654
 7511TIP3   OH222496   6.550   4.890   0.523
 7511TIP3    H122497   6.545   4.917   0.432
 7511TIP3    H222498   6.535   4.971   0.573
 7512TIP3   OH222499   0.497   1.421   5.573
 7512TIP3    H122500   0.444   1.474   5.633
 7512TIP3    H222501   0.438   1.351   5.544
 7513TIP3   OH222502   6.266   4.710   2.323
 7513TIP3    H122503   6.314   4.791   2.307
 7513TIP3    H222504   6.224   4.690   2.239
 7514TIP3   OH222505   4.657   6.474   3.740
 7514TIP3    H122506   4.748   6.457   3.717
 7514TIP3    H222507   4.634   6.402   3.799
 7515TIP3   OH222508   3.702   1.929   5.680
 7515TIP3    H122509   3.763   1.867   5.721
 7515TIP3    H222510   3.676   1.887   5.598
 7516TIP3   OH222511   4.672   3.931   0.856
 7516TIP3    H122512   4.603   3.898   0.915
 7516TIP3    H222513   4.736   3.860   0.853
 7517TIP3   OH222514   5.773   3.097   4.581
 7517TIP3    H122515   5.749   3.185   4.553
 7517TIP3    H222516   5.724   3.084   4.662
 7518TIP3   OH222517   4.103   2.653   4.440
 7518TIP3    H122518   4.198   2.661   4.430
 7518TIP3    H222519   4.075   2.736   4.477
 7519TIP3   OH222520   3.818   4.137   0.588
 7519TIP3    H122521   3.909   4.151   0.563
 7519TIP3    H222522   3.774   4.219   0.566
 7520TIP3   OH222523   0.937   4.859   5.257
 7520TIP3    H122524   1.004   4.909   5.304
 7520TIP3    H222525   0.987   4.792   5.210
 7521TIP3   OH222526   0.151   4.578   2.560
 7521TIP3    H122527   0.147   4.665   2.601
 7521TIP3    H222528   0.104   4.589   2.477
 7522TIP3   OH222529   5.943   5.515   0.296
 7522TIP3    H122530   5.860   5.469   0.281
 7522TIP3    H222531   5.947   5.526   0.391
 7523TIP3   OH222532   1.643   4.413   3.755
 7523TIP3    H122533   1.639   4.470   3.832
 7523TIP3    H222534   1.722   4.361   3.767
 7524TIP3   OH222535   4.211   6.685   5.846
 7524TIP3    H122536   4.295   6.699   5.889
 7524TIP3    H222537   4.148   6.736   5.897
 7525TIP3   OH222538   2.940   2.613   2.956
 7525TIP3    H122539   3.026   2.585   2.927
 7525TIP3    H222540   2.933   2.704   2.925
 7526TIP3   OH222541   0.056   2.200   2.229
 7526TIP3    H122542   0.065   2.294   2.219
 7526TIP3    H222543   0.137   2.164   2.194
 7527TIP3   OH222544   2.993   1.442   0.068
 7527TIP3    H122545   2.961   1.375   0.129
 7527TIP3    H222546   3.085   1.418   0.052
 7528TIP3   OH222547   4.135   1.371   5.174
 7528TIP3    H122548   4.107   1.280   5.191
 7528TIP3    H222549   4.230   1.368   5.177
 7529TIP3   OH222550   0.464   5.974   2.400
 7529TIP3    H122551   0.439   5.955   2.309
 7529TIP3    H222552   0.399   6.037   2.430
 7530TIP3   OH222553   1.241   3.173   2.037
 7530TIP3    H122554   1.221   3.105   2.101
 7530TIP3    H222555   1.171   3.236   2.045
 7531TIP3   OH222556   6.519   6.840   3.788
 7531TIP3    H122557   6.496   6.764   3.735
 7531TIP3    H222558   6.566   6.803   3.863
 7532TIP3   OH222559   0.332   6.727   0.809
 7532TIP3    H122560   0.362   6.818   0.803
 7532TIP3    H222561   0.394   6.685   0.868
 7533TIP3   OH222562   3.655   6.336   5.206
 7533TIP3    H122563   3.727   6.321   5.267
 7533TIP3    H222564   3.697   6.371   5.127
 7534TIP3   OH222565   2.580   1.008   0.920
 7534TIP3    H122566   2.627   1.091   0.925
 7534TIP3    H222567   2.639   0.945   0.962
 7535TIP3   OH222568   4.234   4.699   2.441
 7535TIP3    H122569   4.155   4.688   2.494
 7535TIP3    H222570   4.306   4.687   2.503
 7536TIP3   OH222571   1.368   6.454   1.694
 7536TIP3    H122572   1.370   6.359   1.696
 7536TIP3    H222573   1.459   6.480   1.710
 7537TIP3   OH222574   6.059   0.636   5.318
 7537TIP3    H122575   6.109   0.564   5.281
 7537TIP3    H222576   6.022   0.682   5.243
 7538TIP3   OH222577   2.554   4.978   0.102
 7538TIP3    H122578   2.493   5.046   0.074
 7538TIP3    H222579   2.542   4.972   0.197
 7539TIP3   OH222580   3.182   2.812   5.454
 7539TIP3    H122581   3.270   2.849   5.449
 7539TIP3    H222582   3.174   2.758   5.375
 7540TIP3   OH222583   4.199   4.287   1.393
 7540TIP3    H122584   4.199   4.283   1.488
 7540TIP3    H222585   4.108   4.305   1.370
 7541TIP3   OH222586   1.452   5.085   0.048
 7541TIP3    H122587   1.409   5.122   0.124
 7541TIP3    H222588   1.511   5.019   0.083
 7542TIP3   OH222589   1.248   0.563   3.401
 7542TIP3    H122590   1.312   0.540   3.469
 7542TIP3    H222591   1.206   0.480   3.378
 7543TIP3   OH222592   6.389   5.773   4.650
 7543TIP3    H122593   6.362   5.806   4.736
 7543TIP3    H222594   6.436   5.846   4.610
 7544TIP3   OH222595   5.509   2.480   2.880
 7544TIP3    H122596   5.601   2.459   2.897
 7544TIP3    H222597   5.489   2.552   2.940
 7545TIP3   OH222598   5.603   4.833   5.207
 7545TIP3    H122599   5.612   4.773   5.281
 7545TIP3    H222600   5.664   4.904   5.226
 7546TIP3   OH222601   1.967   6.046   3.007
 7546TIP3    H122602   1.995   6.021   3.096
 7546TIP3    H222603   1.970   5.964   2.957
 7547TIP3   OH222604   6.927   6.259   3.592
 7547TIP3    H122605   6.885   6.200   3.655
 7547TIP3    H222606   6.865   6.266   3.520
 7548TIP3   OH222607   1.472   0.758   1.489
 7548TIP3    H122608   1.491   0.708   1.409
 7548TIP3    H222609   1.397   0.813   1.465
 7549TIP3   OH222610   0.705   1.701   2.218
 7549TIP3    H122611   0.611   1.690   2.204
 7549TIP3    H222612   0.714   1.791   2.249
 7550TIP3   OH222613   6.546   4.812   0.245
 7550TIP3    H122614   6.456   4.779   0.246
 7550TIP3    H222615   6.578   4.793   0.156
 7551TIP3   OH222616   6.007   0.104   1.210
 7551TIP3    H122617   5.986   0.195   1.189
 7551TIP3    H222618   6.103   0.101   1.208
 7552TIP3   OH222619   2.207   0.957   5.691
 7552TIP3    H122620   2.259   1.030   5.658
 7552TIP3    H222621   2.270   0.902   5.738
 7553TIP3   OH222622   6.859   3.074   2.008
 7553TIP3    H122623   6.932   3.039   2.059
 7553TIP3    H222624   6.880   3.053   1.917
 7554TIP3   OH222625   4.469   4.270   4.654
 7554TIP3    H122626   4.466   4.209   4.728
 7554TIP3    H222627   4.437   4.352   4.689
 7555TIP3   OH222628   6.775   2.873   2.941
 7555TIP3    H122629   6.794   2.929   2.866
 7555TIP3    H222630   6.683   2.890   2.961
 7556TIP3   OH222631   5.815   0.718   3.127
 7556TIP3    H122632   5.867   0.759   3.195
 7556TIP3    H222633   5.753   0.786   3.100
 7557TIP3   OH222634   2.108   4.485   4.970
 7557TIP3    H122635   2.176   4.549   4.993
 7557TIP3    H222636   2.030   4.516   5.016
 7558TIP3   OH222637   6.049   4.892   4.742
 7558TIP3    H122638   5.960   4.858   4.735
 7558TIP3    H222639   6.059   4.950   4.666
 7559TIP3   OH222640   1.234   3.676   0.646
 7559TIP3    H122641   1.279   3.704   0.726
 7559TIP3    H222642   1.153   3.727   0.644
 7560TIP3   OH222643   4.927   2.073   2.235
 7560TIP3    H122644   4.984   1.997   2.244
 7560TIP3    H222645   4.963   2.124   2.163
 7561TIP3   OH222646   3.548   0.057   3.321
 7561TIP3    H122647   3.591   0.009   3.250
 7561TIP3    H222648   3.619   0.101   3.367
 7562TIP3   OH222649   0.437   0.956   5.758
 7562TIP3    H122650   0.499   0.963   5.832
 7562TIP3    H222651   0.389   1.038   5.759
 7563TIP3   OH222652   2.133   2.226   5.513
 7563TIP3    H122653   2.067   2.255   5.575
 7563TIP3    H222654   2.086   2.210   5.432
 7564TIP3   OH222655   5.077   0.728   3.122
 7564TIP3    H122656   5.041   0.730   3.211
 7564TIP3    H222657   5.115   0.641   3.113
 7565TIP3   OH222658   1.843   0.292   4.357
 7565TIP3    H122659   1.799   0.363   4.405
 7565TIP3    H222660   1.934   0.321   4.350
 7566TIP3   OH222661   1.924   1.982   0.212
 7566TIP3    H122662   1.898   1.993   0.304
 7566TIP3    H222663   1.865   1.915   0.178
 7567TIP3   OH222664   4.622   2.426   5.183
 7567TIP3    H122665   4.626   2.351   5.123
 7567TIP3    H222666   4.703   2.474   5.167
 7568TIP3   OH222667   2.176   0.766   4.687
 7568TIP3    H122668   2.262   0.798   4.712
 7568TIP3    H222669   2.180   0.760   4.591
 7569TIP3   OH222670   3.158   3.553   2.530
 7569TIP3    H122671   3.185   3.530   2.619
 7569TIP3    H222672   3.128   3.643   2.536
 7570TIP3   OH222673   1.053   2.696   4.990
 7570TIP3    H122674   1.021   2.777   5.028
 7570TIP3    H222675   1.049   2.710   4.895
 7571TIP3   OH222676   3.418   6.344   1.815
 7571TIP3    H122677   3.360   6.401   1.765
 7571TIP3    H222678   3.505   6.384   1.806
 7572TIP3   OH222679   4.078   3.825   5.413
 7572TIP3    H122680   4.063   3.791   5.501
 7572TIP3    H222681   4.173   3.821   5.401
 7573TIP3   OH222682   0.550   6.058   1.728
 7573TIP3    H122683   0.524   5.991   1.790
 7573TIP3    H222684   0.487   6.129   1.740
 7574TIP3   OH222685   0.216   3.902   1.987
 7574TIP3    H122686   0.311   3.916   1.986
 7574TIP3    H222687   0.205   3.810   2.011
 7575TIP3   OH222688   6.753   6.317   4.169
 7575TIP3    H122689   6.795   6.258   4.232
 7575TIP3    H222690   6.748   6.401   4.215
 7576TIP3   OH222691   4.118   3.846   5.763
 7576TIP3    H122692   4.111   3.817   5.854
 7576TIP3    H222693   4.084   3.773   5.712
 7577TIP3   OH222694   2.477   2.974   1.357
 7577TIP3    H122695   2.412   2.977   1.428
 7577TIP3    H222696   2.478   2.883   1.329
 7578TIP3   OH222697   3.863   5.569   2.815
 7578TIP3    H122698   3.825   5.502   2.872
 7578TIP3    H222699   3.955   5.544   2.806
 7579TIP3   OH222700   6.831   4.882   2.591
 7579TIP3    H122701   6.898   4.817   2.571
 7579TIP3    H222702   6.829   4.886   2.687
 7580TIP3   OH222703   1.404   6.719   1.833
 7580TIP3    H122704   1.348   6.758   1.766
 7580TIP3    H222705   1.465   6.664   1.784
 7581TIP3   OH222706   1.544   6.253   4.228
 7581TIP3    H122707   1.522   6.331   4.279
 7581TIP3    H222708   1.490   6.184   4.266
 7582TIP3   OH222709   0.685   3.415   1.566
 7582TIP3    H122710   0.771   3.423   1.526
 7582TIP3    H222711   0.635   3.361   1.505
 7583TIP3   OH222712   2.370   5.326   1.697
 7583TIP3    H122713   2.362   5.248   1.753
 7583TIP3    H222714   2.368   5.292   1.608
 7584TIP3   OH222715   4.028   6.318   3.014
 7584TIP3    H122716   4.091   6.284   3.078
 7584TIP3    H222717   4.070   6.301   2.929
 7585TIP3   OH222718   1.278   0.013   0.244
 7585TIP3    H122719   1.249   0.049   0.327
 7585TIP3    H222720   1.274   0.087   0.183
 7586TIP3   OH222721   0.384   3.982   4.511
 7586TIP3    H122722   0.427   3.924   4.448
 7586TIP3    H222723   0.385   3.933   4.593
 7587TIP3   OH222724   2.273   3.416   2.012
 7587TIP3    H122725   2.333   3.449   2.078
 7587TIP3    H222726   2.210   3.363   2.060
 7588TIP3   OH222727   2.809   2.164   4.662
 7588TIP3    H122728   2.839   2.217   4.736
 7588TIP3    H222729   2.806   2.225   4.589
 7589TIP3   OH222730   3.178   0.745   0.245
 7589TIP3    H122731   3.256   0.800   0.241
 7589TIP3    H222732   3.164   0.716   0.155
 7590TIP3   OH222733   1.657   1.099   2.630
 7590TIP3    H122734   1.614   1.042   2.693
 7590TIP3    H222735   1.711   1.158   2.683
 7591TIP3   OH222736   1.494   6.468   2.389
 7591TIP3    H122737   1.542   6.392   2.423
 7591TIP3    H222738   1.519   6.473   2.297
 7592TIP3   OH222739   5.919   3.528   3.827
 7592TIP3    H122740   5.998   3.552   3.779
 7592TIP3    H222741   5.948   3.461   3.889
 7593TIP3   OH222742   6.756   6.452   5.412
 7593TIP3    H122743   6.741   6.544   5.389
 7593TIP3    H222744   6.846   6.436   5.386
 7594TIP3   OH222745   3.386   2.609   0.200
 7594TIP3    H122746   3.342   2.530   0.231
 7594TIP3    H222747   3.375   2.607   0.105
 7595TIP3   OH222748   3.907   3.726   1.250
 7595TIP3    H122749   3.898   3.659   1.317
 7595TIP3    H222750   3.978   3.782   1.282
 7596TIP3   OH222751   0.280   1.199   5.717
 7596TIP3    H122752   0.304   1.236   5.632
 7596TIP3    H222753   0.222   1.264   5.756
 7597TIP3   OH222754   5.040   2.791   0.035
 7597TIP3    H122755   5.136   2.787   0.028
 7597TIP3    H222756   5.018   2.724   0.099
 7598TIP3   OH222757   0.986   0.384   1.513
 7598TIP3    H122758   1.047   0.456   1.494
 7598TIP3    H222759   1.037   0.305   1.495
 7599TIP3   OH222760   0.906   5.992   1.108
 7599TIP3    H122761   0.930   5.931   1.038
 7599TIP3    H222762   0.837   6.046   1.070
 7600TIP3   OH222763   0.438   3.509   5.845
 7600TIP3    H122764   0.458   3.587   5.794
 7600TIP3    H222765   0.478   3.437   5.796
 7601TIP3   OH222766   1.806   0.338   2.862
 7601TIP3    H122767   1.783   0.285   2.938
 7601TIP3    H222768   1.887   0.382   2.887
 7602TIP3   OH222769   1.470   0.307   3.155
 7602TIP3    H122770   1.462   0.310   3.250
 7602TIP3    H222771   1.427   0.387   3.124
 7603TIP3   OH222772   3.668   3.117   3.500
 7603TIP3    H122773   3.649   3.151   3.412
 7603TIP3    H222774   3.614   3.170   3.558
 7604TIP3   OH222775   1.389   1.228   0.825
 7604TIP3    H122776   1.355   1.316   0.839
 7604TIP3    H222777   1.334   1.191   0.756
 7605TIP3   OH222778   4.387   1.901   5.491
 7605TIP3    H122779   4.313   1.925   5.547
 7605TIP3    H222780   4.460   1.889   5.551
 7606TIP3   OH222781   3.044   5.510   0.969
 7606TIP3    H122782   3.068   5.430   0.923
 7606TIP3    H222783   3.107   5.576   0.938
 7607TIP3   OH222784   3.250   4.876   5.272
 7607TIP3    H122785   3.288   4.964   5.263
 7607TIP3    H222786   3.168   4.891   5.319
 7608TIP3   OH222787   4.130   5.123   3.306
 7608TIP3    H122788   4.224   5.108   3.322
 7608TIP3    H222789   4.124   5.134   3.211
 7609TIP3   OH222790   6.756   6.504   1.405
 7609TIP3    H122791   6.712   6.434   1.355
 7609TIP3    H222792   6.849   6.484   1.397
 7610TIP3   OH222793   4.691   6.608   5.519
 7610TIP3    H122794   4.745   6.640   5.591
 7610TIP3    H222795   4.603   6.602   5.555
 7611TIP3   OH222796   6.237   3.900   1.730
 7611TIP3    H122797   6.252   3.994   1.717
 7611TIP3    H222798   6.210   3.893   1.822
 7612TIP3   OH222799   5.590   5.578   4.565
 7612TIP3    H122800   5.668   5.597   4.514
 7612TIP3    H222801   5.604   5.490   4.599
 7613TIP3   OH222802   2.417   1.427   1.372
 7613TIP3    H122803   2.357   1.499   1.391
 7613TIP3    H222804   2.401   1.363   1.442
 7614TIP3   OH222805   1.846   6.072   2.149
 7614TIP3    H122806   1.849   6.072   2.244
 7614TIP3    H222807   1.823   6.162   2.125
 7615TIP3   OH222808   4.301   1.830   2.423
 7615TIP3    H122809   4.298   1.873   2.509
 7615TIP3    H222810   4.380   1.864   2.381
 7616TIP3   OH222811   6.967   3.049   4.350
 7616TIP3    H122812   6.906   2.983   4.386
 7616TIP3    H222813   7.052   3.006   4.353
 7617TIP3   OH222814   5.754   4.157   2.506
 7617TIP3    H122815   5.748   4.238   2.455
 7617TIP3    H222816   5.697   4.172   2.581
 7618TIP3   OH222817   4.827   0.076   0.746
 7618TIP3    H122818   4.818   0.058   0.652
 7618TIP3    H222819   4.921   0.093   0.758
 7619TIP3   OH222820   5.776   0.288   0.131
 7619TIP3    H122821   5.819   0.220   0.184
 7619TIP3    H222822   5.706   0.322   0.187
 7620TIP3   OH222823   6.347   3.175   0.024
 7620TIP3    H122824   6.328   3.228  -0.053
 7620TIP3    H222825   6.261   3.143   0.052
 7621TIP3   OH222826   5.080   2.881   2.257
 7621TIP3    H122827   5.089   2.960   2.204
 7621TIP3    H222828   5.033   2.910   2.335
 7622TIP3   OH222829   3.002   4.086   1.707
 7622TIP3    H122830   3.022   4.180   1.706
 7622TIP3    H222831   2.980   4.065   1.617
 7623TIP3   OH222832   2.581   4.027   4.463
 7623TIP3    H122833   2.627   3.989   4.389
 7623TIP3    H222834   2.492   4.042   4.431
 7624TIP3   OH222835   0.514  -0.005   4.915
 7624TIP3    H122836   0.496   0.085   4.891
 7624TIP3    H222837   0.586   0.001   4.978
 7625TIP3   OH222838   3.971   3.866   4.790
 7625TIP3    H122839   4.002   3.894   4.704
 7625TIP3    H222840   3.958   3.772   4.781
 7626TIP3   OH222841   2.194   6.662   5.408
 7626TIP3    H122842   2.109   6.703   5.425
 7626TIP3    H222843   2.231   6.713   5.336
 7627TIP3   OH222844   5.890   4.189   1.528
 7627TIP3    H122845   5.866   4.141   1.607
 7627TIP3    H222846   5.838   4.149   1.458
 7628TIP3   OH222847   2.759   0.846   1.068
 7628TIP3    H122848   2.751   0.926   1.121
 7628TIP3    H222849   2.850   0.818   1.081
 7629TIP3   OH222850   3.486   4.446   5.461
 7629TIP3    H122851   3.576   4.468   5.483
 7629TIP3    H222852   3.441   4.531   5.457
 7630TIP3   OH222853   2.348   3.394   5.124
 7630TIP3    H122854   2.365   3.373   5.215
 7630TIP3    H222855   2.350   3.490   5.121
 7631TIP3   OH222856   5.755   1.714   0.861
 7631TIP3    H122857   5.762   1.789   0.802
 7631TIP3    H222858   5.665   1.718   0.894
 7632TIP3   OH222859   1.510   0.431   1.031
 7632TIP3    H122860   1.598   0.405   1.058
 7632TIP3    H222861   1.452   0.374   1.081
 7633TIP3   OH222862   6.087   5.703   2.330
 7633TIP3    H122863   6.022   5.741   2.272
 7633TIP3    H222864   6.037   5.648   2.390
 7634TIP3   OH222865   5.165   6.435   1.894
 7634TIP3    H122866   5.119   6.473   1.970
 7634TIP3    H222867   5.133   6.345   1.890
 7635TIP3   OH222868   2.562   6.066   2.022
 7635TIP3    H122869   2.578   6.043   1.930
 7635TIP3    H222870   2.476   6.030   2.041
 7636TIP3   OH222871   4.596   2.351   2.250
 7636TIP3    H122872   4.593   2.370   2.156
 7636TIP3    H222873   4.667   2.405   2.283
 7637TIP3   OH222874   5.454   0.798   0.071
 7637TIP3    H122875   5.400   0.828   0.145
 7637TIP3    H222876   5.459   0.703   0.083
 7638TIP3   OH222877   6.601   5.903   0.839
 7638TIP3    H122878   6.695   5.910   0.850
 7638TIP3    H222879   6.565   5.917   0.926
 7639TIP3   OH222880   3.706   0.297   4.505
 7639TIP3    H122881   3.771   0.227   4.492
 7639TIP3    H222882   3.720   0.328   4.594
 7640TIP3   OH222883   2.614   6.205   4.357
 7640TIP3    H122884   2.666   6.231   4.281
 7640TIP3    H222885   2.637   6.268   4.425
 7641TIP3   OH222886   6.143   4.531   0.747
 7641TIP3    H122887   6.202   4.606   0.739
 7641TIP3    H222888   6.183   4.477   0.816
 7642TIP3   OH222889   3.414   1.474   5.275
 7642TIP3    H122890   3.342   1.438   5.222
 7642TIP3    H222891   3.469   1.521   5.212
 7643TIP3   OH222892   3.378   2.391  -0.009
 7643TIP3    H122893   3.340   2.382   0.078
 7643TIP3    H222894   3.472   2.381   0.004
 7644TIP3   OH222895   0.768   2.070   2.512
 7644TIP3    H122896   0.796   2.014   2.440
 7644TIP3    H222897   0.684   2.034   2.539
 7645TIP3   OH222898   7.056   6.548   4.686
 7645TIP3    H122899   6.972   6.593   4.685
 7645TIP3    H222900   7.056   6.494   4.607
 7646TIP3   OH222901   1.677   0.940   4.740
 7646TIP3    H122902   1.610   0.940   4.673
 7646TIP3    H222903   1.760   0.935   4.692
 7647TIP3   OH222904   2.210   0.539   5.204
 7647TIP3    H122905   2.295   0.548   5.248
 7647TIP3    H222906   2.167   0.623   5.218
 7648TIP3   OH222907   1.463   1.590   1.658
 7648TIP3    H122908   1.372   1.584   1.629
 7648TIP3    H222909   1.482   1.503   1.694
 7649TIP3   OH222910   0.922   3.495   2.961
 7649TIP3    H122911   1.002   3.504   2.909
 7649TIP3    H222912   0.882   3.413   2.931
 7650TIP3   OH222913   7.201   0.182   4.802
 7650TIP3    H122914   7.245   0.109   4.845
 7650TIP3    H222915   7.108   0.163   4.810
 7651TIP3   OH222916   0.736   5.859   4.633
 7651TIP3    H122917   0.708   5.903   4.553
 7651TIP3    H222918   0.655   5.849   4.684
 7652TIP3   OH222919   4.555   0.321   1.702
 7652TIP3    H122920   4.561   0.308   1.797
 7652TIP3    H222921   4.506   0.402   1.692
 7653TIP3   OH222922   6.245   1.872   5.586
 7653TIP3    H122923   6.243   1.938   5.516
 7653TIP3    H222924   6.250   1.923   5.667
 7654TIP3   OH222925   5.832   0.966   1.273
 7654TIP3    H122926   5.893   1.036   1.252
 7654TIP3    H222927   5.749   0.993   1.232
 7655TIP3   OH222928   1.642   0.259   2.378
 7655TIP3    H122929   1.641   0.200   2.453
 7655TIP3    H222930   1.569   0.229   2.323
 7656TIP3   OH222931   2.064   6.053   1.804
 7656TIP3    H122932   2.114   6.006   1.737
 7656TIP3    H222933   2.095   6.144   1.796
 7657TIP3   OH222934   3.175   2.025   4.184
 7657TIP3    H122935   3.103   1.994   4.129
 7657TIP3    H222936   3.152   1.994   4.272
 7658TIP3   OH222937   3.271   5.466   2.803
 7658TIP3    H122938   3.314   5.541   2.844
 7658TIP3    H222939   3.243   5.498   2.717
 7659TIP3   OH222940   4.556   0.147   0.505
 7659TIP3    H122941   4.495   0.074   0.491
 7659TIP3    H222942   4.643   0.108   0.494
 7660TIP3   OH222943   1.231   2.495   0.166
 7660TIP3    H122944   1.144   2.473   0.200
 7660TIP3    H222945   1.285   2.508   0.244
 7661TIP3   OH222946   7.178   6.160   3.506
 7661TIP3    H122947   7.093   6.202   3.520
 7661TIP3    H222948   7.175   6.082   3.561
 7662TIP3   OH222949   4.545   0.107   1.517
 7662TIP3    H122950   4.549   0.168   1.591
 7662TIP3    H222951   4.483   0.147   1.456
 7663TIP3   OH222952   4.489   3.192   1.765
 7663TIP3    H122953   4.399   3.182   1.795
 7663TIP3    H222954   4.494   3.139   1.686
 7664TIP3   OH222955   1.647   4.556   3.988
 7664TIP3    H122956   1.736   4.552   3.953
 7664TIP3    H222957   1.636   4.648   4.015
 7665TIP3   OH222958   4.418   2.484   0.420
 7665TIP3    H122959   4.446   2.573   0.443
 7665TIP3    H222960   4.335   2.496   0.374
 7666TIP3   OH222961   4.668   2.007   5.376
 7666TIP3    H122962   4.575   1.991   5.393
 7666TIP3    H222963   4.713   1.960   5.447
 7667TIP3   OH222964   3.317   5.206   4.456
 7667TIP3    H122965   3.400   5.160   4.472
 7667TIP3    H222966   3.323   5.235   4.365
 7668TIP3   OH222967   3.881   5.566   1.612
 7668TIP3    H122968   3.849   5.651   1.580
 7668TIP3    H222969   3.802   5.512   1.617
 7669TIP3   OH222970   5.410   3.706   4.246
 7669TIP3    H122971   5.435   3.616   4.267
 7669TIP3    H222972   5.467   3.730   4.173
 7670TIP3   OH222973   0.914   2.481   4.203
 7670TIP3    H122974   0.903   2.505   4.295
 7670TIP3    H222975   0.982   2.413   4.204
 7671TIP3   OH222976   2.588   2.872   2.309
 7671TIP3    H122977   2.561   2.939   2.247
 7671TIP3    H222978   2.566   2.909   2.395
 7672TIP3   OH222979   2.342   4.787   2.754
 7672TIP3    H122980   2.285   4.850   2.799
 7672TIP3    H222981   2.413   4.771   2.817
 7673TIP3   OH222982   4.559   1.456   1.192
 7673TIP3    H122983   4.533   1.525   1.131
 7673TIP3    H222984   4.550   1.375   1.142
 7674TIP3   OH222985   0.311   4.355   3.237
 7674TIP3    H122986   0.323   4.350   3.332
 7674TIP3    H222987   0.263   4.437   3.223
 7675TIP3   OH222988   4.057   1.404   4.127
 7675TIP3    H122989   3.980   1.366   4.084
 7675TIP3    H222990   4.045   1.498   4.119
 7676TIP3   OH222991   5.468   4.916   0.667
 7676TIP3    H122992   5.393   4.957   0.710
 7676TIP3    H222993   5.498   4.849   0.728
 7677TIP3   OH222994   3.845   1.361   5.817
 7677TIP3    H122995   3.773   1.412   5.853
 7677TIP3    H222996   3.828   1.272   5.845
 7678TIP3   OH222997   3.425   2.639   4.907
 7678TIP3    H122998   3.400   2.719   4.953
 7678TIP3    H222999   3.402   2.655   4.815
 7679TIP3   OH223000   6.834   3.313   1.078
 7679TIP3    H123001   6.795   3.227   1.066
 7679TIP3    H223002   6.766   3.365   1.121
 7680TIP3   OH223003   6.845   2.128   2.744
 7680TIP3    H123004   6.803   2.043   2.750
 7680TIP3    H223005   6.774   2.191   2.754
 7681TIP3   OH223006   5.652   1.914   4.098
 7681TIP3    H123007   5.590   1.876   4.036
 7681TIP3    H223008   5.719   1.846   4.110
 7682TIP3   OH223009   2.903   1.568   4.147
 7682TIP3    H123010   2.864   1.490   4.185
 7682TIP3    H223011   2.933   1.540   4.060
 7683TIP3   OH223012   4.193   4.982   1.808
 7683TIP3    H123013   4.146   5.017   1.732
 7683TIP3    H223014   4.134   4.996   1.882
 7684TIP3   OH223015   3.659   4.394   3.721
 7684TIP3    H123016   3.632   4.471   3.772
 7684TIP3    H223017   3.741   4.367   3.761
 7685TIP3   OH223018   0.002   0.671   4.758
 7685TIP3    H123019   0.098   0.665   4.751
 7685TIP3    H223020  -0.024   0.594   4.807
 7686TIP3   OH223021   4.978   3.310   3.505
 7686TIP3    H123022   4.929   3.374   3.556
 7686TIP3    H223023   5.062   3.303   3.550
 7687TIP3   OH223024   4.106   5.341   1.044
 7687TIP3    H123025   4.089   5.350   1.138
 7687TIP3    H223026   4.194   5.305   1.039
 7688TIP3   OH223027   3.485   2.114   5.758
 7688TIP3    H123028   3.563   2.059   5.751
 7688TIP3    H223029   3.451   2.098   5.846
 7689TIP3   OH223030   1.981   4.810   3.588
 7689TIP3    H123031   1.966   4.796   3.494
 7689TIP3    H223032   2.073   4.834   3.594
 7690TIP3   OH223033   2.497   6.070   1.309
 7690TIP3    H123034   2.404   6.089   1.321
 7690TIP3    H223035   2.499   6.006   1.237
 7691TIP3   OH223036   2.905   2.994   2.281
 7691TIP3    H123037   2.957   2.924   2.320
 7691TIP3    H223038   2.970   3.056   2.247
 7692TIP3   OH223039   5.174   4.095   3.780
 7692TIP3    H123040   5.210   4.130   3.699
 7692TIP3    H223041   5.080   4.086   3.763
 7693TIP3   OH223042   5.794   5.961   3.807
 7693TIP3    H123043   5.877   5.922   3.832
 7693TIP3    H223044   5.812   6.055   3.801
 7694TIP3   OH223045   1.244   4.653   4.112
 7694TIP3    H123046   1.240   4.706   4.032
 7694TIP3    H223047   1.228   4.715   4.183
 7695TIP3   OH223048   5.416   0.126   1.132
 7695TIP3    H123049   5.430   0.153   1.223
 7695TIP3    H223050   5.469   0.186   1.080
 7696TIP3   OH223051   5.783   0.237   0.547
 7696TIP3    H123052   5.756   0.265   0.635
 7696TIP3    H223053   5.721   0.280   0.488
 7697TIP3   OH223054   4.986   5.672   3.861
 7697TIP3    H123055   5.072   5.631   3.854
 7697TIP3    H223056   4.944   5.627   3.934
 7698TIP3   OH223057   6.547   0.779   1.943
 7698TIP3    H123058   6.639   0.801   1.955
 7698TIP3    H223059   6.544   0.684   1.950
 7699TIP3   OH223060   3.391   2.711   0.911
 7699TIP3    H123061   3.444   2.689   0.988
 7699TIP3    H223062   3.387   2.631   0.860
 7700TIP3   OH223063   1.833   5.602   4.094
 7700TIP3    H123064   1.853   5.654   4.016
 7700TIP3    H223065   1.773   5.657   4.145
 7701TIP3   OH223066   4.281   2.864   1.990
 7701TIP3    H123067   4.303   2.843   1.899
 7701TIP3    H223068   4.249   2.954   1.987
 7702TIP3   OH223069   0.215   3.987   2.832
 7702TIP3    H123070   0.148   3.920   2.847
 7702TIP3    H223071   0.168   4.057   2.786
 7703TIP3   OH223072   1.815   3.427   1.396
 7703TIP3    H123073   1.732   3.466   1.367
 7703TIP3    H223074   1.806   3.334   1.373
 7704TIP3   OH223075   2.276   6.068   3.773
 7704TIP3    H123076   2.320   6.100   3.851
 7704TIP3    H223077   2.192   6.035   3.804
 7705TIP3   OH223078   1.885   1.769   3.058
 7705TIP3    H123079   1.879   1.674   3.069
 7705TIP3    H223080   1.976   1.784   3.033
 7706TIP3   OH223081   0.155   5.383   1.666
 7706TIP3    H123082   0.179   5.467   1.628
 7706TIP3    H223083   0.237   5.334   1.670
 7707TIP3   OH223084   4.110   1.335   0.639
 7707TIP3    H123085   4.203   1.344   0.620
 7707TIP3    H223086   4.065   1.363   0.559
 7708TIP3   OH223087   4.768   3.157   2.684
 7708TIP3    H123088   4.687   3.164   2.633
 7708TIP3    H223089   4.764   3.069   2.722
 7709TIP3   OH223090   1.653   5.127   1.076
 7709TIP3    H123091   1.665   5.188   1.149
 7709TIP3    H223092   1.690   5.044   1.106
 7710TIP3   OH223093   6.317   4.873   2.862
 7710TIP3    H123094   6.365   4.790   2.860
 7710TIP3    H223095   6.267   4.874   2.780
 7711TIP3   OH223096   6.578   3.734   0.406
 7711TIP3    H123097   6.515   3.709   0.339
 7711TIP3    H223098   6.563   3.673   0.478
 7712TIP3   OH223099   3.040   4.463   2.976
 7712TIP3    H123100   2.947   4.470   2.994
 7712TIP3    H223101   3.054   4.371   2.955
 7713TIP3   OH223102   2.129   4.302   5.346
 7713TIP3    H123103   2.115   4.224   5.399
 7713TIP3    H223104   2.065   4.365   5.379
 7714TIP3   OH223105   0.354   2.833  -0.002
 7714TIP3    H123106   0.401   2.765  -0.050
 7714TIP3    H223107   0.411   2.909  -0.007
 7715TIP3   OH223108   5.032   5.644   0.846
 7715TIP3    H123109   4.987   5.684   0.772
 7715TIP3    H223110   5.033   5.712   0.913
 7716TIP3   OH223111   0.573   2.966   1.871
 7716TIP3    H123112   0.662   2.944   1.898
 7716TIP3    H223113   0.523   2.970   1.952
 7717TIP3   OH223114   7.195   2.531  -0.006
 7717TIP3    H123115   7.262   2.519   0.061
 7717TIP3    H223116   7.116   2.495   0.033
 7718TIP3   OH223117   0.697   6.269   4.684
 7718TIP3    H123118   0.654   6.350   4.657
 7718TIP3    H223119   0.642   6.199   4.648
 7719TIP3   OH223120   1.618   4.167   0.933
 7719TIP3    H123121   1.664   4.157   1.017
 7719TIP3    H223122   1.661   4.104   0.875
 7720TIP3   OH223123   7.281   6.549   1.656
 7720TIP3    H123124   7.278   6.617   1.723
 7720TIP3    H223125   7.217   6.577   1.591
 7721TIP3   OH223126   2.114   6.012   0.829
 7721TIP3    H123127   2.114   5.927   0.785
 7721TIP3    H223128   2.033   6.054   0.799
 7722TIP3   OH223129   0.687   2.254   0.934
 7722TIP3    H123130   0.737   2.205   0.999
 7722TIP3    H223131   0.752   2.282   0.870
 7723TIP3   OH223132   4.690   4.074   2.044
 7723TIP3    H123133   4.691   3.978   2.040
 7723TIP3    H223134   4.765   4.097   2.099
 7724TIP3   OH223135   5.121   4.745   3.244
 7724TIP3    H123136   5.056   4.674   3.242
 7724TIP3    H223137   5.194   4.712   3.192
 7725TIP3   OH223138   5.278   0.075   5.128
 7725TIP3    H123139   5.253   0.006   5.189
 7725TIP3    H223140   5.221   0.063   5.053
 7726TIP3   OH223141   1.395   5.539   0.802
 7726TIP3    H123142   1.363   5.600   0.869
 7726TIP3    H223143   1.437   5.595   0.737
 7727TIP3   OH223144   4.811   0.476   5.081
 7727TIP3    H123145   4.867   0.441   5.011
 7727TIP3    H223146   4.871   0.528   5.135
 7728TIP3   OH223147   4.462   2.054   5.116
 7728TIP3    H123148   4.537   2.106   5.083
 7728TIP3    H223149   4.397   2.060   5.046
 7729TIP3   OH223150   4.680   6.447   1.817
 7729TIP3    H123151   4.774   6.448   1.804
 7729TIP3    H223152   4.643   6.447   1.729
 7730TIP3   OH223153   1.088   4.045   1.015
 7730TIP3    H123154   1.030   4.092   0.955
 7730TIP3    H223155   1.176   4.064   0.982
 7731TIP3   OH223156   2.816   2.843   4.834
 7731TIP3    H123157   2.762   2.811   4.762
 7731TIP3    H223158   2.864   2.917   4.798
 7732TIP3   OH223159   0.691   5.080   4.561
 7732TIP3    H123160   0.699   5.175   4.570
 7732TIP3    H223161   0.743   5.045   4.633
 7733TIP3   OH223162   6.300   2.684   1.181
 7733TIP3    H123163   6.302   2.736   1.261
 7733TIP3    H223164   6.251   2.605   1.204
 7734TIP3   OH223165   4.986   6.202  -0.003
 7734TIP3    H123166   5.062   6.241   0.040
 7734TIP3    H223167   4.916   6.266   0.010
 7735TIP3   OH223168   7.085   6.602   0.069
 7735TIP3    H123169   7.172   6.634   0.045
 7735TIP3    H223170   7.055   6.553  -0.007
 7736TIP3   OH223171   2.063   6.461   5.577
 7736TIP3    H123172   2.126   6.516   5.530
 7736TIP3    H223173   1.988   6.456   5.518
 7737TIP3   OH223174   6.613   5.081   2.149
 7737TIP3    H123175   6.648   5.153   2.201
 7737TIP3    H223176   6.688   5.024   2.134
 7738TIP3   OH223177   4.746   1.084   4.689
 7738TIP3    H123178   4.722   1.132   4.610
 7738TIP3    H223179   4.841   1.096   4.697
 7739TIP3   OH223180   5.733   3.876   3.318
 7739TIP3    H123181   5.721   3.874   3.413
 7739TIP3    H223182   5.729   3.969   3.296
 7740TIP3   OH223183   4.116   5.720   1.083
 7740TIP3    H123184   4.205   5.754   1.093
 7740TIP3    H223185   4.074   5.782   1.023
 7741TIP3   OH223186   3.084   1.704   5.229
 7741TIP3    H123187   3.109   1.750   5.309
 7741TIP3    H223188   2.998   1.741   5.207
 7742TIP3   OH223189   1.663   3.051   5.315
 7742TIP3    H123190   1.727   2.979   5.316
 7742TIP3    H223191   1.578   3.007   5.322
 7743TIP3   OH223192   6.044   2.738   1.732
 7743TIP3    H123193   6.105   2.665   1.724
 7743TIP3    H223194   6.049   2.763   1.825
 7744TIP3   OH223195   5.102   3.440   2.305
 7744TIP3    H123196   5.013   3.437   2.342
 7744TIP3    H223197   5.089   3.430   2.211
 7745TIP3   OH223198   5.034   2.396   3.074
 7745TIP3    H123199   5.028   2.364   2.983
 7745TIP3    H223200   5.110   2.454   3.073
 7746TIP3   OH223201   0.257   6.008   0.091
 7746TIP3    H123202   0.219   6.000   0.179
 7746TIP3    H223203   0.279   6.101   0.084
 7747TIP3   OH223204   5.407   2.446   1.475
 7747TIP3    H123205   5.345   2.401   1.533
 7747TIP3    H223206   5.491   2.437   1.519
 7748TIP3   OH223207   6.809   4.069   1.380
 7748TIP3    H123208   6.852   4.146   1.344
 7748TIP3    H223209   6.844   4.062   1.469
 7749TIP3   OH223210   2.459   5.353   2.125
 7749TIP3    H123211   2.547   5.315   2.121
 7749TIP3    H223212   2.401   5.280   2.106
 7750TIP3   OH223213   4.738   2.460   0.605
 7750TIP3    H123214   4.655   2.502   0.584
 7750TIP3    H223215   4.803   2.530   0.600
 7751TIP3   OH223216   1.934   3.685   2.933
 7751TIP3    H123217   2.002   3.667   2.869
 7751TIP3    H223218   1.861   3.720   2.881
 7752TIP3   OH223219   0.397   0.224   2.333
 7752TIP3    H123220   0.346   0.270   2.267
 7752TIP3    H223221   0.435   0.294   2.387
 7753TIP3   OH223222   1.113   0.634   0.277
 7753TIP3    H123223   1.095   0.655   0.185
 7753TIP3    H223224   1.133   0.540   0.277
 7754TIP3   OH223225   4.704   5.345   2.845
 7754TIP3    H123226   4.689   5.397   2.767
 7754TIP3    H223227   4.650   5.267   2.834
 7755TIP3   OH223228   1.799   4.447   1.142
 7755TIP3    H123229   1.757   4.507   1.079
 7755TIP3    H223230   1.792   4.491   1.226
 7756TIP3   OH223231   4.625   0.573   2.278
 7756TIP3    H123232   4.545   0.559   2.328
 7756TIP3    H223233   4.681   0.624   2.337
 7757TIP3   OH223234   6.829   5.961   2.835
 7757TIP3    H123235   6.858   6.048   2.809
 7757TIP3    H223236   6.910   5.913   2.852
 7758TIP3   OH223237   5.903   5.796   3.568
 7758TIP3    H123238   5.920   5.854   3.642
 7758TIP3    H223239   5.939   5.843   3.493
 7759TIP3   OH223240   7.100   0.454   4.905
 7759TIP3    H123241   7.126   0.373   4.862
 7759TIP3    H223242   7.129   0.444   4.996
 7760TIP3   OH223243   1.687   5.733   2.558
 7760TIP3    H123244   1.612   5.724   2.499
 7760TIP3    H223245   1.743   5.658   2.538
 7761TIP3   OH223246   1.511   5.038   2.329
 7761TIP3    H123247   1.595   4.999   2.355
 7761TIP3    H223248   1.445   4.986   2.376
 7762TIP3   OH223249   3.845   2.321   1.914
 7762TIP3    H123250   3.752   2.315   1.893
 7762TIP3    H223251   3.885   2.356   1.835
 7763TIP3   OH223252   0.599   1.396   1.559
 7763TIP3    H123253   0.669   1.431   1.613
 7763TIP3    H223254   0.636   1.392   1.470
 7764TIP3   OH223255   1.979   5.355   5.588
 7764TIP3    H123256   2.000   5.409   5.664
 7764TIP3    H223257   1.890   5.381   5.563
 7765TIP3   OH223258   4.463   3.336   0.523
 7765TIP3    H123259   4.442   3.393   0.448
 7765TIP3    H223260   4.543   3.291   0.497
 7766TIP3   OH223261   4.021   2.129   1.525
 7766TIP3    H123262   4.026   2.204   1.466
 7766TIP3    H223263   3.928   2.106   1.527
 7767TIP3   OH223264   5.405   5.852   2.044
 7767TIP3    H123265   5.443   5.862   1.957
 7767TIP3    H223266   5.311   5.847   2.029
 7768TIP3   OH223267   0.184   0.944   0.052
 7768TIP3    H123268   0.137   0.879  -0.001
 7768TIP3    H223269   0.256   0.896   0.091
 7769TIP3   OH223270   3.980   1.491   1.566
 7769TIP3    H123271   3.995   1.398   1.585
 7769TIP3    H223272   3.967   1.495   1.471
 7770TIP3   OH223273   2.885   5.149   0.757
 7770TIP3    H123274   2.960   5.207   0.771
 7770TIP3    H223275   2.919   5.061   0.772
 7771TIP3   OH223276   6.165   6.624   3.152
 7771TIP3    H123277   6.075   6.623   3.118
 7771TIP3    H223278   6.164   6.560   3.222
 7772TIP3   OH223279   2.276   3.799   5.698
 7772TIP3    H123280   2.197   3.782   5.646
 7772TIP3    H223281   2.348   3.775   5.641
 7773TIP3   OH223282   6.062   0.754   3.269
 7773TIP3    H123283   6.098   0.808   3.199
 7773TIP3    H223284   6.101   0.668   3.255
 7774TIP3   OH223285   1.963   3.189   2.441
 7774TIP3    H123286   1.930   3.103   2.467
 7774TIP3    H223287   1.894   3.250   2.469
 7775TIP3   OH223288   1.589   5.703   4.905
 7775TIP3    H123289   1.663   5.648   4.881
 7775TIP3    H223290   1.593   5.778   4.846
 7776TIP3   OH223291   4.256   4.519   4.641
 7776TIP3    H123292   4.184   4.569   4.680
 7776TIP3    H223293   4.335   4.563   4.671
 7777TIP3   OH223294   7.136   4.518   3.817
 7777TIP3    H123295   7.151   4.597   3.765
 7777TIP3    H223296   7.104   4.551   3.901
 7778TIP3   OH223297   3.097   3.526   3.856
 7778TIP3    H123298   3.068   3.547   3.767
 7778TIP3    H223299   3.032   3.569   3.913
 7779TIP3   OH223300   0.582   3.002   4.294
 7779TIP3    H123301   0.627   3.025   4.376
 7779TIP3    H223302   0.576   2.907   4.296
 7780TIP3   OH223303   4.612   1.222   1.060
 7780TIP3    H123304   4.570   1.171   0.991
 7780TIP3    H223305   4.582   1.180   1.141
 7781TIP3   OH223306   3.047   4.199   4.978
 7781TIP3    H123307   2.961   4.233   5.001
 7781TIP3    H223308   3.040   4.173   4.886
 7782TIP3   OH223309   1.966   2.192   4.013
 7782TIP3    H123310   2.016   2.273   4.028
 7782TIP3    H223311   1.957   2.187   3.917
 7783TIP3   OH223312   3.507   2.745   2.223
 7783TIP3    H123313   3.447   2.815   2.197
 7783TIP3    H223314   3.530   2.701   2.142
 7784TIP3   OH223315   0.790   3.959   5.690
 7784TIP3    H123316   0.754   4.037   5.648
 7784TIP3    H223317   0.824   3.907   5.617
 7785TIP3   OH223318   3.486   1.973   4.153
 7785TIP3    H123319   3.448   1.886   4.166
 7785TIP3    H223320   3.413   2.028   4.126
 7786TIP3   OH223321   3.464   1.488   3.366
 7786TIP3    H123322   3.540   1.511   3.312
 7786TIP3    H223323   3.501   1.468   3.452
 7787TIP3   OH223324   1.695   2.439   1.389
 7787TIP3    H123325   1.746   2.482   1.320
 7787TIP3    H223326   1.634   2.506   1.419
 7788TIP3   OH223327   6.666   2.469   1.790
 7788TIP3    H123328   6.653   2.421   1.872
 7788TIP3    H223329   6.668   2.561   1.817
 7789TIP3   OH223330   0.907   3.015   1.768
 7789TIP3    H123331   0.875   2.940   1.818
 7789TIP3    H223332   1.002   3.010   1.775
 7790TIP3   OH223333   0.276   1.877   4.629
 7790TIP3    H123334   0.351   1.819   4.617
 7790TIP3    H223335   0.268   1.924   4.545
 7791TIP3   OH223336   4.077   1.046   1.976
 7791TIP3    H123337   4.004   1.101   1.948
 7791TIP3    H223338   4.090   1.069   2.067
 7792TIP3   OH223339   1.618   3.228   0.636
 7792TIP3    H123340   1.685   3.274   0.585
 7792TIP3    H223341   1.539   3.281   0.626
 7793TIP3   OH223342   4.368   6.727   5.217
 7793TIP3    H123343   4.322   6.722   5.134
 7793TIP3    H223344   4.459   6.707   5.196
 7794TIP3   OH223345   5.349   5.152   2.207
 7794TIP3    H123346   5.396   5.224   2.249
 7794TIP3    H223347   5.357   5.169   2.113
 7795TIP3   OH223348   4.920   4.593   4.892
 7795TIP3    H123349   4.879   4.558   4.971
 7795TIP3    H223350   5.005   4.550   4.887
 7796TIP3   OH223351   7.054   1.724   1.387
 7796TIP3    H123352   7.145   1.704   1.366
 7796TIP3    H223353   7.004   1.653   1.346
 7797TIP3   OH223354   6.346   5.363   1.651
 7797TIP3    H123355   6.393   5.361   1.567
 7797TIP3    H223356   6.415   5.378   1.716
 7798TIP3   OH223357   3.129   4.293   5.678
 7798TIP3    H123358   3.106   4.323   5.590
 7798TIP3    H223359   3.164   4.204   5.664
 7799TIP3   OH223360   3.356   4.029   3.273
 7799TIP3    H123361   3.443   4.063   3.254
 7799TIP3    H223362   3.368   3.972   3.349
 7800TIP3   OH223363   0.556   3.606   0.707
 7800TIP3    H123364   0.566   3.653   0.790
 7800TIP3    H223365   0.629   3.637   0.653
 7801TIP3   OH223366   0.163   6.531   2.045
 7801TIP3    H123367   0.244   6.511   1.997
 7801TIP3    H223368   0.177   6.618   2.081
 7802TIP3   OH223369   4.429   5.974   2.541
 7802TIP3    H123370   4.500   5.918   2.575
 7802TIP3    H223371   4.461   6.004   2.456
 7803TIP3   OH223372   2.521   4.824   3.957
 7803TIP3    H123373   2.476   4.769   4.020
 7803TIP3    H223374   2.505   4.914   3.986
 7804TIP3   OH223375   5.437   6.214  -0.049
 7804TIP3    H123376   5.396   6.300  -0.041
 7804TIP3    H223377   5.437   6.179   0.040
 7805TIP3   OH223378   4.067   3.360   4.111
 7805TIP3    H123379   4.023   3.445   4.102
 7805TIP3    H223380   4.002   3.304   4.154
 7806TIP3   OH223381   1.516   4.775   3.732
 7806TIP3    H123382   1.587   4.812   3.785
 7806TIP3    H223383   1.556   4.702   3.685
 7807TIP3   OH223384   6.495   0.821   5.944
 7807TIP3    H123385   6.491   0.801   5.850
 7807TIP3    H223386   6.523   0.913   5.948
 7808TIP3   OH223387   1.275   3.085   3.805
 7808TIP3    H123388   1.309   3.079   3.894
 7808TIP3    H223389   1.274   3.179   3.786
 7809TIP3   OH223390   5.864   3.057   4.989
 7809TIP3    H123391   5.875   3.106   5.070
 7809TIP3    H223392   5.888   2.967   5.013
 7810TIP3   OH223393   5.298   5.059   4.337
 7810TIP3    H123394   5.327   5.107   4.415
 7810TIP3    H223395   5.373   5.005   4.313
 7811TIP3   OH223396   5.452   1.673   2.993
 7811TIP3    H123397   5.440   1.757   2.949
 7811TIP3    H223398   5.526   1.687   3.052
 7812TIP3   OH223399   1.513   0.701   5.140
 7812TIP3    H123400   1.586   0.743   5.095
 7812TIP3    H223401   1.546   0.614   5.164
 7813TIP3   OH223402   3.811   5.292   0.800
 7813TIP3    H123403   3.834   5.205   0.831
 7813TIP3    H223404   3.823   5.288   0.705
 7814TIP3   OH223405   4.654   6.508   1.056
 7814TIP3    H123406   4.651   6.481   0.964
 7814TIP3    H223407   4.679   6.428   1.103
 7815TIP3   OH223408   4.256   3.564   1.142
 7815TIP3    H123409   4.312   3.567   1.220
 7815TIP3    H223410   4.259   3.652   1.106
 7816TIP3   OH223411   0.374   3.531   3.007
 7816TIP3    H123412   0.395   3.483   3.088
 7816TIP3    H223413   0.322   3.606   3.036
 7817TIP3   OH223414   3.917   6.574   1.735
 7817TIP3    H123415   3.959   6.626   1.667
 7817TIP3    H223416   3.987   6.518   1.768
 7818TIP3   OH223417   2.783   1.707   2.503
 7818TIP3    H123418   2.712   1.770   2.517
 7818TIP3    H223419   2.857   1.745   2.550
 7819TIP3   OH223420   3.901   6.726   3.239
 7819TIP3    H123421   3.906   6.808   3.288
 7819TIP3    H223422   3.862   6.664   3.301
 7820TIP3   OH223423   5.085   4.057   0.409
 7820TIP3    H123424   5.043   4.040   0.494
 7820TIP3    H223425   5.179   4.054   0.428
 7821TIP3   OH223426   4.369   6.434   0.686
 7821TIP3    H123427   4.361   6.498   0.615
 7821TIP3    H223428   4.310   6.363   0.662
 7822TIP3   OH223429   0.066   2.193   3.808
 7822TIP3    H123430  -0.025   2.177   3.833
 7822TIP3    H223431   0.116   2.127   3.856
 7823TIP3   OH223432   6.643   0.733   5.461
 7823TIP3    H123433   6.624   0.693   5.375
 7823TIP3    H223434   6.586   0.686   5.522
 7824TIP3   OH223435   4.466   3.988   0.641
 7824TIP3    H123436   4.534   3.977   0.707
 7824TIP3    H223437   4.385   3.961   0.684
 7825TIP3   OH223438   1.101   3.258   3.983
 7825TIP3    H123439   1.082   3.169   4.015
 7825TIP3    H223440   1.050   3.315   4.040
 7826TIP3   OH223441   1.690   2.034   3.636
 7826TIP3    H123442   1.696   2.079   3.552
 7826TIP3    H223443   1.670   1.943   3.613
 7827TIP3   OH223444   3.588   1.003   1.694
 7827TIP3    H123445   3.644   1.074   1.663
 7827TIP3    H223446   3.533   1.043   1.761
 7828TIP3   OH223447   4.434   2.482   4.522
 7828TIP3    H123448   4.466   2.569   4.548
 7828TIP3    H223449   4.359   2.466   4.580
 7829TIP3   OH223450   6.242   0.993   1.514
 7829TIP3    H123451   6.192   1.071   1.537
 7829TIP3    H223452   6.236   0.936   1.590
 7830TIP3   OH223453   4.447   1.538   5.145
 7830TIP3    H123454   4.473   1.483   5.219
 7830TIP3    H223455   4.374   1.590   5.178
 7831TIP3   OH223456   3.041   4.286   3.636
 7831TIP3    H123457   3.103   4.253   3.571
 7831TIP3    H223458   2.991   4.353   3.589
 7832TIP3   OH223459   1.967   2.455   0.426
 7832TIP3    H123460   1.975   2.410   0.342
 7832TIP3    H223461   1.954   2.384   0.489
 7833TIP3   OH223462   0.269   3.684   4.101
 7833TIP3    H123463   0.333   3.755   4.095
 7833TIP3    H223464   0.233   3.676   4.013
 7834TIP3   OH223465   6.542   5.103   0.683
 7834TIP3    H123466   6.573   5.063   0.765
 7834TIP3    H223467   6.476   5.166   0.711
 7835TIP3   OH223468   5.767   0.484   2.306
 7835TIP3    H123469   5.780   0.413   2.243
 7835TIP3    H223470   5.855   0.518   2.323
 7836TIP3   OH223471   1.650   5.741   5.169
 7836TIP3    H123472   1.740   5.708   5.179
 7836TIP3    H223473   1.627   5.723   5.078
 7837TIP3   OH223474   1.753   1.898   2.843
 7837TIP3    H123475   1.669   1.860   2.816
 7837TIP3    H223476   1.782   1.843   2.916
 7838TIP3   OH223477   1.779   4.824   2.921
 7838TIP3    H123478   1.742   4.799   3.006
 7838TIP3    H223479   1.832   4.902   2.940
 7839TIP3   OH223480   0.289   0.779   1.938
 7839TIP3    H123481   0.264   0.854   1.993
 7839TIP3    H223482   0.292   0.815   1.849
 7840TIP3   OH223483   3.916   0.224   1.831
 7840TIP3    H123484   3.862   0.302   1.841
 7840TIP3    H223485   3.857   0.159   1.792
 7841TIP3   OH223486   4.952   2.935   3.644
 7841TIP3    H123487   4.980   2.924   3.553
 7841TIP3    H223488   4.973   3.026   3.664
 7842TIP3   OH223489   3.399   6.810   3.409
 7842TIP3    H123490   3.443   6.878   3.357
 7842TIP3    H223491   3.466   6.781   3.471
 7843TIP3   OH223492   3.904   6.072   0.419
 7843TIP3    H123493   3.894   6.093   0.326
 7843TIP3    H223494   3.821   6.098   0.459
 7844TIP3   OH223495   0.205   2.477   1.443
 7844TIP3    H123496   0.145   2.551   1.447
 7844TIP3    H223497   0.171   2.415   1.507
 7845TIP3   OH223498   2.361   3.733   3.140
 7845TIP3    H123499   2.282   3.751   3.190
 7845TIP3    H223500   2.428   3.788   3.179
 7846TIP3   OH223501   6.629   2.121   1.227
 7846TIP3    H123502   6.689   2.187   1.262
 7846TIP3    H223503   6.621   2.143   1.134
 7847TIP3   OH223504   1.314   2.706   0.797
 7847TIP3    H123505   1.339   2.643   0.865
 7847TIP3    H223506   1.295   2.787   0.845
 7848TIP3   OH223507   5.034   6.512   2.123
 7848TIP3    H123508   4.947   6.474   2.112
 7848TIP3    H223509   5.022   6.606   2.106
 7849TIP3   OH223510   5.446   6.353   2.585
 7849TIP3    H123511   5.445   6.361   2.490
 7849TIP3    H223512   5.489   6.433   2.616
 7850TIP3   OH223513   5.650   6.250   3.593
 7850TIP3    H123514   5.740   6.279   3.601
 7850TIP3    H223515   5.655   6.165   3.550
 7851TIP3   OH223516   4.300   3.979   5.045
 7851TIP3    H123517   4.334   4.004   5.130
 7851TIP3    H223518   4.210   3.951   5.062
 7852TIP3   OH223519   2.092   5.889   3.191
 7852TIP3    H123520   2.163   5.916   3.250
 7852TIP3    H223521   2.134   5.828   3.130
 7853TIP3   OH223522   1.414   4.932   5.293
 7853TIP3    H123523   1.384   4.968   5.377
 7853TIP3    H223524   1.411   4.837   5.305
 7854TIP3   OH223525   3.013   6.503   4.686
 7854TIP3    H123526   3.005   6.452   4.605
 7854TIP3    H223527   3.106   6.525   4.691
 7855TIP3   OH223528   7.092   2.918   3.499
 7855TIP3    H123529   7.039   2.884   3.571
 7855TIP3    H223530   7.138   2.841   3.466
 7856TIP3   OH223531   5.710   3.469   0.411
 7856TIP3    H123532   5.770   3.500   0.343
 7856TIP3    H223533   5.667   3.392   0.373
 7857TIP3   OH223534   4.119   3.862   0.229
 7857TIP3    H123535   4.178   3.920   0.182
 7857TIP3    H223536   4.143   3.774   0.200
 7858TIP3   OH223537   5.601   5.053   5.539
 7858TIP3    H123538   5.605   5.051   5.443
 7858TIP3    H223539   5.627   4.964   5.565
 7859TIP3   OH223540   2.141   2.210   2.656
 7859TIP3    H123541   2.077   2.256   2.710
 7859TIP3    H223542   2.118   2.232   2.566
 7860TIP3   OH223543   1.852   2.527   1.161
 7860TIP3    H123544   1.932   2.476   1.174
 7860TIP3    H223545   1.882   2.615   1.139
 7861TIP3   OH223546   4.780   5.794   2.193
 7861TIP3    H123547   4.787   5.699   2.187
 7861TIP3    H223548   4.797   5.825   2.104
 7862TIP3   OH223549   5.514   1.477   0.926
 7862TIP3    H123550   5.477   1.566   0.921
 7862TIP3    H223551   5.537   1.466   1.018
 7863TIP3   OH223552   3.117   3.604   2.788
 7863TIP3    H123553   3.090   3.689   2.824
 7863TIP3    H223554   3.208   3.593   2.816
 7864TIP3   OH223555   5.755   1.614   0.466
 7864TIP3    H123556   5.662   1.633   0.454
 7864TIP3    H223557   5.779   1.664   0.544
 7865TIP3   OH223558   1.377   3.642   0.194
 7865TIP3    H123559   1.334   3.677   0.116
 7865TIP3    H223560   1.470   3.664   0.182
 7866TIP3   OH223561   6.764   4.053   0.853
 7866TIP3    H123562   6.803   4.056   0.940
 7866TIP3    H223563   6.768   4.144   0.822
 7867TIP3   OH223564   1.531   6.572   2.088
 7867TIP3    H123565   1.467   6.625   2.041
 7867TIP3    H223566   1.612   6.622   2.081
 7868TIP3   OH223567   4.437   5.168   4.730
 7868TIP3    H123568   4.451   5.100   4.797
 7868TIP3    H223569   4.523   5.177   4.688
 7869TIP3   OH223570   2.587   4.748   3.547
 7869TIP3    H123571   2.596   4.746   3.642
 7869TIP3    H223572   2.577   4.657   3.522
 7870TIP3   OH223573   0.247   4.633   1.213
 7870TIP3    H123574   0.178   4.696   1.230
 7870TIP3    H223575   0.228   4.559   1.271
 7871TIP3   OH223576   2.263   6.460   2.829
 7871TIP3    H123577   2.203   6.534   2.820
 7871TIP3    H223578   2.351   6.500   2.825
 7872TIP3   OH223579   2.771   4.988   2.879
 7872TIP3    H123580   2.768   4.998   2.974
 7872TIP3    H223581   2.717   5.059   2.845
 7873TIP3   OH223582   1.785   2.090   3.081
 7873TIP3    H123583   1.694   2.064   3.062
 7873TIP3    H223584   1.835   2.052   3.008
 7874TIP3   OH223585   5.362   5.203   5.591
 7874TIP3    H123586   5.449   5.166   5.576
 7874TIP3    H223587   5.331   5.161   5.671
 7875TIP3   OH223588   7.206   4.171   2.706
 7875TIP3    H123589   7.216   4.193   2.798
 7875TIP3    H223590   7.122   4.125   2.702
 7876TIP3   OH223591   0.421   2.587   5.281
 7876TIP3    H123592   0.506   2.628   5.298
 7876TIP3    H223593   0.411   2.592   5.186
 7877TIP3   OH223594   5.127   0.369   0.273
 7877TIP3    H123595   5.099   0.450   0.229
 7877TIP3    H223596   5.084   0.299   0.224
 7878TIP3   OH223597   4.225   0.210   2.175
 7878TIP3    H123598   4.263   0.147   2.236
 7878TIP3    H223599   4.290   0.217   2.105
 7879TIP3   OH223600   3.025   2.729   2.348
 7879TIP3    H123601   3.099   2.784   2.320
 7879TIP3    H223602   3.047   2.702   2.437
 7880TIP3   OH223603   6.629   5.175   3.664
 7880TIP3    H123604   6.536   5.156   3.654
 7880TIP3    H223605   6.654   5.132   3.746
 7881TIP3   OH223606   3.010   2.454   1.328
 7881TIP3    H123607   2.963   2.537   1.329
 7881TIP3    H223608   3.055   2.450   1.412
 7882TIP3   OH223609   6.203   3.964   3.054
 7882TIP3    H123610   6.237   3.937   3.139
 7882TIP3    H223611   6.179   4.056   3.066
 7883TIP3   OH223612   0.831   2.763   5.618
 7883TIP3    H123613   0.751   2.712   5.620
 7883TIP3    H223614   0.841   2.790   5.527
 7884TIP3   OH223615   5.749   0.956   2.019
 7884TIP3    H123616   5.719   1.014   2.088
 7884TIP3    H223617   5.703   0.985   1.940
 7885TIP3   OH223618   1.929   2.400   3.308
 7885TIP3    H123619   1.894   2.489   3.302
 7885TIP3    H223620   1.948   2.389   3.402
 7886TIP3   OH223621   7.176   4.984   2.837
 7886TIP3    H123622   7.148   5.023   2.919
 7886TIP3    H223623   7.146   5.045   2.770
 7887TIP3   OH223624   4.073   2.461   0.091
 7887TIP3    H123625   4.093   2.465   0.185
 7887TIP3    H223626   4.065   2.367   0.073
 7888TIP3   OH223627   0.192   6.723   1.241
 7888TIP3    H123628   0.103   6.721   1.277
 7888TIP3    H223629   0.186   6.780   1.164
 7889TIP3   OH223630   3.130   5.168   1.673
 7889TIP3    H123631   3.061   5.153   1.738
 7889TIP3    H223632   3.209   5.184   1.725
 7890TIP3   OH223633   6.877   0.003   5.717
 7890TIP3    H123634   6.841   0.051   5.792
 7890TIP3    H223635   6.825   0.031   5.643
 7891TIP3   OH223636   0.702   2.384   1.751
 7891TIP3    H123637   0.700   2.389   1.847
 7891TIP3    H223638   0.703   2.475   1.722
 7892TIP3   OH223639   6.259   2.557   2.932
 7892TIP3    H123640   6.175   2.598   2.909
 7892TIP3    H223641   6.319   2.587   2.864
 7893TIP3   OH223642   0.254   2.571   2.610
 7893TIP3    H123643   0.209   2.650   2.639
 7893TIP3    H223644   0.185   2.518   2.569
 7894TIP3   OH223645   6.967   1.602   0.506
 7894TIP3    H123646   6.915   1.675   0.540
 7894TIP3    H223647   7.056   1.637   0.501
 7895TIP3   OH223648   4.298   3.669   1.810
 7895TIP3    H123649   4.341   3.754   1.821
 7895TIP3    H223650   4.357   3.619   1.754
 7896TIP3   OH223651   6.306   5.716   5.102
 7896TIP3    H123652   6.311   5.746   5.193
 7896TIP3    H223653   6.213   5.698   5.087
 7897TIP3   OH223654   1.699   5.189   4.803
 7897TIP3    H123655   1.699   5.285   4.796
 7897TIP3    H223656   1.609   5.167   4.826
 7898TIP3   OH223657   2.135   5.491   5.404
 7898TIP3    H123658   2.142   5.564   5.466
 7898TIP3    H223659   2.068   5.434   5.442
 7899TIP3   OH223660   6.557   1.951   5.438
 7899TIP3    H123661   6.626   1.936   5.373
 7899TIP3    H223662   6.478   1.919   5.397
 7900TIP3   OH223663   6.901   3.279   0.164
 7900TIP3    H123664   6.947   3.233   0.234
 7900TIP3    H223665   6.916   3.226   0.085
 7901TIP3   OH223666   1.401   2.109   3.684
 7901TIP3    H123667   1.379   2.078   3.596
 7901TIP3    H223668   1.495   2.098   3.690
 7902TIP3   OH223669   6.086   3.629   2.687
 7902TIP3    H123670   6.052   3.687   2.619
 7902TIP3    H223671   6.084   3.542   2.648
 7903TIP3   OH223672   3.422   2.152   0.654
 7903TIP3    H123673   3.401   2.116   0.740
 7903TIP3    H223674   3.517   2.141   0.646
 7904TIP3   OH223675   2.734   0.881   4.827
 7904TIP3    H123676   2.796   0.942   4.788
 7904TIP3    H223677   2.706   0.825   4.755
 7905TIP3   OH223678   5.355   2.775   5.745
 7905TIP3    H123679   5.345   2.867   5.720
 7905TIP3    H223680   5.267   2.738   5.734
 7906TIP3   OH223681   4.265   2.691   5.192
 7906TIP3    H123682   4.296   2.614   5.145
 7906TIP3    H223683   4.344   2.740   5.213
 7907TIP3   OH223684   4.695   2.063   3.547
 7907TIP3    H123685   4.737   2.010   3.615
 7907TIP3    H223686   4.753   2.137   3.534
 7908TIP3   OH223687   6.521   2.359   1.589
 7908TIP3    H123688   6.545   2.271   1.620
 7908TIP3    H223689   6.576   2.418   1.641
 7909TIP3   OH223690   2.869   1.584   1.070
 7909TIP3    H123691   2.825   1.499   1.071
 7909TIP3    H223692   2.871   1.609   0.977
 7910TIP3   OH223693   5.284   2.002   2.923
 7910TIP3    H123694   5.229   1.995   2.845
 7910TIP3    H223695   5.340   2.079   2.906
 7911TIP3   OH223696   1.041   6.423   5.462
 7911TIP3    H123697   1.017   6.330   5.456
 7911TIP3    H223698   0.961   6.466   5.493
 7912TIP3   OH223699   2.607   2.179   2.664
 7912TIP3    H123700   2.642   2.185   2.575
 7912TIP3    H223701   2.640   2.258   2.708
 7913TIP3   OH223702   6.455   2.363   0.983
 7913TIP3    H123703   6.500   2.346   0.900
 7913TIP3    H223704   6.413   2.448   0.970
 7914TIP3   OH223705   0.502   3.907   3.090
 7914TIP3    H123706   0.447   3.834   3.119
 7914TIP3    H223707   0.514   3.960   3.169
 7915TIP3   OH223708   0.881   2.036   4.640
 7915TIP3    H123709   0.925   2.071   4.718
 7915TIP3    H223710   0.796   2.006   4.672
 7916TIP3   OH223711   2.485   2.950   4.755
 7916TIP3    H123712   2.466   2.888   4.826
 7916TIP3    H223713   2.488   3.035   4.798
 7917TIP3   OH223714   4.564   5.232   5.254
 7917TIP3    H123715   4.503   5.294   5.214
 7917TIP3    H223716   4.511   5.184   5.317
 7918TIP3   OH223717   5.387   6.632   1.397
 7918TIP3    H123718   5.342   6.713   1.371
 7918TIP3    H223719   5.394   6.581   1.317
 7919TIP3   OH223720   1.409   0.792   3.482
 7919TIP3    H123721   1.431   0.879   3.448
 7919TIP3    H223722   1.339   0.761   3.425
 7920TIP3   OH223723   1.132   3.744   3.942
 7920TIP3    H123724   1.120   3.838   3.948
 7920TIP3    H223725   1.177   3.730   3.859
 7921TIP3   OH223726   2.859   3.090   5.435
 7921TIP3    H123727   2.771   3.089   5.398
 7921TIP3    H223728   2.895   3.004   5.412
 7922TIP3   OH223729   7.147   6.603   2.769
 7922TIP3    H123730   7.081   6.672   2.759
 7922TIP3    H223731   7.228   6.643   2.737
 7923TIP3   OH223732   2.566   3.093   1.078
 7923TIP3    H123733   2.520   3.110   0.996
 7923TIP3    H223734   2.506   3.126   1.146
 7924TIP3   OH223735   5.366   0.797   1.814
 7924TIP3    H123736   5.405   0.794   1.901
 7924TIP3    H223737   5.415   0.733   1.763
 7925TIP3   OH223738   6.072   6.411   4.021
 7925TIP3    H123739   6.137   6.385   3.956
 7925TIP3    H223740   6.114   6.480   4.071
 7926TIP3   OH223741   6.666   0.172   5.219
 7926TIP3    H123742   6.575   0.159   5.193
 7926TIP3    H223743   6.700   0.083   5.229
 7927TIP3   OH223744   6.658   5.798   3.335
 7927TIP3    H123745   6.608   5.863   3.285
 7927TIP3    H223746   6.738   5.785   3.285
 7928TIP3   OH223747   4.565   0.666   1.412
 7928TIP3    H123748   4.588   0.733   1.348
 7928TIP3    H223749   4.641   0.658   1.469
 7929TIP3   OH223750   0.875   1.675   5.547
 7929TIP3    H123751   0.860   1.606   5.612
 7929TIP3    H223752   0.935   1.735   5.589
 7930TIP3   OH223753   2.696   3.683   2.401
 7930TIP3    H123754   2.746   3.657   2.479
 7930TIP3    H223755   2.704   3.778   2.397
 7931TIP3   OH223756   2.124   5.535   3.915
 7931TIP3    H123757   2.151   5.446   3.938
 7931TIP3    H223758   2.131   5.538   3.819
 7932TIP3   OH223759   5.463   5.532   3.739
 7932TIP3    H123760   5.531   5.563   3.799
 7932TIP3    H223761   5.458   5.600   3.672
 7933TIP3   OH223762   1.449   0.150   3.684
 7933TIP3    H123763   1.536   0.179   3.712
 7933TIP3    H223764   1.463   0.064   3.646
 7934TIP3   OH223765   4.189   4.327   4.449
 7934TIP3    H123766   4.259   4.296   4.391
 7934TIP3    H223767   4.230   4.395   4.503
 7935TIP3   OH223768   4.271   6.219   5.280
 7935TIP3    H123769   4.201   6.162   5.312
 7935TIP3    H223770   4.256   6.302   5.324
 7936TIP3   OH223771   5.294   6.394   5.683
 7936TIP3    H123772   5.273   6.340   5.608
 7936TIP3    H223773   5.384   6.371   5.706
 7937TIP3   OH223774   6.682   4.937   5.413
 7937TIP3    H123775   6.599   4.890   5.420
 7937TIP3    H223776   6.733   4.886   5.350
 7938TIP3   OH223777   5.373   3.973   4.473
 7938TIP3    H123778   5.383   4.020   4.556
 7938TIP3    H223779   5.432   3.898   4.481
 7939TIP3   OH223780   4.227   4.311   3.050
 7939TIP3    H123781   4.255   4.311   2.958
 7939TIP3    H223782   4.186   4.397   3.062
 7940TIP3   OH223783   6.885   2.582   4.503
 7940TIP3    H123784   6.824   2.524   4.548
 7940TIP3    H223785   6.854   2.670   4.525
 7941TIP3   OH223786   0.729   2.611   3.826
 7941TIP3    H123787   0.789   2.636   3.896
 7941TIP3    H223788   0.666   2.553   3.868
 7942TIP3   OH223789   1.157   0.737   4.336
 7942TIP3    H123790   1.241   0.780   4.321
 7942TIP3    H223791   1.163   0.702   4.425
 7943TIP3   OH223792   3.885   5.388   4.134
 7943TIP3    H123793   3.914   5.344   4.054
 7943TIP3    H223794   3.824   5.327   4.174
 7944TIP3   OH223795   0.218   4.223   4.217
 7944TIP3    H123796   0.227   4.315   4.243
 7944TIP3    H223797   0.304   4.197   4.186
 7945TIP3   OH223798   3.721   1.690   0.163
 7945TIP3    H123799   3.630   1.674   0.138
 7945TIP3    H223800   3.716   1.714   0.256
 7946TIP3   OH223801   0.471   6.762   4.572
 7946TIP3    H123802   0.529   6.811   4.514
 7946TIP3    H223803   0.385   6.803   4.562
 7947TIP3   OH223804   2.174   4.855   4.469
 7947TIP3    H123805   2.154   4.901   4.551
 7947TIP3    H223806   2.193   4.924   4.406
 7948TIP3   OH223807   0.450   4.050   3.316
 7948TIP3    H123808   0.410   4.137   3.319
 7948TIP3    H223809   0.506   4.046   3.394
 7949TIP3   OH223810   3.449   0.451   1.311
 7949TIP3    H123811   3.447   0.370   1.261
 7949TIP3    H223812   3.381   0.506   1.271
 7950TIP3   OH223813   6.069   2.562   0.313
 7950TIP3    H123814   6.093   2.637   0.258
 7950TIP3    H223815   6.100   2.586   0.400
 7951TIP3   OH223816   3.420   0.874   2.747
 7951TIP3    H123817   3.368   0.821   2.687
 7951TIP3    H223818   3.466   0.936   2.690
 7952TIP3   OH223819   0.346   3.654   0.130
 7952TIP3    H123820   0.268   3.708   0.148
 7952TIP3    H223821   0.339   3.632   0.037
 7953TIP3   OH223822   3.583   0.692   1.158
 7953TIP3    H123823   3.592   0.618   1.097
 7953TIP3    H223824   3.511   0.666   1.216
 7954TIP3   OH223825   7.030   6.548   4.955
 7954TIP3    H123826   7.080   6.614   5.003
 7954TIP3    H223827   7.054   6.560   4.863
 7955TIP3   OH223828   6.014   2.437   0.985
 7955TIP3    H123829   6.075   2.407   1.053
 7955TIP3    H223830   5.941   2.375   0.989
 7956TIP3   OH223831   5.824   6.508   2.367
 7956TIP3    H123832   5.899   6.478   2.418
 7956TIP3    H223833   5.849   6.595   2.337
 7957TIP3   OH223834   6.283   5.485   4.639
 7957TIP3    H123835   6.189   5.491   4.621
 7957TIP3    H223836   6.313   5.576   4.637
 7958TIP3   OH223837   2.130   0.463   3.535
 7958TIP3    H123838   2.119   0.554   3.560
 7958TIP3    H223839   2.041   0.427   3.535
 7959TIP3   OH223840   5.557   6.563   5.149
 7959TIP3    H123841   5.592   6.650   5.133
 7959TIP3    H223842   5.500   6.574   5.225
 7960TIP3   OH223843   1.901   3.864   5.049
 7960TIP3    H123844   1.899   3.937   4.988
 7960TIP3    H223845   1.832   3.804   5.019
 7961TIP3   OH223846   4.973   2.712   5.755
 7961TIP3    H123847   4.925   2.648   5.701
 7961TIP3    H223848   4.998   2.663   5.833
 7962TIP3   OH223849   2.366   1.417   4.907
 7962TIP3    H123850   2.320   1.500   4.893
 7962TIP3    H223851   2.427   1.411   4.834
 7963TIP3   OH223852   5.990   4.646   3.378
 7963TIP3    H123853   5.948   4.581   3.321
 7963TIP3    H223854   5.955   4.627   3.465
 7964TIP3   OH223855   5.280   2.394   4.502
 7964TIP3    H123856   5.240   2.466   4.453
 7964TIP3    H223857   5.346   2.359   4.442
 7965TIP3   OH223858   4.697   6.181   0.387
 7965TIP3    H123859   4.695   6.176   0.291
 7965TIP3    H223860   4.729   6.270   0.405
 7966TIP3   OH223861   3.589   5.673   3.085
 7966TIP3    H123862   3.635   5.729   3.023
 7966TIP3    H223863   3.538   5.733   3.139
 7967TIP3   OH223864   1.775   1.650   5.046
 7967TIP3    H123865   1.723   1.649   5.126
 7967TIP3    H223866   1.861   1.618   5.072
 7968TIP3   OH223867   5.365   4.110   5.497
 7968TIP3    H123868   5.340   4.061   5.419
 7968TIP3    H223869   5.295   4.174   5.509
 7969TIP3   OH223870   2.992   5.468   0.491
 7969TIP3    H123871   3.069   5.425   0.530
 7969TIP3    H223872   3.015   5.479   0.398
 7970TIP3   OH223873   5.791   4.700   1.889
 7970TIP3    H123874   5.839   4.780   1.866
 7970TIP3    H223875   5.703   4.715   1.854
 7971TIP3   OH223876   0.649   4.582   3.238
 7971TIP3    H123877   0.622   4.500   3.196
 7971TIP3    H223878   0.612   4.651   3.183
 7972TIP3   OH223879   1.055   2.731   3.815
 7972TIP3    H123880   1.046   2.670   3.742
 7972TIP3    H223881   0.990   2.700   3.879
 7973TIP3   OH223882   5.504   2.302   4.367
 7973TIP3    H123883   5.453   2.299   4.286
 7973TIP3    H223884   5.583   2.251   4.348
 7974TIP3   OH223885   5.540   0.598   1.006
 7974TIP3    H123886   5.553   0.678   0.956
 7974TIP3    H223887   5.581   0.615   1.091
 7975TIP3   OH223888   0.532   4.374   4.249
 7975TIP3    H123889   0.501   4.341   4.165
 7975TIP3    H223890   0.593   4.444   4.227
 7976TIP3   OH223891   3.191   6.640   5.795
 7976TIP3    H123892   3.187   6.639   5.699
 7976TIP3    H223893   3.104   6.667   5.823
 7977TIP3   OH223894   2.973   0.820   3.418
 7977TIP3    H123895   3.025   0.740   3.408
 7977TIP3    H223896   2.882   0.790   3.409
 7978TIP3   OH223897   5.470   0.907   3.311
 7978TIP3    H123898   5.445   0.885   3.400
 7978TIP3    H223899   5.397   0.958   3.277
 7979TIP3   OH223900   1.371   0.091   3.003
 7979TIP3    H123901   1.391   0.003   3.035
 7979TIP3    H223902   1.404   0.150   3.071
 7980TIP3   OH223903   2.633   4.354   3.152
 7980TIP3    H123904   2.580   4.377   3.076
 7980TIP3    H223905   2.571   4.317   3.215
 7981TIP3   OH223906   5.024   5.793   4.328
 7981TIP3    H123907   5.023   5.804   4.233
 7981TIP3    H223908   4.937   5.823   4.356
 7982TIP3   OH223909   0.627   0.384   3.817
 7982TIP3    H123910   0.674   0.340   3.888
 7982TIP3    H223911   0.603   0.313   3.757
 7983TIP3   OH223912   5.153   2.557   3.631
 7983TIP3    H123913   5.189   2.584   3.716
 7983TIP3    H223914   5.176   2.629   3.572
 7984TIP3   OH223915   3.450   0.628   5.564
 7984TIP3    H123916   3.441   0.622   5.469
 7984TIP3    H223917   3.543   0.646   5.578
 7985TIP3   OH223918   4.411   2.154   3.635
 7985TIP3    H123919   4.435   2.122   3.548
 7985TIP3    H223920   4.484   2.209   3.661
 7986TIP3   OH223921   1.510   1.805   2.796
 7986TIP3    H123922   1.452   1.834   2.867
 7986TIP3    H223923   1.468   1.837   2.716
 7987TIP3   OH223924   3.100   5.500   1.600
 7987TIP3    H123925   3.178   5.481   1.653
 7987TIP3    H223926   3.059   5.414   1.587
 7988TIP3   OH223927   0.317   2.589   0.131
 7988TIP3    H123928   0.289   2.661   0.075
 7988TIP3    H223929   0.411   2.604   0.144
 7989TIP3   OH223930   6.766   0.356   2.164
 7989TIP3    H123931   6.687   0.324   2.122
 7989TIP3    H223932   6.837   0.304   2.126
 7990TIP3   OH223933   2.314   2.046   1.911
 7990TIP3    H123934   2.371   2.022   1.984
 7990TIP3    H223935   2.232   2.073   1.952
 7991TIP3   OH223936   1.473   1.506   3.081
 7991TIP3    H123937   1.520   1.445   3.024
 7991TIP3    H223938   1.496   1.593   3.047
 7992TIP3   OH223939   5.161   3.070   1.578
 7992TIP3    H123940   5.204   3.151   1.606
 7992TIP3    H223941   5.072   3.097   1.553
 7993TIP3   OH223942   4.440   6.487   3.982
 7993TIP3    H123943   4.498   6.413   3.968
 7993TIP3    H223944   4.438   6.532   3.898
 7994TIP3   OH223945   7.168   2.016   1.459
 7994TIP3    H123946   7.248   2.001   1.509
 7994TIP3    H223947   7.119   1.934   1.465
 7995TIP3   OH223948   2.047   3.129   3.537
 7995TIP3    H123949   1.962   3.087   3.519
 7995TIP3    H223950   2.053   3.198   3.472
 7996TIP3   OH223951   6.783   2.813   3.385
 7996TIP3    H123952   6.849   2.776   3.326
 7996TIP3    H223953   6.824   2.890   3.423
 7997TIP3   OH223954   0.699   4.284   2.150
 7997TIP3    H123955   0.791   4.296   2.175
 7997TIP3    H223956   0.701   4.272   2.055
 7998TIP3   OH223957   3.942   0.170   3.866
 7998TIP3    H123958   3.863   0.117   3.876
 7998TIP3    H223959   3.915   0.243   3.810
 7999TIP3   OH223960   0.702   5.989   4.354
 7999TIP3    H123961   0.706   6.009   4.260
 7999TIP3    H223962   0.636   5.920   4.361
 8000TIP3   OH223963   2.558   1.784   0.306
 8000TIP3    H123964   2.484   1.728   0.285
 8000TIP3    H223965   2.536   1.822   0.392
 8001TIP3   OH223966   5.518   1.900   1.633
 8001TIP3    H123967   5.447   1.903   1.698
 8001TIP3    H223968   5.598   1.913   1.685
 8002TIP3   OH223969   0.901   1.237   3.930
 8002TIP3    H123970   0.908   1.314   3.987
 8002TIP3    H223971   0.846   1.266   3.857
 8003TIP3   OH223972   5.362   4.484   3.053
 8003TIP3    H123973   5.366   4.541   3.129
 8003TIP3    H223974   5.353   4.544   2.978
 8004TIP3   OH223975   4.456   4.485   4.186
 8004TIP3    H123976   4.362   4.472   4.174
 8004TIP3    H223977   4.468   4.580   4.181
 8005TIP3   OH223978   0.947   1.166   4.365
 8005TIP3    H123979   0.859   1.151   4.329
 8005TIP3    H223980   0.948   1.114   4.446
 8006TIP3   OH223981   1.358   5.077   4.279
 8006TIP3    H123982   1.380   5.110   4.191
 8006TIP3    H223983   1.350   4.983   4.268
 8007TIP3   OH223984   3.458   0.221   0.659
 8007TIP3    H123985   3.427   0.299   0.706
 8007TIP3    H223986   3.417   0.148   0.705
 8008TIP3   OH223987   2.745   2.272   2.459
 8008TIP3    H123988   2.676   2.338   2.470
 8008TIP3    H223989   2.778   2.287   2.370
 8009TIP3   OH223990   4.154   1.062   2.256
 8009TIP3    H123991   4.184   1.003   2.325
 8009TIP3    H223992   4.234   1.102   2.222
 8010TIP3   OH223993   5.270   5.900   4.433
 8010TIP3    H123994   5.284   5.991   4.409
 8010TIP3    H223995   5.175   5.889   4.430
 8011TIP3   OH223996   0.760   1.976   2.249
 8011TIP3    H123997   0.847   1.937   2.262
 8011TIP3    H223998   0.776   2.050   2.190
 8012TIP3   OH223999   3.365   4.779   1.383
 8012TIP3    H124000   3.386   4.702   1.436
 8012TIP3    H224001   3.358   4.745   1.294
 8013TIP3   OH224002   3.102   2.271   1.141
 8013TIP3    H124003   3.085   2.311   1.226
 8013TIP3    H224004   3.111   2.345   1.081
 8014TIP3   OH224005   0.653   5.383   4.816
 8014TIP3    H124006   0.740   5.384   4.855
 8014TIP3    H224007   0.670   5.380   4.721
 8015TIP3   OH224008   0.085   2.734   2.755
 8015TIP3    H124009   0.114   2.823   2.733
 8015TIP3    H224010  -0.003   2.746   2.793
 8016TIP3   OH224011   6.620   5.095   3.955
 8016TIP3    H124012   6.631   5.187   3.980
 8016TIP3    H224013   6.614   5.048   4.039
 8017TIP3   OH224014   2.665   2.390   2.832
 8017TIP3    H124015   2.639   2.366   2.921
 8017TIP3    H224016   2.612   2.468   2.813
 8018TIP3   OH224017   4.317   5.492   3.162
 8018TIP3    H124018   4.402   5.470   3.124
 8018TIP3    H224019   4.332   5.492   3.256
 8019TIP3   OH224020   3.644   3.805   5.252
 8019TIP3    H124021   3.705   3.878   5.260
 8019TIP3    H224022   3.557   3.845   5.256
 8020TIP3   OH224023   7.165   1.011   3.522
 8020TIP3    H124024   7.095   1.046   3.467
 8020TIP3    H224025   7.244   1.017   3.467
 8021TIP3   OH224026   5.763   4.412   2.452
 8021TIP3    H124027   5.721   4.492   2.421
 8021TIP3    H224028   5.852   4.416   2.415
 8022TIP3   OH224029   0.853   2.451   4.892
 8022TIP3    H124030   0.848   2.479   4.801
 8022TIP3    H224031   0.941   2.474   4.920
 8023TIP3   OH224032   2.820   5.077   1.315
 8023TIP3    H124033   2.814   5.110   1.225
 8023TIP3    H224034   2.838   5.155   1.367
 8024TIP3   OH224035   4.833   4.734   5.785
 8024TIP3    H124036   4.761   4.759   5.727
 8024TIP3    H224037   4.827   4.638   5.790
 8025TIP3   OH224038   1.976   2.234   5.260
 8025TIP3    H124039   1.897   2.260   5.214
 8025TIP3    H224040   2.021   2.176   5.198
 8026TIP3   OH224041   3.955   1.907   3.455
 8026TIP3    H124042   3.928   1.815   3.457
 8026TIP3    H224043   3.879   1.954   3.491
 8027TIP3   OH224044   2.712   3.612   0.166
 8027TIP3    H124045   2.738   3.704   0.161
 8027TIP3    H224046   2.667   3.595   0.083
 8028TIP3   OH224047   6.094   4.959   2.467
 8028TIP3    H124048   6.166   4.918   2.514
 8028TIP3    H224049   6.133   5.037   2.428
 8029TIP3   OH224050   0.639   2.320   1.370
 8029TIP3    H124051   0.688   2.348   1.292
 8029TIP3    H224052   0.706   2.285   1.429
 8030TIP3   OH224053   2.780   3.870   0.154
 8030TIP3    H124054   2.829   3.891   0.074
 8030TIP3    H224055   2.730   3.949   0.173
 8031TIP3   OH224056   0.086   1.985   4.822
 8031TIP3    H124057   0.163   1.997   4.767
 8031TIP3    H224058   0.108   1.911   4.878
 8032TIP3   OH224059   0.424   5.502   1.415
 8032TIP3    H124060   0.471   5.531   1.337
 8032TIP3    H224061   0.489   5.506   1.485
 8033TIP3   OH224062   0.447   3.915   0.601
 8033TIP3    H124063   0.540   3.932   0.587
 8033TIP3    H224064   0.442   3.883   0.691
 8034TIP3   OH224065   3.801   0.364   3.171
 8034TIP3    H124066   3.772   0.454   3.159
 8034TIP3    H224067   3.776   0.320   3.090
 8035TIP3   OH224068   4.824   0.400   5.817
 8035TIP3    H124069   4.911   0.361   5.821
 8035TIP3    H224070   4.790   0.391   5.906
 8036TIP3   OH224071   6.497   4.522   0.757
 8036TIP3    H124072   6.581   4.477   0.765
 8036TIP3    H224073   6.481   4.526   0.663
 8037TIP3   OH224074   0.181   5.571   4.466
 8037TIP3    H124075   0.237   5.518   4.522
 8037TIP3    H224076   0.236   5.591   4.389
 8038TIP3   OH224077   0.534   4.954   0.493
 8038TIP3    H124078   0.549   5.032   0.440
 8038TIP3    H224079   0.612   4.900   0.480
 8039TIP3   OH224080   4.237   3.627   4.259
 8039TIP3    H124081   4.262   3.536   4.276
 8039TIP3    H224082   4.279   3.677   4.329
 8040TIP3   OH224083   5.082   0.627   0.177
 8040TIP3    H124084   5.060   0.690   0.246
 8040TIP3    H224085   5.069   0.676   0.095
 8041TIP3   OH224086   3.043   0.923   1.403
 8041TIP3    H124087   2.987   1.000   1.391
 8041TIP3    H224088   3.130   0.959   1.416
 8042TIP3   OH224089   6.587   4.326   1.763
 8042TIP3    H124090   6.579   4.242   1.807
 8042TIP3    H224091   6.659   4.370   1.808
 8043TIP3   OH224092   3.034   2.026   0.749
 8043TIP3    H124093   3.005   1.996   0.662
 8043TIP3    H224094   3.090   2.101   0.731
 8044TIP3   OH224095   3.742   0.963   2.014
 8044TIP3    H124096   3.800   0.999   2.082
 8044TIP3    H224097   3.799   0.905   1.963
 8045TIP3   OH224098   0.712   3.514   1.827
 8045TIP3    H124099   0.632   3.483   1.869
 8045TIP3    H224100   0.701   3.492   1.735
 8046TIP3   OH224101   0.787   6.420   1.977
 8046TIP3    H124102   0.741   6.486   2.029
 8046TIP3    H224103   0.773   6.338   2.025
 8047TIP3   OH224104   3.217   1.713   4.817
 8047TIP3    H124105   3.288   1.667   4.774
 8047TIP3    H224106   3.261   1.775   4.875
 8048TIP3   OH224107   0.316   4.827   5.779
 8048TIP3    H124108   0.348   4.916   5.795
 8048TIP3    H224109   0.294   4.794   5.866
 8049TIP3   OH224110   4.098   4.299   5.345
 8049TIP3    H124111   4.029   4.234   5.329
 8049TIP3    H224112   4.141   4.310   5.260
 8050TIP3   OH224113   5.154   1.437   5.419
 8050TIP3    H124114   5.109   1.503   5.472
 8050TIP3    H224115   5.085   1.379   5.389
 8051TIP3   OH224116   0.876   1.324   1.768
 8051TIP3    H124117   0.946   1.367   1.817
 8051TIP3    H224118   0.878   1.365   1.682
 8052TIP3   OH224119   6.981   6.480   0.314
 8052TIP3    H124120   6.896   6.520   0.294
 8052TIP3    H224121   7.032   6.491   0.234
 8053TIP3   OH224122   7.078   3.885   5.551
 8053TIP3    H124123   7.117   3.888   5.464
 8053TIP3    H224124   6.996   3.934   5.542
 8054TIP3   OH224125   0.578   6.495   4.558
 8054TIP3    H124126   0.510   6.557   4.530
 8054TIP3    H224127   0.643   6.549   4.604
 8055TIP3   OH224128   6.848   5.932   4.821
 8055TIP3    H124129   6.897   5.875   4.880
 8055TIP3    H224130   6.760   5.936   4.860
 8056TIP3   OH224131   0.397   0.279   5.727
 8056TIP3    H124132   0.331   0.210   5.727
 8056TIP3    H224133   0.366   0.341   5.661
 8057TIP3   OH224134   1.628   4.433   4.757
 8057TIP3    H124135   1.661   4.361   4.702
 8057TIP3    H224136   1.685   4.507   4.735
 8058TIP3   OH224137   7.283   0.303   3.341
 8058TIP3    H124138   7.293   0.217   3.301
 8058TIP3    H224139   7.197   0.301   3.382
 8059TIP3   OH224140   4.341   0.520   5.335
 8059TIP3    H124141   4.306   0.562   5.413
 8059TIP3    H224142   4.319   0.580   5.263
 8060TIP3   OH224143   3.535   5.546   0.363
 8060TIP3    H124144   3.628   5.564   0.350
 8060TIP3    H224145   3.531   5.501   0.448
 8061TIP3   OH224146   4.941   4.103   3.542
 8061TIP3    H124147   4.885   4.030   3.516
 8061TIP3    H224148   4.889   4.152   3.606
 8062TIP3   OH224149   1.159   5.784   2.714
 8062TIP3    H124150   1.182   5.743   2.798
 8062TIP3    H224151   1.131   5.872   2.738
 8063TIP3   OH224152   1.926   3.833   0.465
 8063TIP3    H124153   1.985   3.779   0.517
 8063TIP3    H224154   1.861   3.772   0.431
 8064TIP3   OH224155   1.057   4.641   5.143
 8064TIP3    H124156   1.099   4.592   5.213
 8064TIP3    H224157   1.119   4.637   5.070
 8065TIP3   OH224158   0.817   5.571   2.405
 8065TIP3    H124159   0.884   5.630   2.440
 8065TIP3    H224160   0.827   5.490   2.455
 8066TIP3   OH224161   3.225   1.087   5.724
 8066TIP3    H124162   3.212   1.174   5.763
 8066TIP3    H224163   3.156   1.033   5.762
 8067TIP3   OH224164   1.372   0.722   4.859
 8067TIP3    H124165   1.390   0.691   4.948
 8067TIP3    H224166   1.320   0.801   4.871
 8068TIP3   OH224167   3.467   6.676   3.635
 8068TIP3    H124168   3.544   6.733   3.643
 8068TIP3    H224169   3.393   6.737   3.629
 8069TIP3   OH224170   2.826   4.717   0.500
 8069TIP3    H124171   2.852   4.625   0.508
 8069TIP3    H224172   2.749   4.715   0.442
 8070TIP3   OH224173   5.704   2.565   1.561
 8070TIP3    H124174   5.783   2.513   1.579
 8070TIP3    H224175   5.737   2.652   1.540
 8071TIP3   OH224176   6.562   1.166   2.547
 8071TIP3    H124177   6.600   1.203   2.627
 8071TIP3    H224178   6.569   1.237   2.482
 8072TIP3   OH224179   3.436   3.138   3.679
 8072TIP3    H124180   3.367   3.182   3.629
 8072TIP3    H224181   3.405   3.048   3.689
 8073TIP3   OH224182   1.986   2.549   4.908
 8073TIP3    H124183   1.931   2.551   4.829
 8073TIP3    H224184   1.985   2.457   4.936
 8074TIP3   OH224185   3.150   5.769   1.782
 8074TIP3    H124186   3.162   5.806   1.695
 8074TIP3    H224187   3.069   5.718   1.776
 8075TIP3   OH224188   4.680   2.708   4.153
 8075TIP3    H124189   4.745   2.644   4.125
 8075TIP3    H224190   4.599   2.680   4.110
 8076TIP3   OH224191   5.114   1.507   2.712
 8076TIP3    H124192   5.182   1.458   2.665
 8076TIP3    H224193   5.078   1.567   2.646
 8077TIP3   OH224194   5.445   4.694   3.224
 8077TIP3    H124195   5.488   4.722   3.144
 8077TIP3    H224196   5.513   4.701   3.292
 8078TIP3   OH224197   4.940   6.458   4.260
 8078TIP3    H124198   4.912   6.475   4.169
 8078TIP3    H224199   4.967   6.543   4.293
 8079TIP3   OH224200   2.643   5.772   3.883
 8079TIP3    H124201   2.553   5.755   3.853
 8079TIP3    H224202   2.633   5.837   3.952
 8080TIP3   OH224203   5.310   6.598   3.774
 8080TIP3    H124204   5.268   6.558   3.850
 8080TIP3    H224205   5.399   6.562   3.774
 8081TIP3   OH224206   2.811   2.451   1.096
 8081TIP3    H124207   2.881   2.420   1.153
 8081TIP3    H224208   2.848   2.527   1.051
 8082TIP3   OH224209   1.162   4.306   1.894
 8082TIP3    H124210   1.241   4.292   1.946
 8082TIP3    H224211   1.108   4.365   1.947
 8083TIP3   OH224212   1.671   5.330   4.120
 8083TIP3    H124213   1.679   5.300   4.210
 8083TIP3    H224214   1.761   5.342   4.090
 8084TIP3   OH224215   4.611   3.740   1.071
 8084TIP3    H124216   4.700   3.739   1.104
 8084TIP3    H224217   4.563   3.798   1.130
 8085TIP3   OH224218   3.764   4.066   4.581
 8085TIP3    H124219   3.723   3.996   4.630
 8085TIP3    H224220   3.840   4.025   4.539
 8086TIP3   OH224221   4.731   5.759   2.486
 8086TIP3    H124222   4.753   5.816   2.560
 8086TIP3    H224223   4.745   5.813   2.409
 8087TIP3   OH224224   1.638   4.574   5.147
 8087TIP3    H124225   1.642   4.606   5.237
 8087TIP3    H224226   1.552   4.601   5.116
 8088TIP3   OH224227   3.986   4.473   5.045
 8088TIP3    H124228   3.923   4.503   4.979
 8088TIP3    H224229   3.954   4.386   5.071
 8089TIP3   OH224230   5.888   3.704   4.534
 8089TIP3    H124231   5.792   3.714   4.533
 8089TIP3    H224232   5.905   3.655   4.614
 8090TIP3   OH224233   1.846   1.558   4.246
 8090TIP3    H124234   1.886   1.515   4.321
 8090TIP3    H224235   1.823   1.487   4.186
 8091TIP3   OH224236   0.417   2.772   2.267
 8091TIP3    H124237   0.434   2.680   2.286
 8091TIP3    H224238   0.321   2.778   2.260
 8092TIP3   OH224239   3.795   2.666   4.750
 8092TIP3    H124240   3.810   2.576   4.776
 8092TIP3    H224241   3.724   2.661   4.686
 8093TIP3   OH224242   4.437   6.676   2.526
 8093TIP3    H124243   4.404   6.587   2.514
 8093TIP3    H224244   4.359   6.729   2.539
 8094TIP3   OH224245   3.233   5.787   2.070
 8094TIP3    H124246   3.152   5.797   2.119
 8094TIP3    H224247   3.206   5.755   1.984
 8095TIP3   OH224248   0.604   6.706   3.327
 8095TIP3    H124249   0.692   6.742   3.337
 8095TIP3    H224250   0.546   6.771   3.366
 8096TIP3   OH224251   6.523   5.560   4.981
 8096TIP3    H124252   6.458   5.620   5.018
 8096TIP3    H224253   6.604   5.611   4.982
 8097TIP3   OH224254   2.940   5.454   1.213
 8097TIP3    H124255   2.965   5.477   1.123
 8097TIP3    H224256   2.961   5.532   1.264
 8098TIP3   OH224257   1.289   0.132   0.550
 8098TIP3    H124258   1.205   0.178   0.550
 8098TIP3    H224259   1.352   0.198   0.581
 8099TIP3   OH224260   4.646   2.876   5.581
 8099TIP3    H124261   4.647   2.862   5.676
 8099TIP3    H224262   4.691   2.800   5.545
 8100TIP3   OH224263   5.487   5.175   4.863
 8100TIP3    H124264   5.513   5.083   4.858
 8100TIP3    H224265   5.416   5.177   4.927
 8101TIP3   OH224266   4.847   4.583   4.194
 8101TIP3    H124267   4.925   4.596   4.140
 8101TIP3    H224268   4.777   4.627   4.145
 8102TIP3   OH224269   0.488   0.766   2.984
 8102TIP3    H124270   0.423   0.828   2.951
 8102TIP3    H224271   0.437   0.699   3.029
 8103TIP3   OH224272   4.809   1.483   3.917
 8103TIP3    H124273   4.722   1.463   3.951
 8103TIP3    H224274   4.814   1.579   3.920
 8104TIP3   OH224275   5.201   3.016   0.559
 8104TIP3    H124276   5.188   3.105   0.528
 8104TIP3    H224277   5.258   2.976   0.493
 8105TIP3   OH224278   2.162   1.869   4.346
 8105TIP3    H124279   2.160   1.951   4.295
 8105TIP3    H224280   2.248   1.832   4.327
 8106TIP3   OH224281   5.662   5.430   0.004
 8106TIP3    H124282   5.675   5.511   0.052
 8106TIP3    H224283   5.646   5.364   0.072
 8107TIP3   OH224284   4.067   6.694   1.543
 8107TIP3    H124285   4.100   6.723   1.458
 8107TIP3    H224286   4.145   6.683   1.597
 8108TIP3   OH224287   7.190   1.440   1.711
 8108TIP3    H124288   7.247   1.445   1.634
 8108TIP3    H224289   7.222   1.508   1.770
 8109TIP3   OH224290   5.601   2.675   2.085
 8109TIP3    H124291   5.610   2.770   2.076
 8109TIP3    H224292   5.533   2.664   2.152
 8110TIP3   OH224293   3.294   3.863   5.450
 8110TIP3    H124294   3.327   3.901   5.368
 8110TIP3    H224295   3.341   3.780   5.458
 8111TIP3   OH224296   3.213   0.952   1.161
 8111TIP3    H124297   3.268   0.878   1.189
 8111TIP3    H224298   3.208   0.942   1.066
 8112TIP3   OH224299   3.088   2.826   4.185
 8112TIP3    H124300   3.079   2.752   4.245
 8112TIP3    H224301   3.081   2.787   4.098
 8113TIP3   OH224302   0.300   3.359   2.806
 8113TIP3    H124303   0.336   3.440   2.843
 8113TIP3    H224304   0.257   3.316   2.880
 8114TIP3   OH224305   2.194   5.969   5.460
 8114TIP3    H124306   2.180   5.894   5.518
 8114TIP3    H224307   2.215   6.042   5.519
 8115TIP3   OH224308   3.542   4.025   0.609
 8115TIP3    H124309   3.603   4.091   0.574
 8115TIP3    H224310   3.473   4.020   0.543
 8116TIP3   OH224311   2.898   1.998   0.475
 8116TIP3    H124312   2.895   1.903   0.487
 8116TIP3    H224313   2.863   2.012   0.387
 8117TIP3   OH224314   2.356   2.323   5.387
 8117TIP3    H124315   2.407   2.386   5.438
 8117TIP3    H224316   2.281   2.302   5.443
 8118TIP3   OH224317   0.828   4.870   0.083
 8118TIP3    H124318   0.861   4.906   0.000
 8118TIP3    H224319   0.891   4.899   0.148
 8119TIP3   OH224320   1.250   1.580   4.022
 8119TIP3    H124321   1.247   1.504   3.964
 8119TIP3    H224322   1.322   1.633   3.988
 8120TIP3   OH224323   1.733   5.050   4.046
 8120TIP3    H124324   1.676   4.974   4.046
 8120TIP3    H224325   1.673   5.125   4.043
 8121TIP3   OH224326   0.373   2.109   5.725
 8121TIP3    H124327   0.465   2.126   5.746
 8121TIP3    H224328   0.376   2.071   5.637
 8122TIP3   OH224329   5.831   1.078   0.393
 8122TIP3    H124330   5.736   1.073   0.397
 8122TIP3    H224331   5.849   1.160   0.347
 8123TIP3   OH224332   7.100   5.784   3.179
 8123TIP3    H124333   7.159   5.838   3.232
 8123TIP3    H224334   7.013   5.801   3.217
 8124TIP3   OH224335   5.786   4.380   0.927
 8124TIP3    H124336   5.816   4.423   0.847
 8124TIP3    H224337   5.691   4.392   0.927
 8125TIP3   OH224338   7.015   1.014   2.217
 8125TIP3    H124339   6.961   1.086   2.252
 8125TIP3    H224340   7.039   1.043   2.129
 8126TIP3   OH224341   1.406   3.398   4.153
 8126TIP3    H124342   1.433   3.396   4.245
 8126TIP3    H224343   1.352   3.320   4.142
 8127TIP3   OH224344   4.889   5.090   1.601
 8127TIP3    H124345   4.942   5.058   1.528
 8127TIP3    H224346   4.927   5.175   1.624
 8128TIP3   OH224347   3.516   1.423   1.850
 8128TIP3    H124348   3.442   1.481   1.866
 8128TIP3    H224349   3.591   1.468   1.889
 8129TIP3   OH224350   5.255   2.613   5.445
 8129TIP3    H124351   5.202   2.543   5.408
 8129TIP3    H224352   5.304   2.571   5.516
 8130TIP3   OH224353   1.352   1.321   2.774
 8130TIP3    H124354   1.340   1.268   2.852
 8130TIP3    H224355   1.417   1.274   2.722
 8131TIP3   OH224356   6.103   3.315   3.673
 8131TIP3    H124357   6.030   3.324   3.734
 8131TIP3    H224358   6.127   3.405   3.651
 8132TIP3   OH224359   0.568   5.184   2.095
 8132TIP3    H124360   0.530   5.266   2.129
 8132TIP3    H224361   0.626   5.213   2.024
 8133TIP3   OH224362   7.009   3.906   4.507
 8133TIP3    H124363   6.959   3.980   4.542
 8133TIP3    H224364   6.997   3.836   4.571
 8134TIP3   OH224365   3.867   6.150   4.323
 8134TIP3    H124366   3.837   6.061   4.308
 8134TIP3    H224367   3.850   6.166   4.416
 8135TIP3   OH224368   0.407   3.954   4.763
 8135TIP3    H124369   0.497   3.957   4.796
 8135TIP3    H224370   0.388   4.044   4.735
 8136TIP3   OH224371   2.668   0.978   3.177
 8136TIP3    H124372   2.750   0.956   3.222
 8136TIP3    H224373   2.676   0.938   3.091
 8137TIP3   OH224374   2.207   3.463   5.690
 8137TIP3    H124375   2.215   3.425   5.602
 8137TIP3    H224376   2.260   3.543   5.686
 8138TIP3   OH224377   5.962   3.592   2.392
 8138TIP3    H124378   5.976   3.509   2.438
 8138TIP3    H224379   5.896   3.571   2.325
 8139TIP3   OH224380   4.988   0.435   2.426
 8139TIP3    H124381   4.927   0.501   2.460
 8139TIP3    H224382   5.042   0.413   2.502
 8140TIP3   OH224383   1.788   4.758   3.794
 8140TIP3    H124384   1.858   4.765   3.728
 8140TIP3    H224385   1.833   4.772   3.877
 8141TIP3   OH224386   3.627   3.097   3.876
 8141TIP3    H124387   3.654   3.008   3.854
 8141TIP3    H224388   3.552   3.115   3.819
 8142TIP3   OH224389   2.538   1.952   5.363
 8142TIP3    H124390   2.564   2.045   5.365
 8142TIP3    H224391   2.541   1.925   5.455
 8143TIP3   OH224392   0.085   4.899   3.173
 8143TIP3    H124393   0.086   4.905   3.268
 8143TIP3    H224394   0.017   4.961   3.146
 8144TIP3   OH224395   2.211   2.528   1.416
 8144TIP3    H124396   2.195   2.490   1.330
 8144TIP3    H224397   2.199   2.456   1.478
 8145TIP3   OH224398   5.400   6.783   4.510
 8145TIP3    H124399   5.315   6.740   4.499
 8145TIP3    H224400   5.379   6.868   4.548
 8146TIP3   OH224401   2.282   0.883   2.123
 8146TIP3    H124402   2.207   0.848   2.075
 8146TIP3    H224403   2.358   0.836   2.089
 8147TIP3   OH224404   5.183   6.685   1.008
 8147TIP3    H124405   5.264   6.642   1.037
 8147TIP3    H224406   5.211   6.772   0.979
 8148TIP3   OH224407   1.907   0.617   4.413
 8148TIP3    H124408   1.892   0.607   4.319
 8148TIP3    H224409   1.869   0.703   4.434
 8149TIP3   OH224410   2.283   2.419   0.577
 8149TIP3    H124411   2.256   2.328   0.565
 8149TIP3    H224412   2.205   2.470   0.558
 8150TIP3   OH224413   3.172   3.399   3.318
 8150TIP3    H124414   3.237   3.453   3.272
 8150TIP3    H224415   3.154   3.327   3.258
 8151TIP3   OH224416   3.511   6.521   3.869
 8151TIP3    H124417   3.471   6.585   3.811
 8151TIP3    H224418   3.579   6.568   3.915
 8152TIP3   OH224419   4.860   1.398   0.143
 8152TIP3    H124420   4.895   1.310   0.131
 8152TIP3    H224421   4.781   1.400   0.090
 8153TIP3   OH224422   4.537   4.682   5.153
 8153TIP3    H124423   4.509   4.628   5.079
 8153TIP3    H224424   4.460   4.733   5.176
 8154TIP3   OH224425   2.836   1.854   5.251
 8154TIP3    H124426   2.805   1.853   5.160
 8154TIP3    H224427   2.757   1.868   5.303
 8155TIP3   OH224428   4.288   3.889   3.276
 8155TIP3    H124429   4.277   3.970   3.226
 8155TIP3    H224430   4.324   3.827   3.213
 8156TIP3   OH224431   3.555   4.184   5.075
 8156TIP3    H124432   3.641   4.208   5.109
 8156TIP3    H224433   3.503   4.264   5.081
 8157TIP3   OH224434   3.554   2.565   0.546
 8157TIP3    H124435   3.576   2.657   0.529
 8157TIP3    H224436   3.601   2.544   0.627
 8158TIP3   OH224437   3.378   0.093   2.973
 8158TIP3    H124438   3.303   0.120   3.025
 8158TIP3    H224439   3.343   0.083   2.884
 8159TIP3   OH224440   0.388   0.201   5.334
 8159TIP3    H124441   0.385   0.233   5.244
 8159TIP3    H224442   0.306   0.153   5.346
 8160TIP3   OH224443   4.015   4.976   3.770
 8160TIP3    H124444   4.064   4.910   3.818
 8160TIP3    H224445   4.018   4.948   3.679
 8161TIP3   OH224446   7.084   4.628   3.429
 8161TIP3    H124447   7.101   4.710   3.475
 8161TIP3    H224448   7.134   4.562   3.477
 8162TIP3   OH224449   6.932   5.349   3.025
 8162TIP3    H124450   6.968   5.265   3.054
 8162TIP3    H224451   6.846   5.326   2.990
 8163TIP3   OH224452   1.507   5.281   1.889
 8163TIP3    H124453   1.431   5.334   1.866
 8163TIP3    H224454   1.478   5.228   1.963
 8164TIP3   OH224455   4.299   3.032   1.149
 8164TIP3    H124456   4.251   3.090   1.207
 8164TIP3    H224457   4.280   3.065   1.061
 8165TIP3   OH224458   1.330   5.261   0.759
 8165TIP3    H124459   1.253   5.261   0.701
 8165TIP3    H224460   1.331   5.349   0.797
 8166TIP3   OH224461   6.065   2.180   3.671
 8166TIP3    H124462   6.131   2.116   3.643
 8166TIP3    H224463   6.047   2.231   3.592
 8167TIP3   OH224464   2.583   6.396   1.401
 8167TIP3    H124465   2.538   6.312   1.391
 8167TIP3    H224466   2.591   6.429   1.312
 8168TIP3   OH224467   2.631   5.381   1.638
 8168TIP3    H124468   2.698   5.373   1.705
 8168TIP3    H224469   2.550   5.401   1.686
 8169TIP3   OH224470   3.317   0.971   0.467
 8169TIP3    H124471   3.408   0.946   0.482
 8169TIP3    H224472   3.267   0.915   0.527
 8170TIP3   OH224473   0.418   4.599   5.447
 8170TIP3    H124474   0.467   4.518   5.441
 8170TIP3    H224475   0.348   4.590   5.382
 8171TIP3   OH224476   0.898   4.170   3.731
 8171TIP3    H124477   0.921   4.232   3.662
 8171TIP3    H224478   0.957   4.095   3.717
 8172TIP3   OH224479   0.010   6.218   4.312
 8172TIP3    H124480  -0.009   6.188   4.401
 8172TIP3    H224481  -0.036   6.155   4.255
 8173TIP3   OH224482   3.111   2.834   2.868
 8173TIP3    H124483   3.162   2.864   2.943
 8173TIP3    H224484   3.044   2.901   2.855
 8174TIP3   OH224485   3.222   2.424   0.271
 8174TIP3    H124486   3.261   2.413   0.358
 8174TIP3    H224487   3.135   2.459   0.288
 8175TIP3   OH224488   5.536   1.391   1.617
 8175TIP3    H124489   5.453   1.404   1.663
 8175TIP3    H224490   5.513   1.333   1.544
 8176TIP3   OH224491   4.492   4.250   2.180
 8176TIP3    H124492   4.524   4.177   2.128
 8176TIP3    H224493   4.554   4.257   2.253
 8177TIP3   OH224494   1.412   2.580   3.803
 8177TIP3    H124495   1.342   2.519   3.828
 8177TIP3    H224496   1.489   2.550   3.852
 8178TIP3   OH224497   2.325   5.105   4.594
 8178TIP3    H124498   2.384   5.176   4.618
 8178TIP3    H224499   2.329   5.101   4.499
 8179TIP3   OH224500   4.799   1.563   5.303
 8179TIP3    H124501   4.817   1.589   5.212
 8179TIP3    H224502   4.755   1.479   5.295
 8180TIP3   OH224503   0.662   1.024   1.871
 8180TIP3    H124504   0.644   1.103   1.819
 8180TIP3    H224505   0.623   0.953   1.821
 8181TIP3   OH224506   6.228   5.765   3.990
 8181TIP3    H124507   6.321   5.749   3.979
 8181TIP3    H224508   6.215   5.764   4.085
 8182TIP3   OH224509   6.885   2.623   2.990
 8182TIP3    H124510   6.810   2.681   2.977
 8182TIP3    H224511   6.909   2.635   3.082
 8183TIP3   OH224512   3.983   3.642   5.636
 8183TIP3    H124513   3.974   3.566   5.578
 8183TIP3    H224514   3.893   3.673   5.648
 8184TIP3   OH224515   6.230   1.778   2.446
 8184TIP3    H124516   6.260   1.715   2.380
 8184TIP3    H224517   6.146   1.742   2.477
 8185TIP3   OH224518   5.727   5.785   1.981
 8185TIP3    H124519   5.709   5.876   2.007
 8185TIP3    H224520   5.648   5.758   1.934
 8186TIP3   OH224521   4.632   1.703   5.509
 8186TIP3    H124522   4.645   1.688   5.415
 8186TIP3    H224523   4.707   1.756   5.535
 8187TIP3   OH224524   2.740   5.810   3.500
 8187TIP3    H124525   2.811   5.747   3.518
 8187TIP3    H224526   2.681   5.801   3.575
 8188TIP3   OH224527   0.710   3.719   1.114
 8188TIP3    H124528   0.764   3.733   1.192
 8188TIP3    H224529   0.694   3.625   1.112
 8189TIP3   OH224530   0.985   2.534   1.177
 8189TIP3    H124531   1.022   2.455   1.139
 8189TIP3    H224532   0.891   2.526   1.162
 8190TIP3   OH224533   4.610  -0.008   2.167
 8190TIP3    H124534   4.593   0.080   2.133
 8190TIP3    H224535   4.526  -0.038   2.200
 8191TIP3   OH224536   0.859   4.945   4.337
 8191TIP3    H124537   0.892   5.026   4.374
 8191TIP3    H224538   0.873   4.953   4.243
 8192TIP3   OH224539   7.043   4.149   5.008
 8192TIP3    H124540   7.078   4.235   4.987
 8192TIP3    H224541   7.043   4.146   5.104
 8193TIP3   OH224542   1.485   0.395   0.385
 8193TIP3    H124543   1.551   0.339   0.425
 8193TIP3    H224544   1.508   0.484   0.412
 8194TIP3   OH224545   5.584   3.489   5.584
 8194TIP3    H124546   5.656   3.530   5.633
 8194TIP3    H224547   5.591   3.526   5.496
 8195TIP3   OH224548   4.763   0.064   5.650
 8195TIP3    H124549   4.734   0.100   5.734
 8195TIP3    H224550   4.775  -0.029   5.667
 8196TIP3   OH224551   1.749   6.290   0.512
 8196TIP3    H124552   1.713   6.376   0.534
 8196TIP3    H224553   1.843   6.300   0.523
 8197TIP3   OH224554   3.077   3.275   4.685
 8197TIP3    H124555   3.035   3.305   4.604
 8197TIP3    H224556   3.170   3.265   4.661
 8198TIP3   OH224557   6.553   2.952   5.335
 8198TIP3    H124558   6.623   2.967   5.271
 8198TIP3    H224559   6.514   2.868   5.308
 8199TIP3   OH224560   6.005   2.096   3.930
 8199TIP3    H124561   6.005   2.130   3.841
 8199TIP3    H224562   5.963   2.010   3.922
 8200TIP3   OH224563   4.282   1.180   0.424
 8200TIP3    H124564   4.278   1.116   0.353
 8200TIP3    H224565   4.255   1.263   0.382
 8201TIP3   OH224566   6.489   6.818   2.063
 8201TIP3    H124567   6.483   6.735   2.016
 8201TIP3    H224568   6.582   6.827   2.082
 8202TIP3   OH224569   6.689   6.158   2.511
 8202TIP3    H124570   6.607   6.191   2.548
 8202TIP3    H224571   6.691   6.066   2.537
 8203TIP3   OH224572   6.530   2.410   0.716
 8203TIP3    H124573   6.597   2.390   0.651
 8203TIP3    H224574   6.456   2.442   0.665
 8204TIP3   OH224575   0.990   5.093   2.432
 8204TIP3    H124576   1.037   5.114   2.513
 8204TIP3    H224577   0.943   5.012   2.453
 8205TIP3   OH224578   4.721   3.021   4.637
 8205TIP3    H124579   4.790   3.023   4.570
 8205TIP3    H224580   4.749   2.953   4.698
 8206TIP3   OH224581   6.033   0.654   1.437
 8206TIP3    H124582   6.061   0.615   1.354
 8206TIP3    H224583   6.015   0.579   1.493
 8207TIP3   OH224584   4.161   5.624   5.484
 8207TIP3    H124585   4.218   5.579   5.546
 8207TIP3    H224586   4.199   5.712   5.476
 8208TIP3   OH224587   2.687   4.475   4.465
 8208TIP3    H124588   2.632   4.437   4.397
 8208TIP3    H224589   2.748   4.406   4.488
 8209TIP3   OH224590   1.259   0.276   5.591
 8209TIP3    H124591   1.237   0.204   5.649
 8209TIP3    H224592   1.225   0.354   5.634
 8210TIP3   OH224593   1.186   5.674   0.568
 8210TIP3    H124594   1.194   5.591   0.616
 8210TIP3    H224595   1.133   5.653   0.492
 8211TIP3   OH224596   4.435   6.022   5.643
 8211TIP3    H124597   4.348   6.062   5.639
 8211TIP3    H224598   4.463   6.034   5.734
 8212TIP3   OH224599  -0.015   1.346   2.893
 8212TIP3    H124600   0.040   1.322   2.968
 8212TIP3    H224601  -0.086   1.282   2.893
 8213TIP3   OH224602   0.783   6.556   4.966
 8213TIP3    H124603   0.757   6.589   4.880
 8213TIP3    H224604   0.816   6.467   4.949
 8214TIP3   OH224605   2.234   2.658   3.984
 8214TIP3    H124606   2.298   2.588   3.970
 8214TIP3    H224607   2.287   2.733   4.013
 8215TIP3   OH224608   4.654   2.904   4.335
 8215TIP3    H124609   4.673   2.836   4.270
 8215TIP3    H224610   4.737   2.918   4.381
 8216TIP3   OH224611   0.361   0.607   0.684
 8216TIP3    H124612   0.433   0.591   0.745
 8216TIP3    H224613   0.302   0.665   0.732
 8217TIP3   OH224614   0.345   1.487   1.700
 8217TIP3    H124615   0.362   1.452   1.613
 8217TIP3    H224616   0.432   1.510   1.734
 8218TIP3   OH224617   1.566   4.709   4.634
 8218TIP3    H124618   1.548   4.643   4.566
 8218TIP3    H224619   1.661   4.714   4.637
 8219TIP3   OH224620  -0.013   6.488   3.020
 8219TIP3    H124621   0.080   6.495   3.039
 8219TIP3    H224622  -0.023   6.530   2.934
 8220TIP3   OH224623   6.803   3.715   0.731
 8220TIP3    H124624   6.721   3.760   0.752
 8220TIP3    H224625   6.831   3.677   0.814
 8221TIP3   OH224626   1.070   3.258   5.379
 8221TIP3    H124627   1.158   3.235   5.407
 8221TIP3    H224628   1.022   3.175   5.379
 8222TIP3   OH224629   0.894   4.131   0.576
 8222TIP3    H124630   0.826   4.198   0.573
 8222TIP3    H224631   0.937   4.137   0.491
 8223TIP3   OH224632   1.095   6.697   4.016
 8223TIP3    H124633   1.187   6.672   4.007
 8223TIP3    H224634   1.064   6.708   3.926
 8224TIP3   OH224635   0.500   1.731   1.189
 8224TIP3    H124636   0.559   1.747   1.116
 8224TIP3    H224637   0.557   1.721   1.265
 8225TIP3   OH224638   2.478   0.730   4.734
 8225TIP3    H124639   2.447   0.732   4.643
 8225TIP3    H224640   2.500   0.638   4.750
 8226TIP3   OH224641   1.965   5.348   5.090
 8226TIP3    H124642   2.057   5.372   5.082
 8226TIP3    H224643   1.956   5.270   5.035
 8227TIP3   OH224644   3.399   1.895   1.457
 8227TIP3    H124645   3.473   1.886   1.397
 8227TIP3    H224646   3.347   1.966   1.420
 8228TIP3   OH224647   2.655   4.515   2.469
 8228TIP3    H124648   2.683   4.446   2.408
 8228TIP3    H224649   2.729   4.575   2.474
 8229TIP3   OH224650   3.521   0.040   2.594
 8229TIP3    H124651   3.520  -0.053   2.572
 8229TIP3    H224652   3.447   0.051   2.654
 8230TIP3   OH224653   1.023   5.977   1.837
 8230TIP3    H124654   0.940   5.986   1.789
 8230TIP3    H224655   1.035   6.062   1.880
 8231TIP3   OH224656   1.520   1.148   1.944
 8231TIP3    H124657   1.552   1.065   1.980
 8231TIP3    H224658   1.455   1.123   1.879
 8232TIP3   OH224659   7.169   1.030   1.331
 8232TIP3    H124660   7.179   1.123   1.310
 8232TIP3    H224661   7.136   1.030   1.421
 8233TIP3   OH224662   4.805   5.370   5.188
 8233TIP3    H124663   4.873   5.303   5.202
 8233TIP3    H224664   4.725   5.330   5.222
 8234TIP3   OH224665   6.545   2.836   3.769
 8234TIP3    H124666   6.476   2.872   3.825
 8234TIP3    H224667   6.613   2.904   3.768
 8235TIP3   OH224668   6.903   3.813   0.047
 8235TIP3    H124669   6.923   3.795  -0.045
 8235TIP3    H224670   6.889   3.726   0.086
 8236TIP3   OH224671   1.390   2.187   4.483
 8236TIP3    H124672   1.384   2.205   4.390
 8236TIP3    H224673   1.332   2.251   4.524
 8237TIP3   OH224674   6.954   1.901   1.132
 8237TIP3    H124675   6.923   1.949   1.055
 8237TIP3    H224676   6.910   1.817   1.127
 8238TIP3   OH224677   3.233   0.631   5.766
 8238TIP3    H124678   3.243   0.544   5.807
 8238TIP3    H224679   3.300   0.632   5.697
 8239TIP3   OH224680   0.692   0.977   4.728
 8239TIP3    H124681   0.783   0.948   4.724
 8239TIP3    H224682   0.692   1.063   4.685
 8240TIP3   OH224683   5.474   3.401   4.982
 8240TIP3    H124684   5.542   3.365   5.039
 8240TIP3    H224685   5.421   3.325   4.957
 8241TIP3   OH224686   4.766   4.517   5.112
 8241TIP3    H124687   4.707   4.588   5.136
 8241TIP3    H224688   4.710   4.441   5.102
 8242TIP3   OH224689   4.125   5.736   1.792
 8242TIP3    H124690   4.032   5.742   1.811
 8242TIP3    H224691   4.129   5.692   1.707
 8243TIP3   OH224692   2.184   6.073   2.774
 8243TIP3    H124693   2.162   5.980   2.767
 8243TIP3    H224694   2.100   6.118   2.778
 8244TIP3   OH224695   0.505   3.842   0.877
 8244TIP3    H124696   0.424   3.880   0.910
 8244TIP3    H224697   0.546   3.802   0.954
 8245TIP3   OH224698   7.059   3.865   3.747
 8245TIP3    H124699   7.059   3.886   3.840
 8245TIP3    H224700   7.110   3.784   3.741
 8246TIP3   OH224701   0.548   5.789   0.582
 8246TIP3    H124702   0.527   5.808   0.491
 8246TIP3    H224703   0.531   5.695   0.591
 8247TIP3   OH224704   7.070   2.344   2.641
 8247TIP3    H124705   7.064   2.248   2.644
 8247TIP3    H224706   7.127   2.366   2.714
 8248TIP3   OH224707   3.674   3.392   0.701
 8248TIP3    H124708   3.674   3.302   0.732
 8248TIP3    H224709   3.639   3.387   0.612
 8249TIP3   OH224710   5.530   6.471   3.514
 8249TIP3    H124711   5.530   6.379   3.541
 8249TIP3    H224712   5.533   6.468   3.419
 8250TIP3   OH224713   3.834   2.477   4.092
 8250TIP3    H124714   3.849   2.421   4.168
 8250TIP3    H224715   3.741   2.500   4.098
 8251TIP3   OH224716   5.528   0.427   2.409
 8251TIP3    H124717   5.607   0.449   2.359
 8251TIP3    H224718   5.480   0.368   2.352
 8252TIP3   OH224719   0.755   3.830   0.353
 8252TIP3    H124720   0.755   3.828   0.257
 8252TIP3    H224721   0.680   3.777   0.378
 8253TIP3   OH224722   6.377   4.146   1.636
 8253TIP3    H124723   6.459   4.157   1.684
 8253TIP3    H224724   6.371   4.226   1.582
 8254TIP3   OH224725   0.795   3.590   3.418
 8254TIP3    H124726   0.848   3.662   3.451
 8254TIP3    H224727   0.813   3.589   3.324
 8255TIP3   OH224728   2.437   2.151   0.078
 8255TIP3    H124729   2.505   2.160   0.011
 8255TIP3    H224730   2.365   2.105   0.033
 8256TIP3   OH224731   1.310   0.995   1.009
 8256TIP3    H124732   1.386   0.962   1.056
 8256TIP3    H224733   1.345   1.025   0.925
 8257TIP3   OH224734   0.667   2.762   4.802
 8257TIP3    H124735   0.621   2.684   4.771
 8257TIP3    H224736   0.760   2.740   4.794
 8258TIP3   OH224737   4.320   0.913   2.412
 8258TIP3    H124738   4.266   0.941   2.487
 8258TIP3    H224739   4.405   0.893   2.451
 8259TIP3   OH224740   4.645   3.723   3.440
 8259TIP3    H124741   4.669   3.632   3.420
 8259TIP3    H224742   4.715   3.775   3.401
 8260TIP3   OH224743   3.567   5.135   5.738
 8260TIP3    H124744   3.583   5.135   5.833
 8260TIP3    H224745   3.530   5.221   5.720
 8261TIP3   OH224746   5.557   4.495   2.236
 8261TIP3    H124747   5.640   4.542   2.235
 8261TIP3    H224748   5.509   4.529   2.161
 8262TIP3   OH224749   0.890   6.184   5.440
 8262TIP3    H124750   0.798   6.155   5.440
 8262TIP3    H224751   0.939   6.107   5.412
 8263TIP3   OH224752   1.293   6.124   4.567
 8263TIP3    H124753   1.299   6.045   4.621
 8263TIP3    H224754   1.247   6.188   4.621
 8264TIP3   OH224755   2.411   2.612   2.698
 8264TIP3    H124756   2.341   2.571   2.747
 8264TIP3    H224757   2.478   2.632   2.764
 8265TIP3   OH224758   1.825   5.256   0.046
 8265TIP3    H124759   1.825   5.337   0.095
 8265TIP3    H224760   1.882   5.273  -0.030
 8266TIP3   OH224761   3.273   0.764   1.643
 8266TIP3    H124762   3.244   0.676   1.619
 8266TIP3    H224763   3.353   0.777   1.592
 8267TIP3   OH224764   1.535   5.268   2.700
 8267TIP3    H124765   1.487   5.263   2.617
 8267TIP3    H224766   1.583   5.185   2.704
 8268TIP3   OH224767   2.755   2.146   1.587
 8268TIP3    H124768   2.660   2.145   1.577
 8268TIP3    H224769   2.788   2.166   1.499
 8269TIP3   OH224770   1.760   6.466   3.132
 8269TIP3    H124771   1.693   6.402   3.107
 8269TIP3    H224772   1.841   6.415   3.135
 8270TIP3   OH224773   5.635   1.163   3.256
 8270TIP3    H124774   5.654   1.070   3.264
 8270TIP3    H224775   5.678   1.202   3.332
 8271TIP3   OH224776   2.567   2.466   2.507
 8271TIP3    H124777   2.613   2.530   2.452
 8271TIP3    H224778   2.522   2.519   2.573
 8272TIP3   OH224779   2.581   2.239   4.947
 8272TIP3    H124780   2.657   2.215   5.000
 8272TIP3    H224781   2.527   2.293   5.005
 8273TIP3   OH224782   5.812   4.726   0.954
 8273TIP3    H124783   5.893   4.774   0.974
 8273TIP3    H224784   5.804   4.662   1.025
 8274TIP3   OH224785   0.304   2.641   5.764
 8274TIP3    H124786   0.314   2.613   5.673
 8274TIP3    H224787   0.269   2.565   5.810
 8275TIP3   OH224788   4.694   4.568   1.408
 8275TIP3    H124789   4.634   4.493   1.411
 8275TIP3    H224790   4.749   4.551   1.332
 8276TIP3   OH224791   3.929   2.430   1.422
 8276TIP3    H124792   3.935   2.523   1.399
 8276TIP3    H224793   4.011   2.392   1.390
 8277TIP3   OH224794   4.164   4.817   4.551
 8277TIP3    H124795   4.113   4.875   4.494
 8277TIP3    H224796   4.201   4.752   4.491
 8278TIP3   OH224797  -0.030   4.242   2.425
 8278TIP3    H124798  -0.035   4.210   2.515
 8278TIP3    H224799   0.047   4.199   2.389
 8279TIP3   OH224800   1.734   2.144   2.449
 8279TIP3    H124801   1.770   2.199   2.379
 8279TIP3    H224802   1.808   2.132   2.509
 8280TIP3   OH224803   1.526   3.811   4.668
 8280TIP3    H124804   1.506   3.845   4.581
 8280TIP3    H224805   1.604   3.757   4.656
 8281TIP3   OH224806   0.375   0.292   5.068
 8281TIP3    H124807   0.412   0.275   4.981
 8281TIP3    H224808   0.422   0.369   5.100
 8282TIP3   OH224809   2.312   5.849   0.248
 8282TIP3    H124810   2.307   5.791   0.324
 8282TIP3    H224811   2.371   5.804   0.188
 8283TIP3   OH224812   5.190   1.942   3.324
 8283TIP3    H124813   5.115   1.882   3.321
 8283TIP3    H224814   5.156   2.025   3.289
 8284TIP3   OH224815   0.328   2.388   0.953
 8284TIP3    H124816   0.406   2.341   0.924
 8284TIP3    H224817   0.332   2.386   1.048
 8285TIP3   OH224818   2.127   0.422   1.515
 8285TIP3    H124819   2.122   0.497   1.457
 8285TIP3    H224820   2.038   0.385   1.515
 8286TIP3   OH224821   2.696   0.433   3.635
 8286TIP3    H124822   2.601   0.430   3.623
 8286TIP3    H224823   2.710   0.507   3.695
 8287TIP3   OH224824   4.678   4.709   3.140
 8287TIP3    H124825   4.624   4.637   3.174
 8287TIP3    H224826   4.748   4.720   3.204
 8288TIP3   OH224827   4.707   1.397   2.658
 8288TIP3    H124828   4.768   1.382   2.730
 8288TIP3    H224829   4.675   1.486   2.672
 8289TIP3   OH224830   3.076   6.544   2.757
 8289TIP3    H124831   3.044   6.457   2.778
 8289TIP3    H224832   3.055   6.557   2.665
 8290TIP3   OH224833   2.955   5.834   0.580
 8290TIP3    H124834   3.035   5.841   0.528
 8290TIP3    H224835   2.936   5.924   0.606
 8291TIP3   OH224836   1.159   3.628   1.269
 8291TIP3    H124837   1.186   3.595   1.183
 8291TIP3    H224838   1.195   3.716   1.273
 8292TIP3   OH224839   1.509   0.336   5.153
 8292TIP3    H124840   1.414   0.331   5.158
 8292TIP3    H224841   1.538   0.246   5.168
 8293TIP3   OH224842   3.028   3.366   2.889
 8293TIP3    H124843   3.050   3.456   2.864
 8293TIP3    H224844   2.933   3.362   2.884
 8294TIP3   OH224845   1.489   0.226   4.595
 8294TIP3    H124846   1.570   0.199   4.638
 8294TIP3    H224847   1.490   0.180   4.511
 8295TIP3   OH224848   3.920   5.906   4.760
 8295TIP3    H124849   3.839   5.887   4.806
 8295TIP3    H224850   3.949   5.821   4.726
 8296TIP3   OH224851   3.796   0.346   1.047
 8296TIP3    H124852   3.782   0.355   1.141
 8296TIP3    H224853   3.713   0.375   1.008
 8297TIP3   OH224854   4.837   5.751   5.036
 8297TIP3    H124855   4.869   5.672   5.080
 8297TIP3    H224856   4.782   5.719   4.964
 8298TIP3   OH224857   6.079   5.641   3.806
 8298TIP3    H124858   6.144   5.683   3.862
 8298TIP3    H224859   5.998   5.688   3.824
 8299TIP3   OH224860   6.712   5.723   4.526
 8299TIP3    H124861   6.619   5.718   4.546
 8299TIP3    H224862   6.735   5.815   4.540
 8300TIP3   OH224863   2.576   3.834   5.117
 8300TIP3    H124864   2.638   3.887   5.168
 8300TIP3    H224865   2.516   3.898   5.079
 8301TIP3   OH224866   7.031   6.240   4.859
 8301TIP3    H124867   7.071   6.167   4.906
 8301TIP3    H224868   7.063   6.318   4.906
 8302TIP3   OH224869   4.493   6.632   1.924
 8302TIP3    H124870   4.452   6.573   1.987
 8302TIP3    H224871   4.565   6.581   1.887
 8303TIP3   OH224872   6.417   4.580   4.250
 8303TIP3    H124873   6.412   4.664   4.204
 8303TIP3    H224874   6.406   4.514   4.182
 8304TIP3   OH224875   4.972   6.527   1.731
 8304TIP3    H124876   5.037   6.487   1.788
 8304TIP3    H224877   4.984   6.484   1.647
 8305TIP3   OH224878   1.028   2.453   0.596
 8305TIP3    H124879   0.959   2.510   0.631
 8305TIP3    H224880   1.104   2.471   0.651
 8306TIP3   OH224881   6.584   4.385   5.851
 8306TIP3    H124882   6.637   4.312   5.818
 8306TIP3    H224883   6.607   4.459   5.794
 8307TIP3   OH224884   4.574   5.389   3.083
 8307TIP3    H124885   4.647   5.414   3.140
 8307TIP3    H224886   4.616   5.373   2.998
 8308TIP3   OH224887   3.504   3.802   4.916
 8308TIP3    H124888   3.409   3.790   4.925
 8308TIP3    H224889   3.540   3.714   4.919
 8309TIP3   OH224890   5.052   6.437   1.486
 8309TIP3    H124891   5.012   6.353   1.461
 8309TIP3    H224892   5.098   6.465   1.407
 8310TIP3   OH224893   1.097   1.504   4.237
 8310TIP3    H124894   1.162   1.538   4.175
 8310TIP3    H224895   1.142   1.504   4.321
 8311TIP3   OH224896   3.738   3.959   1.074
 8311TIP3    H124897   3.806   3.997   1.019
 8311TIP3    H224898   3.714   3.878   1.030
 8312TIP3   OH224899   2.200   4.442   0.558
 8312TIP3    H124900   2.173   4.520   0.605
 8312TIP3    H224901   2.211   4.375   0.626
 8313TIP3   OH224902   3.727   2.325   1.638
 8313TIP3    H124903   3.810   2.367   1.614
 8313TIP3    H224904   3.721   2.250   1.579
 8314TIP3   OH224905   1.741   0.410   4.596
 8314TIP3    H124906   1.743   0.497   4.557
 8314TIP3    H224907   1.649   0.383   4.590
 8315TIP3   OH224908   3.849   6.448   4.528
 8315TIP3    H124909   3.922   6.426   4.470
 8315TIP3    H224910   3.790   6.373   4.521
 8316TIP3   OH224911   3.470   6.736   2.512
 8316TIP3    H124912   3.547   6.712   2.563
 8316TIP3    H224913   3.499   6.735   2.421
 8317TIP3   OH224914   0.587   4.383   2.689
 8317TIP3    H124915   0.574   4.292   2.661
 8317TIP3    H224916   0.573   4.435   2.610
 8318TIP3   OH224917   7.021   0.125   2.834
 8318TIP3    H124918   7.091   0.185   2.807
 8318TIP3    H224919   6.969   0.175   2.896
 8319TIP3   OH224920   0.285   6.076   3.280
 8319TIP3    H124921   0.347   6.032   3.222
 8319TIP3    H224922   0.308   6.044   3.368
 8320TIP3   OH224923   6.043   1.008   2.693
 8320TIP3    H124924   5.997   1.022   2.611
 8320TIP3    H224925   5.988   0.947   2.742
 8321TIP3   OH224926   3.701   1.605   1.967
 8321TIP3    H124927   3.709   1.693   2.004
 8321TIP3    H224928   3.780   1.595   1.914
 8322TIP3   OH224929   5.519   0.234   1.683
 8322TIP3    H124930   5.614   0.243   1.678
 8322TIP3    H224931   5.502   0.142   1.666
 8323TIP3   OH224932   0.956   0.475   0.622
 8323TIP3    H124933   0.994   0.560   0.599
 8323TIP3    H224934   0.863   0.484   0.603
 8324TIP3   OH224935   0.811   3.397   0.335
 8324TIP3    H124936   0.721   3.395   0.303
 8324TIP3    H224937   0.865   3.368   0.261
 8325TIP3   OH224938   3.995   1.774   3.912
 8325TIP3    H124939   3.947   1.739   3.987
 8325TIP3    H224940   3.929   1.819   3.859
 8326TIP3   OH224941   2.232   1.713   4.955
 8326TIP3    H124942   2.309   1.701   5.012
 8326TIP3    H224943   2.162   1.666   5.001
 8327TIP3   OH224944   4.893   3.575   1.615
 8327TIP3    H124945   4.820   3.526   1.654
 8327TIP3    H224946   4.913   3.643   1.680
 8328TIP3   OH224947   6.482   6.039   3.260
 8328TIP3    H124948   6.469   6.116   3.204
 8328TIP3    H224949   6.424   5.972   3.223
 8329TIP3   OH224950   5.668   6.655   0.293
 8329TIP3    H124951   5.637   6.742   0.320
 8329TIP3    H224952   5.760   6.653   0.318
 8330TIP3   OH224953   1.648   3.534   4.500
 8330TIP3    H124954   1.620   3.593   4.430
 8330TIP3    H224955   1.690   3.591   4.564
 8331TIP3   OH224956   0.674   1.417   1.958
 8331TIP3    H124957   0.741   1.441   2.021
 8331TIP3    H224958   0.722   1.371   1.889
 8332TIP3   OH224959   0.120   3.902   4.561
 8332TIP3    H124960   0.064   3.917   4.485
 8332TIP3    H224961   0.203   3.943   4.537
 8333TIP3   OH224962   4.831   5.706   1.196
 8333TIP3    H124963   4.874   5.677   1.276
 8333TIP3    H224964   4.760   5.643   1.182
 8334TIP3   OH224965   2.029   4.611   1.900
 8334TIP3    H124966   2.123   4.624   1.882
 8334TIP3    H224967   1.992   4.700   1.897
 8335TIP3   OH224968   4.428   1.651   0.167
 8335TIP3    H124969   4.460   1.613   0.085
 8335TIP3    H224970   4.507   1.663   0.220
 8336TIP3   OH224971   6.668   0.305   3.478
 8336TIP3    H124972   6.612   0.382   3.479
 8336TIP3    H224973   6.663   0.270   3.567
 8337TIP3   OH224974   5.089   5.916   2.736
 8337TIP3    H124975   5.093   5.889   2.828
 8337TIP3    H224976   5.075   5.834   2.688
 8338TIP3   OH224977   5.836   0.224   1.682
 8338TIP3    H124978   5.846   0.160   1.611
 8338TIP3    H224979   5.885   0.186   1.755
 8339TIP3   OH224980   4.590   4.345   3.746
 8339TIP3    H124981   4.654   4.416   3.755
 8339TIP3    H224982   4.632   4.270   3.787
 8340TIP3   OH224983   1.070   2.396   1.779
 8340TIP3    H124984   1.122   2.358   1.851
 8340TIP3    H224985   1.050   2.485   1.808
 8341TIP3   OH224986   4.362   2.480   3.650
 8341TIP3    H124987   4.378   2.565   3.607
 8341TIP3    H224988   4.284   2.446   3.606
 8342TIP3   OH224989   7.199   3.226   5.289
 8342TIP3    H124990   7.104   3.224   5.276
 8342TIP3    H224991   7.224   3.134   5.298
 8343TIP3   OH224992   3.378   3.147   5.007
 8343TIP3    H124993   3.402   3.102   4.925
 8343TIP3    H224994   3.293   3.187   4.988
 8344TIP3   OH224995   5.989   5.248   0.914
 8344TIP3    H124996   5.920   5.301   0.874
 8344TIP3    H224997   6.012   5.295   0.994
 8345TIP3   OH224998   4.839   1.450   0.407
 8345TIP3    H124999   4.860   1.366   0.449
 8345TIP3    H225000   4.869   1.440   0.317
 8346TIP3   OH225001   4.839   5.863   5.289
 8346TIP3    H125002   4.833   5.840   5.196
 8346TIP3    H225003   4.797   5.790   5.335
 8347TIP3   OH225004   4.754   2.964   5.273
 8347TIP3    H125005   4.810   3.008   5.209
 8347TIP3    H225006   4.815   2.923   5.334
 8348TIP3   OH225007   4.033   4.573   2.098
 8348TIP3    H125008   4.015   4.539   2.010
 8348TIP3    H225009   4.124   4.551   2.114
 8349TIP3   OH225010   3.180   5.226   0.236
 8349TIP3    H125011   3.201   5.222   0.142
 8349TIP3    H225012   3.084   5.226   0.239
 8350TIP3   OH225013   6.661   3.224   2.922
 8350TIP3    H125014   6.590   3.170   2.886
 8350TIP3    H225015   6.616   3.287   2.978
 8351TIP3   OH225016   4.319   0.638   2.340
 8351TIP3    H125017   4.225   0.629   2.357
 8351TIP3    H225018   4.336   0.731   2.356
 8352TIP3   OH225019   5.813   3.281   0.178
 8352TIP3    H125020   5.809   3.202   0.232
 8352TIP3    H225021   5.858   3.253   0.098
 8353TIP3   OH225022   2.704   5.068   3.155
 8353TIP3    H125023   2.646   5.053   3.229
 8353TIP3    H225024   2.787   5.097   3.194
 8354TIP3   OH225025   4.375   4.012   5.303
 8354TIP3    H125026   4.366   4.099   5.264
 8354TIP3    H225027   4.418   4.028   5.387
 8355TIP3   OH225028   1.149   0.711   2.936
 8355TIP3    H125029   1.231   0.674   2.903
 8355TIP3    H225030   1.175   0.781   2.995
 8356TIP3   OH225031   6.655   6.611   3.071
 8356TIP3    H125032   6.697   6.669   3.007
 8356TIP3    H225033   6.567   6.647   3.081
 8357TIP3   OH225034   5.157   5.823   2.985
 8357TIP3    H125035   5.224   5.756   2.969
 8357TIP3    H225036   5.083   5.774   3.021
 8358TIP3   OH225037   1.051   4.437   3.812
 8358TIP3    H125038   1.000   4.363   3.779
 8358TIP3    H225039   1.057   4.496   3.737
 8359TIP3   OH225040   2.081   6.654   2.797
 8359TIP3    H125041   2.138   6.696   2.862
 8359TIP3    H225042   1.994   6.689   2.815
 8360TIP3   OH225043   3.005   0.817   3.917
 8360TIP3    H125044   3.005   0.742   3.976
 8360TIP3    H225045   2.953   0.789   3.842
 8361TIP3   OH225046   5.572   0.858   0.921
 8361TIP3    H125047   5.564   0.875   0.827
 8361TIP3    H225048   5.573   0.945   0.961
 8362TIP3   OH225049   5.737   1.580   1.696
 8362TIP3    H125050   5.665   1.527   1.661
 8362TIP3    H225051   5.695   1.661   1.723
 8363TIP3   OH225052   4.611   6.036   1.786
 8363TIP3    H125053   4.548   6.044   1.714
 8363TIP3    H225054   4.680   5.979   1.751
 8364TIP3   OH225055   6.749   2.354   1.289
 8364TIP3    H125056   6.829   2.383   1.244
 8364TIP3    H225057   6.723   2.429   1.342
 8365TIP3   OH225058   2.799   6.565   2.411
 8365TIP3    H125059   2.874   6.505   2.412
 8365TIP3    H225060   2.734   6.523   2.467
 8366TIP3   OH225061   4.360   5.447   0.432
 8366TIP3    H125062   4.355   5.505   0.508
 8366TIP3    H225063   4.381   5.361   0.469
 8367TIP3   OH225064   1.173   5.282   4.055
 8367TIP3    H125065   1.259   5.272   4.095
 8367TIP3    H225066   1.183   5.356   3.995
 8368TIP3   OH225067   0.737   6.047   4.076
 8368TIP3    H125068   0.788   5.966   4.072
 8368TIP3    H225069   0.664   6.032   4.016
 8369TIP3   OH225070   3.185   6.438   3.801
 8369TIP3    H125071   3.188   6.528   3.834
 8369TIP3    H225072   3.116   6.397   3.852
 8370TIP3   OH225073   2.389   6.027   2.564
 8370TIP3    H125074   2.329   5.973   2.616
 8370TIP3    H225075   2.361   6.117   2.581
 8371TIP3   OH225076   3.069   4.333   2.131
 8371TIP3    H125077   3.121   4.406   2.097
 8371TIP3    H225078   3.133   4.273   2.169
 8372TIP3   OH225079   2.873   3.742   3.343
 8372TIP3    H125080   2.832   3.806   3.284
 8372TIP3    H225081   2.964   3.770   3.348
 8373TIP3   OH225082   1.808   4.423   1.789
 8373TIP3    H125083   1.903   4.427   1.798
 8373TIP3    H225084   1.794   4.402   1.697
 8374TIP3   OH225085   3.193   2.783   3.521
 8374TIP3    H125086   3.110   2.749   3.555
 8374TIP3    H225087   3.168   2.841   3.449
 8375TIP3   OH225088   6.256   2.904   5.049
 8375TIP3    H125089   6.317   2.847   5.095
 8375TIP3    H225090   6.181   2.914   5.108
 8376TIP3   OH225091   2.692   2.907   5.090
 8376TIP3    H125092   2.765   2.885   5.149
 8376TIP3    H225093   2.716   2.866   5.007
 8377TIP3   OH225094   0.964   4.199   1.737
 8377TIP3    H125095   1.049   4.232   1.766
 8377TIP3    H225096   0.973   4.104   1.738
 8378TIP3   OH225097   5.711   6.729   3.295
 8378TIP3    H125098   5.661   6.739   3.376
 8378TIP3    H225099   5.705   6.814   3.252
 8379TIP3   OH225100   3.674   5.190   4.146
 8379TIP3    H125101   3.706   5.106   4.178
 8379TIP3    H225102   3.601   5.168   4.089
 8380TIP3   OH225103   0.158   0.107   4.153
 8380TIP3    H125104   0.140   0.057   4.232
 8380TIP3    H225105   0.084   0.168   4.145
 8381TIP3   OH225106   0.477   1.802   5.566
 8381TIP3    H125107   0.528   1.732   5.524
 8381TIP3    H225108   0.484   1.876   5.506
 8382TIP3   OH225109   3.034   2.265   0.503
 8382TIP3    H125110   3.033   2.175   0.468
 8382TIP3    H225111   2.953   2.304   0.471
 8383TIP3   OH225112   6.468   4.469   4.736
 8383TIP3    H125113   6.509   4.385   4.759
 8383TIP3    H225114   6.392   4.444   4.684
 8384TIP3   OH225115   2.540   3.313   1.838
 8384TIP3    H125116   2.536   3.340   1.930
 8384TIP3    H225117   2.606   3.370   1.799
 8385TIP3   OH225118   2.173   2.986   4.965
 8385TIP3    H125119   2.099   2.946   4.918
 8385TIP3    H225120   2.231   2.913   4.986
 8386TIP3   OH225121   2.639   3.664   5.321
 8386TIP3    H125122   2.616   3.678   5.229
 8386TIP3    H225123   2.705   3.731   5.339
 8387TIP3   OH225124   2.458   3.576   2.160
 8387TIP3    H125125   2.544   3.534   2.164
 8387TIP3    H225126   2.468   3.646   2.096
 8388TIP3   OH225127   5.492   1.595   2.285
 8388TIP3    H125128   5.457   1.534   2.221
 8388TIP3    H225129   5.488   1.680   2.241
 8389TIP3   OH225130   7.137   5.705   1.862
 8389TIP3    H125131   7.099   5.782   1.819
 8389TIP3    H225132   7.217   5.737   1.904
 8390TIP3   OH225133   3.754   3.051   1.815
 8390TIP3    H125134   3.745   3.108   1.891
 8390TIP3    H225135   3.745   3.109   1.739
 8391TIP3   OH225136   6.862   4.524   4.291
 8391TIP3    H125137   6.781   4.514   4.341
 8391TIP3    H225138   6.832   4.540   4.201
 8392TIP3   OH225139   3.762   4.141   0.242
 8392TIP3    H125140   3.739   4.048   0.241
 8392TIP3    H225141   3.806   4.153   0.326
 8393TIP3   OH225142   3.231   5.301   0.507
 8393TIP3    H125143   3.225   5.258   0.422
 8393TIP3    H225144   3.325   5.319   0.518
 8394TIP3   OH225145   2.184   6.386   5.190
 8394TIP3    H125146   2.099   6.424   5.214
 8394TIP3    H225147   2.234   6.460   5.155
 8395TIP3   OH225148   1.986   5.387   4.751
 8395TIP3    H125149   1.960   5.296   4.732
 8395TIP3    H225150   2.051   5.379   4.821
 8396TIP3   OH225151   1.575   2.388   3.507
 8396TIP3    H125152   1.569   2.404   3.413
 8396TIP3    H225153   1.620   2.304   3.515
 8397TIP3   OH225154   3.001   3.332   5.490
 8397TIP3    H125155   2.929   3.373   5.441
 8397TIP3    H225156   2.989   3.238   5.476
 8398TIP3   OH225157   2.668   4.254   4.785
 8398TIP3    H125158   2.692   4.344   4.763
 8398TIP3    H225159   2.686   4.246   4.878
 8399TIP3   OH225160   3.534   6.100   5.341
 8399TIP3    H125161   3.545   6.179   5.288
 8399TIP3    H225162   3.623   6.078   5.369
 8400TIP3   OH225163   5.731   3.607   3.234
 8400TIP3    H125164   5.790   3.602   3.158
 8400TIP3    H225165   5.706   3.699   3.239
 8401TIP3   OH225166   0.943   0.334   5.574
 8401TIP3    H125167   0.926   0.317   5.481
 8401TIP3    H225168   1.014   0.398   5.574
 8402TIP3   OH225169   4.838   3.770   3.003
 8402TIP3    H125170   4.772   3.836   3.024
 8402TIP3    H225171   4.792   3.705   2.949
 8403TIP3   OH225172   4.230   2.850   1.508
 8403TIP3    H125173   4.161   2.891   1.561
 8403TIP3    H225174   4.204   2.868   1.417
 8404TIP3   OH225175   2.182   0.392   1.085
 8404TIP3    H125176   2.256   0.354   1.132
 8404TIP3    H225177   2.129   0.317   1.059
 8405TIP3   OH225178   1.485   2.394   0.596
 8405TIP3    H125179   1.528   2.461   0.543
 8405TIP3    H225180   1.514   2.412   0.685
 8406TIP3   OH225181   1.243   0.323   5.149
 8406TIP3    H125182   1.189   0.373   5.087
 8406TIP3    H225183   1.180   0.277   5.204
 8407TIP3   OH225184   7.113   3.718   4.322
 8407TIP3    H125185   7.204   3.687   4.323
 8407TIP3    H225186   7.117   3.806   4.359
 8408TIP3   OH225187   5.110   0.836   5.308
 8408TIP3    H125188   5.102   0.818   5.401
 8408TIP3    H225189   5.196   0.802   5.284
 8409TIP3   OH225190   5.016   1.183   5.828
 8409TIP3    H125191   4.937   1.234   5.808
 8409TIP3    H225192   5.085   1.249   5.837
 8410TIP3   OH225193   6.350   0.082   5.537
 8410TIP3    H125194   6.335   0.016   5.469
 8410TIP3    H225195   6.314   0.163   5.500
 8411TIP3   OH225196   0.650   3.593   4.145
 8411TIP3    H125197   0.648   3.497   4.151
 8411TIP3    H225198   0.716   3.619   4.210
 8412TIP3   OH225199   5.971   2.210   2.576
 8412TIP3    H125200   6.048   2.211   2.520
 8412TIP3    H225201   5.999   2.162   2.654
 8413TIP3   OH225202   0.281   3.406   0.231
 8413TIP3    H125203   0.241   3.353   0.162
 8413TIP3    H225204   0.298   3.491   0.191
 8414TIP3   OH225205   4.242   1.680   0.759
 8414TIP3    H125206   4.312   1.724   0.710
 8414TIP3    H225207   4.208   1.614   0.698
 8415TIP3   OH225208   6.314   5.909   4.875
 8415TIP3    H125209   6.233   5.957   4.893
 8415TIP3    H225210   6.321   5.847   4.947
 8416TIP3   OH225211   0.180   1.398   5.019
 8416TIP3    H125212   0.099   1.407   4.968
 8416TIP3    H225213   0.152   1.358   5.101
 8417TIP3   OH225214   2.566   5.820   2.840
 8417TIP3    H125215   2.599   5.814   2.930
 8417TIP3    H225216   2.513   5.899   2.839
 8418TIP3   OH225217   6.515   0.529   5.618
 8418TIP3    H125218   6.508   0.467   5.690
 8418TIP3    H225219   6.587   0.496   5.565
 8419TIP3   OH225220   5.218   0.763   2.376
 8419TIP3    H125221   5.203   0.838   2.434
 8419TIP3    H225222   5.136   0.755   2.327
 8420TIP3   OH225223   5.683   3.295   2.192
 8420TIP3    H125224   5.666   3.365   2.255
 8420TIP3    H225225   5.596   3.265   2.166
 8421TIP3   OH225226   6.757   0.241   2.901
 8421TIP3    H125227   6.804   0.248   2.984
 8421TIP3    H225228   6.693   0.171   2.916
 8422TIP3   OH225229   4.134   0.226   1.098
 8422TIP3    H125230   4.189   0.234   1.177
 8422TIP3    H225231   4.125   0.131   1.086
 8423TIP3   OH225232   6.818   0.255   1.022
 8423TIP3    H125233   6.767   0.331   0.996
 8423TIP3    H225234   6.859   0.225   0.941
 8424TIP3   OH225235   1.980   4.031   2.825
 8424TIP3    H125236   2.036   4.013   2.900
 8424TIP3    H225237   2.007   3.967   2.759
 8425TIP3   OH225238   4.366   2.304   2.564
 8425TIP3    H125239   4.380   2.273   2.475
 8425TIP3    H225240   4.312   2.383   2.554
 8426TIP3   OH225241   7.099   6.775   1.052
 8426TIP3    H125242   7.120   6.696   1.101
 8426TIP3    H225243   7.142   6.763   0.968
 8427TIP3   OH225244   6.570   0.139   0.250
 8427TIP3    H125245   6.514   0.217   0.246
 8427TIP3    H225246   6.609   0.134   0.163
 8428TIP3   OH225247   1.646   5.985   4.408
 8428TIP3    H125248   1.691   6.070   4.408
 8428TIP3    H225249   1.626   5.969   4.500
 8429TIP3   OH225250   2.471   0.206   0.182
 8429TIP3    H125251   2.469   0.253   0.266
 8429TIP3    H225252   2.389   0.158   0.180
 8430TIP3   OH225253   6.476   0.341   2.037
 8430TIP3    H125254   6.492   0.415   1.978
 8430TIP3    H225255   6.387   0.355   2.068
 8431TIP3   OH225256   3.831   1.272   1.093
 8431TIP3    H125257   3.741   1.286   1.063
 8431TIP3    H225258   3.827   1.191   1.143
 8432TIP3   OH225259   6.916   3.103   5.839
 8432TIP3    H125260   6.986   3.168   5.847
 8432TIP3    H225261   6.892   3.106   5.746
 8433TIP3   OH225262   3.547   4.828   5.835
 8433TIP3    H125263   3.569   4.741   5.801
 8433TIP3    H225264   3.568   4.823   5.928
 8434TIP3   OH225265   6.673   2.612   5.094
 8434TIP3    H125266   6.704   2.521   5.091
 8434TIP3    H225267   6.585   2.608   5.058
 8435TIP3   OH225268   6.807   4.973  -0.034
 8435TIP3    H125269   6.899   4.994  -0.051
 8435TIP3    H225270   6.804   4.954   0.060
 8436TIP3   OH225271   5.876   2.745   0.017
 8436TIP3    H125272   5.843   2.798   0.089
 8436TIP3    H225273   5.820   2.766  -0.057
 8437TIP3   OH225274   7.077   0.721   5.504
 8437TIP3    H125275   7.096   0.790   5.441
 8437TIP3    H225276   7.023   0.763   5.571
 8438TIP3   OH225277   5.069   6.740   4.818
 8438TIP3    H125278   5.156   6.760   4.853
 8438TIP3    H225279   5.010   6.747   4.893
 8439TIP3   OH225280   6.206   3.019   1.684
 8439TIP3    H125281   6.224   2.934   1.643
 8439TIP3    H225282   6.263   3.081   1.638
 8440TIP3   OH225283   4.302   0.246   5.411
 8440TIP3    H125284   4.287   0.308   5.340
 8440TIP3    H225285   4.315   0.301   5.488
 8441TIP3   OH225286   6.741   1.462   3.007
 8441TIP3    H125287   6.696   1.499   3.084
 8441TIP3    H225288   6.828   1.501   3.010
 8442TIP3   OH225289   4.089   4.764   3.950
 8442TIP3    H125290   4.100   4.818   4.029
 8442TIP3    H225291   4.049   4.683   3.982
 8443TIP3   OH225292   5.065   1.966   4.902
 8443TIP3    H125293   5.016   1.967   4.820
 8443TIP3    H225294   4.999   1.980   4.970
 8444TIP3   OH225295   6.669   0.258   1.728
 8444TIP3    H125296   6.689   0.350   1.742
 8444TIP3    H225297   6.731   0.211   1.782
 8445TIP3   OH225298   7.016   1.841   4.957
 8445TIP3    H125299   7.103   1.818   4.989
 8445TIP3    H225300   7.027   1.854   4.863
 8446TIP3   OH225301   2.481   2.567   0.733
 8446TIP3    H125302   2.422   2.512   0.682
 8446TIP3    H225303   2.566   2.558   0.690
 8447TIP3   OH225304   6.272   4.171   4.171
 8447TIP3    H125305   6.323   4.090   4.164
 8447TIP3    H225306   6.207   4.152   4.239
 8448TIP3   OH225307   4.836   2.551   3.577
 8448TIP3    H125308   4.929   2.528   3.577
 8448TIP3    H225309   4.834   2.645   3.563
 8449TIP3   OH225310   5.211   2.442   5.058
 8449TIP3    H125311   5.141   2.419   5.119
 8449TIP3    H225312   5.254   2.359   5.039
 8450TIP3   OH225313   3.024   2.120   3.468
 8450TIP3    H125314   3.105   2.122   3.519
 8450TIP3    H225315   3.054   2.110   3.378
 8451TIP3   OH225316   5.858   1.751   2.122
 8451TIP3    H125317   5.926   1.814   2.144
 8451TIP3    H225318   5.797   1.754   2.196
 8452TIP3   OH225319   1.372   4.831   1.965
 8452TIP3    H125320   1.373   4.925   1.981
 8452TIP3    H225321   1.465   4.807   1.958
 8453TIP3   OH225322   4.293   0.800   1.223
 8453TIP3    H125323   4.229   0.762   1.284
 8453TIP3    H225324   4.315   0.885   1.261
 8454TIP3   OH225325   3.276   3.563   4.683
 8454TIP3    H125326   3.369   3.542   4.673
 8454TIP3    H225327   3.233   3.478   4.694
 8455TIP3   OH225328   3.291   4.385   4.485
 8455TIP3    H125329   3.384   4.364   4.481
 8455TIP3    H225330   3.261   4.377   4.394
 8456TIP3   OH225331   1.895   6.498   5.147
 8456TIP3    H125332   1.893   6.479   5.241
 8456TIP3    H225333   1.861   6.587   5.141
 8457TIP3   OH225334   3.516  -0.008   0.259
 8457TIP3    H125335   3.475   0.065   0.306
 8457TIP3    H225336   3.576   0.033   0.198
 8458TIP3   OH225337   6.657   3.476   2.379
 8458TIP3    H125338   6.649   3.382   2.394
 8458TIP3    H225339   6.630   3.515   2.462
 8459TIP3   OH225340   5.444   3.995   0.520
 8459TIP3    H125341   5.410   3.920   0.472
 8459TIP3    H225342   5.533   3.971   0.544
 8460TIP3   OH225343   3.689   1.268   5.401
 8460TIP3    H125344   3.699   1.332   5.331
 8460TIP3    H225345   3.611   1.218   5.377
 8461TIP3   OH225346   6.267   6.588   4.172
 8461TIP3    H125347   6.323   6.586   4.094
 8461TIP3    H225348   6.328   6.596   4.245
 8462TIP3   OH225349   6.849   2.500   0.849
 8462TIP3    H125350   6.881   2.585   0.819
 8462TIP3    H225351   6.848   2.446   0.770
 8463TIP3   OH225352   4.127   5.973   1.320
 8463TIP3    H125353   4.115   6.003   1.410
 8463TIP3    H225354   4.203   5.915   1.324
 8464TIP3   OH225355   2.779   6.655   4.610
 8464TIP3    H125356   2.835   6.599   4.663
 8464TIP3    H225357   2.754   6.599   4.536
 8465TIP3   OH225358   3.759   0.951   2.407
 8465TIP3    H125359   3.726   0.881   2.351
 8465TIP3    H225360   3.830   0.910   2.457
 8466TIP3   OH225361   3.273   1.854   5.041
 8466TIP3    H125362   3.213   1.807   5.099
 8466TIP3    H225363   3.298   1.932   5.091
 8467TIP3   OH225364   7.266   3.198   2.511
 8467TIP3    H125365   7.355   3.200   2.477
 8467TIP3    H225366   7.218   3.259   2.456
 8468TIP3   OH225367   4.198   0.722   0.150
 8468TIP3    H125368   4.233   0.754   0.067
 8468TIP3    H225369   4.106   0.748   0.149
 8469TIP3   OH225370   2.960   3.384   4.446
 8469TIP3    H125371   3.035   3.405   4.390
 8469TIP3    H225372   2.935   3.295   4.419
 8470TIP3   OH225373   2.818   4.640   3.009
 8470TIP3    H125374   2.787   4.626   3.098
 8470TIP3    H225375   2.879   4.713   3.016
 8471TIP3   OH225376   2.517   1.164   3.623
 8471TIP3    H125377   2.467   1.222   3.680
 8471TIP3    H225378   2.492   1.190   3.534
 8472TIP3   OH225379   0.076   5.707   2.703
 8472TIP3    H125380   0.163   5.698   2.663
 8472TIP3    H225381   0.048   5.617   2.720
 8473TIP3   OH225382   4.672   2.746   1.239
 8473TIP3    H125383   4.659   2.841   1.242
 8473TIP3    H225384   4.687   2.727   1.146
 8474TIP3   OH225385   6.250   5.912   1.424
 8474TIP3    H125386   6.252   5.833   1.370
 8474TIP3    H225387   6.316   5.897   1.491
 8475TIP3   OH225388   5.287   3.198   2.337
 8475TIP3    H125389   5.241   3.268   2.383
 8475TIP3    H225390   5.248   3.197   2.249
 8476TIP3   OH225391   3.149   6.089   4.403
 8476TIP3    H125392   3.202   6.096   4.324
 8476TIP3    H225393   3.059   6.098   4.373
 8477TIP3   OH225394   4.249   6.505   5.361
 8477TIP3    H125395   4.243   6.580   5.302
 8477TIP3    H225396   4.309   6.534   5.430
 8478TIP3   OH225397   0.450   6.163   0.835
 8478TIP3    H125398   0.357   6.184   0.836
 8478TIP3    H225399   0.471   6.152   0.742
 8479TIP3   OH225400   3.876   3.273   5.761
 8479TIP3    H125401   3.832   3.200   5.717
 8479TIP3    H225402   3.910   3.326   5.689
 8480TIP3   OH225403   6.432   4.874   1.890
 8480TIP3    H125404   6.465   4.963   1.879
 8480TIP3    H225405   6.509   4.818   1.875
 8481TIP3   OH225406   5.623   3.773   5.475
 8481TIP3    H125407   5.534   3.789   5.505
 8481TIP3    H225408   5.623   3.803   5.384
 8482TIP3   OH225409   1.572   3.779   2.061
 8482TIP3    H125410   1.491   3.817   2.027
 8482TIP3    H225411   1.560   3.685   2.052
 8483TIP3   OH225412   1.870   1.508   4.520
 8483TIP3    H125413   1.939   1.443   4.534
 8483TIP3    H225414   1.849   1.540   4.607
 8484TIP3   OH225415   6.539   5.800   4.275
 8484TIP3    H125416   6.537   5.713   4.314
 8484TIP3    H225417   6.603   5.794   4.204
 8485TIP3   OH225418   0.545   4.202   1.655
 8485TIP3    H125419   0.545   4.109   1.630
 8485TIP3    H225420   0.544   4.249   1.572
 8486TIP3   OH225421   4.697   2.727   1.864
 8486TIP3    H125422   4.764   2.718   1.796
 8486TIP3    H225423   4.664   2.816   1.853
 8487TIP3   OH225424   1.835   6.095   1.177
 8487TIP3    H125425   1.898   6.121   1.245
 8487TIP3    H225426   1.754   6.077   1.225
 8488TIP3   OH225427   1.154   5.545   1.362
 8488TIP3    H125428   1.088   5.614   1.370
 8488TIP3    H225429   1.237   5.592   1.353
 8489TIP3   OH225430   2.933   1.046   0.424
 8489TIP3    H125431   2.930   0.956   0.389
 8489TIP3    H225432   2.895   1.038   0.511
 8490TIP3   OH225433   5.833   5.097   5.251
 8490TIP3    H125434   5.890   5.127   5.180
 8490TIP3    H225435   5.874   5.132   5.330
 8491TIP3   OH225436   5.380   2.345   1.969
 8491TIP3    H125437   5.443   2.357   1.898
 8491TIP3    H225438   5.420   2.279   2.026
 8492TIP3   OH225439   4.029   0.795   4.073
 8492TIP3    H125440   3.966   0.862   4.046
 8492TIP3    H225441   3.980   0.741   4.136
 8493TIP3   OH225442   6.314   3.664   0.706
 8493TIP3    H125443   6.360   3.745   0.686
 8493TIP3    H225444   6.365   3.595   0.663
 8494TIP3   OH225445   4.944   3.567   3.199
 8494TIP3    H125446   5.013   3.590   3.261
 8494TIP3    H225447   4.914   3.651   3.163
 8495TIP3   OH225448   5.857   1.472   4.164
 8495TIP3    H125449   5.872   1.544   4.225
 8495TIP3    H225450   5.782   1.425   4.200
 8496TIP3   OH225451   3.416   2.941   5.400
 8496TIP3    H125452   3.404   3.029   5.436
 8496TIP3    H225453   3.439   2.955   5.308
 8497TIP3   OH225454   6.543   1.923   2.020
 8497TIP3    H125455   6.552   1.837   1.978
 8497TIP3    H225456   6.607   1.978   1.975
 8498TIP3   OH225457   6.183   3.450   1.517
 8498TIP3    H125458   6.142   3.457   1.604
 8498TIP3    H225459   6.171   3.537   1.479
 8499TIP3   OH225460   2.910   6.596   0.103
 8499TIP3    H125461   2.986   6.639   0.142
 8499TIP3    H225462   2.939   6.505   0.090
 8500TIP3   OH225463   5.512   2.885   4.340
 8500TIP3    H125464   5.532   2.960   4.285
 8500TIP3    H225465   5.596   2.860   4.380
 8501TIP3   OH225466   0.555   4.096   3.582
 8501TIP3    H125467   0.641   4.131   3.559
 8501TIP3    H225468   0.527   4.148   3.658
 8502TIP3   OH225469   3.710   5.831   0.429
 8502TIP3    H125470   3.801   5.856   0.411
 8502TIP3    H225471   3.718   5.754   0.486
 8503TIP3   OH225472   3.829   6.228   1.742
 8503TIP3    H125473   3.924   6.234   1.746
 8503TIP3    H225474   3.801   6.225   1.833
 8504TIP3   OH225475   5.485   1.729   4.412
 8504TIP3    H125476   5.504   1.799   4.475
 8504TIP3    H225477   5.568   1.713   4.368
 8505TIP3   OH225478   6.722   0.985   5.425
 8505TIP3    H125479   6.683   1.035   5.497
 8505TIP3    H225480   6.697   0.894   5.443
 8506TIP3   OH225481   5.082   4.643   3.997
 8506TIP3    H125482   5.041   4.575   3.942
 8506TIP3    H225483   5.100   4.715   3.936
 8507TIP3   OH225484   4.203   1.850   1.315
 8507TIP3    H125485   4.220   1.773   1.261
 8507TIP3    H225486   4.112   1.841   1.341
 8508TIP3   OH225487   2.120   2.604   1.974
 8508TIP3    H125488   2.079   2.531   1.928
 8508TIP3    H225489   2.105   2.586   2.067
 8509TIP3   OH225490   4.284   3.267   0.171
 8509TIP3    H125491   4.315   3.309   0.091
 8509TIP3    H225492   4.352   3.286   0.236
 8510TIP3   OH225493   0.609   4.036   0.000
 8510TIP3    H125494   0.635   4.055   0.091
 8510TIP3    H225495   0.515   4.054  -0.002
 8511TIP3   OH225496   6.483   6.676   2.686
 8511TIP3    H125497   6.411   6.666   2.750
 8511TIP3    H225498   6.543   6.604   2.707
 8512TIP3   OH225499   4.784   0.720   0.345
 8512TIP3    H125500   4.864   0.759   0.379
 8512TIP3    H225501   4.714   0.764   0.393
 8513TIP3   OH225502   1.647   4.604   5.692
 8513TIP3    H125503   1.694   4.521   5.704
 8513TIP3    H225504   1.554   4.578   5.691
 8514TIP3   OH225505   6.355   4.384   1.518
 8514TIP3    H125506   6.407   4.395   1.438
 8514TIP3    H225507   6.381   4.457   1.574
 8515TIP3   OH225508   5.199   1.101   1.651
 8515TIP3    H125509   5.256   1.037   1.609
 8515TIP3    H225510   5.250   1.182   1.652
 8516TIP3   OH225511   5.129   3.695   2.771
 8516TIP3    H125512   5.095   3.744   2.845
 8516TIP3    H225513   5.052   3.675   2.717
 8517TIP3   OH225514   5.725   6.174   1.484
 8517TIP3    H125515   5.810   6.216   1.497
 8517TIP3    H225516   5.739   6.082   1.507
 8518TIP3   OH225517   4.418   2.673   1.557
 8518TIP3    H125518   4.352   2.742   1.556
 8518TIP3    H225519   4.368   2.592   1.564
 8519TIP3   OH225520   6.010   0.291   4.511
 8519TIP3    H125521   5.998   0.233   4.436
 8519TIP3    H225522   5.999   0.379   4.475
 8520TIP3   OH225523   2.924   1.167   5.126
 8520TIP3    H125524   2.902   1.082   5.164
 8520TIP3    H225525   3.007   1.191   5.167
 8521TIP3   OH225526   7.136   5.792   0.810
 8521TIP3    H125527   7.220   5.782   0.766
 8521TIP3    H225528   7.132   5.718   0.871
 8522TIP3   OH225529   1.718   2.156   3.393
 8522TIP3    H125530   1.660   2.136   3.319
 8522TIP3    H225531   1.790   2.205   3.353
 8523TIP3   OH225532   7.170   3.495   3.603
 8523TIP3    H125533   7.262   3.504   3.578
 8523TIP3    H225534   7.150   3.403   3.588
 8524TIP3   OH225535   4.379   2.943   5.632
 8524TIP3    H125536   4.468   2.928   5.600
 8524TIP3    H225537   4.363   2.870   5.691
 8525TIP3   OH225538   1.465   1.850   3.808
 8525TIP3    H125539   1.416   1.931   3.800
 8525TIP3    H225540   1.478   1.820   3.717
 8526TIP3   OH225541   1.290   5.191   2.512
 8526TIP3    H125542   1.340   5.247   2.453
 8526TIP3    H225543   1.241   5.132   2.455
 8527TIP3   OH225544   3.480   1.190   2.288
 8527TIP3    H125545   3.470   1.110   2.236
 8527TIP3    H225546   3.529   1.249   2.231
 8528TIP3   OH225547   2.496   4.688   1.926
 8528TIP3    H125548   2.547   4.722   1.998
 8528TIP3    H225549   2.535   4.726   1.848
 8529TIP3   OH225550   2.930   0.385   3.925
 8529TIP3    H125551   2.863   0.451   3.911
 8529TIP3    H225552   2.897   0.332   3.998
 8530TIP3   OH225553   3.451   4.580   1.753
 8530TIP3    H125554   3.463   4.574   1.658
 8530TIP3    H225555   3.430   4.491   1.780
 8531TIP3   OH225556   7.007   6.445   4.408
 8531TIP3    H125557   6.986   6.372   4.351
 8531TIP3    H225558   7.080   6.489   4.365
 8532TIP3   OH225559   3.393   6.202   5.654
 8532TIP3    H125560   3.474   6.153   5.668
 8532TIP3    H225561   3.401   6.278   5.712
 8533TIP3   OH225562   5.590   4.796   5.670
 8533TIP3    H125563   5.571   4.737   5.743
 8533TIP3    H225564   5.528   4.770   5.601
 8534TIP3   OH225565   3.288   6.720   4.183
 8534TIP3    H125566   3.350   6.790   4.162
 8534TIP3    H225567   3.251   6.745   4.268
 8535TIP3   OH225568   1.247   3.090   3.483
 8535TIP3    H125569   1.225   3.106   3.575
 8535TIP3    H225570   1.163   3.092   3.437
 8536TIP3   OH225571   4.328   4.295   1.107
 8536TIP3    H125572   4.280   4.247   1.039
 8536TIP3    H225573   4.261   4.319   1.172
 8537TIP3   OH225574   1.027   2.978   4.529
 8537TIP3    H125575   1.094   3.005   4.592
 8537TIP3    H225576   1.065   2.901   4.486
 8538TIP3   OH225577   2.724   0.734   0.793
 8538TIP3    H125578   2.735   0.643   0.820
 8538TIP3    H225579   2.754   0.785   0.869
 8539TIP3   OH225580   3.007   4.173   2.895
 8539TIP3    H125581   2.912   4.163   2.893
 8539TIP3    H225582   3.034   4.122   2.972
 8540TIP3   OH225583   7.078   6.709   3.191
 8540TIP3    H125584   7.101   6.690   3.282
 8540TIP3    H225585   6.990   6.747   3.196
 8541TIP3   OH225586   3.891   1.445   5.043
 8541TIP3    H125587   3.866   1.365   4.997
 8541TIP3    H225588   3.976   1.424   5.083
 8542TIP3   OH225589   5.750   5.589   3.643
 8542TIP3    H125590   5.809   5.657   3.612
 8542TIP3    H225591   5.672   5.637   3.671
 8543TIP3   OH225592   1.604   5.763   3.823
 8543TIP3    H125593   1.695   5.793   3.827
 8543TIP3    H225594   1.561   5.809   3.894
 8544TIP3   OH225595   7.150   1.661   1.884
 8544TIP3    H125596   7.067   1.659   1.836
 8544TIP3    H225597   7.128   1.700   1.968
 8545TIP3   OH225598   4.786   2.318   3.130
 8545TIP3    H125599   4.873   2.342   3.098
 8545TIP3    H225600   4.731   2.395   3.109
 8546TIP3   OH225601   1.785   2.575   0.836
 8546TIP3    H125602   1.756   2.656   0.878
 8546TIP3    H225603   1.708   2.518   0.840
 8547TIP3   OH225604   6.390   0.924   4.058
 8547TIP3    H125605   6.377   1.012   4.093
 8547TIP3    H225606   6.342   0.866   4.118
 8548TIP3   OH225607   5.477   0.860   0.349
 8548TIP3    H125608   5.561   0.814   0.352
 8548TIP3    H225609   5.433   0.835   0.430
 8549TIP3   OH225610   2.325   4.561   0.866
 8549TIP3    H125611   2.253   4.607   0.821
 8549TIP3    H225612   2.300   4.562   0.958
 8550TIP3   OH225613   5.753   4.832   0.730
 8550TIP3    H125614   5.768   4.760   0.792
 8550TIP3    H225615   5.818   4.898   0.754
 8551TIP3   OH225616   2.722   4.264   2.776
 8551TIP3    H125617   2.784   4.285   2.706
 8551TIP3    H225618   2.660   4.337   2.776
 8552TIP3   OH225619   7.184   6.101   2.274
 8552TIP3    H125620   7.240   6.179   2.279
 8552TIP3    H225621   7.117   6.116   2.341
 8553TIP3   OH225622   0.504   5.346   3.105
 8553TIP3    H125623   0.581   5.289   3.111
 8553TIP3    H225624   0.494   5.363   3.011
 8554TIP3   OH225625   3.689   5.559   3.531
 8554TIP3    H125626   3.633   5.633   3.552
 8554TIP3    H225627   3.776   5.597   3.518
 8555TIP3   OH225628   4.101   5.529   3.675
 8555TIP3    H125629   4.167   5.461   3.684
 8555TIP3    H225630   4.095   5.545   3.580
 8556TIP3   OH225631   4.867   3.432   2.445
 8556TIP3    H125632   4.938   3.377   2.476
 8556TIP3    H225633   4.811   3.445   2.521
 8557TIP3   OH225634   3.558   1.360   0.153
 8557TIP3    H125635   3.534   1.332   0.241
 8557TIP3    H225636   3.507   1.304   0.095
 8558TIP3   OH225637   4.590   3.010   1.251
 8558TIP3    H125638   4.495   3.024   1.244
 8558TIP3    H225639   4.623   3.093   1.285
 8559TIP3   OH225640   3.661   0.188   2.314
 8559TIP3    H125641   3.652   0.265   2.257
 8559TIP3    H225642   3.572   0.170   2.344
 8560TIP3   OH225643   0.917   3.132   0.842
 8560TIP3    H125644   0.962   3.205   0.884
 8560TIP3    H225645   0.827   3.138   0.873
 8561TIP3   OH225646   4.234   6.038   4.108
 8561TIP3    H125647   4.196   5.962   4.153
 8561TIP3    H225648   4.168   6.061   4.043
 8562TIP3   OH225649   5.231   3.685   1.705
 8562TIP3    H125650   5.258   3.759   1.759
 8562TIP3    H225651   5.135   3.689   1.706
 8563TIP3   OH225652   5.774   4.742   0.446
 8563TIP3    H125653   5.783   4.773   0.537
 8563TIP3    H225654   5.685   4.707   0.441
 8564TIP3   OH225655   3.348   3.948   2.203
 8564TIP3    H125656   3.371   3.876   2.143
 8564TIP3    H225657   3.419   3.948   2.267
 8565TIP3   OH225658   3.282   5.750   3.735
 8565TIP3    H125659   3.226   5.828   3.737
 8565TIP3    H225660   3.252   5.698   3.809
 8566TIP3   OH225661   1.865   5.909   0.013
 8566TIP3    H125662   1.951   5.869  -0.001
 8566TIP3    H225663   1.878   5.967   0.089
 8567TIP3   OH225664   0.646   3.387   5.498
 8567TIP3    H125665   0.574   3.411   5.440
 8567TIP3    H225666   0.605   3.339   5.569
 8568TIP3   OH225667   1.692   0.856   3.936
 8568TIP3    H125668   1.644   0.879   3.857
 8568TIP3    H225669   1.632   0.877   4.008
 8569TIP3   OH225670   4.291   2.812   4.799
 8569TIP3    H125671   4.212   2.832   4.748
 8569TIP3    H225672   4.304   2.890   4.854
 8570TIP3   OH225673   1.729   5.690   2.251
 8570TIP3    H125674   1.723   5.601   2.284
 8570TIP3    H225675   1.817   5.695   2.212
 8571TIP3   OH225676   4.693   0.963   5.762
 8571TIP3    H125677   4.609   1.008   5.775
 8571TIP3    H225678   4.673   0.871   5.778
 8572TIP3   OH225679  -0.042   1.716   5.293
 8572TIP3    H125680   0.041   1.703   5.340
 8572TIP3    H225681  -0.110   1.694   5.356
 8573TIP3   OH225682   4.228   5.481   4.458
 8573TIP3    H125683   4.182   5.485   4.374
 8573TIP3    H225684   4.318   5.505   4.437
 8574TIP3   OH225685   6.544   1.987   3.904
 8574TIP3    H125686   6.453   2.013   3.894
 8574TIP3    H225687   6.542   1.911   3.961
 8575TIP3   OH225688   2.142   0.299   4.435
 8575TIP3    H125689   2.107   0.250   4.509
 8575TIP3    H225690   2.204   0.361   4.474
 8576TIP3   OH225691   0.787   1.707   3.844
 8576TIP3    H125692   0.799   1.612   3.848
 8576TIP3    H225693   0.693   1.719   3.829
 8577TIP3   OH225694   5.938   1.522   2.022
 8577TIP3    H125695   5.943   1.554   1.931
 8577TIP3    H225696   5.904   1.597   2.071
 8578TIP3   OH225697   6.166   0.610   0.088
 8578TIP3    H125698   6.137   0.631  -0.001
 8578TIP3    H225699   6.257   0.584   0.078
 8579TIP3   OH225700   5.734   0.491   5.173
 8579TIP3    H125701   5.759   0.437   5.248
 8579TIP3    H225702   5.767   0.443   5.097
 8580TIP3   OH225703   4.777   0.218   0.078
 8580TIP3    H125704   4.851   0.158   0.091
 8580TIP3    H225705   4.793   0.289   0.140
 8581TIP3   OH225706   2.029   6.619   3.251
 8581TIP3    H125707   2.040   6.629   3.346
 8581TIP3    H225708   1.936   6.599   3.240
 8582TIP3   OH225709   3.470   3.263   4.243
 8582TIP3    H125710   3.454   3.187   4.187
 8582TIP3    H225711   3.508   3.328   4.184
 8583TIP3   OH225712   2.103   6.173   0.192
 8583TIP3    H125713   2.160   6.122   0.135
 8583TIP3    H225714   2.034   6.112   0.219
 8584TIP3   OH225715   0.454   5.415   2.227
 8584TIP3    H125716   0.405   5.487   2.187
 8584TIP3    H225717   0.481   5.450   2.312
 8585TIP3   OH225718   6.097   5.951   1.994
 8585TIP3    H125719   6.174   5.934   2.047
 8585TIP3    H225720   6.077   6.044   2.010
 8586TIP3   OH225721   5.301   3.629   2.232
 8586TIP3    H125722   5.246   3.551   2.238
 8586TIP3    H225723   5.325   3.647   2.323
 8587TIP3   OH225724   3.322   2.391   1.679
 8587TIP3    H125725   3.388   2.453   1.710
 8587TIP3    H225726   3.287   2.351   1.758
 8588TIP3   OH225727   2.706   5.230   2.146
 8588TIP3    H125728   2.671   5.141   2.141
 8588TIP3    H225729   2.800   5.217   2.159
 8589TIP3   OH225730   6.871   5.984   5.733
 8589TIP3    H125731   6.854   5.908   5.678
 8589TIP3    H225732   6.896   6.053   5.671
 8590TIP3   OH225733   3.346   0.390   3.940
 8590TIP3    H125734   3.378   0.477   3.963
 8590TIP3    H225735   3.344   0.341   4.022
 8591TIP3   OH225736   7.098   0.914   4.798
 8591TIP3    H125737   7.115   0.820   4.802
 8591TIP3    H225738   7.178   0.952   4.763
 8592TIP3   OH225739   4.680   3.249   2.290
 8592TIP3    H125740   4.719   3.322   2.339
 8592TIP3    H225741   4.633   3.291   2.218
 8593TIP3   OH225742   0.411   5.996   2.834
 8593TIP3    H125743   0.327   6.040   2.818
 8593TIP3    H225744   0.419   5.932   2.763
 8594TIP3   OH225745   1.832   2.212   1.245
 8594TIP3    H125746   1.831   2.299   1.285
 8594TIP3    H225747   1.827   2.152   1.320
 8595TIP3   OH225748   4.182   4.666   3.055
 8595TIP3    H125749   4.127   4.686   3.131
 8595TIP3    H225750   4.125   4.619   2.995
 8596TIP3   OH225751   1.502   0.809   5.525
 8596TIP3    H125752   1.550   0.850   5.452
 8596TIP3    H225753   1.521   0.715   5.515
 8597TIP3   OH225754   1.567   4.986   1.344
 8597TIP3    H125755   1.595   4.929   1.273
 8597TIP3    H225756   1.641   4.989   1.404
 8598TIP3   OH225757   6.647   4.294   2.426
 8598TIP3    H125758   6.659   4.284   2.331
 8598TIP3    H225759   6.734   4.279   2.463
 8599TIP3   OH225760   4.354   5.226   2.959
 8599TIP3    H125761   4.424   5.176   2.918
 8599TIP3    H225762   4.390   5.254   3.043
 8600TIP3   OH225763   3.677   1.741   5.480
 8600TIP3    H125764   3.642   1.804   5.416
 8600TIP3    H225765   3.665   1.656   5.439
 8601TIP3   OH225766   0.784   0.543   1.316
 8601TIP3    H125767   0.813   0.577   1.231
 8601TIP3    H225768   0.807   0.612   1.378
 8602TIP3   OH225769   6.371   6.039   0.225
 8602TIP3    H125770   6.299   5.993   0.182
 8602TIP3    H225771   6.391   6.112   0.167
 8603TIP3   OH225772   2.222   4.750   2.356
 8603TIP3    H125773   2.312   4.773   2.376
 8603TIP3    H225774   2.192   4.700   2.431
 8604TIP3   OH225775   1.948   2.085   3.722
 8604TIP3    H125776   2.007   2.031   3.670
 8604TIP3    H225777   1.861   2.049   3.705
 8605TIP3   OH225778   4.779   6.415   2.086
 8605TIP3    H125779   4.732   6.342   2.125
 8605TIP3    H225780   4.737   6.430   2.002
 8606TIP3   OH225781   7.294   3.098   0.187
 8606TIP3    H125782   7.203   3.068   0.182
 8606TIP3    H225783   7.294   3.181   0.140
 8607TIP3   OH225784   0.341   3.496   1.255
 8607TIP3    H125785   0.330   3.431   1.325
 8607TIP3    H225786   0.325   3.580   1.298
 8608TIP3   OH225787   4.113   4.569   1.556
 8608TIP3    H125788   4.057   4.572   1.479
 8608TIP3    H225789   4.077   4.635   1.615
 8609TIP3   OH225790   6.734   0.574   4.230
 8609TIP3    H125791   6.741   0.556   4.324
 8609TIP3    H225792   6.673   0.508   4.197
 8610TIP3   OH225793   0.444   0.955   4.255
 8610TIP3    H125794   0.480   0.932   4.341
 8610TIP3    H225795   0.350   0.945   4.265
 8611TIP3   OH225796   5.263   2.193   3.790
 8611TIP3    H125797   5.187   2.243   3.820
 8611TIP3    H225798   5.310   2.171   3.871
 8612TIP3   OH225799   3.428   1.449   1.538
 8612TIP3    H125800   3.382   1.519   1.492
 8612TIP3    H225801   3.424   1.474   1.630
 8613TIP3   OH225802   4.443   4.796   0.337
 8613TIP3    H125803   4.500   4.832   0.269
 8613TIP3    H225804   4.435   4.703   0.315
 8614TIP3   OH225805   4.592   2.304   3.349
 8614TIP3    H125806   4.608   2.303   3.443
 8614TIP3    H225807   4.679   2.307   3.310
 8615TIP3   OH225808   4.567   0.806   0.762
 8615TIP3    H125809   4.481   0.835   0.794
 8615TIP3    H225810   4.613   0.777   0.841
 8616TIP3   OH225811   2.024   1.412   0.664
 8616TIP3    H125812   2.103   1.424   0.716
 8616TIP3    H225813   1.961   1.475   0.700
 8617TIP3   OH225814   5.827   1.124   4.953
 8617TIP3    H125815   5.869   1.074   4.883
 8617TIP3    H225816   5.846   1.215   4.932
 8618TIP3   OH225817   3.122   6.055   2.621
 8618TIP3    H125818   3.197   6.082   2.674
 8618TIP3    H225819   3.048   6.105   2.655
 8619TIP3   OH225820   4.977   0.102   1.633
 8619TIP3    H125821   5.021   0.164   1.691
 8619TIP3    H225822   4.953   0.029   1.690
 8620TIP3   OH225823   3.733   2.258   4.625
 8620TIP3    H125824   3.648   2.284   4.591
 8620TIP3    H225825   3.746   2.169   4.592
 8621TIP3   OH225826   3.741   3.444   2.923
 8621TIP3    H125827   3.751   3.531   2.961
 8621TIP3    H225828   3.661   3.409   2.962
 8622TIP3   OH225829   6.358   3.127   4.552
 8622TIP3    H125830   6.271   3.143   4.515
 8622TIP3    H225831   6.354   3.164   4.640
 8623TIP3   OH225832   3.734   6.402   3.720
 8623TIP3    H125833   3.646   6.418   3.753
 8623TIP3    H225834   3.759   6.317   3.757
 8624TIP3   OH225835   0.540   0.105   2.637
 8624TIP3    H125836   0.599   0.142   2.572
 8624TIP3    H225837   0.503   0.027   2.595
 8625TIP3   OH225838   1.351   2.831   4.935
 8625TIP3    H125839   1.306   2.811   5.017
 8625TIP3    H225840   1.375   2.745   4.900
 8626TIP3   OH225841   1.301   4.266   0.669
 8626TIP3    H125842   1.325   4.260   0.576
 8626TIP3    H225843   1.294   4.174   0.698
 8627TIP3   OH225844   2.779   0.057   4.252
 8627TIP3    H125845   2.801   0.089   4.165
 8627TIP3    H225846   2.827  -0.025   4.261
 8628TIP3   OH225847   4.405   5.526   1.686
 8628TIP3    H125848   4.475   5.583   1.717
 8628TIP3    H225849   4.336   5.586   1.659
 8629TIP3   OH225850   1.731   4.072   3.052
 8629TIP3    H125851   1.804   4.071   2.989
 8629TIP3    H225852   1.721   3.981   3.078
 8630TIP3   OH225853   6.516   4.630   5.062
 8630TIP3    H125854   6.555   4.715   5.042
 8630TIP3    H225855   6.573   4.593   5.130
 8631TIP3   OH225856   5.649   6.181   0.593
 8631TIP3    H125857   5.672   6.124   0.666
 8631TIP3    H225858   5.676   6.132   0.515
 8632TIP3   OH225859   3.751   5.703   4.596
 8632TIP3    H125860   3.818   5.719   4.530
 8632TIP3    H225861   3.675   5.753   4.565
 8633TIP3   OH225862   2.581   3.242   4.417
 8633TIP3    H125863   2.631   3.313   4.456
 8633TIP3    H225864   2.504   3.233   4.473
 8634TIP3   OH225865   2.341   3.828   4.087
 8634TIP3    H125866   2.282   3.896   4.121
 8634TIP3    H225867   2.289   3.781   4.023
 8635TIP3   OH225868   6.376   5.785   2.657
 8635TIP3    H125869   6.295   5.833   2.643
 8635TIP3    H225870   6.349   5.698   2.688
 8636TIP3   OH225871   0.521   2.437   3.927
 8636TIP3    H125872   0.439   2.391   3.913
 8636TIP3    H225873   0.538   2.427   4.021
 8637TIP3   OH225874   2.900   3.134   0.167
 8637TIP3    H125875   2.840   3.200   0.201
 8637TIP3    H225876   2.885   3.134   0.073
 8638TIP3   OH225877   7.102   1.988   2.993
 8638TIP3    H125878   7.149   1.907   2.973
 8638TIP3    H225879   7.010   1.961   3.001
 8639TIP3   OH225880   5.695   6.062   2.025
 8639TIP3    H125881   5.655   6.124   2.086
 8639TIP3    H225882   5.727   6.116   1.953
 8640TIP3   OH225883   7.040   3.328   4.799
 8640TIP3    H125884   6.979   3.278   4.744
 8640TIP3    H225885   6.996   3.336   4.883
 8641TIP3   OH225886   1.274   5.051   0.502
 8641TIP3    H125887   1.368   5.071   0.500
 8641TIP3    H225888   1.239   5.097   0.426
 8642TIP3   OH225889   2.033  -0.008   1.636
 8642TIP3    H125890   1.993   0.061   1.689
 8642TIP3    H225891   2.004   0.011   1.547
 8643TIP3   OH225892   3.760   1.538   5.275
 8643TIP3    H125893   3.796   1.526   5.188
 8643TIP3    H225894   3.836   1.548   5.332
 8644TIP3   OH225895   2.931   3.125   4.415
 8644TIP3    H125896   2.898   3.059   4.354
 8644TIP3    H225897   3.012   3.088   4.448
 8645TIP3   OH225898   5.652   1.253   2.990
 8645TIP3    H125899   5.562   1.228   2.971
 8645TIP3    H225900   5.663   1.233   3.083
 8646TIP3   OH225901   6.339   4.713   0.938
 8646TIP3    H125902   6.370   4.624   0.920
 8646TIP3    H225903   6.252   4.699   0.977
 8647TIP3   OH225904   4.943   4.026   1.098
 8647TIP3    H125905   4.885   4.070   1.160
 8647TIP3    H225906   4.914   3.935   1.098
 8648TIP3   OH225907   3.015   6.344   0.103
 8648TIP3    H125908   3.107   6.362   0.083
 8648TIP3    H225909   2.992   6.269   0.049
 8649TIP3   OH225910   1.402   4.143   2.242
 8649TIP3    H125911   1.402   4.052   2.270
 8649TIP3    H225912   1.318   4.154   2.197
 8650TIP3   OH225913   6.838   3.203   5.569
 8650TIP3    H125914   6.879   3.225   5.486
 8650TIP3    H225915   6.815   3.288   5.608
 8651TIP3   OH225916   0.918   0.639   1.072
 8651TIP3    H125917   0.879   0.719   1.107
 8651TIP3    H225918   0.908   0.646   0.977
 8652TIP3   OH225919   6.284   2.644   2.054
 8652TIP3    H125920   6.311   2.721   2.004
 8652TIP3    H225921   6.190   2.654   2.064
 8653TIP3   OH225922   3.410   5.251   4.972
 8653TIP3    H125923   3.422   5.309   5.047
 8653TIP3    H225924   3.442   5.166   5.001
 8654TIP3   OH225925   7.160   2.412   4.614
 8654TIP3    H125926   7.183   2.328   4.573
 8654TIP3    H225927   7.072   2.431   4.582
 8655TIP3   OH225928   1.829   3.588   4.932
 8655TIP3    H125929   1.764   3.519   4.930
 8655TIP3    H225930   1.904   3.550   4.979
 8656TIP3   OH225931   0.572   2.873   5.424
 8656TIP3    H125932   0.526   2.931   5.363
 8656TIP3    H225933   0.663   2.873   5.394
 8657TIP3   OH225934   6.612   5.665   5.594
 8657TIP3    H125935   6.596   5.580   5.553
 8657TIP3    H225936   6.525   5.700   5.611
 8658TIP3   OH225937   5.453   5.808   5.301
 8658TIP3    H125938   5.485   5.724   5.335
 8658TIP3    H225939   5.470   5.803   5.207
 8659TIP3   OH225940   3.825   5.812   2.948
 8659TIP3    H125941   3.836   5.719   2.925
 8659TIP3    H225942   3.854   5.859   2.870
 8660TIP3   OH225943   1.456   4.037   3.139
 8660TIP3    H125944   1.429   3.956   3.096
 8660TIP3    H225945   1.548   4.048   3.113
 8661TIP3   OH225946   6.367   1.199   2.207
 8661TIP3    H125947   6.336   1.253   2.134
 8661TIP3    H225948   6.403   1.261   2.270
 8662TIP3   OH225949   6.502   5.098   2.904
 8662TIP3    H125950   6.525   5.075   2.994
 8662TIP3    H225951   6.429   5.040   2.882
 8663TIP3   OH225952   4.149   0.963   3.390
 8663TIP3    H125953   4.223   1.003   3.344
 8663TIP3    H225954   4.153   0.870   3.365
 8664TIP3   OH225955   6.416   1.111   0.116
 8664TIP3    H125956   6.492   1.168   0.101
 8664TIP3    H225957   6.347   1.171   0.146
 8665TIP3   OH225958   4.985   1.650   0.073
 8665TIP3    H125959   4.963   1.568   0.118
 8665TIP3    H225960   5.054   1.689   0.127
 8666TIP3   OH225961   5.093   2.110   0.120
 8666TIP3    H125962   5.093   2.176   0.189
 8666TIP3    H225963   5.000   2.091   0.106
 8667TIP3   OH225964   3.906   1.051   4.042
 8667TIP3    H125965   3.826   1.070   3.993
 8667TIP3    H225966   3.888   1.082   4.131
 8668TIP3   OH225967   5.960   2.026   0.846
 8668TIP3    H125968   5.913   1.972   0.782
 8668TIP3    H225969   5.953   2.115   0.812
 8669TIP3   OH225970   6.149   5.802   4.490
 8669TIP3    H125971   6.145   5.897   4.475
 8669TIP3    H225972   6.219   5.791   4.554
 8670TIP3   OH225973   1.624   5.441   4.766
 8670TIP3    H125974   1.645   5.528   4.730
 8670TIP3    H225975   1.557   5.459   4.832
 8671TIP3   OH225976   7.045   2.282   4.010
 8671TIP3    H125977   6.966   2.274   4.063
 8671TIP3    H225978   7.062   2.192   3.981
 8672TIP3   OH225979   5.472   5.080   0.449
 8672TIP3    H125980   5.432   5.134   0.518
 8672TIP3    H225981   5.464   4.991   0.482
 8673TIP3   OH225982   6.051   6.197   2.109
 8673TIP3    H125983   6.136   6.240   2.098
 8673TIP3    H225984   6.057   6.156   2.196
 8674TIP3   OH225985   5.042   1.996   1.100
 8674TIP3    H125986   5.084   1.930   1.044
 8674TIP3    H225987   4.966   2.025   1.051
 8675TIP3   OH225988   7.092   0.749   3.806
 8675TIP3    H125989   7.023   0.796   3.853
 8675TIP3    H225990   7.055   0.733   3.719
 8676TIP3   OH225991   3.813   6.785   1.474
 8676TIP3    H125992   3.831   6.727   1.400
 8676TIP3    H225993   3.894   6.785   1.525
 8677TIP3   OH225994   2.031   1.897   5.190
 8677TIP3    H125995   2.092   1.960   5.151
 8677TIP3    H225996   2.069   1.812   5.169
 8678TIP3   OH225997   5.382   0.900   2.905
 8678TIP3    H125998   5.313   0.880   2.842
 8678TIP3    H225999   5.352   0.979   2.949
 8679TIP3   OH226000   4.916   0.592   4.609
 8679TIP3    H126001   4.974   0.518   4.595
 8679TIP3    H226002   4.867   0.601   4.527
 8680TIP3   OH226003   4.907   2.220   1.394
 8680TIP3    H126004   4.909   2.312   1.368
 8680TIP3    H226005   4.852   2.178   1.328
 8681TIP3   OH226006   5.688   3.881   0.565
 8681TIP3    H126007   5.633   3.824   0.618
 8681TIP3    H226008   5.772   3.884   0.611
 8682TIP3   OH226009  -0.014   3.515   2.388
 8682TIP3    H126010   0.065   3.479   2.429
 8682TIP3    H226011  -0.066   3.549   2.462
 8683TIP3   OH226012   2.091   3.834   5.482
 8683TIP3    H126013   2.114   3.751   5.441
 8683TIP3    H226014   2.027   3.873   5.423
 8684TIP3   OH226015   3.629   4.013   1.629
 8684TIP3    H126016   3.653   3.987   1.540
 8684TIP3    H226017   3.712   4.036   1.670
 8685TIP3   OH226018   7.052   5.424   2.401
 8685TIP3    H126019   7.045   5.346   2.347
 8685TIP3    H226020   6.970   5.470   2.389
 8686TIP3   OH226021   0.760   6.386   3.677
 8686TIP3    H126022   0.785   6.316   3.737
 8686TIP3    H226023   0.809   6.463   3.707
 8687TIP3   OH226024   3.540   3.659   1.165
 8687TIP3    H126025   3.557   3.736   1.219
 8687TIP3    H226026   3.627   3.628   1.139
 8688TIP3   OH226027   3.518   0.625   3.994
 8688TIP3    H126028   3.606   0.612   3.957
 8688TIP3    H226029   3.534   0.662   4.081
 8689TIP3   OH226030   5.648   2.728   5.686
 8689TIP3    H126031   5.711   2.758   5.752
 8689TIP3    H226032   5.563   2.734   5.730
 8690TIP3   OH226033   6.804   5.989   3.964
 8690TIP3    H126034   6.783   5.908   4.009
 8690TIP3    H226035   6.836   5.962   3.878
 8691TIP3   OH226036   2.252   1.809   2.319
 8691TIP3    H126037   2.173   1.842   2.362
 8691TIP3    H226038   2.290   1.886   2.278
 8692TIP3   OH226039   7.021   3.139   0.364
 8692TIP3    H126040   7.004   3.171   0.452
 8692TIP3    H226041   7.013   3.044   0.370
 8693TIP3   OH226042   1.170   6.500   2.158
 8693TIP3    H126043   1.207   6.589   2.161
 8693TIP3    H226044   1.186   6.464   2.245
 8694TIP3   OH226045   2.831   1.605   0.280
 8694TIP3    H126046   2.834   1.525   0.228
 8694TIP3    H226047   2.750   1.649   0.252
 8695TIP3   OH226048   5.628   2.421   0.839
 8695TIP3    H126049   5.612   2.464   0.755
 8695TIP3    H226050   5.681   2.484   0.888
 8696TIP3   OH226051   3.296   6.716   0.808
 8696TIP3    H126052   3.349   6.637   0.819
 8696TIP3    H226053   3.347   6.785   0.850
 8697TIP3   OH226054   4.372   5.421   5.117
 8697TIP3    H126055   4.420   5.418   5.034
 8697TIP3    H226056   4.283   5.391   5.094
 8698TIP3   OH226057   1.470   2.746   2.912
 8698TIP3    H126058   1.481   2.766   3.004
 8698TIP3    H226059   1.409   2.812   2.879
 8699TIP3   OH226060   6.727   3.720   3.730
 8699TIP3    H126061   6.786   3.685   3.663
 8699TIP3    H226062   6.766   3.695   3.813
 8700TIP3   OH226063   2.808   5.291   1.827
 8700TIP3    H126064   2.799   5.208   1.781
 8700TIP3    H226065   2.793   5.270   1.919
 8701TIP3   OH226066   7.123   3.084   1.026
 8701TIP3    H126067   7.105   3.149   0.957
 8701TIP3    H226068   7.187   3.126   1.083
 8702TIP3   OH226069   2.649   2.204   5.389
 8702TIP3    H126070   2.616   2.282   5.344
 8702TIP3    H226071   2.724   2.235   5.439
 8703TIP3   OH226072   2.572   5.213   0.713
 8703TIP3    H126073   2.656   5.208   0.758
 8703TIP3    H226074   2.595   5.231   0.622
 8704TIP3   OH226075   4.097   5.327   1.320
 8704TIP3    H126076   4.163   5.259   1.307
 8704TIP3    H226077   4.090   5.336   1.415
 8705TIP3   OH226078   0.116   2.423   2.431
 8705TIP3    H126079   0.021   2.418   2.426
 8705TIP3    H226080   0.141   2.478   2.357
 8706TIP3   OH226081   5.380   0.244   5.824
 8706TIP3    H126082   5.392   0.290   5.741
 8706TIP3    H226083   5.292   0.269   5.853
 8707TIP3   OH226084  -0.015   0.354   1.670
 8707TIP3    H126085   0.008   0.430   1.723
 8707TIP3    H226086   0.009   0.379   1.580
 8708TIP3   OH226087   6.171   4.969   1.924
 8708TIP3    H126088   6.258   4.939   1.897
 8708TIP3    H226089   6.114   4.948   1.850
 8709TIP3   OH226090   3.707   5.291   3.611
 8709TIP3    H126091   3.801   5.271   3.618
 8709TIP3    H226092   3.704   5.385   3.595
 8710TIP3   OH226093   6.572   0.608   2.578
 8710TIP3    H126094   6.545   0.543   2.643
 8710TIP3    H226095   6.573   0.560   2.495
 8711TIP3   OH226096   7.031   5.638   5.216
 8711TIP3    H126097   6.949   5.646   5.264
 8711TIP3    H226098   7.082   5.573   5.264
 8712TIP3   OH226099   3.074   3.576   0.784
 8712TIP3    H126100   3.030   3.563   0.868
 8712TIP3    H226101   3.070   3.671   0.769
 8713TIP3   OH226102   6.369   3.783   5.819
 8713TIP3    H126103   6.387   3.807   5.910
 8713TIP3    H226104   6.442   3.725   5.795
 8714TIP3   OH226105   0.318   4.013   0.974
 8714TIP3    H126106   0.327   4.079   1.043
 8714TIP3    H226107   0.232   4.031   0.935
 8715TIP3   OH226108   3.829   1.390   0.050
 8715TIP3    H126109   3.742   1.429   0.059
 8715TIP3    H226110   3.819   1.300   0.081
 8716TIP3   OH226111   3.856   2.325   4.322
 8716TIP3    H126112   3.906   2.388   4.373
 8716TIP3    H226113   3.797   2.284   4.385
 8717TIP3   OH226114   2.530   1.153   2.076
 8717TIP3    H126115   2.587   1.203   2.018
 8717TIP3    H226116   2.491   1.086   2.020
 8718TIP3   OH226117   4.809   0.337   1.608
 8718TIP3    H126118   4.836   0.249   1.585
 8718TIP3    H226119   4.716   0.329   1.632
 8719TIP3   OH226120   4.425   2.108   2.020
 8719TIP3    H126121   4.429   2.132   1.927
 8719TIP3    H226122   4.448   2.015   2.021
 8720TIP3   OH226123   4.488   0.969   3.062
 8720TIP3    H126124   4.573   1.009   3.045
 8720TIP3    H226125   4.484   0.894   3.003
 8721TIP3   OH226126   1.206   0.366   0.309
 8721TIP3    H126127   1.295   0.371   0.344
 8721TIP3    H226128   1.215   0.315   0.228
 8722TIP3   OH226129   5.259   1.201   3.848
 8722TIP3    H126130   5.190   1.266   3.861
 8722TIP3    H226131   5.276   1.203   3.754
 8723TIP3   OH226132   6.343   5.786   2.355
 8723TIP3    H126133   6.390   5.797   2.437
 8723TIP3    H226134   6.257   5.751   2.380
 8724TIP3   OH226135   2.758   2.658   4.055
 8724TIP3    H126136   2.831   2.605   4.087
 8724TIP3    H226137   2.737   2.717   4.127
 8725TIP3   OH226138   0.292   0.732   4.550
 8725TIP3    H126139   0.366   0.707   4.494
 8725TIP3    H226140   0.333   0.768   4.629
 8726TIP3   OH226141   2.909   0.302   5.815
 8726TIP3    H126142   2.934   0.339   5.731
 8726TIP3    H226143   2.937   0.367   5.879
 8727TIP3   OH226144   4.475   1.114   0.853
 8727TIP3    H126145   4.475   1.023   0.883
 8727TIP3    H226146   4.508   1.109   0.763
 8728TIP3   OH226147   6.040   6.752   3.978
 8728TIP3    H126148   5.967   6.732   4.037
 8728TIP3    H226149   6.109   6.692   4.003
 8729TIP3   OH226150   6.631   3.765   5.281
 8729TIP3    H126151   6.603   3.851   5.314
 8729TIP3    H226152   6.594   3.702   5.342
 8730TIP3   OH226153   4.568   3.157   5.310
 8730TIP3    H126154   4.613   3.228   5.357
 8730TIP3    H226155   4.632   3.086   5.307
 8731TIP3   OH226156   1.172   1.903   3.661
 8731TIP3    H126157   1.082   1.918   3.692
 8731TIP3    H226158   1.223   1.975   3.699
 8732TIP3   OH226159   3.201   4.996   3.417
 8732TIP3    H126160   3.254   5.002   3.496
 8732TIP3    H226161   3.242   4.926   3.366
 8733TIP3   OH226162   6.636   6.545   5.636
 8733TIP3    H126163   6.688   6.520   5.560
 8733TIP3    H226164   6.609   6.462   5.675
 8734TIP3   OH226165   2.537   6.710   1.835
 8734TIP3    H126166   2.594   6.636   1.810
 8734TIP3    H226167   2.526   6.701   1.930
 8735TIP3   OH226168   0.394   1.759   3.445
 8735TIP3    H126169   0.320   1.711   3.483
 8735TIP3    H226170   0.420   1.706   3.370
 8736TIP3   OH226171   3.724   2.746   5.833
 8736TIP3    H126172   3.816   2.769   5.848
 8736TIP3    H226173   3.676   2.796   5.898
 8737TIP3   OH226174   0.467   5.289   3.530
 8737TIP3    H126175   0.418   5.351   3.476
 8737TIP3    H226176   0.529   5.248   3.470
 8738TIP3   OH226177   4.864   3.919   3.929
 8738TIP3    H126178   4.845   3.902   4.022
 8738TIP3    H226179   4.812   3.855   3.882
 8739TIP3   OH226180   2.205   3.559   3.518
 8739TIP3    H126181   2.162   3.485   3.476
 8739TIP3    H226182   2.295   3.531   3.531
 8740TIP3   OH226183   4.451   0.711   0.456
 8740TIP3    H126184   4.370   0.684   0.500
 8740TIP3    H226185   4.510   0.736   0.526
 8741TIP3   OH226186   3.854   3.546   1.424
 8741TIP3    H126187   3.813   3.514   1.504
 8741TIP3    H226188   3.919   3.479   1.401
 8742TIP3   OH226189   6.801   3.669   2.949
 8742TIP3    H126190   6.839   3.596   2.998
 8742TIP3    H226191   6.877   3.720   2.920
 8743TIP3   OH226192   5.061   4.030   2.805
 8743TIP3    H126193   5.092   3.979   2.881
 8743TIP3    H226194   5.139   4.041   2.750
 8744TIP3   OH226195   1.957   3.116   5.496
 8744TIP3    H126196   2.040   3.095   5.540
 8744TIP3    H226197   1.895   3.132   5.567
 8745TIP3   OH226198   4.757   4.711   0.479
 8745TIP3    H126199   4.730   4.703   0.570
 8745TIP3    H226200   4.845   4.674   0.477
 8746TIP3   OH226201   0.167   4.450   1.853
 8746TIP3    H126202   0.238   4.409   1.902
 8746TIP3    H226203   0.201   4.458   1.764
 8747TIP3   OH226204   4.829   1.187   3.319
 8747TIP3    H126205   4.765   1.200   3.389
 8747TIP3    H226206   4.804   1.248   3.251
 8748TIP3   OH226207   1.861   1.192   0.128
 8748TIP3    H126208   1.954   1.191   0.151
 8748TIP3    H226209   1.819   1.143   0.199
 8749TIP3   OH226210   6.135   1.615   3.913
 8749TIP3    H126211   6.124   1.559   3.990
 8749TIP3    H226212   6.177   1.558   3.848
 8750TIP3   OH226213   4.862   1.701   2.148
 8750TIP3    H126214   4.834   1.697   2.239
 8750TIP3    H226215   4.957   1.717   2.153
 8751TIP3   OH226216   1.469   0.613   1.253
 8751TIP3    H126217   1.558   0.648   1.250
 8751TIP3    H226218   1.460   0.562   1.172
 8752TIP3   OH226219   2.189   5.339   1.152
 8752TIP3    H126220   2.273   5.314   1.114
 8752TIP3    H226221   2.161   5.414   1.100
 8753TIP3   OH226222   1.755   5.825   1.085
 8753TIP3    H126223   1.769   5.735   1.115
 8753TIP3    H226224   1.834   5.872   1.112
 8754TIP3   OH226225   1.926   1.813   4.144
 8754TIP3    H126226   1.898   1.727   4.177
 8754TIP3    H226227   2.000   1.837   4.200
 8755TIP3   OH226228   4.926   1.344   0.991
 8755TIP3    H126229   4.908   1.255   1.020
 8755TIP3    H226230   4.891   1.400   1.060
 8756TIP3   OH226231   2.842   2.364   3.076
 8756TIP3    H126232   2.761   2.360   3.127
 8756TIP3    H226233   2.852   2.457   3.056
 8757TIP3   OH226234   5.069   6.190   1.918
 8757TIP3    H126235   5.143   6.145   1.957
 8757TIP3    H226236   4.997   6.176   1.979
 8758TIP3   OH226237   3.975   5.339   3.883
 8758TIP3    H126238   3.971   5.324   3.789
 8758TIP3    H226239   4.048   5.400   3.894
 8759TIP3   OH226240   4.042   1.864   0.724
 8759TIP3    H126241   4.115   1.802   0.732
 8759TIP3    H226242   4.083   1.945   0.695
 8760TIP3   OH226243   6.794   1.474   4.146
 8760TIP3    H126244   6.856   1.501   4.214
 8760TIP3    H226245   6.804   1.540   4.077
 8761TIP3   OH226246   1.874   4.441   5.444
 8761TIP3    H126247   1.796   4.457   5.496
 8761TIP3    H226248   1.847   4.378   5.378
 8762TIP3   OH226249   5.461   4.074   0.953
 8762TIP3    H126250   5.394   4.015   0.988
 8762TIP3    H226251   5.544   4.041   0.990
 8763TIP3   OH226252   3.080   0.645   4.655
 8763TIP3    H126253   2.992   0.627   4.690
 8763TIP3    H226254   3.092   0.579   4.586
 8764TIP3   OH226255   1.035   3.006   4.103
 8764TIP3    H126256   0.992   3.008   4.018
 8764TIP3    H226257   0.983   2.945   4.155
 8765TIP3   OH226258   0.451   3.048   5.229
 8765TIP3    H126259   0.501   3.004   5.160
 8765TIP3    H226260   0.361   3.046   5.197
 8766TIP3   OH226261   6.400   4.301   0.201
 8766TIP3    H126262   6.393   4.312   0.296
 8766TIP3    H226263   6.447   4.218   0.190
 8767TIP3   OH226264   2.897   6.620   2.949
 8767TIP3    H126265   2.968   6.624   2.885
 8767TIP3    H226266   2.939   6.594   3.031
 8768TIP3   OH226267   0.745   3.401   2.522
 8768TIP3    H126268   0.668   3.345   2.534
 8768TIP3    H226269   0.709   3.489   2.515
 8769TIP3   OH226270   1.544   1.867   0.962
 8769TIP3    H126271   1.625   1.853   1.011
 8769TIP3    H226272   1.570   1.923   0.888
 8770TIP3   OH226273   6.352   0.826   3.403
 8770TIP3    H126274   6.388   0.911   3.379
 8770TIP3    H226275   6.264   0.825   3.365
 8771TIP3   OH226276   4.059   3.883   5.060
 8771TIP3    H126277   4.034   3.882   4.967
 8771TIP3    H226278   4.063   3.790   5.084
 8772TIP3   OH226279   1.139   5.333   1.541
 8772TIP3    H126280   1.136   5.414   1.490
 8772TIP3    H226281   1.191   5.273   1.488
 8773TIP3   OH226282   4.660   2.681   0.204
 8773TIP3    H126283   4.571   2.707   0.181
 8773TIP3    H226284   4.653   2.588   0.226
 8774TIP3   OH226285   3.602   4.161   3.281
 8774TIP3    H126286   3.660   4.180   3.355
 8774TIP3    H226287   3.588   4.246   3.240
 8775TIP3   OH226288   5.682   1.805   1.424
 8775TIP3    H126289   5.619   1.833   1.490
 8775TIP3    H226290   5.751   1.872   1.428
 8776TIP3   OH226291   4.234   4.097   2.262
 8776TIP3    H126292   4.248   4.153   2.338
 8776TIP3    H226293   4.310   4.114   2.206
 8777TIP3   OH226294   0.648   3.924   2.400
 8777TIP3    H126295   0.566   3.971   2.421
 8777TIP3    H226296   0.677   3.963   2.318
 8778TIP3   OH226297   2.477   3.575   3.678
 8778TIP3    H126298   2.535   3.646   3.648
 8778TIP3    H226299   2.496   3.502   3.619
 8779TIP3   OH226300   5.802   2.477   4.586
 8779TIP3    H126301   5.854   2.445   4.513
 8779TIP3    H226302   5.714   2.486   4.550
 8780TIP3   OH226303   1.058   4.359   4.723
 8780TIP3    H126304   1.063   4.267   4.747
 8780TIP3    H226305   1.140   4.377   4.677
 8781TIP3   OH226306   1.324   4.307   2.448
 8781TIP3    H126307   1.374   4.261   2.381
 8781TIP3    H226308   1.265   4.364   2.400
 8782TIP3   OH226309   4.806   0.824   3.873
 8782TIP3    H126310   4.891   0.859   3.898
 8782TIP3    H226311   4.827   0.746   3.820
 8783TIP3   OH226312   0.078   5.892   3.932
 8783TIP3    H126313   0.163   5.904   3.974
 8783TIP3    H226314   0.036   5.821   3.980
 8784TIP3   OH226315   2.018   6.214   0.562
 8784TIP3    H126316   2.095   6.270   0.567
 8784TIP3    H226317   2.048   6.136   0.515
 8785TIP3   OH226318   0.282   5.081   1.910
 8785TIP3    H126319   0.224   5.041   1.975
 8785TIP3    H226320   0.364   5.031   1.917
 8786TIP3   OH226321   4.209   3.161   0.924
 8786TIP3    H126322   4.128   3.211   0.935
 8786TIP3    H226323   4.228   3.167   0.830
 8787TIP3   OH226324   3.191   3.940   1.850
 8787TIP3    H126325   3.261   3.979   1.799
 8787TIP3    H226326   3.110   3.968   1.806
 8788TIP3   OH226327   4.552   1.321   5.320
 8788TIP3    H126328   4.549   1.229   5.347
 8788TIP3    H226329   4.627   1.325   5.259
 8789TIP3   OH226330   6.891   0.436   1.751
 8789TIP3    H126331   6.955   0.371   1.781
 8789TIP3    H226332   6.936   0.483   1.680
 8790TIP3   OH226333   5.352   6.391   4.635
 8790TIP3    H126334   5.268   6.383   4.591
 8790TIP3    H226335   5.331   6.389   4.728
 8791TIP3   OH226336   1.152   3.489   2.537
 8791TIP3    H126337   1.166   3.486   2.443
 8791TIP3    H226338   1.111   3.405   2.558
 8792TIP3   OH226339   6.909   1.344   3.846
 8792TIP3    H126340   6.828   1.294   3.840
 8792TIP3    H226341   6.920   1.381   3.758
 8793TIP3   OH226342   4.928   2.220   3.524
 8793TIP3    H126343   4.946   2.285   3.592
 8793TIP3    H226344   5.008   2.169   3.518
 8794TIP3   OH226345   1.832   6.552   0.018
 8794TIP3    H126346   1.834   6.550   0.113
 8794TIP3    H226347   1.916   6.514  -0.008
 8795TIP3   OH226348   1.472   1.403   4.478
 8795TIP3    H126349   1.518   1.365   4.402
 8795TIP3    H226350   1.541   1.443   4.530
 8796TIP3   OH226351   4.960   5.476   4.133
 8796TIP3    H126352   4.875   5.432   4.129
 8796TIP3    H226353   5.018   5.412   4.174
 8797TIP3   OH226354   0.908   4.161   3.130
 8797TIP3    H126355   1.000   4.168   3.105
 8797TIP3    H226356   0.860   4.178   3.048
 8798TIP3   OH226357   0.258   4.913   5.505
 8798TIP3    H126358   0.322   4.863   5.554
 8798TIP3    H226359   0.309   4.981   5.461
 8799TIP3   OH226360   6.794   6.660   4.666
 8799TIP3    H126361   6.744   6.632   4.743
 8799TIP3    H226362   6.752   6.616   4.592
 8800TIP3   OH226363   1.864   5.349   1.548
 8800TIP3    H126364   1.926   5.411   1.509
 8800TIP3    H226365   1.782   5.399   1.554
 8801TIP3   OH226366   2.552   1.852   2.496
 8801TIP3    H126367   2.513   1.765   2.482
 8801TIP3    H226368   2.478   1.907   2.521
 8802TIP3   OH226369   4.179   0.978   2.629
 8802TIP3    H126370   4.203   0.944   2.715
 8802TIP3    H226371   4.084   0.965   2.624
 8803TIP3   OH226372   1.051   0.666   5.099
 8803TIP3    H126373   1.127   0.720   5.121
 8803TIP3    H226374   0.981   0.730   5.082
 8804TIP3   OH226375   0.400   4.938   2.600
 8804TIP3    H126376   0.414   5.001   2.530
 8804TIP3    H226377   0.463   4.961   2.668
 8805TIP3   OH226378   3.559   3.431   0.454
 8805TIP3    H126379   3.537   3.465   0.367
 8805TIP3    H226380   3.495   3.471   0.512
 8806TIP3   OH226381   3.256   0.940   1.977
 8806TIP3    H126382   3.338   0.935   2.027
 8806TIP3    H226383   3.222   0.851   1.978
 8807TIP3   OH226384   1.500   3.643   2.823
 8807TIP3    H126385   1.423   3.646   2.766
 8807TIP3    H226386   1.464   3.628   2.910
 8808TIP3   OH226387   4.434   0.188   3.808
 8808TIP3    H126388   4.480   0.139   3.875
 8808TIP3    H226389   4.415   0.273   3.849
 8809TIP3   OH226390   1.198   3.216   5.721
 8809TIP3    H126391   1.259   3.167   5.777
 8809TIP3    H226392   1.187   3.161   5.643
 8810TIP3   OH226393   0.597   6.155   3.282
 8810TIP3    H126394   0.548   6.215   3.227
 8810TIP3    H226395   0.625   6.085   3.223
 8811TIP3   OH226396   5.607   1.107   1.812
 8811TIP3    H126397   5.673   1.173   1.834
 8811TIP3    H226398   5.540   1.116   1.879
 8812TIP3   OH226399   2.728   3.136   2.454
 8812TIP3    H126400   2.795   3.199   2.481
 8812TIP3    H226401   2.757   3.107   2.367
 8813TIP3   OH226402   1.438   1.995   1.382
 8813TIP3    H126403   1.511   1.932   1.380
 8813TIP3    H226404   1.451   2.044   1.463
 8814TIP3   OH226405   6.718   2.262   4.406
 8814TIP3    H126406   6.684   2.327   4.467
 8814TIP3    H226407   6.640   2.226   4.363
 8815TIP3   OH226408   2.378   4.397   5.266
 8815TIP3    H126409   2.296   4.356   5.291
 8815TIP3    H226410   2.366   4.490   5.288
 8816TIP3   OH226411   2.763   1.054   3.562
 8816TIP3    H126412   2.806   1.139   3.567
 8816TIP3    H226413   2.681   1.065   3.610
 8817TIP3   OH226414   2.957   1.013   0.005
 8817TIP3    H126415   2.953   1.085   0.068
 8817TIP3    H226416   2.877   1.022  -0.047
 8818TIP3   OH226417   0.588   5.075   0.721
 8818TIP3    H126418   0.523   5.121   0.775
 8818TIP3    H226419   0.536   5.030   0.654
 8819TIP3   OH226420   5.886   5.844   0.966
 8819TIP3    H126421   5.925   5.824   1.051
 8819TIP3    H226422   5.907   5.936   0.951
 8820TIP3   OH226423   5.244   5.305   4.683
 8820TIP3    H126424   5.281   5.370   4.623
 8820TIP3    H226425   5.161   5.279   4.642
 8821TIP3   OH226426   1.380   0.574   2.423
 8821TIP3    H126427   1.439   0.547   2.353
 8821TIP3    H226428   1.410   0.662   2.448
 8822TIP3   OH226429   5.365   1.138   2.529
 8822TIP3    H126430   5.348   1.156   2.622
 8822TIP3    H226431   5.315   1.059   2.511
 8823TIP3   OH226432   2.913   4.025   3.950
 8823TIP3    H126433   2.840   3.963   3.946
 8823TIP3    H226434   2.969   3.991   4.019
 8824TIP3   OH226435   4.063   5.416   5.333
 8824TIP3    H126436   4.005   5.381   5.401
 8824TIP3    H226437   4.116   5.481   5.378
 8825TIP3   OH226438  -0.007   1.746   0.469
 8825TIP3    H126439   0.021   1.833   0.441
 8825TIP3    H226440  -0.004   1.749   0.564
 8826TIP3   OH226441   6.922   5.682   1.315
 8826TIP3    H126442   6.978   5.759   1.299
 8826TIP3    H226443   6.977   5.623   1.366
 8827TIP3   OH226444   4.807   2.999   2.269
 8827TIP3    H126445   4.848   2.978   2.353
 8827TIP3    H226446   4.766   3.084   2.284
 8828TIP3   OH226447   0.042   2.845   4.875
 8828TIP3    H126448   0.052   2.753   4.851
 8828TIP3    H226449   0.019   2.889   4.793
 8829TIP3   OH226450   2.817   0.586   4.750
 8829TIP3    H126451   2.776   0.609   4.667
 8829TIP3    H226452   2.770   0.508   4.779
 8830TIP3   OH226453   6.573   5.111   1.868
 8830TIP3    H126454   6.663   5.135   1.846
 8830TIP3    H226455   6.566   5.128   1.962
 8831TIP3   OH226456   4.486   0.474   3.910
 8831TIP3    H126457   4.580   0.489   3.925
 8831TIP3    H226458   4.458   0.548   3.857
 8832TIP3   OH226459   0.126   4.017   5.676
 8832TIP3    H126460   0.131   4.088   5.612
 8832TIP3    H226461   0.214   3.979   5.676
 8833TIP3   OH226462   6.862   4.061   3.638
 8833TIP3    H126463   6.910   4.144   3.646
 8833TIP3    H226464   6.928   3.994   3.654
 8834TIP3   OH226465   2.047   5.769   4.833
 8834TIP3    H126466   2.106   5.731   4.767
 8834TIP3    H226467   2.104   5.788   4.908
 8835TIP3   OH226468   4.691   4.954   1.320
 8835TIP3    H126469   4.625   4.925   1.384
 8835TIP3    H226470   4.686   5.049   1.322
 8836TIP3   OH226471   6.847   3.654   5.572
 8836TIP3    H126472   6.937   3.640   5.602
 8836TIP3    H226473   6.829   3.746   5.591
 8837TIP3   OH226474   1.320   0.800   0.221
 8837TIP3    H126475   1.272   0.865   0.170
 8837TIP3    H226476   1.259   0.726   0.229
 8838TIP3   OH226477   2.441   5.773   4.421
 8838TIP3    H126478   2.346   5.764   4.426
 8838TIP3    H226479   2.456   5.828   4.345
 8839TIP3   OH226480   5.836   2.791   5.899
 8839TIP3    H126481   5.913   2.846   5.893
 8839TIP3    H226482   5.854   2.731   5.972
 8840TIP3   OH226483   3.976   0.300   4.354
 8840TIP3    H126484   4.038   0.248   4.406
 8840TIP3    H226485   4.030   0.368   4.314
 8841TIP3   OH226486   4.283  -0.004   0.355
 8841TIP3    H126487   4.210   0.058   0.355
 8841TIP3    H226488   4.312  -0.007   0.446
 8842TIP3   OH226489   6.308   1.479   3.736
 8842TIP3    H126490   6.287   1.541   3.666
 8842TIP3    H226491   6.330   1.398   3.690
 8843TIP3   OH226492   4.836   5.532   5.589
 8843TIP3    H126493   4.819   5.625   5.606
 8843TIP3    H226494   4.928   5.520   5.612
 8844TIP3   OH226495   4.598   2.342   2.748
 8844TIP3    H126496   4.546   2.297   2.681
 8844TIP3    H226497   4.608   2.431   2.716
 8845TIP3   OH226498   6.232   6.541   5.100
 8845TIP3    H126499   6.188   6.620   5.068
 8845TIP3    H226500   6.309   6.574   5.147
 8846TIP3   OH226501   7.129   3.193   1.706
 8846TIP3    H126502   7.091   3.274   1.739
 8846TIP3    H226503   7.081   3.124   1.751
 8847TIP3   OH226504   4.601   5.007   2.082
 8847TIP3    H126505   4.560   4.994   1.996
 8847TIP3    H226506   4.612   4.918   2.117
 8848TIP3   OH226507   3.895   3.353   3.627
 8848TIP3    H126508   3.988   3.337   3.610
 8848TIP3    H226509   3.851   3.277   3.590
 8849TIP3   OH226510   3.608   2.094   5.358
 8849TIP3    H126511   3.613   2.176   5.309
 8849TIP3    H226512   3.698   2.075   5.382
 8850TIP3   OH226513   3.550   0.793   4.806
 8850TIP3    H126514   3.476   0.806   4.747
 8850TIP3    H226515   3.622   0.840   4.764
 8851TIP3   OH226516   0.776   2.821   5.087
 8851TIP3    H126517   0.784   2.731   5.118
 8851TIP3    H226518   0.783   2.875   5.166
 8852TIP3   OH226519   6.221   2.565   2.609
 8852TIP3    H126520   6.244   2.556   2.516
 8852TIP3    H226521   6.236   2.478   2.645
 8853TIP3   OH226522   6.828   6.762   2.384
 8853TIP3    H126523   6.738   6.730   2.390
 8853TIP3    H226524   6.827   6.819   2.307
 8854TIP3   OH226525   2.541   4.329   2.054
 8854TIP3    H126526   2.550   4.310   2.147
 8854TIP3    H226527   2.468   4.390   2.049
 8855TIP3   OH226528   4.911   2.432   4.612
 8855TIP3    H126529   4.852   2.359   4.593
 8855TIP3    H226530   4.941   2.461   4.526
 8856TIP3   OH226531   0.200   4.224   4.564
 8856TIP3    H126532   0.221   4.165   4.491
 8856TIP3    H226533   0.127   4.181   4.609
 8857TIP3   OH226534   5.206   3.411   1.087
 8857TIP3    H126535   5.263   3.423   1.011
 8857TIP3    H226536   5.267   3.399   1.160
 8858TIP3   OH226537   4.210   3.426   2.386
 8858TIP3    H126538   4.283   3.442   2.446
 8858TIP3    H226539   4.250   3.421   2.300
 8859TIP3   OH226540   3.708   3.095   2.999
 8859TIP3    H126541   3.757   3.156   3.055
 8859TIP3    H226542   3.619   3.130   2.997
 8860TIP3   OH226543   3.099   1.578   3.586
 8860TIP3    H126544   3.076   1.581   3.493
 8860TIP3    H226545   3.125   1.488   3.601
 8861TIP3   OH226546   2.124   0.989   4.392
 8861TIP3    H126547   2.183   1.040   4.337
 8861TIP3    H226548   2.178   0.917   4.425
 8862TIP3   OH226549   1.711   3.823   2.797
 8862TIP3    H126550   1.662   3.902   2.775
 8862TIP3    H226551   1.644   3.758   2.818
 8863TIP3   OH226552   6.758   2.566   4.779
 8863TIP3    H126553   6.771   2.558   4.874
 8863TIP3    H226554   6.819   2.634   4.752
 8864TIP3   OH226555   6.773   5.747   4.085
 8864TIP3    H126556   6.839   5.731   4.153
 8864TIP3    H226557   6.762   5.662   4.043
 8865TIP3   OH226558   3.240   0.401   2.209
 8865TIP3    H126559   3.186   0.410   2.287
 8865TIP3    H226560   3.177   0.392   2.137
 8866TIP3   OH226561   3.792   4.558   3.376
 8866TIP3    H126562   3.883   4.566   3.404
 8866TIP3    H226563   3.796   4.556   3.281
 8867TIP3   OH226564   4.940   0.230   4.084
 8867TIP3    H126565   4.889   0.242   4.003
 8867TIP3    H226566   4.925   0.139   4.108
 8868TIP3   OH226567   1.843   2.492   3.826
 8868TIP3    H126568   1.918   2.517   3.881
 8868TIP3    H226569   1.775   2.555   3.849
 8869TIP3   OH226570   4.974   1.219   4.477
 8869TIP3    H126571   5.010   1.227   4.565
 8869TIP3    H226572   5.046   1.185   4.424
 8870TIP3   OH226573   5.407   5.233   1.297
 8870TIP3    H126574   5.439   5.322   1.313
 8870TIP3    H226575   5.311   5.241   1.304
 8871TIP3   OH226576   4.898   2.944   2.010
 8871TIP3    H126577   4.862   2.962   2.097
 8871TIP3    H226578   4.836   2.985   1.950
 8872TIP3   OH226579   0.069   5.477   3.833
 8872TIP3    H126580   0.129   5.433   3.893
 8872TIP3    H226581  -0.017   5.471   3.876
 8873TIP3   OH226582   1.528   1.793   4.265
 8873TIP3    H126583   1.561   1.747   4.187
 8873TIP3    H226584   1.456   1.847   4.232
 8874TIP3   OH226585   4.844   1.410   3.183
 8874TIP3    H126586   4.766   1.446   3.141
 8874TIP3    H226587   4.907   1.481   3.181
 8875TIP3   OH226588   1.822   0.385   4.872
 8875TIP3    H126589   1.741   0.433   4.885
 8875TIP3    H226590   1.849   0.407   4.782
 8876TIP3   OH226591   3.329   3.627   3.201
 8876TIP3    H126592   3.374   3.642   3.118
 8876TIP3    H226593   3.397   3.593   3.259
 8877TIP3   OH226594   0.039   3.093   5.799
 8877TIP3    H126595   0.033   3.029   5.870
 8877TIP3    H226596   0.121   3.139   5.815
 8878TIP3   OH226597   5.213   5.431   0.899
 8878TIP3    H126598   5.274   5.496   0.934
 8878TIP3    H226599   5.128   5.475   0.898
 8879TIP3   OH226600   1.384   3.220   5.432
 8879TIP3    H126601   1.393   3.278   5.356
 8879TIP3    H226602   1.424   3.137   5.403
 8880TIP3   OH226603   4.015   2.204   3.715
 8880TIP3    H126604   4.026   2.234   3.625
 8880TIP3    H226605   4.099   2.164   3.738
 8881TIP3   OH226606   6.541   4.422   3.626
 8881TIP3    H126607   6.575   4.364   3.558
 8881TIP3    H226608   6.619   4.454   3.671
 8882TIP3   OH226609   1.271   6.699   3.764
 8882TIP3    H126610   1.318   6.710   3.681
 8882TIP3    H226611   1.259   6.605   3.773
 8883TIP3   OH226612   6.411   5.348   2.090
 8883TIP3    H126613   6.365   5.266   2.107
 8883TIP3    H226614   6.349   5.417   2.115
 8884TIP3   OH226615   6.502   6.286   1.654
 8884TIP3    H126616   6.416   6.253   1.680
 8884TIP3    H226617   6.553   6.207   1.634
 8885TIP3   OH226618   6.920   5.948   1.497
 8885TIP3    H126619   6.963   5.944   1.412
 8885TIP3    H226620   6.888   5.859   1.512
 8886TIP3   OH226621   2.527   5.967   5.049
 8886TIP3    H126622   2.480   6.049   5.063
 8886TIP3    H226623   2.584   5.984   4.974
 8887TIP3   OH226624   6.785   2.389   5.237
 8887TIP3    H126625   6.737   2.379   5.319
 8887TIP3    H226626   6.870   2.424   5.262
 8888TIP3   OH226627   3.250   2.379   2.469
 8888TIP3    H126628   3.338   2.394   2.432
 8888TIP3    H226629   3.257   2.409   2.560
 8889TIP3   OH226630   2.843   4.290   3.932
 8889TIP3    H126631   2.862   4.199   3.910
 8889TIP3    H226632   2.787   4.284   4.009
 8890TIP3   OH226633   3.818   4.301   4.202
 8890TIP3    H126634   3.802   4.209   4.184
 8890TIP3    H226635   3.822   4.342   4.116
 8891TIP3   OH226636   6.013   4.401   1.247
 8891TIP3    H126637   6.093   4.353   1.228
 8891TIP3    H226638   6.017   4.417   1.342
 8892TIP3   OH226639   3.351   1.867   0.649
 8892TIP3    H126640   3.355   1.896   0.557
 8892TIP3    H226641   3.260   1.842   0.662
 8893TIP3   OH226642   3.581   1.663   0.452
 8893TIP3    H126643   3.600   1.719   0.528
 8893TIP3    H226644   3.490   1.684   0.429
 8894TIP3   OH226645   1.830   4.880   2.161
 8894TIP3    H126646   1.838   4.862   2.255
 8894TIP3    H226647   1.741   4.852   2.139
 8895TIP3   OH226648   2.654   6.204   2.334
 8895TIP3    H126649   2.698   6.225   2.252
 8895TIP3    H226650   2.568   6.172   2.308
 8896TIP3   OH226651   6.041   6.481   2.808
 8896TIP3    H126652   5.997   6.543   2.866
 8896TIP3    H226653   6.040   6.398   2.856
 8897TIP3   OH226654   6.625   1.976   2.373
 8897TIP3    H126655   6.637   1.915   2.446
 8897TIP3    H226656   6.591   2.056   2.414
 8898TIP3   OH226657   2.910   5.385   4.009
 8898TIP3    H126658   2.939   5.336   3.933
 8898TIP3    H226659   2.946   5.337   4.084
 8899TIP3   OH226660   2.905   4.373   1.919
 8899TIP3    H126661   2.968   4.328   1.976
 8899TIP3    H226662   2.950   4.379   1.834
 8900TIP3   OH226663   6.845   6.742   3.830
 8900TIP3    H126664   6.864   6.686   3.755
 8900TIP3    H226665   6.917   6.806   3.830
 8901TIP3   OH226666   1.490   3.633   5.838
 8901TIP3    H126667   1.519   3.620   5.748
 8901TIP3    H226668   1.399   3.603   5.838
 8902TIP3   OH226669   3.165   5.228   2.508
 8902TIP3    H126670   3.146   5.214   2.415
 8902TIP3    H226671   3.204   5.146   2.537
 8903TIP3   OH226672   3.277   3.304   0.845
 8903TIP3    H126673   3.235   3.292   0.759
 8903TIP3    H226674   3.313   3.393   0.842
 8904TIP3   OH226675   4.712   1.301   4.151
 8904TIP3    H126676   4.750   1.384   4.180
 8904TIP3    H226677   4.786   1.241   4.144
 8905TIP3   OH226678   3.482   2.579   5.544
 8905TIP3    H126679   3.527   2.660   5.567
 8905TIP3    H226680   3.470   2.583   5.449
 8906TIP3   OH226681   6.378   2.923   1.919
 8906TIP3    H126682   6.370   2.991   1.986
 8906TIP3    H226683   6.328   2.956   1.845
 8907TIP3   OH226684   3.862   2.290   3.084
 8907TIP3    H126685   3.931   2.357   3.084
 8907TIP3    H226686   3.855   2.263   2.993
 8908TIP3   OH226687   2.034   3.011   5.783
 8908TIP3    H126688   1.982   2.971   5.853
 8908TIP3    H226689   2.033   3.105   5.803
 8909TIP3   OH226690   3.496   6.426   3.496
 8909TIP3    H126691   3.408   6.393   3.514
 8909TIP3    H226692   3.498   6.512   3.538
 8910TIP3   OH226693   3.597   1.128   0.951
 8910TIP3    H126694   3.547   1.209   0.946
 8910TIP3    H226695   3.543   1.069   1.003
 8911TIP3   OH226696   1.345   0.562   3.126
 8911TIP3    H126697   1.432   0.601   3.118
 8911TIP3    H226698   1.310   0.600   3.206
 8912TIP3   OH226699   4.278   6.105   2.018
 8912TIP3    H126700   4.284   6.034   2.081
 8912TIP3    H226701   4.216   6.167   2.057
 8913TIP3   OH226702   6.424   2.706   0.324
 8913TIP3    H126703   6.344   2.743   0.287
 8913TIP3    H226704   6.466   2.660   0.251
 8914TIP3   OH226705   5.072   1.157   4.725
 8914TIP3    H126706   5.138   1.224   4.740
 8914TIP3    H226707   5.122   1.075   4.718
 8915TIP3   OH226708   7.165   5.583   5.738
 8915TIP3    H126709   7.141   5.675   5.735
 8915TIP3    H226710   7.161   5.560   5.831
 8916TIP3   OH226711   6.615   4.527   4.447
 8916TIP3    H126712   6.646   4.602   4.498
 8916TIP3    H226713   6.556   4.564   4.382
 8917TIP3   OH226714   0.476   2.163   2.541
 8917TIP3    H126715   0.381   2.159   2.549
 8917TIP3    H226716   0.502   2.072   2.525
 8918TIP3   OH226717   4.923   4.823   1.286
 8918TIP3    H126718   4.887   4.738   1.258
 8918TIP3    H226719   4.846   4.873   1.313
 8919TIP3   OH226720   6.151   6.588   1.973
 8919TIP3    H126721   6.158   6.665   1.917
 8919TIP3    H226722   6.157   6.623   2.062
 8920TIP3   OH226723   5.924   5.382   2.411
 8920TIP3    H126724   5.903   5.411   2.499
 8920TIP3    H226725   5.867   5.435   2.354
 8921TIP3   OH226726   3.993   5.094   1.036
 8921TIP3    H126727   4.022   5.041   1.111
 8921TIP3    H226728   4.015   5.184   1.061
 8922TIP3   OH226729   0.152   3.148   1.126
 8922TIP3    H126730   0.170   3.189   1.042
 8922TIP3    H226731   0.228   3.170   1.180
 8923TIP3   OH226732   4.072   3.629   2.114
 8923TIP3    H126733   4.002   3.575   2.077
 8923TIP3    H226734   4.153   3.587   2.085
 8924TIP3   OH226735   4.746   5.465   4.903
 8924TIP3    H126736   4.816   5.419   4.949
 8924TIP3    H226737   4.667   5.444   4.953
 8925TIP3   OH226738   3.239   4.048   1.455
 8925TIP3    H126739   3.238   3.956   1.483
 8925TIP3    H226740   3.155   4.061   1.412
 8926TIP3   OH226741   6.296   1.017   1.941
 8926TIP3    H126742   6.231   1.065   1.993
 8926TIP3    H226743   6.363   0.991   2.004
 8927TIP3   OH226744   4.106   1.909   5.202
 8927TIP3    H126745   4.072   1.872   5.283
 8927TIP3    H226746   4.160   1.983   5.230
 8928TIP3   OH226747   5.514   3.195   0.574
 8928TIP3    H126748   5.503   3.252   0.498
 8928TIP3    H226749   5.562   3.248   0.638
 8929TIP3   OH226750   0.764   3.705   3.085
 8929TIP3    H126751   0.673   3.727   3.064
 8929TIP3    H226752   0.783   3.628   3.032
 8930TIP3   OH226753   3.706   2.991   0.197
 8930TIP3    H126754   3.717   3.031   0.111
 8930TIP3    H226755   3.679   2.901   0.178
 8931TIP3   OH226756   6.592   3.494   2.109
 8931TIP3    H126757   6.618   3.481   2.201
 8931TIP3    H226758   6.675   3.488   2.061
 8932TIP3   OH226759   6.430   1.569   3.056
 8932TIP3    H126760   6.432   1.609   3.143
 8932TIP3    H226761   6.460   1.479   3.070
 8933TIP3   OH226762   5.946   5.536   4.217
 8933TIP3    H126763   5.949   5.452   4.171
 8933TIP3    H226764   5.935   5.601   4.147
 8934TIP3   OH226765   1.602   0.981   5.336
 8934TIP3    H126766   1.669   1.003   5.272
 8934TIP3    H226767   1.522   1.022   5.303
 8935TIP3   OH226768   6.651   0.666   3.669
 8935TIP3    H126769   6.572   0.714   3.642
 8935TIP3    H226770   6.640   0.654   3.764
 8936TIP3   OH226771   3.408   6.259   0.535
 8936TIP3    H126772   3.402   6.311   0.455
 8936TIP3    H226773   3.356   6.181   0.517
 8937TIP3   OH226774   5.180   6.529   0.363
 8937TIP3    H126775   5.115   6.467   0.396
 8937TIP3    H226776   5.183   6.598   0.429
 8938TIP3   OH226777   3.977   3.177   4.349
 8938TIP3    H126778   4.041   3.108   4.369
 8938TIP3    H226779   3.914   3.173   4.421
 8939TIP3   OH226780   0.674   6.344   4.253
 8939TIP3    H126781   0.595   6.387   4.284
 8939TIP3    H226782   0.675   6.259   4.297
 8940TIP3   OH226783   1.774   3.604   5.522
 8940TIP3    H126784   1.820   3.677   5.563
 8940TIP3    H226785   1.811   3.598   5.434
 8941TIP3   OH226786   3.422   2.407   2.093
 8941TIP3    H126787   3.389   2.374   2.177
 8941TIP3    H226788   3.478   2.337   2.060
 8942TIP3   OH226789   3.511   1.761   5.853
 8942TIP3    H126790   3.597   1.784   5.816
 8942TIP3    H226791   3.448   1.796   5.791
 8943TIP3   OH226792   3.733   3.389   4.719
 8943TIP3    H126793   3.664   3.412   4.656
 8943TIP3    H226794   3.765   3.304   4.689
 8944TIP3   OH226795  -0.017   5.173   1.708
 8944TIP3    H126796  -0.081   5.195   1.775
 8944TIP3    H226797   0.019   5.257   1.681
 8945TIP3   OH226798   4.361   4.054   2.703
 8945TIP3    H126799   4.276   4.042   2.662
 8945TIP3    H226800   4.357   4.141   2.744
 8946TIP3   OH226801   0.643   2.302   5.776
 8946TIP3    H126802   0.732   2.316   5.809
 8946TIP3    H226803   0.597   2.258   5.847
 8947TIP3   OH226804   6.565   2.730   0.559
 8947TIP3    H126805   6.511   2.725   0.480
 8947TIP3    H226806   6.507   2.769   0.625
 8948TIP3   OH226807   4.704   5.375   1.757
 8948TIP3    H126808   4.793   5.383   1.721
 8948TIP3    H226809   4.649   5.355   1.682
 8949TIP3   OH226810   3.318   4.300   4.216
 8949TIP3    H126811   3.298   4.317   4.124
 8949TIP3    H226812   3.414   4.296   4.220
 8950TIP3   OH226813   2.801   3.809   0.820
 8950TIP3    H126814   2.723   3.861   0.839
 8950TIP3    H226815   2.819   3.825   0.727
 8951TIP3   OH226816   0.359   2.875   1.452
 8951TIP3    H126817   0.313   2.825   1.520
 8951TIP3    H226818   0.383   2.809   1.387
 8952TIP3   OH226819   5.329   5.591   2.437
 8952TIP3    H126820   5.291   5.577   2.351
 8952TIP3    H226821   5.306   5.681   2.461
 8953TIP3   OH226822   6.159   2.691   0.596
 8953TIP3    H126823   6.197   2.764   0.645
 8953TIP3    H226824   6.103   2.646   0.660
 8954TIP3   OH226825   3.121   3.813   3.268
 8954TIP3    H126826   3.100   3.855   3.184
 8954TIP3    H226827   3.198   3.760   3.249
 8955TIP3   OH226828   2.779   1.846   1.193
 8955TIP3    H126829   2.816   1.762   1.168
 8955TIP3    H226830   2.828   1.911   1.143
 8956TIP3   OH226831   0.443   0.136   3.324
 8956TIP3    H126832   0.382   0.126   3.250
 8956TIP3    H226833   0.434   0.055   3.374
 8957TIP3   OH226834   5.163   0.400   2.205
 8957TIP3    H126835   5.199   0.321   2.244
 8957TIP3    H226836   5.126   0.449   2.278
 8958TIP3   OH226837   2.299   4.368   5.622
 8958TIP3    H126838   2.273   4.333   5.536
 8958TIP3    H226839   2.256   4.453   5.627
 8959TIP3   OH226840   2.600   6.633   3.138
 8959TIP3    H126841   2.518   6.596   3.107
 8959TIP3    H226842   2.604   6.720   3.097
 8960TIP3   OH226843   6.702   3.251   4.758
 8960TIP3    H126844   6.748   3.297   4.689
 8960TIP3    H226845   6.630   3.310   4.783
 8961TIP3   OH226846   3.749   0.325   3.744
 8961TIP3    H126847   3.787   0.408   3.715
 8961TIP3    H226848   3.655   0.335   3.730
 8962TIP3   OH226849   5.530   2.494   2.573
 8962TIP3    H126850   5.458   2.533   2.623
 8962TIP3    H226851   5.491   2.418   2.530
 8963TIP3   OH226852   3.182   5.104   2.244
 8963TIP3    H126853   3.256   5.043   2.249
 8963TIP3    H226854   3.202   5.159   2.168
 8964TIP3   OH226855   5.598   0.569   3.203
 8964TIP3    H126856   5.571   0.584   3.112
 8964TIP3    H226857   5.668   0.633   3.218
 8965TIP3   OH226858   0.887   2.939   0.206
 8965TIP3    H126859   0.959   2.908   0.151
 8965TIP3    H226860   0.890   3.034   0.198
 8966TIP3   OH226861   5.697   2.292   2.471
 8966TIP3    H126862   5.681   2.362   2.533
 8966TIP3    H226863   5.792   2.278   2.475
 8967TIP3   OH226864   6.529   5.783   1.430
 8967TIP3    H126865   6.566   5.855   1.481
 8967TIP3    H226866   6.495   5.722   1.495
 8968TIP3   OH226867   0.032   2.394   3.431
 8968TIP3    H126868   0.059   2.309   3.466
 8968TIP3    H226869   0.004   2.376   3.341
 8969TIP3   OH226870   2.821   4.799   0.133
 8969TIP3    H126871   2.792   4.836   0.050
 8969TIP3    H226872   2.904   4.843   0.151
 8970TIP3   OH226873   4.481   3.474   3.234
 8970TIP3    H126874   4.498   3.388   3.196
 8970TIP3    H226875   4.558   3.492   3.288
 8971TIP3   OH226876   1.063   4.823   5.810
 8971TIP3    H126877   1.151   4.855   5.827
 8971TIP3    H226878   1.055   4.745   5.865
 8972TIP3   OH226879   3.709   5.939   4.254
 8972TIP3    H126880   3.738   5.857   4.212
 8972TIP3    H226881   3.633   5.966   4.202
 8973TIP3   OH226882   5.733   4.997   4.977
 8973TIP3    H126883   5.802   5.056   5.008
 8973TIP3    H226884   5.655   5.024   5.025
 8974TIP3   OH226885   1.481   3.361   5.204
 8974TIP3    H126886   1.521   3.445   5.184
 8974TIP3    H226887   1.555   3.304   5.227
 8975TIP3   OH226888   6.817   5.519   4.796
 8975TIP3    H126889   6.817   5.605   4.838
 8975TIP3    H226890   6.879   5.468   4.847
 8976TIP3   OH226891   6.418   0.143   3.990
 8976TIP3    H126892   6.372   0.061   3.971
 8976TIP3    H226893   6.489   0.117   4.050
 8977TIP3   OH226894   3.652   1.230   3.951
 8977TIP3    H126895   3.666   1.230   4.045
 8977TIP3    H226896   3.727   1.278   3.915
 8978TIP3   OH226897   5.875   3.587   2.879
 8978TIP3    H126898   5.915   3.611   2.795
 8978TIP3    H226899   5.865   3.670   2.925
 8979TIP3   OH226900   2.856   4.008   0.592
 8979TIP3    H126901   2.777   3.989   0.541
 8979TIP3    H226902   2.825   4.065   0.663
 8980TIP3   OH226903   1.780   2.258   5.082
 8980TIP3    H126904   1.692   2.260   5.119
 8980TIP3    H226905   1.787   2.173   5.040
 8981TIP3   OH226906   5.468   3.688   3.067
 8981TIP3    H126907   5.497   3.619   3.126
 8981TIP3    H226908   5.440   3.641   2.988
 8982TIP3   OH226909   5.583   2.559   3.485
 8982TIP3    H126910   5.539   2.493   3.431
 8982TIP3    H226911   5.557   2.642   3.446
 8983TIP3   OH226912   6.504   3.235   0.744
 8983TIP3    H126913   6.584   3.286   0.729
 8983TIP3    H226914   6.449   3.292   0.798
 8984TIP3   OH226915   4.797   6.461   0.426
 8984TIP3    H126916   4.824   6.536   0.373
 8984TIP3    H226917   4.794   6.495   0.515
 8985TIP3   OH226918   0.061   4.181   1.842
 8985TIP3    H126919   0.072   4.274   1.864
 8985TIP3    H226920   0.055   4.138   1.927
 8986TIP3   OH226921   2.081   3.599   2.387
 8986TIP3    H126922   2.158   3.657   2.387
 8986TIP3    H226923   2.118   3.511   2.384
 8987TIP3   OH226924   6.897   1.049   4.221
 8987TIP3    H126925   6.946   1.047   4.302
 8987TIP3    H226926   6.917   0.966   4.178
 8988TIP3   OH226927   6.522   3.382   3.479
 8988TIP3    H126928   6.611   3.353   3.457
 8988TIP3    H226929   6.513   3.361   3.572
 8989TIP3   OH226930   4.043   1.234   4.341
 8989TIP3    H126931   4.032   1.295   4.269
 8989TIP3    H226932   4.031   1.287   4.420
 8990TIP3   OH226933   6.555   4.913   5.115
 8990TIP3    H126934   6.544   4.975   5.043
 8990TIP3    H226935   6.496   4.944   5.183
 8991TIP3   OH226936   0.480   3.904   4.097
 8991TIP3    H126937   0.542   3.977   4.097
 8991TIP3    H226938   0.496   3.859   4.180
 8992TIP3   OH226939   4.360   4.572   3.388
 8992TIP3    H126940   4.367   4.662   3.357
 8992TIP3    H226941   4.432   4.526   3.345
 8993TIP3   OH226942   1.423   1.662   1.108
 8993TIP3    H126943   1.515   1.654   1.135
 8993TIP3    H226944   1.421   1.740   1.053
 8994TIP3   OH226945   1.783   2.628   1.881
 8994TIP3    H126946   1.872   2.598   1.862
 8994TIP3    H226947   1.794   2.695   1.948
 8995TIP3   OH226948   2.104   3.595   2.682
 8995TIP3    H126949   2.062   3.647   2.614
 8995TIP3    H226950   2.166   3.539   2.635
 8996TIP3   OH226951   4.321   2.745   3.557
 8996TIP3    H126952   4.248   2.709   3.505
 8996TIP3    H226953   4.278   2.794   3.627
 8997TIP3   OH226954   2.467   2.498   4.122
 8997TIP3    H126955   2.492   2.590   4.129
 8997TIP3    H226956   2.534   2.458   4.066
 8998TIP3   OH226957   1.529   4.276   2.925
 8998TIP3    H126958   1.550   4.183   2.929
 8998TIP3    H226959   1.505   4.291   2.834
 8999TIP3   OH226960   1.530   4.222   5.174
 8999TIP3    H126961   1.527   4.250   5.266
 8999TIP3    H226962   1.474   4.285   5.128
 9000TIP3   OH226963   3.365   3.020  -0.007
 9000TIP3    H126964   3.426   3.078   0.038
 9000TIP3    H226965   3.281   3.034   0.037
 9001TIP3   OH226966   4.850   6.135   4.340
 9001TIP3    H126967   4.834   6.218   4.384
 9001TIP3    H226968   4.846   6.069   4.409
 9002TIP3   OH226969   2.285   6.304   4.758
 9002TIP3    H126970   2.258   6.225   4.806
 9002TIP3    H226971   2.324   6.270   4.677
 9003TIP3   OH226972   5.834   6.542   5.095
 9003TIP3    H126973   5.742   6.516   5.107
 9003TIP3    H226974   5.881   6.492   5.162
 9004TIP3   OH226975   3.246   3.684   4.155
 9004TIP3    H126976   3.261   3.592   4.131
 9004TIP3    H226977   3.202   3.680   4.240
 9005TIP3   OH226978   2.733   0.718   0.515
 9005TIP3    H126979   2.806   0.769   0.478
 9005TIP3    H226980   2.730   0.744   0.607
 9006TIP3   OH226981   0.319   2.931   0.286
 9006TIP3    H126982   0.240   2.975   0.318
 9006TIP3    H226983   0.308   2.928   0.191
 9007TIP3   OH226984   0.775   1.709   4.220
 9007TIP3    H126985   0.749   1.789   4.266
 9007TIP3    H226986   0.770   1.640   4.287
 9008TIP3   OH226987   2.564   1.464   0.516
 9008TIP3    H126988   2.470   1.482   0.514
 9008TIP3    H226989   2.595   1.505   0.596
 9009TIP3   OH226990   5.644   1.898   2.809
 9009TIP3    H126991   5.578   1.850   2.760
 9009TIP3    H226992   5.724   1.888   2.757
 9010TIP3   OH226993   1.014   6.774   1.131
 9010TIP3    H126994   0.947   6.723   1.175
 9010TIP3    H226995   1.013   6.743   1.040
 9011TIP3   OH226996   4.131   1.396   0.055
 9011TIP3    H126997   4.178   1.342  -0.009
 9011TIP3    H226998   4.178   1.382   0.137
 9012TIP3   OH226999   3.579   0.749   4.244
 9012TIP3    H127000   3.622   0.675   4.288
 9012TIP3    H227001   3.644   0.820   4.247
 9013TIP3   OH227002   5.447   2.127   5.551
 9013TIP3    H127003   5.390   2.190   5.507
 9013TIP3    H227004   5.518   2.110   5.489
 9014TIP3   OH227005   6.676   6.631   4.906
 9014TIP3    H127006   6.593   6.593   4.877
 9014TIP3    H227007   6.694   6.588   4.989
 9015TIP3   OH227008   2.650   0.617   2.943
 9015TIP3    H127009   2.682   0.614   2.853
 9015TIP3    H227010   2.562   0.578   2.939
 9016TIP3   OH227011   3.253   4.951   2.560
 9016TIP3    H127012   3.295   4.953   2.646
 9016TIP3    H227013   3.165   4.917   2.578
 9017TIP3   OH227014   0.635   0.898   2.385
 9017TIP3    H127015   0.592   0.834   2.442
 9017TIP3    H227016   0.587   0.891   2.302
 9018TIP3   OH227017   3.511   3.421   4.500
 9018TIP3    H127018   3.535   3.328   4.500
 9018TIP3    H227019   3.534   3.452   4.412
 9019TIP3   OH227020   6.118   2.529   4.536
 9019TIP3    H127021   6.079   2.600   4.485
 9019TIP3    H227022   6.110   2.451   4.480
 9020TIP3   OH227023   4.171   6.149   0.268
 9020TIP3    H127024   4.112   6.225   0.268
 9020TIP3    H227025   4.154   6.106   0.184
 9021TIP3   OH227026   2.625   5.528   1.951
 9021TIP3    H127027   2.576   5.591   1.899
 9021TIP3    H227028   2.561   5.461   1.975
 9022TIP3   OH227029   1.755   3.147   1.844
 9022TIP3    H127030   1.705   3.127   1.923
 9022TIP3    H227031   1.821   3.211   1.871
 9023TIP3   OH227032   0.778   5.252   2.846
 9023TIP3    H127033   0.787   5.347   2.838
 9023TIP3    H227034   0.764   5.237   2.939
 9024TIP3   OH227035   4.112   1.515   3.846
 9024TIP3    H127036   4.071   1.602   3.838
 9024TIP3    H227037   4.174   1.512   3.773
 9025TIP3   OH227038   2.280   0.262   5.109
 9025TIP3    H127039   2.231   0.344   5.109
 9025TIP3    H227040   2.314   0.254   5.198
 9026TIP3   OH227041   2.294   1.156   0.601
 9026TIP3    H127042   2.232   1.208   0.652
 9026TIP3    H227043   2.296   1.071   0.644
 9027TIP3   OH227044   3.447   2.667   5.817
 9027TIP3    H127045   3.531   2.711   5.803
 9027TIP3    H227046   3.408   2.711   5.892
 9028TIP3   OH227047   6.143   6.656   4.440
 9028TIP3    H127048   6.075   6.706   4.485
 9028TIP3    H227049   6.097   6.610   4.370
 9029TIP3   OH227050   3.322   2.653   1.995
 9029TIP3    H127051   3.230   2.679   2.006
 9029TIP3    H227052   3.333   2.579   2.055
 9030TIP3   OH227053   3.102   1.899   5.431
 9030TIP3    H127054   3.130   1.980   5.388
 9030TIP3    H227055   3.026   1.926   5.483
 9031TIP3   OH227056   0.138   3.390   1.677
 9031TIP3    H127057   0.211   3.414   1.620
 9031TIP3    H227058   0.061   3.391   1.620
 9032TIP3   OH227059   0.268   6.454   3.046
 9032TIP3    H127060   0.323   6.402   3.104
 9032TIP3    H227061   0.294   6.427   2.957
 9033TIP3   OH227062   4.070   2.181   4.215
 9033TIP3    H127063   3.974   2.186   4.219
 9033TIP3    H227064   4.099   2.221   4.297
 9034TIP3   OH227065   2.549   4.528   5.012
 9034TIP3    H127066   2.576   4.522   4.921
 9034TIP3    H227067   2.601   4.460   5.056
 9035TIP3   OH227068   1.047   4.025   3.979
 9035TIP3    H127069   0.971   4.074   4.012
 9035TIP3    H227070   1.049   4.044   3.885
 9036TIP3   OH227071   1.970   6.285   3.293
 9036TIP3    H127072   2.051   6.334   3.281
 9036TIP3    H227073   1.987   6.230   3.370
 9037TIP3   OH227074   2.255   1.521   0.789
 9037TIP3    H127075   2.344   1.491   0.808
 9037TIP3    H227076   2.219   1.546   0.874
 9038TIP3   OH227077   3.616   2.568   1.345
 9038TIP3    H127078   3.596   2.636   1.281
 9038TIP3    H227079   3.692   2.601   1.392
 9039TIP3   OH227080   7.061   4.827   5.417
 9039TIP3    H127081   7.131   4.876   5.461
 9039TIP3    H227082   7.067   4.854   5.325
 9040TIP3   OH227083   4.641   3.464   5.814
 9040TIP3    H127084   4.691   3.480   5.734
 9040TIP3    H227085   4.704   3.424   5.874
 9041TIP3   OH227086   4.982   0.629   4.876
 9041TIP3    H127087   4.943   0.607   4.791
 9041TIP3    H227088   5.076   0.631   4.859
 9042TIP3   OH227089   0.894   6.806   5.360
 9042TIP3    H127090   0.906   6.759   5.277
 9042TIP3    H227091   0.978   6.848   5.376
 9043TIP3   OH227092   2.404   2.226   4.052
 9043TIP3    H127093   2.381   2.318   4.044
 9043TIP3    H227094   2.323   2.184   4.083
 9044TIP3   OH227095   4.605   5.990   5.051
 9044TIP3    H127096   4.695   6.024   5.057
 9044TIP3    H227097   4.559   6.031   5.124
 9045TIP3   OH227098   5.998   3.186   2.729
 9045TIP3    H127099   5.923   3.127   2.720
 9045TIP3    H227100   6.073   3.129   2.740
 9046TIP3   OH227101   0.901   2.989   2.559
 9046TIP3    H127102   0.906   2.893   2.554
 9046TIP3    H227103   0.967   3.020   2.498
 9047TIP3   OH227104   4.130   5.312   5.077
 9047TIP3    H127105   4.079   5.368   5.018
 9047TIP3    H227106   4.101   5.337   5.165
 9048TIP3   OH227107   3.091   2.081   3.164
 9048TIP3    H127108   3.139   2.006   3.129
 9048TIP3    H227109   3.081   2.139   3.089
 9049TIP3   OH227110   2.705   5.832   1.885
 9049TIP3    H127111   2.633   5.769   1.889
 9049TIP3    H227112   2.784   5.779   1.889
 9050TIP3   OH227113   6.190   2.819   3.854
 9050TIP3    H127114   6.156   2.862   3.775
 9050TIP3    H227115   6.263   2.873   3.882
 9051TIP3   OH227116   7.163   4.095   0.238
 9051TIP3    H127117   7.121   4.128   0.317
 9051TIP3    H227118   7.252   4.072   0.267
 9052TIP3   OH227119   5.359   3.667   5.294
 9052TIP3    H127120   5.307   3.612   5.352
 9052TIP3    H227121   5.436   3.613   5.273
 9053TIP3   OH227122   0.934   3.438   4.106
 9053TIP3    H127123   0.972   3.522   4.131
 9053TIP3    H227124   0.902   3.451   4.017
 9054TIP3   OH227125   1.523  -0.085   4.766
 9054TIP3    H127126   1.585  -0.013   4.780
 9054TIP3    H227127   1.528  -0.105   4.673
 9055TIP3   OH227128   4.450   6.128   4.631
 9055TIP3    H127129   4.508   6.053   4.614
 9055TIP3    H227130   4.438   6.168   4.546
 9056TIP3   OH227131   5.104   5.310   2.658
 9056TIP3    H127132   5.175   5.340   2.715
 9056TIP3    H227133   5.141   5.312   2.570
 9057TIP3   OH227134   4.211   0.110   3.289
 9057TIP3    H127135   4.285   0.118   3.230
 9057TIP3    H227136   4.250   0.096   3.375
 9058TIP3   OH227137   0.153   2.398   0.196
 9058TIP3    H127138   0.222   2.460   0.173
 9058TIP3    H227139   0.145   2.404   0.291
 9059TIP3   OH227140   3.032   2.249   2.552
 9059TIP3    H127141   3.102   2.304   2.518
 9059TIP3    H227142   2.968   2.311   2.587
 9060TIP3   OH227143   0.947   0.726   5.796
 9060TIP3    H127144   0.968   0.819   5.788
 9060TIP3    H227145   1.030   0.682   5.778
 9061TIP3   OH227146   4.660   5.237   0.806
 9061TIP3    H127147   4.705   5.319   0.786
 9061TIP3    H227148   4.722   5.169   0.778
 9062TIP3   OH227149   2.984   4.001   4.475
 9062TIP3    H127150   2.989   3.913   4.438
 9062TIP3    H227151   3.068   4.042   4.450
 9063TIP3   OH227152   0.827   2.202   4.035
 9063TIP3    H127153   0.854   2.145   4.107
 9063TIP3    H227154   0.878   2.282   4.047
 9064TIP3   OH227155   3.738   2.075   4.960
 9064TIP3    H127156   3.747   2.164   4.992
 9064TIP3    H227157   3.825   2.037   4.968
 9065TIP3   OH227158   0.469   4.219   4.016
 9065TIP3    H127159   0.562   4.226   3.995
 9065TIP3    H227160   0.424   4.229   3.932
 9066TIP3   OH227161   3.521   4.781   5.322
 9066TIP3    H127162   3.537   4.833   5.400
 9066TIP3    H227163   3.431   4.800   5.298
 9067TIP3   OH227164   5.278   2.902   0.795
 9067TIP3    H127165   5.260   2.957   0.719
 9067TIP3    H227166   5.373   2.909   0.808
 9068TIP3   OH227167   6.231   5.046   4.531
 9068TIP3    H127168   6.140   5.074   4.538
 9068TIP3    H227169   6.281   5.128   4.528
 9069TIP3   OH227170   1.966   2.363   3.586
 9069TIP3    H127171   1.955   2.277   3.627
 9069TIP3    H227172   1.924   2.424   3.646
 9070TIP3   OH227173   0.025   0.458   1.386
 9070TIP3    H127174  -0.070   0.452   1.370
 9070TIP3    H227175   0.060   0.377   1.349
 9071TIP3   OH227176   5.812   5.415   1.710
 9071TIP3    H127177   5.818   5.363   1.630
 9071TIP3    H227178   5.813   5.506   1.680
 9072TIP3   OH227179   1.468   0.952   0.714
 9072TIP3    H127180   1.397   1.016   0.705
 9072TIP3    H227181   1.426   0.867   0.696
 9073TIP3   OH227182   1.521   3.394   1.067
 9073TIP3    H127183   1.435   3.372   1.102
 9073TIP3    H227184   1.569   3.311   1.065
 9074TIP3   OH227185   4.869   3.857   2.080
 9074TIP3    H127186   4.808   3.847   2.153
 9074TIP3    H227187   4.956   3.845   2.120
 9075TIP3   OH227188   5.105   0.896   1.789
 9075TIP3    H127189   5.125   0.976   1.740
 9075TIP3    H227190   5.185   0.844   1.783
 9076TIP3   OH227191   1.087   5.945   3.963
 9076TIP3    H127192   1.118   5.923   4.050
 9076TIP3    H227193   1.000   5.907   3.957
 9077TIP3   OH227194   1.453   4.331   1.706
 9077TIP3    H127195   1.494   4.250   1.736
 9077TIP3    H227196   1.377   4.342   1.764
 9078TIP3   OH227197   3.398   4.656   1.087
 9078TIP3    H127198   3.430   4.579   1.040
 9078TIP3    H227199   3.317   4.679   1.043
 9079TIP3   OH227200   1.358   3.965   5.121
 9079TIP3    H127201   1.374   3.950   5.028
 9079TIP3    H227202   1.419   4.034   5.145
 9080TIP3   OH227203   0.226   1.743   0.093
 9080TIP3    H127204   0.209   1.735   0.187
 9080TIP3    H227205   0.298   1.682   0.077
 9081TIP3   OH227206   4.918   2.497   5.023
 9081TIP3    H127207   4.842   2.510   4.966
 9081TIP3    H227208   4.991   2.484   4.962
 9082TIP3   OH227209   5.859   2.567   2.403
 9082TIP3    H127210   5.774   2.604   2.426
 9082TIP3    H227211   5.896   2.538   2.487
 9083TIP3   OH227212   5.555   2.955   5.408
 9083TIP3    H127213   5.511   2.882   5.364
 9083TIP3    H227214   5.492   2.984   5.474
 9084TIP3   OH227215   0.465   0.741   5.611
 9084TIP3    H127216   0.458   0.832   5.641
 9084TIP3    H227217   0.525   0.700   5.673
 9085TIP3   OH227218   1.215   1.698   0.528
 9085TIP3    H127219   1.177   1.699   0.617
 9085TIP3    H227220   1.289   1.757   0.533
 9086TIP3   OH227221   4.945   1.908   4.147
 9086TIP3    H127222   4.934   1.927   4.240
 9086TIP3    H227223   5.015   1.843   4.143
 9087TIP3   OH227224   2.246   2.595   4.581
 9087TIP3    H127225   2.341   2.590   4.595
 9087TIP3    H227226   2.222   2.682   4.612
 9088TIP3   OH227227   5.006   3.229   1.864
 9088TIP3    H127228   5.017   3.277   1.781
 9088TIP3    H227229   4.923   3.182   1.853
 9089TIP3   OH227230   4.799   1.899   5.595
 9089TIP3    H127231   4.785   1.974   5.653
 9089TIP3    H227232   4.892   1.876   5.607
 9090TIP3   OH227233   4.200   6.189   0.844
 9090TIP3    H127234   4.225   6.117   0.902
 9090TIP3    H227235   4.161   6.146   0.768
 9091TIP3   OH227236   1.157   4.751   0.502
 9091TIP3    H127237   1.181   4.663   0.529
 9091TIP3    H227238   1.100   4.783   0.572
 9092TIP3   OH227239   1.015   6.518   1.406
 9092TIP3    H127240   1.038   6.458   1.476
 9092TIP3    H227241   0.960   6.584   1.447
 9093TIP3   OH227242   1.271   3.152   0.446
 9093TIP3    H127243   1.295   3.105   0.526
 9093TIP3    H227244   1.187   3.192   0.466
 9094TIP3   OH227245   3.627   6.568   1.124
 9094TIP3    H127246   3.548   6.614   1.152
 9094TIP3    H227247   3.598   6.478   1.109
 9095TIP3   OH227248   1.274   0.901   3.071
 9095TIP3    H127249   1.217   0.910   3.148
 9095TIP3    H227250   1.343   0.966   3.084
 9096TIP3   OH227251   3.868   4.859   4.688
 9096TIP3    H127252   3.809   4.933   4.671
 9096TIP3    H227253   3.928   4.859   4.613
 9097TIP3   OH227254   4.025   1.819   5.459
 9097TIP3    H127255   4.007   1.725   5.463
 9097TIP3    H227256   4.083   1.835   5.533
 9098TIP3   OH227257   0.495   5.870   1.930
 9098TIP3    H127258   0.474   5.790   1.881
 9098TIP3    H227259   0.584   5.856   1.961
 9099TIP3   OH227260   4.262   6.224   0.532
 9099TIP3    H127261   4.175   6.202   0.567
 9099TIP3    H227262   4.253   6.210   0.438
 9100TIP3   OH227263   4.527   1.870   3.449
 9100TIP3    H127264   4.609   1.834   3.482
 9100TIP3    H227265   4.536   1.965   3.459
 9101TIP3   OH227266   5.002   5.947   3.840
 9101TIP3    H127267   4.988   5.963   3.933
 9101TIP3    H227268   5.022   5.854   3.834
 9102TIP3   OH227269   4.317   1.278   3.821
 9102TIP3    H127270   4.306   1.226   3.741
 9102TIP3    H227271   4.236   1.327   3.829
 9103TIP3   OH227272   2.228   0.082   0.233
 9103TIP3    H127273   2.137   0.112   0.232
 9103TIP3    H227274   2.223  -0.011   0.211
 9104TIP3   OH227275   0.558   3.630   1.488
 9104TIP3    H127276   0.629   3.573   1.518
 9104TIP3    H227277   0.597   3.682   1.418
 9105TIP3   OH227278   3.916   2.690   1.328
 9105TIP3    H127279   3.876   2.703   1.242
 9105TIP3    H227280   4.002   2.732   1.320
 9106TIP3   OH227281   6.179   0.719   1.021
 9106TIP3    H127282   6.090   0.749   1.037
 9106TIP3    H227283   6.233   0.774   1.077
 9107TIP3   OH227284   7.097   3.362   5.577
 9107TIP3    H127285   7.151   3.286   5.557
 9107TIP3    H227286   7.156   3.421   5.625
 9108TIP3   OH227287   6.477   6.603   0.808
 9108TIP3    H127288   6.399   6.562   0.771
 9108TIP3    H227289   6.511   6.538   0.870
 9109TIP3   OH227290   7.271   1.713   2.280
 9109TIP3    H127291   7.222   1.750   2.207
 9109TIP3    H227292   7.327   1.784   2.310
 9110TIP3   OH227293   2.756   5.040   1.711
 9110TIP3    H127294   2.795   5.018   1.626
 9110TIP3    H227295   2.719   4.957   1.742
 9111TIP3   OH227296   0.900   0.548   3.683
 9111TIP3    H127297   0.898   0.625   3.626
 9111TIP3    H227298   0.808   0.529   3.701
 9112TIP3   OH227299   4.769   4.146   3.778
 9112TIP3    H127300   4.832   4.197   3.828
 9112TIP3    H227301   4.756   4.066   3.830
 9113TIP3   OH227302   5.576   4.996   2.402
 9113TIP3    H127303   5.531   5.058   2.460
 9113TIP3    H227304   5.602   4.924   2.461
 9114TIP3   OH227305   0.745   2.634   1.668
 9114TIP3    H127306   0.778   2.687   1.740
 9114TIP3    H227307   0.695   2.695   1.614
 9115TIP3   OH227308   2.755   6.316   4.987
 9115TIP3    H127309   2.764   6.227   4.952
 9115TIP3    H227310   2.754   6.304   5.082
 9116TIP3   OH227311   4.581   5.262   4.298
 9116TIP3    H127312   4.579   5.298   4.210
 9116TIP3    H227313   4.549   5.172   4.289
 9117TIP3   OH227314   1.006   6.725   4.549
 9117TIP3    H127315   0.958   6.670   4.488
 9117TIP3    H227316   1.038   6.798   4.496
 9118TIP3   OH227317   1.486   0.067   4.310
 9118TIP3    H127318   1.424   0.002   4.342
 9118TIP3    H227319   1.450   0.096   4.226
 9119TIP3   OH227320   1.001   4.273   0.846
 9119TIP3    H127321   1.055   4.280   0.925
 9119TIP3    H227322   1.059   4.296   0.774
 9120TIP3   OH227323   4.317   0.311   3.045
 9120TIP3    H127324   4.233   0.321   3.091
 9120TIP3    H227325   4.382   0.309   3.115
 9121TIP3   OH227326   1.520   5.171   3.776
 9121TIP3    H127327   1.466   5.093   3.762
 9121TIP3    H227328   1.601   5.152   3.730
 9122TIP3   OH227329   7.175   5.274   4.760
 9122TIP3    H127330   7.268   5.252   4.756
 9122TIP3    H227331   7.142   5.225   4.835
 9123TIP3   OH227332   2.231   1.920   4.762
 9123TIP3    H127333   2.202   1.888   4.848
 9123TIP3    H227334   2.166   1.884   4.701
 9124TIP3   OH227335   1.512   6.151   3.133
 9124TIP3    H127336   1.585   6.176   3.190
 9124TIP3    H227337   1.515   6.056   3.130
 9125TIP3   OH227338   6.305   1.646   1.525
 9125TIP3    H127339   6.307   1.660   1.430
 9125TIP3    H227340   6.297   1.551   1.535
 9126TIP3   OH227341   5.193   6.236   2.796
 9126TIP3    H127342   5.170   6.143   2.787
 9126TIP3    H227343   5.254   6.251   2.723
 9127TIP3   OH227344   3.221   2.851   3.135
 9127TIP3    H127345   3.271   2.770   3.141
 9127TIP3    H227346   3.151   2.841   3.200
 9128TIP3   OH227347   2.091   1.143   2.801
 9128TIP3    H127348   2.172   1.098   2.776
 9128TIP3    H227349   2.091   1.144   2.896
 9129TIP3   OH227350   1.395   5.083   2.083
 9129TIP3    H127351   1.302   5.099   2.100
 9129TIP3    H227352   1.432   5.065   2.170
 9130TIP3   OH227353   3.217   6.007   3.711
 9130TIP3    H127354   3.246   6.090   3.751
 9130TIP3    H227355   3.217   6.025   3.617
 9131TIP3   OH227356   3.094   4.296   0.088
 9131TIP3    H127357   3.182   4.330   0.105
 9131TIP3    H227358   3.038   4.374   0.091
 9132TIP3   OH227359   5.778   1.229   3.781
 9132TIP3    H127360   5.715   1.219   3.710
 9132TIP3    H227361   5.775   1.322   3.804
 9133TIP3   OH227362   3.116   4.637   1.733
 9133TIP3    H127363   3.155   4.695   1.667
 9133TIP3    H227364   3.026   4.625   1.704
 9134TIP3   OH227365   4.395   3.103   3.335
 9134TIP3    H127366   4.485   3.118   3.365
 9134TIP3    H227367   4.346   3.084   3.415
 9135TIP3   OH227368   4.603   6.749   3.830
 9135TIP3    H127369   4.628   6.729   3.920
 9135TIP3    H227370   4.645   6.681   3.777
 9136TIP3   OH227371   6.738   5.653   5.235
 9136TIP3    H127372   6.653   5.685   5.266
 9136TIP3    H227373   6.738   5.560   5.257
 9137TIP3   OH227374   2.518   5.242   4.410
 9137TIP3    H127375   2.552   5.280   4.491
 9137TIP3    H227376   2.583   5.176   4.386
 9138TIP3   OH227377   2.763   0.568   5.576
 9138TIP3    H127378   2.697   0.553   5.508
 9138TIP3    H227379   2.842   0.593   5.528
 9139TIP3   OH227380   1.369   1.065   5.199
 9139TIP3    H127381   1.302   1.134   5.197
 9139TIP3    H227382   1.403   1.061   5.110
 9140TIP3   OH227383   4.063   6.378   5.511
 9140TIP3    H127384   4.139   6.411   5.462
 9140TIP3    H227385   4.081   6.403   5.602
 9141TIP3   OH227386   3.111   2.694   2.630
 9141TIP3    H127387   3.098   2.741   2.713
 9141TIP3    H227388   3.115   2.602   2.656
 9142TIP3   OH227389   3.173   2.969   0.657
 9142TIP3    H127390   3.171   3.062   0.638
 9142TIP3    H227391   3.264   2.951   0.681
 9143TIP3   OH227392   2.251   4.853   3.626
 9143TIP3    H127393   2.247   4.790   3.697
 9143TIP3    H227394   2.297   4.929   3.663
 9144TIP3   OH227395   3.631   5.572   2.113
 9144TIP3    H127396   3.613   5.511   2.185
 9144TIP3    H227397   3.709   5.620   2.143
 9145TIP3   OH227398   7.011   3.647   3.315
 9145TIP3    H127399   6.966   3.615   3.393
 9145TIP3    H227400   7.026   3.740   3.332
 9146TIP3   OH227401   0.944   4.189   5.047
 9146TIP3    H127402   0.912   4.130   5.115
 9146TIP3    H227403   0.895   4.270   5.062
 9147TIP3   OH227404   3.283   1.894   3.532
 9147TIP3    H127405   3.222   1.820   3.535
 9147TIP3    H227406   3.313   1.896   3.441
 9148TIP3   OH227407   3.776   4.948   4.959
 9148TIP3    H127408   3.777   4.904   4.873
 9148TIP3    H227409   3.869   4.955   4.983
 9149TIP3   OH227410   5.921   5.382   3.315
 9149TIP3    H127411   5.951   5.392   3.405
 9149TIP3    H227412   5.909   5.472   3.283
 9150TIP3   OH227413   0.972   5.742   1.265
 9150TIP3    H127414   0.968   5.827   1.221
 9150TIP3    H227415   0.968   5.678   1.194
 9151TIP3   OH227416   1.106   5.571   0.300
 9151TIP3    H127417   1.046   5.529   0.361
 9151TIP3    H227418   1.057   5.577   0.218
 9152TIP3   OH227419   2.168   0.189   3.713
 9152TIP3    H127420   2.241   0.187   3.774
 9152TIP3    H227421   2.101   0.242   3.757
 9153TIP3   OH227422   2.223   2.981   3.672
 9153TIP3    H127423   2.166   3.030   3.614
 9153TIP3    H227424   2.275   2.925   3.614
 9154TIP3   OH227425   3.374   2.416   1.374
 9154TIP3    H127426   3.365   2.401   1.468
 9154TIP3    H227427   3.460   2.458   1.364
 9155TIP3   OH227428   3.252   0.053   3.307
 9155TIP3    H127429   3.248   0.121   3.374
 9155TIP3    H227430   3.340   0.016   3.315
 9156TIP3   OH227431   1.196   5.219   2.790
 9156TIP3    H127432   1.160   5.131   2.797
 9156TIP3    H227433   1.244   5.219   2.708
 9157TIP3   OH227434   3.925   1.659   4.891
 9157TIP3    H127435   3.909   1.591   4.956
 9157TIP3    H227436   4.020   1.668   4.888
 9158TIP3   OH227437   4.387   6.230   4.368
 9158TIP3    H127438   4.292   6.231   4.381
 9158TIP3    H227439   4.398   6.213   4.275
 9159TIP3   OH227440   5.418   1.437   0.375
 9159TIP3    H127441   5.442   1.346   0.388
 9159TIP3    H227442   5.339   1.449   0.429
 9160TIP3   OH227443   3.763   6.410   5.757
 9160TIP3    H127444   3.789   6.330   5.710
 9160TIP3    H227445   3.822   6.477   5.723
 9161TIP3   OH227446   6.237   4.098   4.566
 9161TIP3    H127447   6.326   4.064   4.576
 9161TIP3    H227448   6.222   4.150   4.645
 9162TIP3   OH227449   6.690   0.865   4.068
 9162TIP3    H127450   6.755   0.877   3.998
 9162TIP3    H227451   6.606   0.863   4.022
 9163TIP3   OH227452   1.537   5.990   4.890
 9163TIP3    H127453   1.468   6.048   4.860
 9163TIP3    H227454   1.498   5.941   4.963
 9164TIP3   OH227455   0.305   0.177   1.907
 9164TIP3    H127456   0.320   0.150   1.817
 9164TIP3    H227457   0.243   0.250   1.900
 9165TIP3   OH227458   3.052   0.813   2.245
 9165TIP3    H127459   3.105   0.821   2.166
 9165TIP3    H227460   2.987   0.883   2.239
 9166TIP3   OH227461   3.837   1.910   0.333
 9166TIP3    H127462   3.795   1.955   0.260
 9166TIP3    H227463   3.931   1.915   0.313
 9167TIP3   OH227464   7.201   2.523   3.981
 9167TIP3    H127465   7.181   2.563   4.065
 9167TIP3    H227466   7.158   2.437   3.985
 9168TIP3   OH227467   6.754   2.921   0.228
 9168TIP3    H127468   6.703   2.961   0.298
 9168TIP3    H227469   6.704   2.940   0.148
 9169TIP3   OH227470   5.248   3.712   4.597
 9169TIP3    H127471   5.331   3.751   4.624
 9169TIP3    H227472   5.242   3.631   4.647
 9170TIP3   OH227473   2.520   1.556   3.607
 9170TIP3    H127474   2.468   1.510   3.673
 9170TIP3    H227475   2.514   1.648   3.631
 9171TIP3   OH227476   7.133   2.807   4.028
 9171TIP3    H127477   7.045   2.815   4.064
 9171TIP3    H227478   7.129   2.732   3.968
 9172TIP3   OH227479   1.379   3.131   0.892
 9172TIP3    H127480   1.409   3.076   0.964
 9172TIP3    H227481   1.458   3.172   0.858
 9173TIP3   OH227482   5.824   5.661   4.440
 9173TIP3    H127483   5.778   5.741   4.414
 9173TIP3    H227484   5.857   5.625   4.358
 9174TIP3   OH227485   6.351   1.202   0.641
 9174TIP3    H127486   6.336   1.283   0.592
 9174TIP3    H227487   6.384   1.141   0.575
 9175TIP3   OH227488   4.086   2.446   5.894
 9175TIP3    H127489   4.010   2.491   5.929
 9175TIP3    H227490   4.094   2.477   5.804
 9176TIP3   OH227491   4.132   5.052   1.536
 9176TIP3    H127492   4.224   5.027   1.533
 9176TIP3    H227493   4.133   5.146   1.554
 9177TIP3   OH227494   0.514   4.709   3.705
 9177TIP3    H127495   0.563   4.768   3.648
 9177TIP3    H227496   0.496   4.762   3.783
 9178TIP3   OH227497   2.776   4.738   3.845
 9178TIP3    H127498   2.758   4.647   3.823
 9178TIP3    H227499   2.709   4.761   3.910
 9179TIP3   OH227500   6.923   6.258   2.102
 9179TIP3    H127501   6.905   6.342   2.144
 9179TIP3    H227502   7.016   6.263   2.078
 9180TIP3   OH227503   4.178   2.497   2.496
 9180TIP3    H127504   4.107   2.527   2.553
 9180TIP3    H227505   4.147   2.516   2.407
 9181TIP3   OH227506   0.926   1.618   1.801
 9181TIP3    H127507   0.985   1.572   1.861
 9181TIP3    H227508   0.983   1.649   1.731
 9182TIP3   OH227509   6.088   6.121   4.116
 9182TIP3    H127510   6.175   6.088   4.141
 9182TIP3    H227511   6.078   6.202   4.165
 9183TIP3   OH227512   2.761   3.642   5.633
 9183TIP3    H127513   2.760   3.599   5.547
 9183TIP3    H227514   2.849   3.677   5.642
 9184TIP3   OH227515   2.355   3.990   2.632
 9184TIP3    H127516   2.360   4.064   2.693
 9184TIP3    H227517   2.332   4.029   2.548
 9185TIP3   OH227518   1.594   2.627   1.623
 9185TIP3    H127519   1.638   2.710   1.603
 9185TIP3    H227520   1.547   2.644   1.705
 9186TIP3   OH227521   0.887   3.767   3.772
 9186TIP3    H127522   0.865   3.789   3.681
 9186TIP3    H227523   0.940   3.841   3.802
 9187TIP3   OH227524   6.165   6.829   1.376
 9187TIP3    H127525   6.142   6.797   1.463
 9187TIP3    H227526   6.087   6.811   1.323
 9188TIP3   OH227527   1.584   1.938   0.662
 9188TIP3    H127528   1.624   2.024   0.650
 9188TIP3    H227529   1.496   1.946   0.625
 9189TIP3   OH227530   1.187   3.247   3.128
 9189TIP3    H127531   1.162   3.206   3.211
 9189TIP3    H227532   1.280   3.266   3.138
 9190TIP3   OH227533   3.428   2.437   4.516
 9190TIP3    H127534   3.499   2.398   4.465
 9190TIP3    H227535   3.438   2.399   4.604
 9191TIP3   OH227536   6.375   3.653   0.254
 9191TIP3    H127537   6.333   3.576   0.292
 9191TIP3    H227538   6.306   3.695   0.202
 9192TIP3   OH227539   4.018   4.742   3.278
 9192TIP3    H127540   4.037   4.789   3.359
 9192TIP3    H227541   3.926   4.763   3.260
 9193TIP3   OH227542   2.597   4.953   4.325
 9193TIP3    H127543   2.682   4.959   4.368
 9193TIP3    H227544   2.591   4.862   4.297
 9194TIP3   OH227545   0.716   6.595   2.405
 9194TIP3    H127546   0.811   6.596   2.397
 9194TIP3    H227547   0.685   6.655   2.337
 9195TIP3   OH227548   6.404   0.198   1.729
 9195TIP3    H127549   6.418   0.114   1.773
 9195TIP3    H227550   6.493   0.234   1.719
 9196TIP3   OH227551   5.586   5.792   3.725
 9196TIP3    H127552   5.528   5.802   3.801
 9196TIP3    H227553   5.658   5.853   3.742
 9197TIP3   OH227554   4.114   2.133   2.430
 9197TIP3    H127555   4.185   2.152   2.369
 9197TIP3    H227556   4.158   2.110   2.512
 9198TIP3   OH227557   0.056   4.590   5.143
 9198TIP3    H127558   0.088   4.532   5.211
 9198TIP3    H227559   0.093   4.676   5.166
 9199TIP3   OH227560   2.134   5.794   5.109
 9199TIP3    H127561   2.219   5.772   5.147
 9199TIP3    H227562   2.120   5.885   5.133
 9200TIP3   OH227563   2.419   0.095   5.828
 9200TIP3    H127564   2.437   0.070   5.737
 9200TIP3    H227565   2.506   0.103   5.868
 9201TIP3   OH227566   7.030   6.407   3.798
 9201TIP3    H127567   6.959   6.369   3.851
 9201TIP3    H227568   7.009   6.382   3.708
 9202TIP3   OH227569   6.486   6.581   1.660
 9202TIP3    H127570   6.542   6.595   1.736
 9202TIP3    H227571   6.495   6.487   1.641
 9203TIP3   OH227572   5.160   4.678   2.218
 9203TIP3    H127573   5.145   4.770   2.242
 9203TIP3    H227574   5.254   4.672   2.203
 9204TIP3   OH227575   6.888   1.603   0.823
 9204TIP3    H127576   6.874   1.685   0.777
 9204TIP3    H227577   6.879   1.535   0.756
 9205TIP3   OH227578   3.997   5.857   4.096
 9205TIP3    H127579   4.021   5.814   4.014
 9205TIP3    H227580   3.939   5.794   4.139
 9206TIP3   OH227581   1.456   3.461   2.492
 9206TIP3    H127582   1.442   3.383   2.439
 9206TIP3    H227583   1.372   3.477   2.535
 9207TIP3   OH227584   6.002   0.097   0.172
 9207TIP3    H127585   6.091   0.091   0.209
 9207TIP3    H227586   6.015   0.090   0.078
 9208TIP3   OH227587   6.300   5.198   5.427
 9208TIP3    H127588   6.392   5.209   5.403
 9208TIP3    H227589   6.260   5.153   5.353
 9209TIP3   OH227590   0.851   4.533   4.682
 9209TIP3    H127591   0.931   4.481   4.689
 9209TIP3    H227592   0.826   4.526   4.589
 9210TIP3   OH227593   2.348   0.746   1.176
 9210TIP3    H127594   2.277   0.771   1.236
 9210TIP3    H227595   2.420   0.805   1.200
 9211TIP3   OH227596   4.354   3.764   4.446
 9211TIP3    H127597   4.364   3.693   4.510
 9211TIP3    H227598   4.328   3.840   4.499
 9212TIP3   OH227599   5.939   6.445   5.348
 9212TIP3    H127600   5.926   6.353   5.324
 9212TIP3    H227601   5.968   6.443   5.439
 9213TIP3   OH227602   1.332   3.467   1.410
 9213TIP3    H127603   1.249   3.513   1.399
 9213TIP3    H227604   1.326   3.391   1.352
 9214TIP3   OH227605   2.079   3.239   2.116
 9214TIP3    H127606   2.083   3.147   2.141
 9214TIP3    H227607   2.015   3.278   2.176
 9215TIP3   OH227608   3.465   5.263   1.005
 9215TIP3    H127609   3.540   5.204   1.017
 9215TIP3    H227610   3.505   5.348   0.985
 9216TIP3   OH227611   1.031   4.510   0.551
 9216TIP3    H127612   1.022   4.414   0.556
 9216TIP3    H227613   0.998   4.532   0.464
 9217TIP3   OH227614   4.807   5.583   1.955
 9217TIP3    H127615   4.819   5.521   2.026
 9217TIP3    H227616   4.790   5.529   1.878
 9218TIP3   OH227617   4.332   0.724   1.576
 9218TIP3    H127618   4.411   0.690   1.534
 9218TIP3    H227619   4.261   0.699   1.516
 9219TIP3   OH227620   1.124   3.988   3.718
 9219TIP3    H127621   1.209   4.032   3.728
 9219TIP3    H227622   1.121   3.962   3.626
 9220TIP3   OH227623   6.564   5.857   2.832
 9220TIP3    H127624   6.507   5.807   2.774
 9220TIP3    H227625   6.648   5.858   2.787
 9221TIP3   OH227626   2.230   2.581   2.502
 9221TIP3    H127627   2.151   2.629   2.529
 9221TIP3    H227628   2.299   2.615   2.560
 9222TIP3   OH227629   4.894   3.726   2.558
 9222TIP3    H127630   4.853   3.674   2.627
 9222TIP3    H227631   4.859   3.689   2.477
 9223TIP3   OH227632   3.613   2.447   2.880
 9223TIP3    H127633   3.686   2.398   2.843
 9223TIP3    H227634   3.652   2.504   2.947
 9224TIP3   OH227635   2.464   4.892   4.755
 9224TIP3    H127636   2.538   4.864   4.702
 9224TIP3    H227637   2.415   4.953   4.699
 9225TIP3   OH227638   0.679   2.903   0.544
 9225TIP3    H127639   0.647   2.941   0.626
 9225TIP3    H227640   0.738   2.970   0.508
 9226TIP3   OH227641   5.850   6.688   4.156
 9226TIP3    H127642   5.863   6.613   4.214
 9226TIP3    H227643   5.782   6.739   4.198
 9227TIP3   OH227644   4.149   4.924   4.191
 9227TIP3    H127645   4.207   4.977   4.247
 9227TIP3    H227646   4.118   4.986   4.125
 9228TIP3   OH227647   6.216   1.924   0.824
 9228TIP3    H127648   6.249   1.983   0.756
 9228TIP3    H227649   6.130   1.959   0.846
 9229TIP3   OH227650   5.858   5.658   2.475
 9229TIP3    H127651   5.768   5.627   2.484
 9229TIP3    H227652   5.852   5.728   2.409
 9230TIP3   OH227653   4.149   1.474   3.278
 9230TIP3    H127654   4.159   1.554   3.227
 9230TIP3    H227655   4.118   1.409   3.214
 9231TIP3   OH227656   5.810   2.063   1.967
 9231TIP3    H127657   5.825   2.153   1.992
 9231TIP3    H227658   5.870   2.012   2.020
 9232TIP3   OH227659   3.228   1.304   3.455
 9232TIP3    H127660   3.222   1.209   3.464
 9232TIP3    H227661   3.279   1.317   3.375
 9233TIP3   OH227662   6.214   5.436   3.484
 9233TIP3    H127663   6.131   5.409   3.523
 9233TIP3    H227664   6.225   5.527   3.509
 9234TIP3   OH227665   4.083   6.115   4.651
 9234TIP3    H127666   4.167   6.071   4.634
 9234TIP3    H227667   4.021   6.043   4.660
 9235TIP3   OH227668   6.075   1.115   0.956
 9235TIP3    H127669   6.070   1.038   0.900
 9235TIP3    H227670   5.996   1.165   0.936
 9236TIP3   OH227671   2.794   2.389   0.093
 9236TIP3    H127672   2.833   2.395   0.005
 9236TIP3    H227673   2.700   2.397   0.078
 9237TIP3   OH227674   0.469   3.754   2.722
 9237TIP3    H127675   0.451   3.845   2.747
 9237TIP3    H227676   0.526   3.721   2.792
 9238TIP3   OH227677   0.891   0.838   2.225
 9238TIP3    H127678   0.800   0.862   2.245
 9238TIP3    H227679   0.938   0.855   2.306
 9239TIP3   OH227680   6.397   2.266   1.353
 9239TIP3    H127681   6.457   2.301   1.420
 9239TIP3    H227682   6.450   2.208   1.300
 9240TIP3   OH227683   6.185   2.212   1.837
 9240TIP3    H127684   6.196   2.307   1.844
 9240TIP3    H227685   6.245   2.177   1.903
 9241TIP3   OH227686   3.926   0.432   4.035
 9241TIP3    H127687   4.020   0.451   4.041
 9241TIP3    H227688   3.919   0.369   3.962
 9242TIP3   OH227689   7.170   6.206   0.952
 9242TIP3    H127690   7.208   6.258   1.022
 9242TIP3    H227691   7.090   6.253   0.927
 9243TIP3   OH227692   5.241   4.683   0.360
 9243TIP3    H127693   5.194   4.751   0.408
 9243TIP3    H227694   5.199   4.601   0.386
 9244TIP3   OH227695   2.199   2.072   5.109
 9244TIP3    H127696   2.180   2.154   5.064
 9244TIP3    H227697   2.280   2.041   5.069
 9245TIP3   OH227698   1.743   1.004   0.750
 9245TIP3    H127699   1.649   0.987   0.739
 9245TIP3    H227700   1.754   1.095   0.724
 9246TIP3   OH227701   0.208   2.553   4.540
 9246TIP3    H127702   0.237   2.642   4.521
 9246TIP3    H227703   0.113   2.556   4.528
 9247TIP3   OH227704   3.433   1.467   5.817
 9247TIP3    H127705   3.424   1.499   5.907
 9247TIP3    H227706   3.343   1.456   5.787
 9248TIP3   OH227707   7.091   4.522   1.382
 9248TIP3    H127708   7.081   4.603   1.433
 9248TIP3    H227709   7.136   4.462   1.441
 9249TIP3   OH227710   6.934   3.978   5.255
 9249TIP3    H127711   6.868   3.908   5.253
 9249TIP3    H227712   6.897   4.044   5.315
 9250TIP3   OH227713   2.085   1.187   5.205
 9250TIP3    H127714   2.060   1.278   5.223
 9250TIP3    H227715   2.131   1.192   5.121
 9251TIP3   OH227716   2.952   3.504   4.159
 9251TIP3    H127717   3.046   3.496   4.175
 9251TIP3    H227718   2.931   3.430   4.101
 9252TIP3   OH227719   1.108   1.390   0.643
 9252TIP3    H127720   1.159   1.448   0.701
 9252TIP3    H227721   1.035   1.361   0.697
 9253TIP3   OH227722   0.741   3.957   1.014
 9253TIP3    H127723   0.732   3.866   1.043
 9253TIP3    H227724   0.727   3.953   0.919
 9254TIP3   OH227725   3.263   6.007   5.904
 9254TIP3    H127726   3.324   6.073   5.870
 9254TIP3    H227727   3.211   5.982   5.828
 9255TIP3   OH227728   0.983   6.747   0.727
 9255TIP3    H127729   0.899   6.716   0.694
 9255TIP3    H227730   1.009   6.682   0.792
 9256TIP3   OH227731   4.343   5.274   2.168
 9256TIP3    H127732   4.362   5.210   2.237
 9256TIP3    H227733   4.428   5.288   2.125
 9257TIP3   OH227734   1.730   3.805   3.139
 9257TIP3    H127735   1.641   3.781   3.162
 9257TIP3    H227736   1.759   3.737   3.078
 9258TIP3   OH227737   0.601   3.409   4.603
 9258TIP3    H127738   0.598   3.464   4.681
 9258TIP3    H227739   0.536   3.341   4.620
 9259TIP3   OH227740   3.485   0.195   5.466
 9259TIP3    H127741   3.551   0.128   5.485
 9259TIP3    H227742   3.536   0.273   5.445
 9260TIP3   OH227743   3.189   6.441   3.544
 9260TIP3    H127744   3.108   6.406   3.506
 9260TIP3    H227745   3.179   6.427   3.638
 9261TIP3   OH227746   0.906   6.252   5.709
 9261TIP3    H127747   0.819   6.245   5.669
 9261TIP3    H227748   0.964   6.272   5.635
 9262TIP3   OH227749   5.903   6.295   0.916
 9262TIP3    H127750   5.959   6.332   0.984
 9262TIP3    H227751   5.857   6.370   0.878
 9263TIP3   OH227752   1.108   4.363   3.331
 9263TIP3    H127753   1.161   4.292   3.294
 9263TIP3    H227754   1.146   4.443   3.294
 9264TIP3   OH227755   4.708   5.424   4.059
 9264TIP3    H127756   4.627   5.462   4.094
 9264TIP3    H227757   4.692   5.416   3.965
 9265TIP3   OH227758   1.605   6.280   1.296
 9265TIP3    H127759   1.655   6.255   1.373
 9265TIP3    H227760   1.517   6.246   1.311
 9266TIP3   OH227761   4.344   0.663   3.729
 9266TIP3    H127762   4.317   0.703   3.811
 9266TIP3    H227763   4.269   0.611   3.701
 9267TIP3   OH227764   1.406   6.189   0.078
 9267TIP3    H127765   1.363   6.128   0.138
 9267TIP3    H227766   1.467   6.238   0.134
 9268TIP3   OH227767   3.599   1.891   0.814
 9268TIP3    H127768   3.520   1.881   0.761
 9268TIP3    H227769   3.671   1.893   0.751
 9269TIP3   OH227770   4.537   3.654   4.664
 9269TIP3    H127771   4.610   3.671   4.604
 9269TIP3    H227772   4.555   3.710   4.740
 9270TIP3   OH227773   0.781   2.231   2.742
 9270TIP3    H127774   0.694   2.192   2.745
 9270TIP3    H227775   0.817   2.203   2.657
 9271TIP3   OH227776   4.920   4.381   5.377
 9271TIP3    H127777   4.992   4.317   5.379
 9271TIP3    H227778   4.957   4.460   5.416
 9272TIP3   OH227779   0.726   0.584   0.577
 9272TIP3    H127780   0.723   0.670   0.536
 9272TIP3    H227781   0.677   0.595   0.659
 9273TIP3   OH227782   4.117   1.248   4.896
 9273TIP3    H127783   4.127   1.319   4.833
 9273TIP3    H227784   4.205   1.236   4.933
 9274TIP3   OH227785   0.502   5.590   4.646
 9274TIP3    H127786   0.472   5.501   4.632
 9274TIP3    H227787   0.498   5.603   4.740
 9275TIP3   OH227788   1.096   2.899   5.872
 9275TIP3    H127789   1.103   2.941   5.786
 9275TIP3    H227790   1.086   2.806   5.852
 9276TIP3   OH227791   6.110   3.160   4.501
 9276TIP3    H127792   6.059   3.128   4.576
 9276TIP3    H227793   6.071   3.117   4.425
 9277TIP3   OH227794   5.759   0.612   2.594
 9277TIP3    H127795   5.692   0.558   2.636
 9277TIP3    H227796   5.774   0.569   2.510
 9278TIP3   OH227797   5.544   2.593   4.478
 9278TIP3    H127798   5.577   2.629   4.396
 9278TIP3    H227799   5.517   2.504   4.455
 9279TIP3   OH227800   5.870   0.807   2.754
 9279TIP3    H127801   5.839   0.747   2.685
 9279TIP3    H227802   5.800   0.872   2.762
 9280TIP3   OH227803   4.537   6.122   3.515
 9280TIP3    H127804   4.617   6.168   3.541
 9280TIP3    H227805   4.514   6.158   3.430
 9281TIP3   OH227806   3.004   6.113   4.697
 9281TIP3    H127807   2.958   6.151   4.622
 9281TIP3    H227808   3.095   6.107   4.668
 9282TIP3   OH227809   3.854   5.197   1.687
 9282TIP3    H127810   3.870   5.112   1.728
 9282TIP3    H227811   3.793   5.241   1.747
 9283TIP3   OH227812   6.754   1.012   4.584
 9283TIP3    H127813   6.735   0.945   4.520
 9283TIP3    H227814   6.679   1.070   4.582
 9284TIP3   OH227815   1.785   4.702   5.917
 9284TIP3    H127816   1.864   4.654   5.890
 9284TIP3    H227817   1.724   4.690   5.844
 9285TIP3   OH227818   6.880   1.039   3.046
 9285TIP3    H127819   6.863   0.945   3.039
 9285TIP3    H227820   6.794   1.080   3.039
 9286TIP3   OH227821   5.631   0.360   3.538
 9286TIP3    H127822   5.668   0.307   3.467
 9286TIP3    H227823   5.552   0.400   3.500
 9287TIP3   OH227824   3.100   0.551   3.722
 9287TIP3    H127825   3.144   0.627   3.760
 9287TIP3    H227826   3.133   0.477   3.774
 9288TIP3   OH227827   5.266   3.824   3.836
 9288TIP3    H127828   5.224   3.910   3.832
 9288TIP3    H227829   5.200   3.767   3.875
 9289TIP3   OH227830   0.200   1.952   3.900
 9289TIP3    H127831   0.233   1.869   3.866
 9289TIP3    H227832   0.247   2.019   3.851
 9290TIP3   OH227833   5.630   5.837   4.337
 9290TIP3    H127834   5.536   5.835   4.317
 9290TIP3    H227835   5.673   5.845   4.252
 9291TIP3   OH227836   1.564   3.116   3.736
 9291TIP3    H127837   1.657   3.093   3.737
 9291TIP3    H227838   1.524   3.059   3.802
 9292TIP3   OH227839   3.720   1.235   3.313
 9292TIP3    H127840   3.710   1.290   3.235
 9292TIP3    H227841   3.711   1.296   3.386
 9293TIP3   OH227842   4.804   1.398   3.629
 9293TIP3    H127843   4.789   1.403   3.724
 9293TIP3    H227844   4.898   1.414   3.620
 9294TIP3   OH227845   5.855   1.729   4.253
 9294TIP3    H127846   5.927   1.788   4.276
 9294TIP3    H227847   5.832   1.686   4.335
 9295TIP3   OH227848   5.379   3.568   2.825
 9295TIP3    H127849   5.301   3.621   2.809
 9295TIP3    H227850   5.397   3.524   2.742
 9296TIP3   OH227851   1.771   1.682   1.620
 9296TIP3    H127852   1.678   1.667   1.606
 9296TIP3    H227853   1.814   1.631   1.552
 9297TIP3   OH227854   0.557   0.667   5.839
 9297TIP3    H127855   0.626   0.624   5.788
 9297TIP3    H227856   0.604   0.733   5.890
 9298TIP3   OH227857   5.663   0.363   0.772
 9298TIP3    H127858   5.600   0.334   0.838
 9298TIP3    H227859   5.621   0.439   0.731
 9299TIP3   OH227860   0.742   0.265   3.553
 9299TIP3    H127861   0.824   0.254   3.600
 9299TIP3    H227862   0.722   0.178   3.518
 9300TIP3   OH227863   5.619   0.885   3.037
 9300TIP3    H127864   5.565   0.895   3.116
 9300TIP3    H227865   5.557   0.883   2.965
 9301TIP3   OH227866   0.530   1.097   0.675
 9301TIP3    H127867   0.496   1.186   0.687
 9301TIP3    H227868   0.522   1.056   0.761
 9302TIP3   OH227869   1.026   5.102   1.396
 9302TIP3    H127870   1.115   5.113   1.362
 9302TIP3    H227871   1.039   5.073   1.487
 9303TIP3   OH227872   5.815   3.649   5.642
 9303TIP3    H127873   5.872   3.592   5.589
 9303TIP3    H227874   5.765   3.700   5.577
 9304TIP3   OH227875   0.762   5.496   1.415
 9304TIP3    H127876   0.787   5.427   1.353
 9304TIP3    H227877   0.810   5.475   1.494
 9305TIP3   OH227878   3.780   0.945   2.801
 9305TIP3    H127879   3.719   0.878   2.770
 9305TIP3    H227880   3.867   0.909   2.780
 9306TIP3   OH227881   6.074   4.406   1.510
 9306TIP3    H127882   6.019   4.334   1.540
 9306TIP3    H227883   6.160   4.387   1.546
 9307TIP3   OH227884   4.532   3.233   4.783
 9307TIP3    H127885   4.539   3.194   4.871
 9307TIP3    H227886   4.462   3.299   4.792
 9308TIP3   OH227887   0.291   2.220   4.576
 9308TIP3    H127888   0.250   2.166   4.508
 9308TIP3    H227889   0.247   2.305   4.569
 9309TIP3   OH227890   6.263   4.009   5.497
 9309TIP3    H127891   6.354   4.038   5.506
 9309TIP3    H227892   6.255   3.983   5.405
 9310TIP3   OH227893   1.332   1.334   1.681
 9310TIP3    H127894   1.402   1.330   1.615
 9310TIP3    H227895   1.321   1.244   1.709
 9311TIP3   OH227896   2.971   0.519   0.232
 9311TIP3    H127897   2.978   0.562   0.146
 9311TIP3    H227898   2.991   0.588   0.295
 9312TIP3   OH227899   0.830   6.412   0.462
 9312TIP3    H127900   0.877   6.493   0.447
 9312TIP3    H227901   0.746   6.439   0.501
 9313TIP3   OH227902   4.177   3.657   3.364
 9313TIP3    H127903   4.264   3.630   3.393
 9313TIP3    H227904   4.193   3.734   3.309
 9314TIP3   OH227905   6.155   5.027   5.260
 9314TIP3    H127906   6.157   4.933   5.244
 9314TIP3    H227907   6.166   5.067   5.174
 9315TIP3   OH227908   4.564   5.801   3.189
 9315TIP3    H127909   4.525   5.830   3.272
 9315TIP3    H227910   4.509   5.728   3.160
 9316TIP3   OH227911   5.623   4.328   0.142
 9316TIP3    H127912   5.583   4.415   0.150
 9316TIP3    H227913   5.663   4.312   0.228
 9317TIP3   OH227914   3.917   6.114   5.152
 9317TIP3    H127915   3.951   6.029   5.124
 9317TIP3    H227916   3.884   6.155   5.072
 9318TIP3   OH227917   2.773   4.475   3.735
 9318TIP3    H127918   2.809   4.404   3.789
 9318TIP3    H227919   2.825   4.474   3.655
 9319TIP3   OH227920   1.366   3.061   4.491
 9319TIP3    H127921   1.416   3.141   4.508
 9319TIP3    H227922   1.282   3.092   4.458
 9320TIP3   OH227923   6.891   0.451   2.401
 9320TIP3    H127924   6.976   0.487   2.375
 9320TIP3    H227925   6.872   0.386   2.333
 9321TIP3   OH227926   6.535   2.228   2.491
 9321TIP3    H127927   6.595   2.303   2.484
 9321TIP3    H227928   6.452   2.260   2.454
 9322TIP3   OH227929   3.662   6.065   3.155
 9322TIP3    H127930   3.632   6.155   3.139
 9322TIP3    H227931   3.585   6.020   3.189
 9323TIP3   OH227932   3.215   3.053   1.859
 9323TIP3    H127933   3.141   2.993   1.852
 9323TIP3    H227934   3.176   3.139   1.873
 9324TIP3   OH227935   0.443   5.337   5.459
 9324TIP3    H127936   0.486   5.326   5.544
 9324TIP3    H227937   0.454   5.429   5.438
 9325TIP3   OH227938   6.977   3.276   2.626
 9325TIP3    H127939   6.955   3.227   2.546
 9325TIP3    H227940   6.977   3.368   2.599
 9326TIP3   OH227941   4.431   3.795   0.435
 9326TIP3    H127942   4.447   3.878   0.481
 9326TIP3    H227943   4.341   3.772   0.458
 9327TIP3   OH227944   1.493   1.700   4.540
 9327TIP3    H127945   1.436   1.772   4.566
 9327TIP3    H227946   1.530   1.727   4.456
 9328TIP3   OH227947   6.685   6.043   0.534
 9328TIP3    H127948   6.710   6.135   0.537
 9328TIP3    H227949   6.667   6.020   0.625
 9329TIP3   OH227950   1.722   5.728   0.187
 9329TIP3    H127951   1.766   5.780   0.119
 9329TIP3    H227952   1.629   5.736   0.166
 9330TIP3   OH227953   5.873   5.832   5.390
 9330TIP3    H127954   5.807   5.817   5.321
 9330TIP3    H227955   5.822   5.859   5.466
 9331TIP3   OH227956   3.789   6.044   0.770
 9331TIP3    H127957   3.736   6.041   0.850
 9331TIP3    H227958   3.732   6.086   0.705
 9332TIP3   OH227959   1.837   4.816   4.671
 9332TIP3    H127960   1.816   4.797   4.762
 9332TIP3    H227961   1.924   4.856   4.673
 9333TIP3   OH227962   4.385   5.480   1.299
 9333TIP3    H127963   4.377   5.420   1.225
 9333TIP3    H227964   4.314   5.456   1.358
 9334TIP3   OH227965   2.514   0.628   4.184
 9334TIP3    H127966   2.485   0.641   4.275
 9334TIP3    H227967   2.593   0.574   4.192
 9335TIP3   OH227968   0.141   6.668   5.341
 9335TIP3    H127969   0.116   6.713   5.422
 9335TIP3    H227970   0.235   6.686   5.333
 9336TIP3   OH227971   5.705   1.582   5.682
 9336TIP3    H127972   5.639   1.636   5.725
 9336TIP3    H227973   5.661   1.548   5.604
 9337TIP3   OH227974   5.085   5.578   1.208
 9337TIP3    H127975   5.083   5.488   1.241
 9337TIP3    H227976   5.009   5.584   1.150
 9338TIP3   OH227977   1.729   6.377   2.684
 9338TIP3    H127978   1.679   6.441   2.734
 9338TIP3    H227979   1.663   6.324   2.640
 9339TIP3   OH227980   6.804   5.482   4.462
 9339TIP3    H127981   6.798   5.577   4.468
 9339TIP3    H227982   6.898   5.464   4.467
 9340TIP3   OH227983   6.412   5.585   0.246
 9340TIP3    H127984   6.469   5.647   0.200
 9340TIP3    H227985   6.471   5.516   0.277
 9341TIP3   OH227986   1.912   2.348   2.308
 9341TIP3    H127987   1.993   2.388   2.276
 9341TIP3    H227988   1.852   2.353   2.234
 9342TIP3   OH227989   6.347   0.987   0.808
 9342TIP3    H127990   6.261   0.945   0.817
 9342TIP3    H227991   6.327   1.079   0.792
 9343TIP3   OH227992   0.579   6.604   2.640
 9343TIP3    H127993   0.609   6.541   2.706
 9343TIP3    H227994   0.643   6.598   2.570
 9344TIP3   OH227995   5.182   2.190   4.707
 9344TIP3    H127996   5.224   2.258   4.654
 9344TIP3    H227997   5.184   2.223   4.796
 9345TIP3   OH227998   5.867   0.863   1.516
 9345TIP3    H127999   5.867   0.904   1.430
 9345TIP3    H228000   5.945   0.807   1.518
 9346TIP3   OH228001   1.839   4.227   3.724
 9346TIP3    H128002   1.897   4.151   3.733
 9346TIP3    H228003   1.817   4.230   3.631
 9347TIP3   OH228004   1.574   4.036   3.809
 9347TIP3    H128005   1.624   3.994   3.739
 9347TIP3    H228006   1.496   4.071   3.765
 9348TIP3   OH228007   1.173   5.896   4.207
 9348TIP3    H128008   1.110   5.959   4.240
 9348TIP3    H228009   1.257   5.923   4.246
 9349TIP3   OH228010   2.856   4.642   1.635
 9349TIP3    H128011   2.851   4.729   1.595
 9349TIP3    H228012   2.791   4.590   1.588
 9350TIP3   OH228013   2.819   1.228   3.059
 9350TIP3    H128014   2.735   1.211   3.102
 9350TIP3    H228015   2.853   1.140   3.039
 9351TIP3   OH228016   3.959   4.117   2.187
 9351TIP3    H128017   4.052   4.115   2.209
 9351TIP3    H228018   3.955   4.082   2.098
 9352TIP3   OH228019   3.869   6.320   1.375
 9352TIP3    H128020   3.833   6.399   1.414
 9352TIP3    H228021   3.960   6.342   1.356
 9353TIP3   OH228022   1.806   4.273   4.464
 9353TIP3    H128023   1.779   4.319   4.384
 9353TIP3    H228024   1.876   4.327   4.500
 9354TIP3   OH228025   5.295   6.044   5.244
 9354TIP3    H128026   5.365   6.099   5.208
 9354TIP3    H228027   5.340   5.965   5.275
 9355TIP3   OH228028   6.292   4.670   1.709
 9355TIP3    H128029   6.261   4.689   1.620
 9355TIP3    H228030   6.372   4.721   1.718
 9356TIP3   OH228031   5.040   2.272   4.411
 9356TIP3    H128032   5.113   2.311   4.458
 9356TIP3    H228033   5.064   2.180   4.401
 9357TIP3   OH228034   6.199   2.184   5.048
 9357TIP3    H128035   6.277   2.234   5.022
 9357TIP3    H228036   6.151   2.243   5.105
 9358TIP3   OH228037   0.997   4.753   0.742
 9358TIP3    H128038   0.904   4.768   0.758
 9358TIP3    H228039   1.000   4.675   0.686
 9359TIP3   OH228040   3.154   2.390   4.558
 9359TIP3    H128041   3.127   2.479   4.581
 9359TIP3    H228042   3.246   2.399   4.534
 9360TIP3   OH228043   4.192   1.914   5.674
 9360TIP3    H128044   4.212   1.871   5.757
 9360TIP3    H228045   4.137   1.989   5.698
 9361TIP3   OH228046   6.080   6.425   3.725
 9361TIP3    H128047   6.013   6.472   3.773
 9361TIP3    H228048   6.064   6.333   3.744
 9362TIP3   OH228049   5.138   3.113   2.097
 9362TIP3    H128050   5.063   3.141   2.046
 9362TIP3    H228051   5.193   3.064   2.035
 9363TIP3   OH228052   6.553   2.018   1.639
 9363TIP3    H128053   6.568   2.028   1.733
 9363TIP3    H228054   6.473   1.967   1.633
 9364TIP3   OH228055   3.197   3.960   3.849
 9364TIP3    H128056   3.123   3.994   3.799
 9364TIP3    H228057   3.163   3.947   3.937
 9365TIP3   OH228058   5.521   6.461   2.354
 9365TIP3    H128059   5.492   6.472   2.263
 9365TIP3    H228060   5.616   6.472   2.349
 9366TIP3   OH228061   4.507   0.509   1.019
 9366TIP3    H128062   4.414   0.531   1.033
 9366TIP3    H228063   4.524   0.437   1.080
 9367TIP3   OH228064   3.831   2.780   1.568
 9367TIP3    H128065   3.851   2.739   1.484
 9367TIP3    H228066   3.760   2.841   1.548
 9368TIP3   OH228067   4.738   5.210   0.484
 9368TIP3    H128068   4.782   5.208   0.570
 9368TIP3    H228069   4.754   5.123   0.447
 9369TIP3   OH228070   1.714   5.835   1.766
 9369TIP3    H128071   1.647   5.899   1.742
 9369TIP3    H228072   1.721   5.842   1.861
 9370TIP3   OH228073   4.592   0.324   5.705
 9370TIP3    H128074   4.676   0.349   5.743
 9370TIP3    H228075   4.583   0.380   5.627
 9371TIP3   OH228076   1.394   6.627   4.125
 9371TIP3    H128077   1.391   6.718   4.156
 9371TIP3    H228078   1.360   6.576   4.199
 9372TIP3   OH228079   6.291   5.286   0.155
 9372TIP3    H128080   6.266   5.373   0.185
 9372TIP3    H228081   6.328   5.244   0.233
 9373TIP3   OH228082   3.675   2.890   4.537
 9373TIP3    H128083   3.763   2.885   4.498
 9373TIP3    H228084   3.623   2.827   4.488
 9374TIP3   OH228085   2.431   1.270   4.601
 9374TIP3    H128086   2.458   1.315   4.681
 9374TIP3    H228087   2.378   1.334   4.554
 9375TIP3   OH228088   0.703   4.305   3.925
 9375TIP3    H128089   0.694   4.389   3.880
 9375TIP3    H228090   0.773   4.259   3.878
 9376TIP3   OH228091   0.472   4.137   2.592
 9376TIP3    H128092   0.388   4.177   2.610
 9376TIP3    H228093   0.486   4.077   2.665
 9377TIP3   OH228094   5.524   5.897   1.785
 9377TIP3    H128095   5.482   5.855   1.710
 9377TIP3    H228096   5.578   5.966   1.746
 9378TIP3   OH228097   2.111   1.959   3.540
 9378TIP3    H128098   2.166   1.882   3.528
 9378TIP3    H228099   2.048   1.956   3.468
 9379TIP3   OH228100   7.058   5.193   3.413
 9379TIP3    H128101   7.012   5.253   3.354
 9379TIP3    H228102   7.020   5.211   3.499
 9380TIP3   OH228103   6.641   5.700   0.425
 9380TIP3    H128104   6.596   5.731   0.504
 9380TIP3    H228105   6.640   5.774   0.366
 9381TIP3   OH228106   1.856   2.609   5.646
 9381TIP3    H128107   1.807   2.691   5.639
 9381TIP3    H228108   1.843   2.566   5.561
 9382TIP3   OH228109   3.239   0.175   2.418
 9382TIP3    H128110   3.296   0.171   2.342
 9382TIP3    H228111   3.192   0.258   2.409
 9383TIP3   OH228112   2.762   5.510   0.346
 9383TIP3    H128113   2.790   5.600   0.363
 9383TIP3    H228114   2.823   5.456   0.396
 9384TIP3   OH228115   4.284   0.758   3.973
 9384TIP3    H128116   4.223   0.788   4.040
 9384TIP3    H228117   4.352   0.825   3.970
 9385TIP3   OH228118   3.308   5.155   5.240
 9385TIP3    H128119   3.325   5.227   5.300
 9385TIP3    H228120   3.381   5.156   5.179
 9386TIP3   OH228121   2.186   2.593   0.353
 9386TIP3    H128122   2.213   2.519   0.299
 9386TIP3    H228123   2.094   2.575   0.374
 9387TIP3   OH228124   1.495   4.749   3.017
 9387TIP3    H128125   1.487   4.753   3.112
 9387TIP3    H228126   1.555   4.677   3.001
 9388TIP3   OH228127   2.292   2.406   0.930
 9388TIP3    H128128   2.341   2.362   0.860
 9388TIP3    H228129   2.341   2.487   0.946
 9389TIP3   OH228130   2.886   4.544   5.127
 9389TIP3    H128131   2.868   4.617   5.069
 9389TIP3    H228132   2.964   4.571   5.175
 9390TIP3   OH228133   5.049   4.551   0.974
 9390TIP3    H128134   5.033   4.457   0.986
 9390TIP3    H228135   5.070   4.561   0.882
 9391TIP3   OH228136   4.907   6.313   4.988
 9391TIP3    H128137   4.970   6.252   5.027
 9391TIP3    H228138   4.849   6.257   4.936
 9392TIP3   OH228139   6.231   2.960   3.142
 9392TIP3    H128140   6.220   2.894   3.211
 9392TIP3    H228141   6.141   2.988   3.121
 9393TIP3   OH228142   6.040   1.426   5.864
 9393TIP3    H128143   6.028   1.412   5.958
 9393TIP3    H228144   6.086   1.510   5.858
 9394TIP3   OH228145   6.046   2.738   1.454
 9394TIP3    H128146   6.042   2.749   1.549
 9394TIP3    H228147   5.955   2.742   1.426
 9395TIP3   OH228148   4.131   2.707   2.211
 9395TIP3    H128149   4.078   2.751   2.278
 9395TIP3    H228150   4.112   2.614   2.223
 9396TIP3   OH228151   0.889   0.468   5.223
 9396TIP3    H128152   0.903   0.376   5.204
 9396TIP3    H228153   0.960   0.514   5.178
 9397TIP3   OH228154   6.521   1.390   0.923
 9397TIP3    H128155   6.426   1.386   0.929
 9397TIP3    H228156   6.552   1.318   0.979
 9398TIP3   OH228157   2.088   4.197   0.244
 9398TIP3    H128158   2.039   4.119   0.219
 9398TIP3    H228159   2.031   4.242   0.306
 9399TIP3   OH228160   5.948   6.194   3.716
 9399TIP3    H128161   6.003   6.117   3.730
 9399TIP3    H228162   5.936   6.198   3.621
 9400TIP3   OH228163   5.538   4.955   4.315
 9400TIP3    H128164   5.540   4.946   4.219
 9400TIP3    H228165   5.610   4.899   4.345
 9401TIP3   OH228166   4.023   6.591   2.959
 9401TIP3    H128167   4.006   6.498   2.974
 9401TIP3    H228168   3.937   6.632   2.965
 9402TIP3   OH228169   0.338   4.233   1.971
 9402TIP3    H128170   0.318   4.147   1.935
 9402TIP3    H228171   0.382   4.215   2.054
 9403TIP3   OH228172   0.886   0.750   1.512
 9403TIP3    H128173   0.867   0.696   1.588
 9403TIP3    H228174   0.893   0.839   1.546
 9404TIP3   OH228175   0.887   1.006   1.663
 9404TIP3    H128176   0.903   1.095   1.695
 9404TIP3    H228177   0.886   0.952   1.741
 9405TIP3   OH228178   1.693   2.635   2.255
 9405TIP3    H128179   1.723   2.703   2.194
 9405TIP3    H228180   1.599   2.628   2.238
 9406TIP3   OH228181   4.512   5.682   2.080
 9406TIP3    H128182   4.542   5.728   2.002
 9406TIP3    H228183   4.420   5.705   2.087
 9407TIP3   OH228184   2.745   6.102   3.559
 9407TIP3    H128185   2.769   6.052   3.481
 9407TIP3    H228186   2.796   6.061   3.630
 9408TIP3   OH228187   0.251   4.633   3.721
 9408TIP3    H128188   0.329   4.677   3.688
 9408TIP3    H228189   0.264   4.627   3.816
 9409TIP3   OH228190   7.144   4.817   0.076
 9409TIP3    H128191   7.169   4.852  -0.010
 9409TIP3    H228192   7.218   4.836   0.133
 9410TIP3   OH228193   4.680   0.546   3.387
 9410TIP3    H128194   4.614   0.572   3.451
 9410TIP3    H228195   4.729   0.476   3.431
 9411TIP3   OH228196   5.404   3.969   2.158
 9411TIP3    H128197   5.361   4.045   2.197
 9411TIP3    H228198   5.333   3.913   2.129
 9412TIP3   OH228199   7.150   4.777   4.021
 9412TIP3    H128200   7.140   4.683   4.034
 9412TIP3    H228201   7.060   4.811   4.026
 9413TIP3   OH228202   2.692   1.366   5.471
 9413TIP3    H128203   2.719   1.280   5.440
 9413TIP3    H228204   2.749   1.385   5.545
 9414TIP3   OH228205   5.280   0.474   5.696
 9414TIP3    H128206   5.205   0.533   5.683
 9414TIP3    H228207   5.327   0.512   5.770
 9415TIP3   OH228208   5.867   2.626   2.100
 9415TIP3    H128209   5.772   2.633   2.094
 9415TIP3    H228210   5.884   2.599   2.190
 9416TIP3   OH228211   1.403   1.211   4.766
 9416TIP3    H128212   1.485   1.250   4.736
 9416TIP3    H228213   1.342   1.284   4.774
 9417TIP3   OH228214   3.605   1.862   1.674
 9417TIP3    H128215   3.524   1.816   1.649
 9417TIP3    H228216   3.575   1.939   1.722
 9418TIP3   OH228217   2.763   4.141   0.803
 9418TIP3    H128218   2.838   4.128   0.862
 9418TIP3    H228219   2.687   4.135   0.860
 9419TIP3   OH228220   2.714   3.858   5.810
 9419TIP3    H128221   2.721   3.940   5.762
 9419TIP3    H228222   2.736   3.790   5.746
 9420TIP3   OH228223   5.495   6.649   0.834
 9420TIP3    H128224   5.530   6.653   0.745
 9420TIP3    H228225   5.436   6.724   0.840
 9421TIP3   OH228226   6.687   0.075   4.677
 9421TIP3    H128227   6.621   0.143   4.674
 9421TIP3    H228228   6.639  -0.004   4.703
 9422TIP3   OH228229   0.947   1.465   1.551
 9422TIP3    H128230   0.935   1.560   1.549
 9422TIP3    H228231   1.019   1.449   1.490
 9423TIP3   OH228232   5.023   3.159   3.291
 9423TIP3    H128233   5.097   3.205   3.252
 9423TIP3    H228234   4.982   3.224   3.347
 9424TIP3   OH228235   5.379   2.271   3.101
 9424TIP3    H128236   5.344   2.329   3.033
 9424TIP3    H228237   5.316   2.199   3.105
 9425TIP3   OH228238   0.448   2.680   1.303
 9425TIP3    H128239   0.421   2.591   1.322
 9425TIP3    H228240   0.486   2.675   1.215
 9426TIP3   OH228241   2.001   2.093   1.068
 9426TIP3    H128242   2.025   2.160   1.005
 9426TIP3    H228243   1.924   2.128   1.112
 9427TIP3   OH228244   5.834   3.238   1.405
 9427TIP3    H128245   5.873   3.177   1.468
 9427TIP3    H228246   5.785   3.300   1.460
 9428TIP3   OH228247   1.433   3.113   4.996
 9428TIP3    H128248   1.347   3.154   5.004
 9428TIP3    H228249   1.415   3.019   5.001
 9429TIP3   OH228250   3.693   6.629   0.487
 9429TIP3    H128251   3.746   6.708   0.474
 9429TIP3    H228252   3.603   6.660   0.486
 9430TIP3   OH228253   6.411   0.686   5.003
 9430TIP3    H128254   6.450   0.738   4.932
 9430TIP3    H228255   6.337   0.641   4.962
 9431TIP3   OH228256   1.788   0.201   5.346
 9431TIP3    H128257   1.712   0.167   5.297
 9431TIP3    H228258   1.851   0.225   5.279
 9432TIP3   OH228259   5.961   5.554   5.449
 9432TIP3    H128260   5.925   5.642   5.458
 9432TIP3    H228261   6.024   5.561   5.378
 9433TIP3   OH228262   5.711   5.862   5.600
 9433TIP3    H128263   5.617   5.847   5.589
 9433TIP3    H228264   5.730   5.833   5.689
 9434TIP3   OH228265   4.319   5.065   4.359
 9434TIP3    H128266   4.381   5.005   4.401
 9434TIP3    H228267   4.310   5.138   4.420
 9435TIP3   OH228268   1.786   1.152   3.046
 9435TIP3    H128269   1.770   1.224   2.985
 9435TIP3    H228270   1.744   1.180   3.128
 9436TIP3   OH228271   3.066   0.203   3.746
 9436TIP3    H128272   3.019   0.264   3.802
 9436TIP3    H228273   3.092   0.131   3.804
 9437TIP3   OH228274   5.431   5.417   3.318
 9437TIP3    H128275   5.406   5.340   3.267
 9437TIP3    H228276   5.522   5.433   3.295
 9438TIP3   OH228277   0.493   0.722   2.546
 9438TIP3    H128278   0.576   0.703   2.590
 9438TIP3    H228279   0.427   0.682   2.602
 9439TIP3   OH228280   4.663   0.771   3.206
 9439TIP3    H128281   4.601   0.843   3.222
 9439TIP3    H228282   4.653   0.714   3.282
 9440TIP3   OH228283   0.762   2.048   5.318
 9440TIP3    H128284   0.695   2.107   5.285
 9440TIP3    H228285   0.771   2.071   5.411
 9441TIP3   OH228286   4.129   0.996   1.611
 9441TIP3    H128287   4.119   0.903   1.590
 9441TIP3    H228288   4.195   0.998   1.681
 9442TIP3   OH228289   2.484   5.501   5.067
 9442TIP3    H128290   2.485   5.585   5.114
 9442TIP3    H228291   2.537   5.516   4.989
 9443TIP3   OH228292   4.093   6.391   1.199
 9443TIP3    H128293   4.179   6.404   1.160
 9443TIP3    H228294   4.076   6.297   1.188
 9444TIP3   OH228295   4.492   2.804   5.268
 9444TIP3    H128296   4.534   2.754   5.337
 9444TIP3    H228297   4.559   2.865   5.238
 9445TIP3   OH228298   3.432   2.204   3.429
 9445TIP3    H128299   3.406   2.172   3.516
 9445TIP3    H228300   3.512   2.254   3.446
 9446TIP3   OH228301   5.955   4.178   0.828
 9446TIP3    H128302   5.966   4.098   0.880
 9446TIP3    H228303   5.906   4.237   0.886
 9447TIP3   OH228304   6.074   6.108   2.829
 9447TIP3    H128305   6.031   6.154   2.901
 9447TIP3    H228306   6.006   6.100   2.762
 9448TIP3   OH228307   1.181   3.999   3.455
 9448TIP3    H128308   1.205   4.076   3.403
 9448TIP3    H228309   1.194   3.925   3.396
 9449TIP3   OH228310   4.168   2.474   4.119
 9449TIP3    H128311   4.128   2.402   4.168
 9449TIP3    H228312   4.181   2.438   4.031
 9450TIP3   OH228313   7.048   1.891   4.678
 9450TIP3    H128314   7.055   1.986   4.669
 9450TIP3    H228315   6.972   1.867   4.624
 9451TIP3   OH228316   5.659   2.286   3.159
 9451TIP3    H128317   5.567   2.285   3.134
 9451TIP3    H228318   5.675   2.374   3.191
 9452TIP3   OH228319   3.681   2.330   3.564
 9452TIP3    H128320   3.730   2.371   3.635
 9452TIP3    H228321   3.683   2.394   3.493
 9453TIP3   OH228322   5.799   2.804   3.359
 9453TIP3    H128323   5.858   2.879   3.357
 9453TIP3    H228324   5.856   2.728   3.365
 9454TIP3   OH228325   7.166   4.174   4.657
 9454TIP3    H128326   7.132   4.099   4.706
 9454TIP3    H228327   7.112   4.248   4.685
 9455TIP3   OH228328   0.906   3.991   2.148
 9455TIP3    H128329   0.965   3.967   2.077
 9455TIP3    H228330   0.923   4.084   2.163
 9456TIP3   OH228331   2.092   0.843   2.719
 9456TIP3    H128332   2.015   0.891   2.750
 9456TIP3    H228333   2.133   0.903   2.656
 9457TIP3   OH228334   6.333   3.380   0.929
 9457TIP3    H128335   6.264   3.340   0.983
 9457TIP3    H228336   6.306   3.472   0.921
 9458TIP3   OH228337   2.952   2.000   2.417
 9458TIP3    H128338   2.983   1.943   2.487
 9458TIP3    H228339   2.953   2.088   2.455
 9459TIP3   OH228340   3.162   6.207   5.033
 9459TIP3    H128341   3.097   6.267   4.997
 9459TIP3    H228342   3.147   6.124   4.987
 9460TIP3   OH228343   1.005   1.237   0.115
 9460TIP3    H128344   0.959   1.295   0.054
 9460TIP3    H228345   0.958   1.249   0.198
 9461TIP3   OH228346   6.159   4.680   1.427
 9461TIP3    H128347   6.079   4.729   1.444
 9461TIP3    H228348   6.132   4.588   1.433
 9462TIP3   OH228349   3.435   4.225   2.521
 9462TIP3    H128350   3.374   4.254   2.588
 9462TIP3    H228351   3.470   4.142   2.554
 9463TIP3   OH228352   6.381   6.075   0.514
 9463TIP3    H128353   6.433   6.149   0.546
 9463TIP3    H228354   6.372   6.091   0.420
 9464TIP3   OH228355   3.545   2.303   4.118
 9464TIP3    H128356   3.594   2.256   4.050
 9464TIP3    H228357   3.563   2.395   4.101
 9465TIP3   OH228358   0.553   0.506   1.839
 9465TIP3    H128359   0.484   0.514   1.905
 9465TIP3    H228360   0.523   0.433   1.783
 9466TIP3   OH228361   1.942   5.594   4.570
 9466TIP3    H128362   2.038   5.592   4.562
 9466TIP3    H228363   1.921   5.514   4.619
 9467TIP3   OH228364   2.286   3.447   3.825
 9467TIP3    H128365   2.307   3.363   3.866
 9467TIP3    H228366   2.361   3.464   3.767
 9468TIP3   OH228367   2.796   6.027   5.383
 9468TIP3    H128368   2.732   6.021   5.453
 9468TIP3    H228369   2.880   6.038   5.427
 9469TIP3   OH228370   6.293   6.473   0.672
 9469TIP3    H128371   6.223   6.408   0.676
 9469TIP3    H228372   6.250   6.556   0.690
 9470TIP3   OH228373   0.458   3.200   0.508
 9470TIP3    H128374   0.414   3.115   0.497
 9470TIP3    H228375   0.551   3.181   0.498
 9471TIP3   OH228376   0.280   0.578   3.115
 9471TIP3    H128377   0.251   0.559   3.205
 9471TIP3    H228378   0.253   0.502   3.064
 9472TIP3   OH228379   2.160   6.567   1.006
 9472TIP3    H128380   2.213   6.515   1.066
 9472TIP3    H228381   2.221   6.592   0.936
 9473TIP3   OH228382   0.700   3.335   2.830
 9473TIP3    H128383   0.647   3.357   2.754
 9473TIP3    H228384   0.637   3.322   2.901
 9474TIP3   OH228385   3.847   1.592   3.678
 9474TIP3    H128386   3.789   1.519   3.655
 9474TIP3    H228387   3.788   1.666   3.691
 9475TIP3   OH228388   0.969   3.795   3.508
 9475TIP3    H128389   1.057   3.760   3.519
 9475TIP3    H228390   0.960   3.811   3.414
 9476TIP3   OH228391   3.416   5.002   0.615
 9476TIP3    H128392   3.463   5.046   0.545
 9476TIP3    H228393   3.463   4.919   0.626
 9477TIP3   OH228394   1.477   4.306   5.470
 9477TIP3    H128395   1.383   4.318   5.481
 9477TIP3    H228396   1.508   4.277   5.556
 9478TIP3   OH228397   2.031   6.619   1.244
 9478TIP3    H128398   2.048   6.607   1.150
 9478TIP3    H228399   1.936   6.633   1.249
 9479TIP3   OH228400   3.480   0.944   2.114
 9479TIP3    H128401   3.514   0.873   2.168
 9479TIP3    H228402   3.556   0.976   2.066
 9480TIP3   OH228403   2.987   4.965   4.256
 9480TIP3    H128404   2.978   4.871   4.269
 9480TIP3    H228405   2.957   4.979   4.166
 9481TIP3   OH228406   5.949   5.759   4.782
 9481TIP3    H128407   5.856   5.757   4.758
 9481TIP3    H228408   5.994   5.732   4.702
 9482TIP3   OH228409   4.626   5.523   3.396
 9482TIP3    H128410   4.664   5.609   3.375
 9482TIP3    H228411   4.541   5.543   3.434
 9483TIP3   OH228412   2.496   5.649   3.666
 9483TIP3    H128413   2.536   5.562   3.659
 9483TIP3    H228414   2.460   5.651   3.755
 9484TIP3   OH228415   0.360   2.611   1.668
 9484TIP3    H128416   0.299   2.619   1.595
 9484TIP3    H228417   0.415   2.536   1.646
 9485TIP3   OH228418   6.777   1.288   5.778
 9485TIP3    H128419   6.707   1.309   5.839
 9485TIP3    H228420   6.733   1.245   5.705
 9486TIP3   OH228421   5.622   4.121   4.167
 9486TIP3    H128422   5.699   4.177   4.174
 9486TIP3    H228423   5.637   4.050   4.229
 9487TIP3   OH228424   6.996   2.742   3.232
 9487TIP3    H128425   7.075   2.709   3.276
 9487TIP3    H228426   7.023   2.827   3.197
 9488TIP3   OH228427   3.238   6.395   1.504
 9488TIP3    H128428   3.148   6.404   1.534
 9488TIP3    H228429   3.237   6.317   1.448
 9489TIP3   OH228430   3.693   5.058   5.316
 9489TIP3    H128431   3.660   5.012   5.239
 9489TIP3    H228432   3.646   5.017   5.389
 9490TIP3   OH228433   6.078   3.480   1.217
 9490TIP3    H128434   5.993   3.455   1.254
 9490TIP3    H228435   6.089   3.422   1.142
 9491TIP3   OH228436   3.106   6.448   5.567
 9491TIP3    H128437   3.107   6.510   5.493
 9491TIP3    H228438   3.195   6.413   5.569
 9492TIP3   OH228439   5.184   6.112   1.409
 9492TIP3    H128440   5.194   6.103   1.503
 9492TIP3    H228441   5.245   6.048   1.371
 9493TIP3   OH228442   3.714   1.498   0.733
 9493TIP3    H128443   3.644   1.515   0.796
 9493TIP3    H228444   3.682   1.426   0.679
 9494TIP3   OH228445   2.708   2.718   4.593
 9494TIP3    H128446   2.721   2.658   4.520
 9494TIP3    H228447   2.662   2.793   4.554
 9495TIP3   OH228448   6.306   2.413   0.138
 9495TIP3    H128449   6.257   2.397   0.058
 9495TIP3    H228450   6.240   2.438   0.202
 9496TIP3   OH228451   3.843   5.694   0.117
 9496TIP3    H128452   3.842   5.777   0.070
 9496TIP3    H228453   3.863   5.718   0.207
 9497TIP3   OH228454   6.178   2.905   1.051
 9497TIP3    H128455   6.094   2.860   1.054
 9497TIP3    H228456   6.236   2.853   1.107
 9498TIP3   OH228457   4.888   4.472   0.069
 9498TIP3    H128458   4.876   4.471  -0.026
 9498TIP3    H228459   4.982   4.461   0.082
 9499TIP3   OH228460   0.330   5.300   5.064
 9499TIP3    H128461   0.288   5.385   5.081
 9499TIP3    H228462   0.257   5.239   5.055
 9500TIP3   OH228463   1.969   6.724   4.191
 9500TIP3    H128464   1.892   6.775   4.165
 9500TIP3    H228465   2.034   6.740   4.122
 9501TIP3   OH228466   0.586   2.261   5.303
 9501TIP3    H128467   0.572   2.319   5.228
 9501TIP3    H228468   0.633   2.315   5.366
 9502TIP3   OH228469   3.418   1.444   4.155
 9502TIP3    H128470   3.499   1.450   4.106
 9502TIP3    H228471   3.374   1.528   4.141
 9503TIP3   OH228472   4.361   0.920   0.265
 9503TIP3    H128473   4.357   0.850   0.330
 9503TIP3    H228474   4.309   0.888   0.191
 9504TIP3   OH228475   3.232   3.344   0.268
 9504TIP3    H128476   3.163   3.383   0.214
 9504TIP3    H228477   3.214   3.250   0.264
 9505TIP3   OH228478   1.031   6.158   2.405
 9505TIP3    H128479   1.069   6.217   2.470
 9505TIP3    H228480   1.066   6.189   2.321
 9506TIP3   OH228481   0.325   1.865   4.948
 9506TIP3    H128482   0.356   1.924   4.878
 9506TIP3    H228483   0.341   1.777   4.914
 9507TIP3   OH228484   6.744   5.659   5.884
 9507TIP3    H128485   6.697   5.672   5.801
 9507TIP3    H228486   6.773   5.568   5.881
 9508TIP3   OH228487   0.840   1.652   4.546
 9508TIP3    H128488   0.839   1.559   4.521
 9508TIP3    H228489   0.874   1.652   4.636
 9509TIP3   OH228490   0.126   0.948   2.107
 9509TIP3    H128491   0.056   0.943   2.173
 9509TIP3    H228492   0.115   1.034   2.067
 9510TIP3   OH228493   1.473   1.176   2.972
 9510TIP3    H128494   1.500   1.098   2.923
 9510TIP3    H228495   1.553   1.226   2.984
 9511TIP3   OH228496   5.527   4.989   4.053
 9511TIP3    H128497   5.444   4.943   4.050
 9511TIP3    H228498   5.539   5.024   3.965
 9512TIP3   OH228499   5.303   1.677   2.565
 9512TIP3    H128500   5.272   1.633   2.486
 9512TIP3    H228501   5.232   1.666   2.629
 9513TIP3   OH228502   6.396   3.613   2.801
 9513TIP3    H128503   6.412   3.519   2.806
 9513TIP3    H228504   6.310   3.626   2.841
 9514TIP3   OH228505   0.858   2.479   1.475
 9514TIP3    H128506   0.893   2.566   1.457
 9514TIP3    H228507   0.807   2.491   1.556
 9515TIP3   OH228508   6.521   0.719   0.700
 9515TIP3    H128509   6.497   0.659   0.770
 9515TIP3    H228510   6.492   0.675   0.620
 9516TIP3   OH228511   5.329   1.228   2.812
 9516TIP3    H128512   5.352   1.214   2.904
 9516TIP3    H228513   5.366   1.314   2.791
 9517TIP3   OH228514   5.411   5.417   1.646
 9517TIP3    H128515   5.458   5.422   1.563
 9517TIP3    H228516   5.480   5.413   1.712
 9518TIP3   OH228517   5.012   6.123   3.162
 9518TIP3    H128518   4.942   6.070   3.200
 9518TIP3    H228519   5.092   6.086   3.197
 9519TIP3   OH228520   5.410   3.318   0.065
 9519TIP3    H128521   5.335   3.272   0.026
 9519TIP3    H228522   5.447   3.370  -0.006
 9520TIP3   OH228523   4.749   6.243   5.619
 9520TIP3    H128524   4.728   6.162   5.571
 9520TIP3    H228525   4.704   6.312   5.570
 9521TIP3   OH228526   7.096   4.951   2.251
 9521TIP3    H128527   7.159   4.907   2.193
 9521TIP3    H228528   7.057   5.019   2.196
 9522TIP3   OH228529   4.219   5.820   0.752
 9522TIP3    H128530   4.301   5.807   0.703
 9522TIP3    H228531   4.160   5.859   0.688
 9523TIP3   OH228532   2.281   0.486   2.377
 9523TIP3    H128533   2.326   0.402   2.372
 9523TIP3    H228534   2.203   0.475   2.323
 9524TIP3   OH228535   4.683   4.640   1.678
 9524TIP3    H128536   4.639   4.720   1.707
 9524TIP3    H228537   4.684   4.646   1.583
 9525TIP3   OH228538   3.450   4.504   1.474
 9525TIP3    H128539   3.369   4.454   1.479
 9525TIP3    H228540   3.486   4.484   1.388
 9526TIP3   OH228541   5.885   6.163   5.542
 9526TIP3    H128542   5.872   6.257   5.549
 9526TIP3    H228543   5.796   6.127   5.539
 9527TIP3   OH228544   6.279   6.612   0.149
 9527TIP3    H128545   6.224   6.674   0.197
 9527TIP3    H228546   6.272   6.639   0.057
 9528TIP3   OH228547   5.417   3.282   2.072
 9528TIP3    H128548   5.398   3.199   2.029
 9528TIP3    H228549   5.397   3.349   2.006
 9529TIP3   OH228550   6.791   0.579   1.034
 9529TIP3    H128551   6.709   0.626   1.048
 9529TIP3    H228552   6.839   0.588   1.116
 9530TIP3   OH228553   0.786   5.346   4.514
 9530TIP3    H128554   0.789   5.418   4.577
 9530TIP3    H228555   0.878   5.320   4.502
 9531TIP3   OH228556   0.903   5.983   3.623
 9531TIP3    H128557   0.909   6.041   3.699
 9531TIP3    H228558   0.829   6.017   3.573
 9532TIP3   OH228559   3.758   2.878   5.316
 9532TIP3    H128560   3.771   2.786   5.290
 9532TIP3    H228561   3.704   2.874   5.394
 9533TIP3   OH228562   7.114   0.622   4.053
 9533TIP3    H128563   7.145   0.672   3.978
 9533TIP3    H228564   7.071   0.687   4.109
 9534TIP3   OH228565   2.758   5.494   2.216
 9534TIP3    H128566   2.755   5.496   2.120
 9534TIP3    H228567   2.755   5.401   2.237
 9535TIP3   OH228568   4.109   3.408   4.772
 9535TIP3    H128569   4.200   3.415   4.743
 9535TIP3    H228570   4.115   3.400   4.867
 9536TIP3   OH228571   4.676   1.944   4.329
 9536TIP3    H128572   4.644   1.870   4.277
 9536TIP3    H228573   4.766   1.920   4.352
 9537TIP3   OH228574   0.209   4.177   5.426
 9537TIP3    H128575   0.249   4.093   5.404
 9537TIP3    H228576   0.173   4.209   5.344
 9538TIP3   OH228577   4.872   3.005   0.056
 9538TIP3    H128578   4.914   3.085   0.088
 9538TIP3    H228579   4.940   2.938   0.061
 9539TIP3   OH228580   5.322   5.311   2.820
 9539TIP3    H128581   5.312   5.267   2.905
 9539TIP3    H228582   5.416   5.326   2.813
 9540TIP3   OH228583   1.603   6.582   2.854
 9540TIP3    H128584   1.631   6.598   2.944
 9540TIP3    H228585   1.585   6.669   2.818
 9541TIP3   OH228586   3.193   2.067   1.323
 9541TIP3    H128587   3.206   2.134   1.256
 9541TIP3    H228588   3.133   2.004   1.283
 9542TIP3   OH228589   0.429   0.803   3.909
 9542TIP3    H128590   0.365   0.792   3.839
 9542TIP3    H228591   0.390   0.761   3.985
 9543TIP3   OH228592   2.285   5.382   4.286
 9543TIP3    H128593   2.346   5.314   4.312
 9543TIP3    H228594   2.327   5.425   4.211
 9544TIP3   OH228595   2.188   4.087   5.516
 9544TIP3    H128596   2.152   3.999   5.525
 9544TIP3    H228597   2.282   4.074   5.511
 9545TIP3   OH228598   3.432   5.794   5.055
 9545TIP3    H128599   3.473   5.803   5.141
 9545TIP3    H228600   3.504   5.808   4.993
 9546TIP3   OH228601   6.197   2.084   5.369
 9546TIP3    H128602   6.102   2.085   5.363
 9546TIP3    H228603   6.224   2.172   5.345
 9547TIP3   OH228604   1.547   6.663   1.359
 9547TIP3    H128605   1.545   6.648   1.265
 9547TIP3    H228606   1.468   6.620   1.392
 9548TIP3   OH228607   3.646   4.583   5.766
 9548TIP3    H128608   3.648   4.555   5.674
 9548TIP3    H228609   3.733   4.619   5.782
 9549TIP3   OH228610   6.342   5.567   2.813
 9549TIP3    H128611   6.382   5.486   2.781
 9549TIP3    H228612   6.375   5.576   2.903
 9550TIP3   OH228613   3.354   0.753   4.394
 9550TIP3    H128614   3.436   0.738   4.348
 9550TIP3    H228615   3.292   0.777   4.325
 9551TIP3   OH228616   2.989   1.590   4.696
 9551TIP3    H128617   3.067   1.644   4.700
 9551TIP3    H228618   2.938   1.615   4.773
 9552TIP3   OH228619   2.086   1.885   3.931
 9552TIP3    H128620   2.045   1.883   4.017
 9552TIP3    H228621   2.019   1.854   3.871
 9553TIP3   OH228622   6.867   1.164   0.425
 9553TIP3    H128623   6.868   1.148   0.520
 9553TIP3    H228624   6.781   1.202   0.408
 9554TIP3   OH228625   0.324   0.565   2.702
 9554TIP3    H128626   0.254   0.503   2.725
 9554TIP3    H228627   0.395   0.544   2.762
 9555TIP3   OH228628   4.311   5.317   1.831
 9555TIP3    H128629   4.332   5.366   1.910
 9555TIP3    H228630   4.341   5.373   1.759
 9556TIP3   OH228631   6.053   2.147   0.417
 9556TIP3    H128632   6.044   2.177   0.327
 9556TIP3    H228633   6.146   2.155   0.436
 9557TIP3   OH228634   0.418   3.718   2.182
 9557TIP3    H128635   0.356   3.772   2.232
 9557TIP3    H228636   0.496   3.773   2.173
 9558TIP3   OH228637   4.675   1.308   0.775
 9558TIP3    H128638   4.706   1.270   0.857
 9558TIP3    H228639   4.671   1.402   0.792
 9559TIP3   OH228640   3.074   6.644   3.140
 9559TIP3    H128641   3.114   6.712   3.086
 9559TIP3    H228642   3.095   6.669   3.230
 9560TIP3   OH228643   4.781   0.998   1.699
 9560TIP3    H128644   4.694   1.032   1.679
 9560TIP3    H228645   4.837   1.029   1.628
 9561TIP3   OH228646   6.583   5.445   3.711
 9561TIP3    H128647   6.603   5.359   3.676
 9561TIP3    H228648   6.548   5.495   3.637
 9562TIP3   OH228649   6.403   4.814   5.455
 9562TIP3    H128650   6.443   4.731   5.482
 9562TIP3    H228651   6.359   4.794   5.372
 9563TIP3   OH228652   5.508   3.692   5.015
 9563TIP3    H128653   5.479   3.603   5.037
 9563TIP3    H228654   5.569   3.715   5.085
 9564TIP3   OH228655   1.275   5.376   1.792
 9564TIP3    H128656   1.222   5.354   1.868
 9564TIP3    H228657   1.237   5.325   1.720
 9565TIP3   OH228658   4.300   0.139   3.570
 9565TIP3    H128659   4.217   0.103   3.601
 9565TIP3    H228660   4.342   0.174   3.649
 9566TIP3   OH228661   2.412   3.731   5.482
 9566TIP3    H128662   2.349   3.677   5.435
 9566TIP3    H228663   2.497   3.699   5.453
 9567TIP3   OH228664   6.973   6.342   5.782
 9567TIP3    H128665   7.019   6.328   5.865
 9567TIP3    H228666   6.955   6.436   5.781
 9568TIP3   OH228667   2.463   5.908   0.589
 9568TIP3    H128668   2.492   5.920   0.498
 9568TIP3    H228669   2.544   5.893   0.638
 9569TIP3   OH228670   6.341   3.309   2.350
 9569TIP3    H128671   6.294   3.369   2.293
 9569TIP3    H228672   6.431   3.311   2.317
 9570TIP3   OH228673   1.037   4.676   3.622
 9570TIP3    H128674   0.982   4.680   3.544
 9570TIP3    H228675   1.127   4.684   3.589
 9571TIP3   OH228676   0.114   3.383   3.834
 9571TIP3    H128677   0.072   3.323   3.772
 9571TIP3    H228678   0.194   3.411   3.791
 9572TIP3   OH228679   4.399   4.102   3.085
 9572TIP3    H128680   4.317   4.061   3.057
 9572TIP3    H228681   4.381   4.196   3.083
 9573TIP3   OH228682   4.532   3.945   1.623
 9573TIP3    H128683   4.445   3.955   1.584
 9573TIP3    H228684   4.545   4.024   1.674
 9574TIP3   OH228685   6.356   0.585   1.918
 9574TIP3    H128686   6.374   0.611   1.828
 9574TIP3    H228687   6.262   0.597   1.929
 9575TIP3   OH228688   6.743   0.086   5.505
 9575TIP3    H128689   6.801   0.141   5.451
 9575TIP3    H228690   6.668   0.068   5.449
 9576TIP3   OH228691   5.958   0.370   1.143
 9576TIP3    H128692   6.027   0.427   1.176
 9576TIP3    H228693   5.960   0.382   1.048
 9577TIP3   OH228694   2.296   5.153   2.775
 9577TIP3    H128695   2.334   5.091   2.837
 9577TIP3    H228696   2.210   5.117   2.755
 9578TIP3   OH228697   5.939   0.073   1.878
 9578TIP3    H128698   6.004   0.003   1.884
 9578TIP3    H228699   5.964   0.135   1.946
 9579TIP3   OH228700   0.908   6.307   3.280
 9579TIP3    H128701   0.855   6.384   3.258
 9579TIP3    H228702   0.882   6.240   3.217
 9580TIP3   OH228703   3.010   0.913   5.832
 9580TIP3    H128704   2.960   0.831   5.833
 9580TIP3    H228705   3.091   0.892   5.880
 9581TIP3   OH228706   4.564   3.888   4.323
 9581TIP3    H128707   4.634   3.847   4.373
 9581TIP3    H228708   4.483   3.854   4.362
 9582TIP3   OH228709   2.472   4.169   5.717
 9582TIP3    H128710   2.426   4.252   5.700
 9582TIP3    H228711   2.476   4.126   5.631
 9583TIP3   OH228712   1.442   1.057   3.446
 9583TIP3    H128713   1.500   1.124   3.482
 9583TIP3    H228714   1.398   1.101   3.373
 9584TIP3   OH228715   1.439   2.571   4.510
 9584TIP3    H128716   1.432   2.508   4.438
 9584TIP3    H228717   1.493   2.641   4.475
 9585TIP3   OH228718   4.801   3.993   2.486
 9585TIP3    H128719   4.889   3.955   2.483
 9585TIP3    H228720   4.771   3.975   2.575
 9586TIP3   OH228721   4.013   0.330   4.771
 9586TIP3    H128722   4.034   0.288   4.688
 9586TIP3    H228723   3.917   0.323   4.778
 9587TIP3   OH228724   3.282   1.130   4.825
 9587TIP3    H128725   3.252   1.067   4.890
 9587TIP3    H228726   3.276   1.215   4.869
 9588TIP3   OH228727   1.252   2.114   0.288
 9588TIP3    H128728   1.182   2.178   0.303
 9588TIP3    H228729   1.318   2.162   0.239
 9589TIP3   OH228730   7.038   5.758   4.955
 9589TIP3    H128731   7.070   5.700   4.885
 9589TIP3    H228732   7.015   5.699   5.026
 9590TIP3   OH228733   4.807   3.988   4.199
 9590TIP3    H128734   4.721   3.963   4.233
 9590TIP3    H228735   4.800   4.083   4.186
 9591TIP3   OH228736   6.183   3.741   1.255
 9591TIP3    H128737   6.202   3.745   1.349
 9591TIP3    H228738   6.145   3.654   1.242
 9592TIP3   OH228739   1.297   2.645   4.218
 9592TIP3    H128740   1.275   2.575   4.157
 9592TIP3    H228741   1.388   2.628   4.243
 9593TIP3   OH228742   2.008   3.359   3.366
 9593TIP3    H128743   1.918   3.364   3.398
 9593TIP3    H228744   2.019   3.439   3.314
 9594TIP3   OH228745   4.203   4.613   3.621
 9594TIP3    H128746   4.192   4.518   3.626
 9594TIP3    H228747   4.269   4.625   3.553
 9595TIP3   OH228748   2.667   4.959   0.808
 9595TIP3    H128749   2.598   4.904   0.772
 9595TIP3    H228750   2.638   5.049   0.789
 9596TIP3   OH228751   2.820   5.173   1.037
 9596TIP3    H128752   2.772   5.256   1.034
 9596TIP3    H228753   2.847   5.158   0.946
 9597TIP3   OH228754   0.014   0.381   5.810
 9597TIP3    H128755   0.020   0.294   5.771
 9597TIP3    H228756   0.029   0.441   5.737
 9598TIP3   OH228757   0.091   0.739   2.710
 9598TIP3    H128758   0.128   0.810   2.657
 9598TIP3    H228759   0.165   0.681   2.728
 9599TIP3   OH228760   4.660   2.358   4.530
 9599TIP3    H128761   4.580   2.410   4.519
 9599TIP3    H228762   4.670   2.313   4.446
 9600TIP3   OH228763   6.434   3.148   1.623
 9600TIP3    H128764   6.504   3.203   1.659
 9600TIP3    H228765   6.480   3.089   1.563
 9601TIP3   OH228766   3.754   0.930   0.777
 9601TIP3    H128767   3.791   1.013   0.746
 9601TIP3    H228768   3.828   0.880   0.809
 9602TIP3   OH228769   2.024   0.409   5.388
 9602TIP3    H128770   2.002   0.500   5.407
 9602TIP3    H228771   2.059   0.410   5.299
 9603TIP3   OH228772   2.914   2.066   1.023
 9603TIP3    H128773   2.983   2.113   1.069
 9603TIP3    H228774   2.959   2.019   0.952
 9604TIP3   OH228775   4.302   4.982   3.579
 9604TIP3    H128776   4.349   5.058   3.611
 9604TIP3    H228777   4.369   4.927   3.539
 9605TIP3   OH228778   4.078   3.083   1.623
 9605TIP3    H128779   4.091   3.095   1.717
 9605TIP3    H228780   3.983   3.088   1.612
 9606TIP3   OH228781   4.961   6.334   2.700
 9606TIP3    H128782   4.979   6.415   2.653
 9606TIP3    H228783   5.048   6.304   2.729
 9607TIP3   OH228784   6.171   0.094   2.341
 9607TIP3    H128785   6.185   0.051   2.425
 9607TIP3    H228786   6.094   0.051   2.305
 9608TIP3   OH228787   3.428   0.845   5.832
 9608TIP3    H128788   3.350   0.886   5.869
 9608TIP3    H228789   3.403   0.753   5.817
 9609TIP3   OH228790   5.256   4.883   0.136
 9609TIP3    H128791   5.350   4.901   0.132
 9609TIP3    H228792   5.247   4.826   0.212
 9610TIP3   OH228793   2.232   2.310   1.852
 9610TIP3    H128794   2.260   2.346   1.937
 9610TIP3    H228795   2.273   2.224   1.849
 9611TIP3   OH228796   5.719   0.878   0.077
 9611TIP3    H128797   5.731   0.931  -0.001
 9611TIP3    H228798   5.627   0.854   0.077
 9612TIP3   OH228799   4.575   1.525   3.543
 9612TIP3    H128800   4.592   1.610   3.583
 9612TIP3    H228801   4.642   1.467   3.582
 9613TIP3   OH228802   6.560   5.203   4.279
 9613TIP3    H128803   6.548   5.220   4.372
 9613TIP3    H228804   6.560   5.289   4.238
 9614TIP3   OH228805   6.460   1.022   3.810
 9614TIP3    H128806   6.457   0.938   3.766
 9614TIP3    H228807   6.459   1.000   3.903
 9615TIP3   OH228808   0.426   5.105   2.902
 9615TIP3    H128809   0.476   5.044   2.849
 9615TIP3    H228810   0.402   5.055   2.980
 9616TIP3   OH228811   4.759   5.918   2.749
 9616TIP3    H128812   4.727   5.863   2.820
 9616TIP3    H228813   4.845   5.948   2.777
 9617TIP3   OH228814   2.132   6.319   4.427
 9617TIP3    H128815   2.220   6.307   4.462
 9617TIP3    H228816   2.146   6.355   4.339
 9618TIP3   OH228817   1.187   4.178   5.458
 9618TIP3    H128818   1.184   4.124   5.536
 9618TIP3    H228819   1.129   4.252   5.477
 9619TIP3   OH228820   7.163   5.912   5.511
 9619TIP3    H128821   7.182   5.980   5.576
 9619TIP3    H228822   7.068   5.919   5.497
 9620TIP3   OH228823   0.780   4.829   5.590
 9620TIP3    H128824   0.688   4.822   5.617
 9620TIP3    H228825   0.780   4.902   5.528
 9621TIP3   OH228826   4.023   6.504   5.738
 9621TIP3    H128827   3.977   6.485   5.820
 9621TIP3    H228828   4.087   6.571   5.761
 9622TIP3   OH228829   2.265   2.543  -0.001
 9622TIP3    H128830   2.247   2.488   0.075
 9622TIP3    H228831   2.200   2.612   0.004
 9623TIP3   OH228832   5.857   1.139   5.219
 9623TIP3    H128833   5.921   1.210   5.222
 9623TIP3    H228834   5.827   1.136   5.128
 9624TIP3   OH228835   5.238   3.383   3.597
 9624TIP3    H128836   5.229   3.431   3.514
 9624TIP3    H228837   5.332   3.385   3.615
 9625TIP3   OH228838   3.349   6.344   0.774
 9625TIP3    H128839   3.421   6.395   0.812
 9625TIP3    H228840   3.375   6.330   0.683
 9626TIP3   OH228841   4.464   2.661   3.946
 9626TIP3    H128842   4.547   2.629   3.910
 9626TIP3    H228843   4.436   2.729   3.885
 9627TIP3   OH228844   4.448   6.353   2.901
 9627TIP3    H128845   4.389   6.283   2.875
 9627TIP3    H228846   4.534   6.323   2.872
 9628TIP3   OH228847   7.247   2.949   5.270
 9628TIP3    H128848   7.255   2.860   5.306
 9628TIP3    H228849   7.163   2.981   5.302
 9629TIP3   OH228850   6.040   6.739   5.631
 9629TIP3    H128851   5.999   6.740   5.545
 9629TIP3    H228852   5.978   6.784   5.689
 9630TIP3   OH228853   0.787   1.094   5.372
 9630TIP3    H128854   0.730   1.093   5.449
 9630TIP3    H228855   0.844   1.018   5.383
 9631TIP3   OH228856   0.508   6.639   1.654
 9631TIP3    H128857   0.551   6.565   1.696
 9631TIP3    H228858   0.571   6.711   1.662
 9632TIP3   OH228859   5.080   4.832   0.518
 9632TIP3    H128860   5.026   4.887   0.461
 9632TIP3    H228861   5.134   4.894   0.567
 9633TIP3   OH228862   0.530   1.944   1.707
 9633TIP3    H128863   0.500   1.959   1.618
 9633TIP3    H228864   0.619   1.980   1.709
 9634TIP3   OH228865   6.029   6.413   0.698
 9634TIP3    H128866   6.008   6.498   0.735
 9634TIP3    H228867   6.027   6.353   0.773
 9635TIP3   OH228868   6.039   2.796   3.597
 9635TIP3    H128869   5.998   2.725   3.548
 9635TIP3    H228870   6.129   2.799   3.564
 9636TIP3   OH228871   6.705   4.321   0.743
 9636TIP3    H128872   6.796   4.332   0.718
 9636TIP3    H228873   6.672   4.253   0.684
 9637TIP3   OH228874   5.697   6.365   4.820
 9637TIP3    H128875   5.681   6.339   4.729
 9637TIP3    H228876   5.687   6.460   4.820
 9638TIP3   OH228877   6.000   6.275   3.015
 9638TIP3    H128878   6.069   6.258   3.080
 9638TIP3    H228879   5.918   6.266   3.064
 9639TIP3   OH228880   1.404   4.732   2.695
 9639TIP3    H128881   1.439   4.785   2.766
 9639TIP3    H228882   1.474   4.670   2.675
 9640TIP3   OH228883   1.220   1.574   4.493
 9640TIP3    H128884   1.188   1.662   4.515
 9640TIP3    H228885   1.314   1.585   4.481
 9641TIP3   OH228886   1.767   0.338   1.045
 9641TIP3    H128887   1.792   0.246   1.030
 9641TIP3    H228888   1.788   0.382   0.963
 9642TIP3   OH228889   1.227   3.615   2.825
 9642TIP3    H128890   1.214   3.521   2.814
 9642TIP3    H228891   1.162   3.655   2.767
 9643TIP3   OH228892   4.321   3.699   5.478
 9643TIP3    H128893   4.325   3.759   5.552
 9643TIP3    H228894   4.409   3.662   5.472
 9644TIP3   OH228895   0.737   0.434   4.080
 9644TIP3    H128896   0.653   0.447   4.125
 9644TIP3    H228897   0.751   0.517   4.034
 9645TIP3   OH228898   5.408   6.469   4.912
 9645TIP3    H128899   5.498   6.459   4.945
 9645TIP3    H228900   5.411   6.548   4.858
 9646TIP3   OH228901   2.333   4.628   5.416
 9646TIP3    H128902   2.323   4.708   5.365
 9646TIP3    H228903   2.385   4.654   5.492
 9647TIP3   OH228904   5.538   6.396   4.413
 9647TIP3    H128905   5.472   6.418   4.479
 9647TIP3    H228906   5.583   6.319   4.449
 9648TIP3   OH228907   4.578   3.015   2.074
 9648TIP3    H128908   4.606   3.036   2.163
 9648TIP3    H228909   4.484   3.002   2.081
 9649TIP3   OH228910   2.771   1.626   3.373
 9649TIP3    H128911   2.746   1.701   3.428
 9649TIP3    H228912   2.865   1.618   3.385
 9650TIP3   OH228913   2.508   4.361   0.005
 9650TIP3    H128914   2.548   4.283  -0.034
 9650TIP3    H228915   2.572   4.392   0.069
 9651TIP3   OH228916   2.634   3.126   5.283
 9651TIP3    H128917   2.552   3.103   5.326
 9651TIP3    H228918   2.649   3.056   5.220
 9652TIP3   OH228919  -0.006   0.563   2.338
 9652TIP3    H128920   0.036   0.648   2.322
 9652TIP3    H228921   0.030   0.534   2.422
 9653TIP3   OH228922   2.599   6.681   3.877
 9653TIP3    H128923   2.608   6.614   3.809
 9653TIP3    H228924   2.616   6.764   3.831
 9654TIP3   OH228925   1.918   3.987   5.880
 9654TIP3    H128926   1.918   4.047   5.806
 9654TIP3    H228927   1.997   4.008   5.928
 9655TIP3   OH228928   3.332   4.464   3.602
 9655TIP3    H128929   3.324   4.379   3.647
 9655TIP3    H228930   3.406   4.451   3.542
 9656TIP3   OH228931   6.421   6.524   3.943
 9656TIP3    H128932   6.437   6.446   3.995
 9656TIP3    H228933   6.493   6.583   3.965
 9657TIP3   OH228934   4.776   6.282   1.167
 9657TIP3    H128935   4.783   6.193   1.133
 9657TIP3    H228936   4.794   6.274   1.260
 9658TIP3   OH228937   4.189   5.514   2.196
 9658TIP3    H128938   4.245   5.443   2.165
 9658TIP3    H228939   4.168   5.490   2.287
 9659TIP3   OH228940   5.464   0.499   5.275
 9659TIP3    H128941   5.448   0.412   5.239
 9659TIP3    H228942   5.559   0.510   5.271
 9660TIP3   OH228943   3.375   1.558   2.045
 9660TIP3    H128944   3.395   1.628   2.108
 9660TIP3    H228945   3.333   1.603   1.972
 9661TIP3   OH228946   2.290   5.249   0.720
 9661TIP3    H128947   2.234   5.177   0.748
 9661TIP3    H228948   2.377   5.210   0.714
 9662TIP3   OH228949   3.532   0.966   3.479
 9662TIP3    H128950   3.510   1.020   3.403
 9662TIP3    H228951   3.459   0.904   3.488
 9663TIP3   OH228952   3.799   0.114   1.430
 9663TIP3    H128953   3.720   0.092   1.480
 9663TIP3    H228954   3.804   0.048   1.361
 9664TIP3   OH228955   3.852   1.703   1.744
 9664TIP3    H128956   3.846   1.632   1.681
 9664TIP3    H228957   3.788   1.768   1.714
 9665TIP3   OH228958   4.446   5.103   5.481
 9665TIP3    H128959   4.395   5.113   5.561
 9665TIP3    H228960   4.398   5.039   5.429
 9666TIP3   OH228961   5.809   1.555   2.337
 9666TIP3    H128962   5.806   1.496   2.413
 9666TIP3    H228963   5.747   1.517   2.275
 9667TIP3   OH228964   6.408   1.155   4.217
 9667TIP3    H128965   6.398   1.220   4.287
 9667TIP3    H228966   6.494   1.174   4.180
 9668TIP3   OH228967   5.436   3.471   0.992
 9668TIP3    H128968   5.468   3.425   1.070
 9668TIP3    H228969   5.445   3.564   1.013
 9669TIP3   OH228970   0.853   0.570   2.298
 9669TIP3    H128971   0.863   0.655   2.255
 9669TIP3    H228972   0.942   0.535   2.305
 9670TIP3   OH228973   3.708   0.551   4.408
 9670TIP3    H128974   3.705   0.585   4.498
 9670TIP3    H228975   3.705   0.456   4.418
 9671TIP3   OH228976   1.710   4.232   1.944
 9671TIP3    H128977   1.790   4.181   1.932
 9671TIP3    H228978   1.729   4.317   1.903
 9672TIP3   OH228979   4.040   4.951   3.492
 9672TIP3    H128980   4.134   4.940   3.509
 9672TIP3    H228981   4.036   5.016   3.421
 9673TIP3   OH228982   3.549   3.925   2.383
 9673TIP3    H128983   3.534   3.948   2.474
 9673TIP3    H228984   3.567   3.831   2.385
 9674TIP3   OH228985   3.049   3.230   3.794
 9674TIP3    H128986   3.095   3.307   3.827
 9674TIP3    H228987   2.964   3.231   3.838
 9675TIP3   OH228988   5.701   5.922   4.615
 9675TIP3    H128989   5.626   5.907   4.673
 9675TIP3    H228990   5.681   5.871   4.537
 9676TIP3   OH228991   6.046   5.981   1.169
 9676TIP3    H128992   6.064   6.041   1.241
 9676TIP3    H228993   6.111   6.002   1.103
 9677TIP3   OH228994   5.700   2.958   2.141
 9677TIP3    H128995   5.764   2.994   2.202
 9677TIP3    H228996   5.616   2.988   2.174
 9678TIP3   OH228997   1.594   4.422   0.314
 9678TIP3    H128998   1.649   4.446   0.388
 9678TIP3    H228999   1.638   4.459   0.237
 9679TIP3   OH229000   1.915   2.098   1.741
 9679TIP3    H129001   1.855   2.170   1.721
 9679TIP3    H229002   1.858   2.026   1.768
 9680TIP3   OH229003   5.292   2.040   4.054
 9680TIP3    H129004   5.305   2.021   4.147
 9680TIP3    H229005   5.326   1.962   4.010
 9681TIP3   OH229006   6.001   5.174   0.530
 9681TIP3    H129007   5.977   5.160   0.622
 9681TIP3    H229008   5.918   5.163   0.482
 9682TIP3   OH229009   6.893   6.759   2.755
 9682TIP3    H129010   6.916   6.845   2.718
 9682TIP3    H229011   6.814   6.776   2.807
 9683TIP3   OH229012   0.077   1.362   0.269
 9683TIP3    H129013  -0.011   1.358   0.305
 9683TIP3    H229014   0.079   1.292   0.203
 9684TIP3   OH229015   6.942   1.499   2.252
 9684TIP3    H129016   6.888   1.494   2.331
 9684TIP3    H229017   7.013   1.438   2.268
 9685TIP3   OH229018   0.155   5.342   1.937
 9685TIP3    H129019   0.133   5.366   1.847
 9685TIP3    H229020   0.218   5.270   1.927
 9686TIP3   OH229021   5.061   2.753   1.844
 9686TIP3    H129022   5.145   2.773   1.885
 9686TIP3    H229023   4.997   2.803   1.894
 9687TIP3   OH229024   4.721   2.166   4.708
 9687TIP3    H129025   4.678   2.226   4.647
 9687TIP3    H229026   4.653   2.103   4.731
 9688TIP3   OH229027   2.231   4.947   0.242
 9688TIP3    H129028   2.195   4.927   0.155
 9688TIP3    H229029   2.315   4.902   0.244
 9689TIP3   OH229030   2.162   6.244   3.071
 9689TIP3    H129031   2.088   6.194   3.038
 9689TIP3    H229032   2.221   6.251   2.996
 9690TIP3   OH229033   5.974   1.139   5.503
 9690TIP3    H129034   5.927   1.122   5.422
 9690TIP3    H229035   5.917   1.197   5.553
 9691TIP3   OH229036   4.833   0.285   4.363
 9691TIP3    H129037   4.746   0.246   4.370
 9691TIP3    H229038   4.849   0.291   4.269
 9692TIP3   OH229039   4.664   0.471   0.794
 9692TIP3    H129040   4.589   0.444   0.741
 9692TIP3    H229041   4.625   0.509   0.873
 9693TIP3   OH229042   4.194   2.359   0.533
 9693TIP3    H129043   4.271   2.413   0.544
 9693TIP3    H229044   4.177   2.360   0.438
 9694TIP3   OH229045   2.445   2.923   2.542
 9694TIP3    H129046   2.382   2.852   2.552
 9694TIP3    H229047   2.416   2.990   2.604
 9695TIP3   OH229048   4.194   2.014   0.360
 9695TIP3    H129049   4.244   1.996   0.440
 9695TIP3    H229050   4.252   1.988   0.289
 9696TIP3   OH229051   6.582   3.556   5.048
 9696TIP3    H129052   6.579   3.632   5.107
 9696TIP3    H229053   6.492   3.523   5.047
 9697TIP3   OH229054   5.537   5.077   1.448
 9697TIP3    H129055   5.464   5.021   1.474
 9697TIP3    H229056   5.501   5.136   1.382
 9698TIP3   OH229057   3.341   1.750   2.242
 9698TIP3    H129058   3.275   1.742   2.311
 9698TIP3    H229059   3.321   1.833   2.199
 9699TIP3   OH229060   7.182   6.300   2.697
 9699TIP3    H129061   7.222   6.360   2.760
 9699TIP3    H229062   7.097   6.278   2.735
 9700TIP3   OH229063   6.803   5.833   5.506
 9700TIP3    H129064   6.734   5.768   5.516
 9700TIP3    H229065   6.768   5.897   5.445
 9701TIP3   OH229066   0.631   2.470   4.188
 9701TIP3    H129067   0.721   2.485   4.157
 9701TIP3    H229068   0.598   2.557   4.208
 9702TIP3   OH229069   5.735   5.981   4.111
 9702TIP3    H129070   5.663   5.984   4.049
 9702TIP3    H229071   5.788   6.057   4.090
 9703TIP3   OH229072   5.869   5.497   0.566
 9703TIP3    H129073   5.871   5.458   0.653
 9703TIP3    H229074   5.783   5.472   0.531
 9704TIP3   OH229075   6.661   3.302   1.716
 9704TIP3    H129076   6.695   3.389   1.739
 9704TIP3    H229077   6.739   3.248   1.704
 9705TIP3   OH229078   0.539   2.846   2.520
 9705TIP3    H129079   0.531   2.766   2.468
 9705TIP3    H229080   0.449   2.880   2.524
 9706TIP3   OH229081   2.526   4.233   0.611
 9706TIP3    H129082   2.462   4.261   0.676
 9706TIP3    H229083   2.608   4.222   0.660
 9707TIP3   OH229084   2.415   3.739   2.617
 9707TIP3    H129085   2.396   3.707   2.528
 9707TIP3    H229086   2.403   3.834   2.611
 9708TIP3   OH229087   6.481   6.176   3.712
 9708TIP3    H129088   6.463   6.133   3.796
 9708TIP3    H229089   6.509   6.105   3.654
 9709TIP3   OH229090   0.750   2.022   1.482
 9709TIP3    H129091   0.818   2.088   1.491
 9709TIP3    H229092   0.740   1.984   1.569
 9710TIP3   OH229093   4.099   3.426   0.392
 9710TIP3    H129094   4.006   3.448   0.382
 9710TIP3    H229095   4.115   3.435   0.486
 9711TIP3   OH229096   1.940   4.017   4.627
 9711TIP3    H129097   1.986   3.994   4.708
 9711TIP3    H229098   2.010   4.040   4.566
 9712TIP3   OH229099   1.398   6.590   0.068
 9712TIP3    H129100   1.390   6.681   0.041
 9712TIP3    H229101   1.471   6.555   0.015
 9713TIP3   OH229102   2.591   2.190   1.024
 9713TIP3    H129103   2.504   2.210   0.991
 9713TIP3    H229104   2.648   2.255   0.982
 9714TIP3   OH229105   0.187   3.589   1.975
 9714TIP3    H129106   0.208   3.564   2.065
 9714TIP3    H229107   0.265   3.566   1.924
 9715TIP3   OH229108   0.746   0.972   2.686
 9715TIP3    H129109   0.723   0.934   2.770
 9715TIP3    H229110   0.818   0.918   2.654
 9716TIP3   OH229111   5.080   5.200   0.583
 9716TIP3    H129112   5.174   5.201   0.605
 9716TIP3    H229113   5.055   5.292   0.583
 9717TIP3   OH229114   7.004   2.988   3.126
 9717TIP3    H129115   6.980   2.974   3.034
 9717TIP3    H229116   6.930   3.036   3.162
 9718TIP3   OH229117   4.553   0.182   3.417
 9718TIP3    H129118   4.567   0.115   3.484
 9718TIP3    H229119   4.468   0.220   3.439
 9719TIP3   OH229120   6.561   5.188   5.380
 9719TIP3    H129121   6.565   5.204   5.286
 9719TIP3    H229122   6.630   5.123   5.396
 9720TIP3   OH229123   5.000   3.219   2.574
 9720TIP3    H129124   4.990   3.157   2.502
 9720TIP3    H229125   4.916   3.214   2.621
 9721TIP3   OH229126   5.950   3.083   4.314
 9721TIP3    H129127   5.963   3.059   4.222
 9721TIP3    H229128   5.890   3.158   4.310
 9722TIP3   OH229129   6.375   5.828   3.080
 9722TIP3    H129130   6.383   5.733   3.069
 9722TIP3    H229131   6.409   5.864   2.998
 9723TIP3   OH229132   0.769   5.199   3.127
 9723TIP3    H129133   0.767   5.104   3.116
 9723TIP3    H229134   0.857   5.217   3.160
 9724TIP3   OH229135   3.512   5.251   2.021
 9724TIP3    H129136   3.538   5.282   1.934
 9724TIP3    H229137   3.594   5.239   2.068
 9725TIP3   OH229138   6.493   2.734   2.490
 9725TIP3    H129139   6.416   2.688   2.456
 9725TIP3    H229140   6.500   2.813   2.436
 9726TIP3   OH229141   4.415   3.865   0.169
 9726TIP3    H129142   4.426   3.833   0.259
 9726TIP3    H229143   4.473   3.809   0.117
 9727TIP3   OH229144   3.356   4.470   2.795
 9727TIP3    H129145   3.321   4.386   2.826
 9727TIP3    H229146   3.324   4.534   2.858
 9728TIP3   OH229147   1.883   0.340   3.476
 9728TIP3    H129148   1.892   0.250   3.446
 9728TIP3    H229149   1.834   0.334   3.558
 9729TIP3   OH229150   1.817   6.213   4.385
 9729TIP3    H129151   1.840   6.245   4.473
 9729TIP3    H229152   1.826   6.289   4.328
 9730TIP3   OH229153   5.231   2.708   3.130
 9730TIP3    H129154   5.324   2.703   3.110
 9730TIP3    H229155   5.222   2.786   3.184
 9731TIP3   OH229156   6.456   0.893   5.221
 9731TIP3    H129157   6.505   0.875   5.302
 9731TIP3    H229158   6.429   0.807   5.190
 9732TIP3   OH229159   0.790   4.937   3.058
 9732TIP3    H129160   0.869   4.886   3.042
 9732TIP3    H229161   0.720   4.887   3.015
 9733TIP3   OH229162   6.221   4.788   3.387
 9733TIP3    H129163   6.261   4.705   3.412
 9733TIP3    H229164   6.128   4.768   3.378
 9734TIP3   OH229165   5.754   2.892   1.158
 9734TIP3    H129166   5.676   2.847   1.124
 9734TIP3    H229167   5.827   2.838   1.128
 9735TIP3   OH229168   2.386   0.592   2.908
 9735TIP3    H129169   2.378   0.686   2.891
 9735TIP3    H229170   2.320   0.575   2.975
 9736TIP3   OH229171   0.021   5.354   5.083
 9736TIP3    H129172   0.048   5.338   5.174
 9736TIP3    H229173   0.029   5.448   5.072
 9737TIP3   OH229174   1.412   4.571   4.937
 9737TIP3    H129175   1.460   4.515   4.876
 9737TIP3    H229176   1.350   4.618   4.882
 9738TIP3   OH229177   1.380   4.037   1.047
 9738TIP3    H129178   1.439   4.060   0.976
 9738TIP3    H229179   1.431   4.051   1.127
 9739TIP3   OH229180   0.298   5.947   4.063
 9739TIP3    H129181   0.329   6.002   4.135
 9739TIP3    H229182   0.376   5.932   4.009
 9740TIP3   OH229183   0.393   5.461   3.334
 9740TIP3    H129184   0.384   5.556   3.336
 9740TIP3    H229185   0.447   5.443   3.258
 9741TIP3   OH229186   1.864   1.443   2.302
 9741TIP3    H129187   1.816   1.430   2.220
 9741TIP3    H229188   1.948   1.400   2.287
 9742TIP3   OH229189   2.936   3.226   0.935
 9742TIP3    H129190   2.980   3.249   0.853
 9742TIP3    H229191   2.848   3.200   0.907
 9743TIP3   OH229192   3.388   3.430   5.664
 9743TIP3    H129193   3.381   3.390   5.750
 9743TIP3    H229194   3.347   3.366   5.605
 9744TIP3   OH229195   6.431   0.080   3.424
 9744TIP3    H129196   6.525   0.077   3.404
 9744TIP3    H229197   6.426   0.073   3.519
 9745TIP3   OH229198   4.560   1.863   1.243
 9745TIP3    H129199   4.478   1.888   1.199
 9745TIP3    H229200   4.532   1.833   1.329
 9746TIP3   OH229201   5.851   2.043   1.452
 9746TIP3    H129202   5.860   2.079   1.540
 9746TIP3    H229203   5.777   2.091   1.414
 9747TIP3   OH229204   2.641   6.682   0.427
 9747TIP3    H129205   2.681   6.650   0.507
 9747TIP3    H229206   2.705   6.745   0.392
 9748TIP3   OH229207   7.209   5.101   5.334
 9748TIP3    H129208   7.203   5.057   5.419
 9748TIP3    H229209   7.278   5.166   5.346
 9749TIP3   OH229210   2.417   1.127   5.628
 9749TIP3    H129211   2.402   1.111   5.535
 9749TIP3    H229212   2.399   1.220   5.640
   7.21713   6.80438   5.89275   0.00000   0.00000  -2.40571   0.00000  -2.40571  -3.40218
