Title
44469
    1GLY      N    1   6.394   4.608   3.662 -0.1597 -0.4533 -0.7110
    1GLY    HT1    2   6.400   4.697   3.716 -0.6277 -1.2135  0.6343
    1GLY    HT2    3   6.342   4.628   3.574  0.0936 -1.8320 -1.1793
    1GLY    HT3    4   6.489   4.574   3.640 -1.1632 -2.6328 -1.8659
    1GLY     CA    5   6.322   4.521   3.756 -0.7356 -0.2029  0.1021
    1GLY    HA1    6   6.323   4.575   3.850 -1.6530 -2.6695  1.6129
    1GLY    HA2    7   6.371   4.426   3.770  0.6852  0.7596  1.9566
    1GLY      C    8   6.177   4.489   3.720 -0.3973 -0.2359  0.9020
    1GLY      O    9   6.116   4.557   3.638  0.1272  0.1322 -0.3235
    2PRO      N   10   6.122   4.382   3.778 -0.0858  0.2493 -0.0557
    2PRO     CD   11   6.174   4.312   3.893  0.2105 -0.3422  0.1788
    2PRO    HD1   12   6.224   4.385   3.960 -2.9234  1.4820  0.6157
    2PRO    HD2   13   6.250   4.236   3.863  1.8704  1.5647 -0.5927
    2PRO     CA   14   5.986   4.331   3.748 -0.6700  0.0632 -0.2435
    2PRO     HA   15   5.974   4.302   3.644 -1.1948 -3.4594  0.7326
    2PRO     CB   16   5.958   4.216   3.848 -0.3341 -0.4526  0.2519
    2PRO    HB1   17   5.986   4.122   3.796 -0.4477  0.0183 -0.6560
    2PRO    HB2   18   5.853   4.198   3.879 -0.6290 -0.9628 -1.0270
    2PRO     CG   19   6.058   4.243   3.958  0.1576 -0.2065 -0.6264
    2PRO    HG1   20   6.014   4.308   4.037 -0.0327 -1.5749  0.4231
    2PRO    HG2   21   6.100   4.153   4.007 -4.1382 -1.1809  1.5583
    2PRO      C   22   5.884   4.450   3.773  0.2180  0.8359  0.3214
    2PRO      O   23   5.905   4.523   3.864 -0.4772 -0.1584 -0.8295
    3GLY      N   24   5.775   4.457   3.696 -0.0691  0.8050  0.7058
    3GLY     HN   25   5.766   4.383   3.630 -1.3281  1.8237 -0.2985
    3GLY     CA   26   5.664   4.550   3.719 -0.1341  0.8524 -0.1708
    3GLY    HA1   27   5.590   4.539   3.641 -0.1737 -0.6560  0.0550
    3GLY    HA2   28   5.712   4.646   3.729  1.0102  0.2632  0.0636
    3GLY      C   29   5.591   4.516   3.850  0.4235 -0.7110 -0.2586
    3GLY      O   30   5.601   4.404   3.900 -0.4082  0.0279  0.2364
    4ASN      N   31   5.521   4.614   3.908  0.5886  0.0240  0.0404
    4ASN     HN   32   5.525   4.707   3.874  0.7243  0.3446  0.9280
    4ASN     CA   33   5.419   4.608   4.010 -1.0996 -0.3651  0.1927
    4ASN     HA   34   5.478   4.592   4.099  1.6298  3.2554 -0.8658
    4ASN     CB   35   5.339   4.737   4.020  0.4018 -0.0558  0.2858
    4ASN    HB1   36   5.238   4.727   4.065  0.9412  1.3869  1.8804
    4ASN    HB2   37   5.301   4.759   3.917  1.0581 -1.1649 -0.1980
    4ASN     CG   38   5.411   4.857   4.088 -0.1894 -0.0247 -0.5443
    4ASN    OD1   39   5.518   4.840   4.137  0.0344  0.5095 -0.4538
    4ASN    ND2   40   5.344   4.972   4.085  0.1623  0.2854 -0.0538
    4ASN   HD21   41   5.387   5.050   4.131 -2.0560  1.7705 -0.4689
    4ASN   HD22   42   5.254   4.972   4.043 -1.0081 -0.1919  2.3576
    4ASN      C   43   5.325   4.489   3.992  0.1737 -0.3560 -0.0326
    4ASN      O   44   5.284   4.460   3.877  0.2973  0.3977 -0.1028
    5PRO      N   45   5.287   4.413   4.094  0.1670  0.4626 -0.1675
    5PRO     CD   46   5.349   4.412   4.223  0.4119  0.4456 -0.1518
    5PRO    HD1   47   5.306   4.503   4.270  0.6838  0.9774 -0.9187
    5PRO    HD2   48   5.460   4.410   4.224  0.4196  0.9390  1.3175
    5PRO     CA   49   5.193   4.305   4.075 -0.4014 -0.5834  0.3356
    5PRO     HA   50   5.246   4.236   4.011  0.7538  1.0056 -0.4700
    5PRO     CB   51   5.163   4.261   4.223 -0.4045 -0.3419  0.3097
    5PRO    HB1   52   5.134   4.153   4.219 -0.5569 -0.2648 -0.8490
    5PRO    HB2   53   5.080   4.319   4.268  0.2750  0.2187  0.8427
    5PRO     CG   54   5.297   4.285   4.295 -0.2603 -1.4337 -0.2105
    5PRO    HG1   55   5.285   4.308   4.403 -1.9243 -1.5981 -0.3522
    5PRO    HG2   56   5.375   4.208   4.280  1.0912 -0.3359  0.9966
    5PRO      C   57   5.067   4.349   4.001 -0.5771  0.2317  0.1324
    5PRO      O   58   5.024   4.464   3.995  0.2980  0.4007  0.2944
    6GLY      N   59   4.984   4.255   3.947  0.1052 -0.0294  0.0993
    6GLY     HN   60   5.016   4.161   3.948 -1.4257 -0.5570 -0.0408
    6GLY     CA   61   4.849   4.281   3.901  0.2620  0.7199  0.6704
    6GLY    HA1   62   4.803   4.191   3.865 -0.4739  1.8142 -1.2203
    6GLY    HA2   63   4.863   4.345   3.815 -0.2181 -1.6773 -1.2414
    6GLY      C   64   4.754   4.349   3.996 -0.1757  0.3036 -0.2195
    6GLY      O   65   4.769   4.323   4.117  0.3309  0.4108 -0.2574
    7PRO      N   66   4.652   4.423   3.948  0.5559  0.3385 -0.7894
    7PRO     CD   67   4.637   4.474   3.809 -0.1783 -0.4219  0.1568
    7PRO    HD1   68   4.611   4.397   3.733 -1.8645  0.0187  0.2866
    7PRO    HD2   69   4.725   4.532   3.774  0.2752 -1.8200 -1.1047
    7PRO     CA   70   4.539   4.464   4.035 -0.3661 -0.5797  0.2851
    7PRO     HA   71   4.569   4.547   4.098  0.5162 -1.9822  1.7807
    7PRO     CB   72   4.436   4.504   3.928  0.2148  0.3817 -0.1921
    7PRO    HB1   73   4.358   4.565   3.978 -0.2188 -0.7944  0.6037
    7PRO    HB2   74   4.393   4.410   3.886 -1.3122 -0.4421  3.0710
    7PRO     CG   75   4.523   4.574   3.820  1.3423 -0.9116 -0.3296
    7PRO    HG1   76   4.457   4.582   3.731 -0.1321  0.9228  0.9072
    7PRO    HG2   77   4.559   4.674   3.852 -0.6181 -0.7577  1.4765
    7PRO      C   78   4.476   4.356   4.126  0.3300 -0.4927  0.1593
    7PRO      O   79   4.481   4.239   4.092 -0.1860 -0.1268  0.0221
    8GLY      N   80   4.418   4.392   4.241 -0.2913 -0.8463  0.6580
    8GLY     HN   81   4.430   4.483   4.280 -0.8279 -0.3132 -0.3917
    8GLY     CA   82   4.329   4.311   4.321 -0.2073 -0.0057  0.0642
    8GLY    HA1   83   4.290   4.368   4.404  1.2849  3.1246 -1.3114
    8GLY    HA2   84   4.386   4.225   4.352  0.1797  0.9310  1.9847
    8GLY      C   85   4.207   4.261   4.240  0.2473  0.1105 -0.1195
    8GLY      O   86   4.151   4.343   4.167  0.3161 -0.3045 -0.0513
    9ASN      N   87   4.172   4.136   4.262 -0.0011  0.0251 -0.1134
    9ASN     HN   88   4.226   4.089   4.331  0.5424  1.1816  0.2612
    9ASN     CA   89   4.059   4.075   4.197 -0.1241 -0.2068 -0.1459
    9ASN     HA   90   4.078   4.072   4.091 -2.3328 -0.6260 -0.5462
    9ASN     CB   91   4.050   3.921   4.240  0.4040  0.0181 -0.3137
    9ASN    HB1   92   3.957   3.884   4.190 -0.5332  2.0647 -0.1204
    9ASN    HB2   93   4.036   3.916   4.350  0.5614 -2.1128 -0.3651
    9ASN     CG   94   4.167   3.836   4.193 -0.6674  0.3326  0.9348
    9ASN    OD1   95   4.240   3.858   4.094  0.0206  0.4295  0.3566
    9ASN    ND2   96   4.188   3.726   4.272  0.1780 -0.7044  0.2265
    9ASN   HD21   97   4.273   3.676   4.256  0.4456 -0.3162  0.4230
    9ASN   HD22   98   4.120   3.696   4.340  0.0874  1.6898  1.2574
    9ASN      C   99   3.920   4.142   4.219  0.2568  0.5761  0.6217
    9ASN      O  100   3.906   4.198   4.330  0.2471  0.1130 -0.5081
   10PRO      N  101   3.814   4.138   4.132  0.6368 -0.0522 -0.9279
   10PRO     CD  102   3.824   4.102   3.989 -0.1688 -0.3098 -0.1687
   10PRO    HD1  103   3.816   3.995   3.962  0.9878 -0.3083 -0.5333
   10PRO    HD2  104   3.925   4.135   3.957  0.1940 -1.2571 -0.0097
   10PRO     CA  105   3.681   4.192   4.165  0.6241  0.3460  0.2332
   10PRO     HA  106   3.703   4.298   4.165 -1.8230  0.8788  0.3901
   10PRO     CB  107   3.602   4.157   4.046  0.1986  0.0635  0.1310
   10PRO    HB1  108   3.519   4.229   4.026  0.9012  0.6440 -0.7350
   10PRO    HB2  109   3.562   4.054   4.058  0.1696 -0.1904 -1.9902
   10PRO     CG  110   3.702   4.173   3.934 -0.2318 -0.0825 -0.2226
   10PRO    HG1  111   3.665   4.134   3.836 -0.9846  0.9149 -0.3462
   10PRO    HG2  112   3.734   4.278   3.921  0.0172 -0.1622 -0.2740
   10PRO      C  113   3.620   4.152   4.299  0.2898 -0.2162 -0.0020
   10PRO      O  114   3.624   4.033   4.340  0.3655 -0.4672 -0.3468
   11GLY      N  115   3.559   4.248   4.374 -0.5233 -0.2528  0.2911
   11GLY     HN  116   3.554   4.340   4.337  0.3683  1.3922  4.1171
   11GLY     CA  117   3.482   4.228   4.499  0.4255  0.1914 -0.1081
   11GLY    HA1  118   3.435   4.323   4.523  0.5778  0.0636  0.7281
   11GLY    HA2  119   3.549   4.195   4.577 -0.6369  0.2174  0.8384
   11GLY      C  120   3.372   4.125   4.497 -0.5539 -0.7135 -0.1583
   11GLY      O  121   3.300   4.116   4.399  0.7079  0.2892 -0.6068
   12PRO      N  122   3.339   4.058   4.606 -0.0809  0.6369  0.1147
   12PRO     CD  123   3.417   4.056   4.734 -0.5309  0.2298 -0.0801
   12PRO    HD1  124   3.442   4.160   4.763  0.8666 -0.2236  0.3775
   12PRO    HD2  125   3.509   3.993   4.729 -1.6914 -1.5411  0.2831
   12PRO     CA  126   3.212   3.978   4.615 -0.0686  0.0424  0.0392
   12PRO     HA  127   3.223   3.905   4.536 -4.6247  0.7026 -1.3210
   12PRO     CB  128   3.215   3.908   4.758 -0.3337  0.4533 -0.1478
   12PRO    HB1  129   3.260   3.807   4.748 -4.4971 -1.5268  0.0219
   12PRO    HB2  130   3.122   3.901   4.817  0.1019  2.3878  0.8033
   12PRO     CG  131   3.320   3.995   4.833 -0.3130 -0.1851 -0.2440
   12PRO    HG1  132   3.271   4.085   4.877 -0.5569 -0.0412 -0.8059
   12PRO    HG2  133   3.377   3.946   4.915  0.0561  2.4017  1.1116
   12PRO      C  134   3.078   4.046   4.586 -0.3765  0.0591  0.7441
   12PRO      O  135   3.044   4.156   4.633  0.4614 -0.7597 -0.1765
   13GLY      N  136   2.989   3.979   4.503 -0.1699 -0.3524  0.6680
   13GLY     HN  137   3.016   3.895   4.457 -0.4069 -0.5120  0.8172
   13GLY     CA  138   2.848   4.021   4.478 -0.7343  0.2112 -0.4636
   13GLY    HA1  139   2.815   3.956   4.398  1.8779  0.3474 -1.7091
   13GLY    HA2  140   2.849   4.123   4.443  0.3292  0.3600 -0.0287
   13GLY      C  141   2.762   4.016   4.597 -0.1252 -0.3926  0.5733
   13GLY      O  142   2.793   3.956   4.699  0.5446  0.0218  0.0429
   14ASN      N  143   2.648   4.078   4.580  0.1358  0.0233 -0.1383
   14ASN     HN  144   2.626   4.123   4.494  0.4126 -3.6838 -2.2409
   14ASN     CA  145   2.562   4.098   4.698 -0.0371  0.0629 -0.0654
   14ASN     HA  146   2.619   4.141   4.779  0.6420  1.7083 -1.3908
   14ASN     CB  147   2.459   4.214   4.666  0.3591  0.1066 -0.5564
   14ASN    HB1  148   2.395   4.243   4.752 -0.6340  1.4350 -1.7273
   14ASN    HB2  149   2.391   4.170   4.590 -1.1297  0.6594  0.4524
   14ASN     CG  150   2.542   4.330   4.626  0.0275 -0.0191 -0.2766
   14ASN    OD1  151   2.632   4.387   4.688 -0.1512  0.4558  0.2113
   14ASN    ND2  152   2.519   4.370   4.500 -0.2620  0.4488  0.1971
   14ASN   HD21  153   2.565   4.453   4.469 -2.8922  2.0463  0.4307
   14ASN   HD22  154   2.452   4.324   4.441 -0.5660  2.0646 -0.7498
   14ASN      C  155   2.498   3.968   4.753  0.3791  0.1311 -0.0757
   14ASN      O  156   2.475   3.876   4.676  0.1585  0.4733  0.2704
   15PRO      N  157   2.465   3.952   4.882 -0.7359 -0.5257 -0.1698
   15PRO     CD  158   2.493   4.045   4.988  0.2575  0.0278 -0.1604
   15PRO    HD1  159   2.410   4.118   4.992  0.3240 -0.0055  4.4831
   15PRO    HD2  160   2.590   4.100   4.976  0.4117 -0.3584 -0.6927
   15PRO     CA  161   2.374   3.841   4.926  0.3186 -0.0521  0.3028
   15PRO     HA  162   2.421   3.748   4.897 -0.2850 -0.1515 -0.3851
   15PRO     CB  163   2.378   3.861   5.077 -0.1986  0.2267 -0.6812
   15PRO    HB1  164   2.389   3.765   5.131  0.1261  1.1198  0.9010
   15PRO    HB2  165   2.283   3.906   5.113  0.1722 -0.3951  1.1546
   15PRO     CG  166   2.499   3.957   5.115  0.3453  0.8073 -0.5002
   15PRO    HG1  167   2.498   4.012   5.211  2.3922  0.6479 -0.3638
   15PRO    HG2  168   2.587   3.889   5.113  0.1194  0.5155 -0.5596
   15PRO      C  169   2.233   3.847   4.873 -0.2884  0.7328 -0.0743
   15PRO    OT1  170   2.190   3.937   4.799 -0.7508  0.0520  0.1141
   15PRO    OT2  171   2.156   3.746   4.895  0.1745 -0.0535 -0.1231
   16LIT    LIT  172   7.597   7.068   2.162  0.1881  0.0241 -1.1608
   17LIT    LIT  173   6.866   3.656   5.395  0.1380 -0.1580 -0.1216
   18LIT    LIT  174   2.391   4.291   2.090 -0.8254 -0.3480 -0.3935
   19LIT    LIT  175   3.697   7.341   2.779 -0.0873 -0.6201  1.0085
   20LIT    LIT  176   7.490   5.967   4.407  0.4730 -1.0874 -0.3362
   21LIT    LIT  177   3.575   7.313   5.417  0.9901 -0.1454  0.3433
   22LIT    LIT  178   7.950   7.520   6.134 -0.4314  0.5089  0.5077
   23LIT    LIT  179   2.536   1.401   6.584 -0.7555 -0.2657 -0.7096
   24LIT    LIT  180   6.317   3.533   3.169  0.8301  0.0962  0.2379
   25LIT    LIT  181   6.434   6.877   5.989 -0.0988 -0.2287  0.1490
   26LIT    LIT  182   6.054   1.266   1.709  0.3030  0.7381 -0.2554
   27LIT    LIT  183   5.589   5.910   0.052 -0.8368 -0.2427 -0.0586
   28LIT    LIT  184   0.939   4.039   2.056 -0.4269  0.3193 -0.5757
   29LIT    LIT  185   1.685   2.107   6.822  0.3897 -0.3217  0.1245
   30LIT    LIT  186   3.604   0.681   2.283  0.2267  0.5125 -0.4088
   31LIT    LIT  187   2.751   1.618   2.142  0.0340 -0.6357  0.1712
   32LIT    LIT  188   2.958   6.338   5.501 -0.6640  0.3610 -0.4179
   33LIT    LIT  189   2.101   5.791   4.865 -0.1012 -0.0828 -0.1285
   34LIT    LIT  190   7.477   0.523   6.495  0.5760 -0.9528 -0.6854
   35LIT    LIT  191   7.099   5.000   4.577  1.2102 -0.3562  0.2289
   36LIT    LIT  192   0.835   7.119   2.080 -0.0882 -0.0819  0.0170
   37LIT    LIT  193   5.831   7.774   0.635  0.7921 -0.3841  0.5619
   38LIT    LIT  194   5.464   3.938   6.446  0.4919  0.4770  0.2313
   39LIT    LIT  195   0.823   3.849   4.354 -0.3779  0.2563 -0.1872
   40LIT    LIT  196   1.531   5.212   6.388 -0.2514  0.3036 -0.7227
   41LIT    LIT  197   7.494   1.033   2.511 -1.0667 -0.4049  0.5683
   42LIT    LIT  198   4.536   0.763   1.099  0.2180  0.4384  0.0887
   43LIT    LIT  199   5.970   7.665   6.754 -0.2368 -0.8134 -0.4761
   44LIT    LIT  200   2.634   6.419   2.113 -0.1146  0.7617  0.0977
   45LIT    LIT  201   4.968   7.959   2.548  0.3576 -0.2752 -0.8540
   46LIT    LIT  202   5.051   1.287   6.122  0.6994  0.1414 -0.1517
   47LIT    LIT  203   7.921   6.660   4.835  0.6658 -0.1946  1.0790
   48LIT    LIT  204   8.086   4.055   1.717  0.1482  0.2931  0.4465
   49LIT    LIT  205   0.282   3.540   3.506 -0.3811  0.4410  0.1169
   50LIT    LIT  206   6.745   6.961   6.933 -0.0637 -0.1880  0.2618
   51LIT    LIT  207   1.291   2.291   3.598  0.3435  0.5841 -0.7258
   52LIT    LIT  208   6.985   0.586   4.268  0.0747 -0.3029  0.1790
   53LIT    LIT  209   4.552   1.260   0.706 -0.1829 -1.2485 -0.1430
   54LIT    LIT  210   2.430   6.588   6.904  0.1770 -0.0573 -0.2653
   55LIT    LIT  211   1.179   6.646   2.751  0.1471 -0.1920 -0.3152
   56LIT    LIT  212   2.456   0.544   3.144  0.2820 -0.7584 -0.4214
   57LIT    LIT  213   5.598   0.023   4.151 -0.7186 -0.2722 -0.4243
   58CLA    CLA  214   5.977   3.758   3.438  0.0333  0.1746  0.0369
   59CLA    CLA  215   6.205   6.927   5.993 -0.1646 -0.2636  0.1593
   60CLA    CLA  216   5.408   7.465   4.362  0.1089  0.1395  0.2994
   61CLA    CLA  217   7.727   2.131   3.021  0.0277  0.1520 -0.1748
   62CLA    CLA  218   3.648   0.436   2.252  0.2317  0.1240  0.0442
   63CLA    CLA  219   3.393   4.814   1.280  0.0708  0.0058 -0.1772
   64CLA    CLA  220   1.949   2.755   0.540  0.1411 -0.2885  0.1465
   65CLA    CLA  221   7.036   6.697   3.390 -0.0102 -0.2503 -0.0901
   66CLA    CLA  222   2.908   1.212   3.533 -0.3357  0.0417 -0.3176
   67CLA    CLA  223   8.165   6.755   6.915  0.0609 -0.3086  0.2454
   68CLA    CLA  224   0.627   1.622   3.397 -0.2937 -0.0432  0.2970
   69CLA    CLA  225   8.229   3.345   1.059  0.2460  0.6252 -0.0048
   70CLA    CLA  226   2.159   1.246   6.784 -0.2424  0.2128 -0.2475
   71CLA    CLA  227   2.114   7.511   0.637 -0.0521  0.0175  0.3603
   72CLA    CLA  228   7.236   0.329   2.626  0.0390 -0.2336 -0.0608
   73CLA    CLA  229   3.801   0.805   2.259 -0.2078 -0.3540  0.0134
   74CLA    CLA  230   1.402   0.154   3.164  0.0497 -0.0913  0.5580
   75CLA    CLA  231   5.994   4.683   5.988  0.2510 -0.3044 -0.3876
   76CLA    CLA  232   5.926   3.196   1.414  0.2354  0.3043 -0.6266
   77CLA    CLA  233   4.252   1.130   3.038 -0.1813  0.1090  0.0731
   78CLA    CLA  234   8.471   2.964   2.923  0.3452  0.5014  0.4314
   79CLA    CLA  235   4.023   5.990   6.794  0.1013  0.1741  0.0251
   80CLA    CLA  236   2.004   0.083   5.207 -0.0414  0.1318  0.3454
   81CLA    CLA  237   0.308   7.846   3.122 -0.1846  0.2155 -0.2365
   82CLA    CLA  238   0.362   0.281   3.974  0.1135 -0.0247 -0.6236
   83CLA    CLA  239   7.943   0.313   6.748 -0.0852 -0.0962 -0.1074
   84CLA    CLA  240   3.311   2.372   3.740 -0.1317  0.0768 -0.6525
   85CLA    CLA  241   6.386   4.362   4.510 -1.0169 -0.1443 -0.1901
   86CLA    CLA  242   5.706   6.665   5.280  0.0541 -0.0921 -0.1378
   87CLA    CLA  243   6.068   6.131   0.273 -0.0844 -0.5426 -0.4782
   88CLA    CLA  244   4.660   0.959   1.062  0.3563 -0.0857  0.3695
   89CLA    CLA  245   7.890   5.233   5.024 -0.1145  0.3299 -0.0611
   90CLA    CLA  246   1.823   3.562   1.087  0.5419 -0.3675 -0.0204
   91CLA    CLA  247   7.256   5.794   6.128  0.0158 -0.3362 -0.3656
   92CLA    CLA  248   7.290   3.386   3.543 -0.3191  0.3577  0.1832
   93CLA    CLA  249   3.285   7.141   6.651  0.1446 -0.2719  0.0088
   94CLA    CLA  250   0.298   3.722   3.382 -0.1769  0.0892  0.2181
   95CLA    CLA  251   6.858   1.157   5.139 -0.0277  0.0979 -0.0332
   96CLA    CLA  252   6.975   1.615   3.013 -0.1043  0.1256  0.0375
   97CLA    CLA  253   2.719   7.019   5.632  0.4106  0.0325  0.0383
   98CLA    CLA  254   1.594   0.012   5.865 -0.1848  0.4225  0.3922
   99CLA    CLA  255   5.166   1.683   5.158 -0.0068  0.0692  0.1127
  100TIP3   OH2  256   2.962   0.040   0.949 -0.4186  0.0313  0.3469
  100TIP3    H1  257   2.868   0.058   0.945 -1.0772 -3.0446  1.4057
  100TIP3    H2  258   2.980   0.021   1.041  0.8175 -1.5754 -0.1953
  101TIP3   OH2  259   3.013   2.208   2.221 -0.1679  0.1207 -0.0600
  101TIP3    H1  260   2.982   2.210   2.312 -0.3799 -0.0203 -0.1283
  101TIP3    H2  261   3.087   2.269   2.219 -0.5418  0.5801  0.0665
  102TIP3   OH2  262   0.990   7.417   3.308  0.3804  0.1334  0.1100
  102TIP3    H1  263   1.001   7.352   3.377 -1.0594 -1.2138 -0.9004
  102TIP3    H2  264   0.908   7.393   3.265  2.0673 -0.0924 -3.1350
  103TIP3   OH2  265   7.240   7.206   3.209 -0.7271  0.2876  0.3915
  103TIP3    H1  266   7.261   7.206   3.116  0.6070 -0.7189  0.6755
  103TIP3    H2  267   7.189   7.126   3.222 -2.4061  1.3034  0.2252
  104TIP3   OH2  268   4.853   2.003   4.090  0.0513 -0.1678 -0.0566
  104TIP3    H1  269   4.911   1.929   4.110 -0.2900 -0.0902  1.2756
  104TIP3    H2  270   4.835   2.043   4.175  1.4529  2.3924 -0.9146
  105TIP3   OH2  271   1.411   7.534   2.887  0.5142 -0.3011  0.4667
  105TIP3    H1  272   1.333   7.492   2.921  0.6122 -1.3459 -0.5807
  105TIP3    H2  273   1.395   7.543   2.793  1.3117  0.2302  0.3721
  106TIP3   OH2  274   5.096   1.004   4.311 -0.0827  0.4732  0.2499
  106TIP3    H1  275   5.138   1.078   4.269  2.0613 -1.2702 -0.7910
  106TIP3    H2  276   5.023   1.042   4.360  1.1103  3.2570 -0.0572
  107TIP3   OH2  277   0.473   6.364   0.786  0.4873  0.2126 -0.2120
  107TIP3    H1  278   0.528   6.360   0.708  1.5938  1.6332  0.4740
  107TIP3    H2  279   0.404   6.427   0.764  0.9269  0.7833  0.0115
  108TIP3   OH2  280   2.871   0.818   0.553  0.0792 -0.2318 -0.4273
  108TIP3    H1  281   2.886   0.910   0.575  0.6672 -0.3103 -0.5031
  108TIP3    H2  282   2.776   0.811   0.541 -0.2242 -0.0732  1.6499
  109TIP3   OH2  283   7.567   7.398   1.611 -0.3427 -0.3171 -0.4030
  109TIP3    H1  284   7.557   7.487   1.577  0.4117  0.1406  0.5286
  109TIP3    H2  285   7.635   7.358   1.556 -0.1992 -0.0911 -0.3895
  110TIP3   OH2  286   1.433   7.629   1.795 -0.1310  0.0068  0.7860
  110TIP3    H1  287   1.451   7.708   1.847 -0.8837  0.5128  0.2966
  110TIP3    H2  288   1.339   7.632   1.780  0.3460  1.0684 -2.4808
  111TIP3   OH2  289   0.274   0.755   0.147  0.2384 -0.2042  0.2333
  111TIP3    H1  290   0.302   0.669   0.117 -0.1594 -0.0989 -0.4440
  111TIP3    H2  291   0.330   0.817   0.100 -0.3663 -0.0397 -0.2769
  112TIP3   OH2  292   3.591   0.221   0.729 -0.3059  0.1777 -0.2325
  112TIP3    H1  293   3.524   0.288   0.728 -0.6952 -0.2249 -1.1674
  112TIP3    H2  294   3.673   0.268   0.717 -0.4601  0.6079  0.3595
  113TIP3   OH2  295   3.089   2.031   1.219  0.2757 -0.0018  0.0553
  113TIP3    H1  296   3.154   1.963   1.198  0.7494 -0.1299  1.8641
  113TIP3    H2  297   3.033   1.991   1.285 -2.2083 -0.1825 -2.0592
  114TIP3   OH2  298   4.230   1.281   1.099  0.2185  0.0485 -0.5075
  114TIP3    H1  299   4.321   1.264   1.123 -0.1685 -2.6434 -0.7658
  114TIP3    H2  300   4.185   1.198   1.114 -2.3381  1.4938  0.2068
  115TIP3   OH2  301   3.152   0.906   0.759 -0.0324  0.1045 -0.6196
  115TIP3    H1  302   3.193   0.992   0.763 -0.1540  0.1773 -0.9090
  115TIP3    H2  303   3.139   0.890   0.665  0.3704 -0.4094 -0.5913
  116TIP3   OH2  304   0.370   7.890   0.382 -0.2495  0.1489  0.0471
  116TIP3    H1  305   0.460   7.870   0.405 -0.5060 -0.3838  0.5941
  116TIP3    H2  306   0.341   7.952   0.449  0.1582  1.4509 -0.9465
  117TIP3   OH2  307   6.585   5.721   6.698 -0.0257 -0.6658 -0.2434
  117TIP3    H1  308   6.504   5.688   6.737  0.1400  0.5637  1.1620
  117TIP3    H2  309   6.558   5.794   6.643  0.1875  0.1301  0.6999
  118TIP3   OH2  310   4.024   0.410   0.761 -0.0527 -0.3462 -0.5375
  118TIP3    H1  311   3.996   0.338   0.817 -1.4194 -0.9888 -2.0085
  118TIP3    H2  312   4.050   0.368   0.679  1.4718  0.6228 -0.5832
  119TIP3   OH2  313   7.255   3.588   6.680  0.6469 -0.1230  0.1437
  119TIP3    H1  314   7.293   3.662   6.727  0.2969  0.2809 -0.1993
  119TIP3    H2  315   7.329   3.533   6.657  1.0205  0.6118 -0.4350
  120TIP3   OH2  316   3.541   0.653   1.896  0.6792 -0.5517  0.5621
  120TIP3    H1  317   3.620   0.612   1.930  0.4484 -1.4126  0.0925
  120TIP3    H2  318   3.500   0.584   1.843  0.5755  0.4781 -0.7109
  121TIP3   OH2  319   1.330   6.365   0.775  0.0405 -0.2185  0.0284
  121TIP3    H1  320   1.307   6.328   0.860  1.5692  1.7202  1.3389
  121TIP3    H2  321   1.256   6.421   0.752  0.1383  0.1680  0.6531
  122TIP3   OH2  322   4.395   1.261   0.817  0.5558  0.0963  0.5035
  122TIP3    H1  323   4.362   1.176   0.787  1.9547 -0.8329  1.5694
  122TIP3    H2  324   4.339   1.283   0.892 -0.3250  0.5223 -0.2561
  123TIP3   OH2  325   7.806   7.990   2.775 -0.0076  0.2822 -0.1954
  123TIP3    H1  326   7.751   7.960   2.848  2.0835  0.8351  1.6666
  123TIP3    H2  327   7.807   7.916   2.714 -1.7098 -0.2315  0.3676
  124TIP3   OH2  328   0.735   7.285   2.728  0.3814  0.0824  0.1218
  124TIP3    H1  329   0.809   7.278   2.667  0.5793  0.8394  0.2723
  124TIP3    H2  330   0.695   7.370   2.707  0.2672  0.2065  0.8346
  125TIP3   OH2  331   3.144   1.414   1.119  0.1149 -0.5253  0.1090
  125TIP3    H1  332   3.234   1.392   1.094 -0.7214 -2.6201 -1.1805
  125TIP3    H2  333   3.117   1.481   1.056  0.4771 -0.5092 -0.0302
  126TIP3   OH2  334   6.439   2.935   2.009  0.1319  0.5437  0.1091
  126TIP3    H1  335   6.395   2.882   1.943 -0.5836  1.7745 -0.4304
  126TIP3    H2  336   6.368   2.967   2.065  0.4693  1.5165 -0.0108
  127TIP3   OH2  337   4.111   1.109   4.048 -0.1593 -0.1083 -0.2099
  127TIP3    H1  338   4.118   1.171   3.976 -0.0413  2.2385  1.7767
  127TIP3    H2  339   4.017   1.087   4.052 -0.3064  0.4824 -0.4680
  128TIP3   OH2  340   4.614   0.288   0.115 -0.2243 -0.2908 -0.0923
  128TIP3    H1  341   4.656   0.374   0.103 -0.3074 -0.2854 -0.3479
  128TIP3    H2  342   4.638   0.262   0.204 -0.5757  0.2087  0.1524
  129TIP3   OH2  343   4.315   0.060   1.482  0.1409  0.1063  0.3813
  129TIP3    H1  344   4.306  -0.015   1.423 -1.9658 -0.3832  1.3167
  129TIP3    H2  345   4.289   0.135   1.429 -0.4464 -0.1643  0.2860
  130TIP3   OH2  346   4.844   2.406   5.082 -0.1527 -0.1515  0.1502
  130TIP3    H1  347   4.894   2.388   5.003  1.8337  0.8290  1.1472
  130TIP3    H2  348   4.853   2.328   5.135  0.1681 -0.0343  0.2641
  131TIP3   OH2  349   4.271   1.936   1.090 -0.4475  1.3811 -0.1824
  131TIP3    H1  350   4.201   1.989   1.053 -0.6450  1.9744  1.0178
  131TIP3    H2  351   4.266   1.953   1.184  1.0336  1.0962 -0.0509
  132TIP3   OH2  352   2.271   7.631   2.035 -0.2906  0.3308  0.1503
  132TIP3    H1  353   2.229   7.710   2.069 -1.0548  0.3714 -0.8776
  132TIP3    H2  354   2.207   7.594   1.975  0.6979 -0.2140 -0.5853
  133TIP3   OH2  355   4.905   0.674   0.853 -0.1486 -0.4350  0.0326
  133TIP3    H1  356   4.881   0.678   0.760 -1.2408  1.2918  0.3589
  133TIP3    H2  357   4.975   0.609   0.857 -0.9027 -1.4049 -1.8272
  134TIP3   OH2  358   2.715   1.252   4.577  0.2589  0.0371  0.1330
  134TIP3    H1  359   2.690   1.337   4.542 -0.7812  0.3029  1.4754
  134TIP3    H2  360   2.685   1.189   4.513  1.6630  0.7042 -1.2194
  135TIP3   OH2  361   3.286   0.612   1.061 -0.1090 -0.2177 -0.0034
  135TIP3    H1  362   3.325   0.693   1.028 -0.2699  0.0618  0.4854
  135TIP3    H2  363   3.192   0.622   1.043 -0.2132 -0.0179  0.6137
  136TIP3   OH2  364   7.938   4.348   5.886  0.3084  0.3106  0.3589
  136TIP3    H1  365   8.032   4.344   5.867  0.1068 -0.4181 -0.5814
  136TIP3    H2  366   7.914   4.439   5.873  1.2673  0.8980  2.5665
  137TIP3   OH2  367   4.544   0.723   1.288  0.0341 -0.0942  0.6710
  137TIP3    H1  368   4.605   0.679   1.347 -0.0766 -1.8779 -0.5237
  137TIP3    H2  369   4.472   0.750   1.344 -0.2820 -2.1773  1.3181
  138TIP3   OH2  370   6.830   5.220   6.839 -0.5257 -0.1044  0.4850
  138TIP3    H1  371   6.853   5.153   6.904 -1.4369  0.5196  1.4509
  138TIP3    H2  372   6.838   5.174   6.755 -2.7989 -1.9467  1.2069
  139TIP3   OH2  373   4.582   1.626   1.092 -0.4785 -0.8220  0.1278
  139TIP3    H1  374   4.676   1.643   1.102 -0.7078  0.7727 -0.4173
  139TIP3    H2  375   4.558   1.580   1.173  0.7177 -1.0366  0.3745
  140TIP3   OH2  376   6.685   1.112   1.366 -0.6392  0.0708  0.0547
  140TIP3    H1  377   6.755   1.071   1.418 -0.7987 -1.8893 -1.2124
  140TIP3    H2  378   6.726   1.130   1.281 -1.2061  0.4892 -0.1291
  141TIP3   OH2  379   8.188   7.653   0.126  0.0573 -0.2065  0.7279
  141TIP3    H1  380   8.175   7.653   0.031 -1.7617  0.5795  0.9592
  141TIP3    H2  381   8.189   7.746   0.150 -2.8748 -0.4426  1.9010
  142TIP3   OH2  382   5.559   0.842   0.689 -0.3235  0.5451  0.5340
  142TIP3    H1  383   5.529   0.816   0.776  2.3030  0.3664  1.4118
  142TIP3    H2  384   5.650   0.868   0.701  0.4380 -0.5682 -2.3643
  143TIP3   OH2  385   5.368   0.626   1.875  1.1199  0.0312  0.0936
  143TIP3    H1  386   5.315   0.701   1.849 -0.1113  0.0841  2.5784
  143TIP3    H2  387   5.332   0.553   1.824 -0.2051  0.4144  0.4472
  144TIP3   OH2  388   8.086   7.562   2.414 -0.2379  0.2138  0.4508
  144TIP3    H1  389   8.055   7.621   2.482  0.1399  2.6769 -1.4503
  144TIP3    H2  390   8.006   7.519   2.382 -0.6800  0.6247  0.9899
  145TIP3   OH2  391   1.203   7.337   4.595  0.0192  0.8180 -0.5408
  145TIP3    H1  392   1.150   7.258   4.589  0.1875  0.6538  0.0599
  145TIP3    H2  393   1.227   7.358   4.505  0.3336 -0.0598 -0.6605
  146TIP3   OH2  394   7.658   5.198   6.117  0.6558  0.2851  0.4498
  146TIP3    H1  395   7.667   5.158   6.031  0.7829 -0.7223  0.9333
  146TIP3    H2  396   7.747   5.206   6.150  0.4937 -0.8906  1.1973
  147TIP3   OH2  397   1.019   6.285   2.919  0.0921  0.1902 -0.5675
  147TIP3    H1  398   0.979   6.290   3.006 -0.1123  0.1197 -0.6558
  147TIP3    H2  399   1.090   6.222   2.928 -0.2241 -0.1709 -0.5651
  148TIP3   OH2  400   2.691   0.671   1.261  0.5544 -0.0654  0.1670
  148TIP3    H1  401   2.613   0.725   1.248 -0.4174 -1.1936  1.2092
  148TIP3    H2  402   2.761   0.734   1.277 -0.2386  0.9382 -0.2122
  149TIP3   OH2  403   4.968   0.331   2.837  0.1420  0.0325  0.1674
  149TIP3    H1  404   4.965   0.403   2.773  2.0090  0.4683  0.5564
  149TIP3    H2  405   5.050   0.286   2.819 -1.4147 -2.6137 -0.6780
  150TIP3   OH2  406   0.606   7.711   2.266 -0.7855 -0.2918  0.3606
  150TIP3    H1  407   0.547   7.758   2.325  0.2443 -0.4508  1.5401
  150TIP3    H2  408   0.686   7.764   2.265 -0.9445 -0.0497 -1.2621
  151TIP3   OH2  409   6.958   0.569   1.126  0.8238 -0.1663  0.2190
  151TIP3    H1  410   7.044   0.599   1.097  0.0180  1.2099 -0.7855
  151TIP3    H2  411   6.930   0.634   1.191  0.4081 -0.4414  0.3193
  152TIP3   OH2  412   4.068   0.682   2.199  0.2418  0.0998  0.3677
  152TIP3    H1  413   3.975   0.700   2.216  0.0921  0.5326 -0.8600
  152TIP3    H2  414   4.115   0.741   2.258 -0.2548 -0.1895  1.0650
  153TIP3   OH2  415   0.805   6.514   1.304  0.3928  0.0311 -0.0690
  153TIP3    H1  416   0.854   6.460   1.242  1.2028  0.3346  0.2943
  153TIP3    H2  417   0.721   6.469   1.314 -0.4279  0.9262 -2.7045
  154TIP3   OH2  418   8.451   6.447   1.387  0.4561 -0.8330  0.4112
  154TIP3    H1  419   8.399   6.426   1.310 -0.5882  0.8369  0.6279
  154TIP3    H2  420   8.510   6.517   1.359  1.2443 -1.3738  0.6868
  155TIP3   OH2  421   1.727   7.471   0.698 -0.0051 -0.2542 -0.1432
  155TIP3    H1  422   1.816   7.443   0.675  0.1876 -1.2747  1.7255
  155TIP3    H2  423   1.733   7.496   0.790 -1.7091 -0.5539  0.0660
  156TIP3   OH2  424   4.666   0.643   0.993 -0.0860 -0.7047 -0.2688
  156TIP3    H1  425   4.677   0.557   0.953  1.2930 -0.5534 -0.2400
  156TIP3    H2  426   4.747   0.690   0.971 -0.2541  0.1192  0.8395
  157TIP3   OH2  427   4.162   7.403   1.282 -0.0704 -0.3688  0.1402
  157TIP3    H1  428   4.228   7.337   1.258  0.4449  0.8133 -1.8282
  157TIP3    H2  429   4.199   7.486   1.252 -2.1318  0.4029 -0.3744
  158TIP3   OH2  430   2.981   0.181   3.078 -0.4120 -0.0428  0.1495
  158TIP3    H1  431   3.038   0.217   3.147  1.4323 -1.8693 -0.3886
  158TIP3    H2  432   2.941   0.104   3.118 -3.1728  1.6475  0.7785
  159TIP3   OH2  433   0.436   4.640   6.609  0.3799 -0.9138  0.4547
  159TIP3    H1  434   0.463   4.567   6.665 -0.2816 -1.4398  0.0926
  159TIP3    H2  435   0.424   4.601   6.522 -2.2884 -0.8635  0.7577
  160TIP3   OH2  436   1.095   5.266   2.815  0.0813 -0.3562  0.2267
  160TIP3    H1  437   1.108   5.342   2.758 -1.2534 -0.3772 -0.1018
  160TIP3    H2  438   1.112   5.191   2.758  3.0816 -0.3151  0.9619
  161TIP3   OH2  439   4.288   3.677   1.720  0.0885 -0.2523 -0.2550
  161TIP3    H1  440   4.383   3.668   1.726  0.3615  0.6879 -2.4648
  161TIP3    H2  441   4.254   3.638   1.800  2.3229 -0.9187  0.3841
  162TIP3   OH2  442   6.417   0.983   1.923  0.9120  0.1882  0.2606
  162TIP3    H1  443   6.351   1.040   1.963  1.2972  0.9539 -0.1878
  162TIP3    H2  444   6.456   0.935   1.996  2.0131  1.9997  0.8807
  163TIP3   OH2  445   4.569   1.507   0.220 -0.0313  0.3094  0.3245
  163TIP3    H1  446   4.658   1.537   0.206 -0.4106  1.3158  0.0239
  163TIP3    H2  447   4.535   1.565   0.289 -0.8932  0.8452 -0.5313
  164TIP3   OH2  448   3.928   7.581   0.576  0.1968 -0.1523  0.2088
  164TIP3    H1  449   3.973   7.616   0.653  0.9355  2.5119 -1.3314
  164TIP3    H2  450   3.851   7.537   0.610 -0.1354  2.0298  2.4012
  165TIP3   OH2  451   3.996   7.358   2.513 -0.3369 -0.1528 -0.0787
  165TIP3    H1  452   4.064   7.302   2.476 -0.5928 -1.3124  1.1550
  165TIP3    H2  453   3.917   7.339   2.462  0.1448  0.9158 -1.2613
  166TIP3   OH2  454   8.408   7.772   3.125  0.2246 -0.4663  0.3595
  166TIP3    H1  455   8.401   7.862   3.156  0.3183 -0.2413 -0.2624
  166TIP3    H2  456   8.372   7.774   3.037  0.6781 -0.9391  0.1629
  167TIP3   OH2  457   4.318   0.292   1.316  0.3462  0.1709  0.3172
  167TIP3    H1  458   4.346   0.333   1.398 -0.0042 -0.7628  0.9167
  167TIP3    H2  459   4.236   0.337   1.295 -0.1809 -0.3953  1.1160
  168TIP3   OH2  460   5.341   1.301   2.127 -0.0135  0.7794  0.1615
  168TIP3    H1  461   5.351   1.341   2.040  0.7717 -1.7467 -0.9369
  168TIP3    H2  462   5.251   1.269   2.129  0.1411  0.3347  0.0579
  169TIP3   OH2  463   4.188   2.592   6.402  0.1777  0.1979 -0.2217
  169TIP3    H1  464   4.225   2.544   6.475  1.5462  1.0864 -0.3168
  169TIP3    H2  465   4.262   2.637   6.362 -0.8696  1.3634 -0.9113
  170TIP3   OH2  466   6.601   5.573   6.403  0.4412 -0.5811 -0.6742
  170TIP3    H1  467   6.559   5.620   6.476  2.0943  0.1830 -0.1876
  170TIP3    H2  468   6.694   5.589   6.415  0.6991  0.0478 -3.3275
  171TIP3   OH2  469   4.127   1.875   2.198  0.2840  0.1001  0.8049
  171TIP3    H1  470   4.133   1.858   2.292 -0.7924 -1.1538  0.6610
  171TIP3    H2  471   4.036   1.901   2.184  0.9404  2.2950  0.4108
  172TIP3   OH2  472   2.782   2.253   3.464  0.4331 -0.1761 -0.7142
  172TIP3    H1  473   2.696   2.218   3.486  0.3385  0.5893  0.1309
  172TIP3    H2  474   2.829   2.178   3.426 -0.5572 -0.6174 -1.0730
  173TIP3   OH2  475   2.938   2.236   1.182 -0.2316  0.1239  0.0573
  173TIP3    H1  476   2.899   2.233   1.269 -0.3984  2.3899  0.0718
  173TIP3    H2  477   2.984   2.152   1.173 -0.7616 -0.3862  2.0540
  174TIP3   OH2  478   5.922   0.411   2.672  0.5648  0.2738 -0.0199
  174TIP3    H1  479   5.938   0.440   2.582  0.9738  1.7442  0.5048
  174TIP3    H2  480   5.911   0.316   2.665  2.3753  0.1267 -1.3834
  175TIP3   OH2  481   4.914   1.843   1.730 -0.0619 -0.3244 -0.4330
  175TIP3    H1  482   4.932   1.866   1.821 -0.6277  1.1250 -0.6678
  175TIP3    H2  483   4.819   1.851   1.721  0.0241 -0.1223 -1.2253
  176TIP3   OH2  484   5.214   0.433   0.995 -0.3121 -0.1166  0.0707
  176TIP3    H1  485   5.187   0.438   1.087 -2.2349  2.1029 -0.5844
  176TIP3    H2  486   5.132   0.422   0.947  0.5989 -0.2506 -1.4647
  177TIP3   OH2  487   3.095   1.814   0.248  0.1159  0.4901 -0.2943
  177TIP3    H1  488   3.075   1.731   0.289 -3.0817  0.8246 -1.0428
  177TIP3    H2  489   3.126   1.791   0.160 -1.0158  0.0674 -0.5955
  178TIP3   OH2  490   3.295   2.074   0.637 -0.0793 -0.5949 -0.0411
  178TIP3    H1  491   3.208   2.038   0.617 -0.6394  0.0138  1.2311
  178TIP3    H2  492   3.320   2.122   0.558 -1.0754 -0.4596 -0.2835
  179TIP3   OH2  493   6.258   1.077   1.398 -0.1395 -0.3954  0.1493
  179TIP3    H1  494   6.277   1.025   1.320 -2.1362 -2.9082  1.2609
  179TIP3    H2  495   6.339   1.126   1.414  1.3504 -2.1454 -1.7349
  180TIP3   OH2  496   3.439   7.622   0.607  0.1759  0.0456  0.5667
  180TIP3    H1  497   3.394   7.642   0.690 -1.2478  1.0979 -0.4249
  180TIP3    H2  498   3.396   7.543   0.575  0.2557  0.0338  0.4896
  181TIP3   OH2  499   5.720   0.572   1.522 -0.1374 -0.0231  0.3761
  181TIP3    H1  500   5.814   0.582   1.542 -0.3496  1.2674  0.8081
  181TIP3    H2  501   5.699   0.483   1.551  1.3748 -1.0182 -1.4669
  182TIP3   OH2  502   5.681   0.798   1.170 -0.7027 -0.4009  0.0845
  182TIP3    H1  503   5.600   0.789   1.221 -0.9255 -0.8731 -0.3572
  182TIP3    H2  504   5.691   0.714   1.125 -1.4204  0.6192 -2.0157
  183TIP3   OH2  505   8.124   5.273   6.697  0.0675 -0.1647 -0.6030
  183TIP3    H1  506   8.105   5.319   6.615 -0.0901 -0.6289 -0.8274
  183TIP3    H2  507   8.157   5.187   6.669  0.6530 -0.0761 -0.1881
  184TIP3   OH2  508   4.251   6.802   0.045 -0.0495  0.2800  0.3332
  184TIP3    H1  509   4.246   6.739  -0.027 -0.3429  0.0533  0.5519
  184TIP3    H2  510   4.338   6.788   0.083 -0.2345 -0.2065  0.5779
  185TIP3   OH2  511   2.721   7.868   0.449  0.1307  0.0895 -0.2574
  185TIP3    H1  512   2.803   7.859   0.400  1.2011  1.0581  1.2862
  185TIP3    H2  513   2.724   7.957   0.484 -0.7877 -0.4395  1.2023
  186TIP3   OH2  514   5.163   0.798   0.025 -0.2228  0.1319  0.3902
  186TIP3    H1  515   5.223   0.787   0.099 -0.1274 -0.3837  0.2338
  186TIP3    H2  516   5.170   0.891   0.003  0.6935  0.0334  0.2251
  187TIP3   OH2  517   5.772   0.209   0.186 -0.7562  0.6745 -0.1099
  187TIP3    H1  518   5.823   0.290   0.185 -1.1244  0.9010 -0.8331
  187TIP3    H2  519   5.819   0.152   0.248 -0.4436  1.3981  0.3320
  188TIP3   OH2  520   7.035   0.146   0.115  0.5635  0.0268 -0.3883
  188TIP3    H1  521   7.090   0.222   0.132  0.5133  0.1974 -0.9784
  188TIP3    H2  522   6.973   0.175   0.048 -0.7461  0.0648  0.8426
  189TIP3   OH2  523   3.057   7.582   1.841  0.1568  0.3788 -0.1580
  189TIP3    H1  524   3.146   7.568   1.808  0.0676  0.2859 -0.3616
  189TIP3    H2  525   3.010   7.621   1.768  0.3009  1.4135  0.2853
  190TIP3   OH2  526   7.241   0.689   1.258  0.1681  0.1024 -0.3979
  190TIP3    H1  527   7.188   0.756   1.301 -1.0864 -0.0659 -1.6523
  190TIP3    H2  528   7.288   0.646   1.329  1.9568  3.1133  0.3297
  191TIP3   OH2  529   5.217   0.112   0.956 -0.6995 -0.2360  0.5347
  191TIP3    H1  530   5.271   0.189   0.974 -0.8093 -0.0680  0.1554
  191TIP3    H2  531   5.165   0.136   0.880 -1.0862 -0.5117  0.7060
  192TIP3   OH2  532   5.060   0.421   2.486 -0.3555 -0.4845  0.0903
  192TIP3    H1  533   5.096   0.337   2.458  1.4214 -0.4662  2.1868
  192TIP3    H2  534   5.086   0.482   2.417  0.0598 -1.2773 -0.4615
  193TIP3   OH2  535   4.998   6.190   4.293  0.3982  0.3678  0.1988
  193TIP3    H1  536   4.922   6.141   4.324  0.8762  0.7573  2.1064
  193TIP3    H2  537   5.060   6.122   4.266  0.3305 -0.0433  1.0354
  194TIP3   OH2  538   5.136  -0.021   2.080  0.2066  0.0773  0.4256
  194TIP3    H1  539   5.067   0.045   2.071 -0.3481 -0.5585 -0.0496
  194TIP3    H2  540   5.181  -0.021   1.995 -0.1358 -0.5289  0.2422
  195TIP3   OH2  541   3.747   6.878   0.496 -0.2929 -0.4951  0.6738
  195TIP3    H1  542   3.745   6.973   0.504 -0.9562 -0.5455  1.0909
  195TIP3    H2  543   3.835   6.859   0.463 -0.4238  0.3193 -0.1773
  196TIP3   OH2  544   6.518   2.557   1.771  0.2910 -0.0004  0.1648
  196TIP3    H1  545   6.441   2.533   1.719  0.8530  0.2823 -0.8029
  196TIP3    H2  546   6.485   2.623   1.832  0.0060  0.9397 -0.9929
  197TIP3   OH2  547   0.359   5.157   6.307  0.4621 -0.3143  0.1400
  197TIP3    H1  548   0.273   5.118   6.323  0.3979 -0.2125  0.0457
  197TIP3    H2  549   0.347   5.206   6.225  1.1375 -1.9328 -0.9579
  198TIP3   OH2  550   6.280   1.461   0.359  0.4451 -0.4001 -0.0196
  198TIP3    H1  551   6.375   1.457   0.367  0.4605 -1.3435 -0.6206
  198TIP3    H2  552   6.260   1.406   0.284 -0.5526  0.0772 -0.1136
  199TIP3   OH2  553   4.561   3.910   1.950  0.3395  1.2007 -0.2490
  199TIP3    H1  554   4.512   3.862   2.017 -0.2117  0.2716 -1.3147
  199TIP3    H2  555   4.504   3.910   1.873  1.5496  1.0594 -1.1639
  200TIP3   OH2  556   4.139   1.379   1.904 -0.1527  0.4320 -0.0893
  200TIP3    H1  557   4.092   1.401   1.984  0.2265 -0.1719  0.3028
  200TIP3    H2  558   4.109   1.291   1.881 -0.1904  0.5631 -0.5615
  201TIP3   OH2  559   5.706   2.208   2.041  0.5054 -0.0243 -0.4020
  201TIP3    H1  560   5.771   2.246   2.099  0.9935  1.9090 -2.1427
  201TIP3    H2  561   5.645   2.162   2.099  2.3973 -0.3122  1.3795
  202TIP3   OH2  562   4.057   7.429   3.482  0.0441  0.2014  0.5967
  202TIP3    H1  563   4.125   7.475   3.531  0.8421  0.2735 -0.5318
  202TIP3    H2  564   4.005   7.384   3.548  0.8282  0.6396  1.5242
  203TIP3   OH2  565   7.448   1.167   0.492 -0.6448  0.0673 -0.1779
  203TIP3    H1  566   7.496   1.167   0.409  0.7411  0.9846  0.5956
  203TIP3    H2  567   7.429   1.075   0.509 -0.9492 -0.1251 -1.5183
  204TIP3   OH2  568   4.770   3.784   2.259 -0.1954  0.1429  0.4099
  204TIP3    H1  569   4.803   3.834   2.185 -0.1784  1.0838  1.0404
  204TIP3    H2  570   4.726   3.709   2.220 -0.9284  1.0833 -0.5816
  205TIP3   OH2  571   6.097   0.314   0.565 -0.1166  0.1324  0.3928
  205TIP3    H1  572   6.175   0.365   0.584 -1.0553  1.7004  0.0835
  205TIP3    H2  573   6.096   0.245   0.632  1.4966  0.1058  0.4135
  206TIP3   OH2  574   4.446   0.294   0.940  0.0346  0.3533  0.0625
  206TIP3    H1  575   4.413   0.206   0.926  0.0358  0.1678  1.2145
  206TIP3    H2  576   4.445   0.306   1.035  0.5384  1.3959 -0.0529
  207TIP3   OH2  577   5.344   1.334   0.267  0.2722  0.1740  0.0357
  207TIP3    H1  578   5.425   1.341   0.217  1.7811 -0.1270  2.3311
  207TIP3    H2  579   5.350   1.248   0.309 -1.5009 -0.0667 -0.1828
  208TIP3   OH2  580   8.321   5.159   3.056  0.1815 -0.3126  0.4034
  208TIP3    H1  581   8.384   5.225   3.083 -0.1395  0.3177 -0.3872
  208TIP3    H2  582   8.339   5.145   2.963  0.6429 -1.7750  0.6888
  209TIP3   OH2  583   2.335   2.701   4.130  0.2048  0.6680 -0.2338
  209TIP3    H1  584   2.365   2.637   4.194 -0.0636 -1.0996 -1.8433
  209TIP3    H2  585   2.244   2.678   4.114 -0.4778  2.6786  0.6121
  210TIP3   OH2  586   4.369   1.997   2.211 -0.0651  0.0616  0.3653
  210TIP3    H1  587   4.407   1.983   2.124 -1.2844  1.1966 -0.3590
  210TIP3    H2  588   4.282   1.958   2.206 -0.9223  1.9428  0.4317
  211TIP3   OH2  589   5.756   1.982   0.260 -0.0205  0.1009 -0.1254
  211TIP3    H1  590   5.834   1.929   0.241  0.0601  0.1298  0.1252
  211TIP3    H2  591   5.730   2.017   0.175 -0.6190 -1.0850 -0.4420
  212TIP3   OH2  592   2.802   1.537   0.551 -0.1089 -0.0177 -0.3451
  212TIP3    H1  593   2.719   1.491   0.565 -0.7027  1.2567  0.3818
  212TIP3    H2  594   2.869   1.476   0.584 -0.8247 -0.6274  0.0004
  213TIP3   OH2  595   4.392   1.344   2.151 -0.0725 -0.7176 -0.2721
  213TIP3    H1  596   4.335   1.413   2.185  1.0186 -0.2446  0.6273
  213TIP3    H2  597   4.345   1.263   2.170 -1.4481 -0.2273 -1.5168
  214TIP3   OH2  598   0.865   3.218   2.268  0.0767  0.4499  0.2388
  214TIP3    H1  599   0.959   3.216   2.284  0.0121  1.0276  0.6988
  214TIP3    H2  600   0.846   3.133   2.228  0.9462  0.7042 -0.7397
  215TIP3   OH2  601   4.605   1.443   0.666 -0.2659  0.0705 -0.2844
  215TIP3    H1  602   4.576   1.513   0.725 -0.1142  0.2681 -0.4408
  215TIP3    H2  603   4.678   1.482   0.618 -0.6029  0.0164 -0.8387
  216TIP3   OH2  604   1.419   3.238   1.714  0.1514 -0.1560  0.8040
  216TIP3    H1  605   1.329   3.266   1.733  0.0617  0.2122 -0.1408
  216TIP3    H2  606   1.413   3.144   1.700 -0.5537  0.2564 -1.9378
  217TIP3   OH2  607   2.168   1.836   3.486  0.1806  0.1834 -0.3364
  217TIP3    H1  608   2.209   1.756   3.454 -0.3879 -0.6066  0.8425
  217TIP3    H2  609   2.076   1.812   3.500  0.2431  0.7013  1.1193
  218TIP3   OH2  610   3.646   2.124   1.644 -0.4829 -0.5451  0.1344
  218TIP3    H1  611   3.580   2.058   1.666 -0.1556 -0.7631  0.4712
  218TIP3    H2  612   3.696   2.085   1.572 -1.1874 -0.0723 -0.6140
  219TIP3   OH2  613   8.264   1.086   3.102 -0.1567 -0.2169 -0.0340
  219TIP3    H1  614   8.259   1.160   3.042  0.2478 -1.9777 -2.2711
  219TIP3    H2  615   8.338   1.108   3.160 -0.8517  1.6954  0.1868
  220TIP3   OH2  616   0.493   1.195   3.038  0.0864 -0.3575  0.4217
  220TIP3    H1  617   0.529   1.151   3.115 -2.8970  1.3369  2.9018
  220TIP3    H2  618   0.531   1.282   3.041 -1.7124  0.4262  1.2932
  221TIP3   OH2  619   4.507   1.087   2.419 -0.5474  0.1308 -0.8924
  221TIP3    H1  620   4.484   1.171   2.458  0.1838 -0.2406  0.3948
  221TIP3    H2  621   4.444   1.025   2.456  0.5934 -0.3505  0.3084
  222TIP3   OH2  622   0.952   7.530   0.108 -0.5323  0.6702  0.4186
  222TIP3    H1  623   0.881   7.465   0.108 -0.5376  0.6446 -1.2079
  222TIP3    H2  624   1.029   7.481   0.079 -0.7956  1.6018 -2.0288
  223TIP3   OH2  625   7.641   7.590   2.047 -0.0603  0.1903  0.5563
  223TIP3    H1  626   7.608   7.536   1.975 -1.4212  0.3639  1.0383
  223TIP3    H2  627   7.563   7.615   2.096  0.8367  0.2277  1.9933
  224TIP3   OH2  628   4.027   1.996   1.787  0.0869 -0.0838 -0.1445
  224TIP3    H1  629   4.039   2.079   1.742  1.2610  0.6023  1.4189
  224TIP3    H2  630   4.115   1.968   1.811 -0.2894 -1.8056 -0.6699
  225TIP3   OH2  631   7.619   6.993   2.654 -0.2498  0.8031  0.2993
  225TIP3    H1  632   7.687   7.046   2.613 -1.6886  0.4534 -2.7138
  225TIP3    H2  633   7.537   7.034   2.625 -1.3378 -1.2781  0.3755
  226TIP3   OH2  634   4.718   4.368   6.794  0.6657  0.8007 -0.2954
  226TIP3    H1  635   4.649   4.307   6.819  0.7796  1.1478  0.8773
  226TIP3    H2  636   4.703   4.384   6.700 -1.2250  1.3858  0.0866
  227TIP3   OH2  637   1.093   2.296   0.967  0.1089  0.0023 -0.1017
  227TIP3    H1  638   1.150   2.295   0.890 -0.4945 -1.1672 -0.5468
  227TIP3    H2  639   1.052   2.382   0.965  0.9058  0.3795 -0.4859
  228TIP3   OH2  640   0.685   2.119   3.055 -0.4939  0.2148 -0.5992
  228TIP3    H1  641   0.637   2.040   3.081  0.1990  0.5433  1.8218
  228TIP3    H2  642   0.629   2.160   2.989 -1.6556 -1.4518 -0.6882
  229TIP3   OH2  643   4.363   1.332   0.144  0.0957  0.4861 -0.8299
  229TIP3    H1  644   4.381   1.247   0.183  1.5282  1.4695  0.7016
  229TIP3    H2  645   4.445   1.380   0.150 -0.9839  2.3783 -0.6293
  230TIP3   OH2  646   7.675   7.259   0.883 -0.0601  0.2346 -0.2014
  230TIP3    H1  647   7.690   7.171   0.918 -1.0579  1.0198  2.3810
  230TIP3    H2  648   7.579   7.265   0.874 -0.0772  1.3675  0.5751
  231TIP3   OH2  649   4.688   5.337   6.749  0.2961 -0.2235  0.5357
  231TIP3    H1  650   4.741   5.368   6.823 -1.1656  0.0184  1.5187
  231TIP3    H2  651   4.711   5.395   6.677  0.9747  0.2137  1.0977
  232TIP3   OH2  652   3.194   0.710   1.543 -0.3804 -0.2918 -0.1880
  232TIP3    H1  653   3.105   0.726   1.511 -0.3695  0.5286  0.1763
  232TIP3    H2  654   3.182   0.683   1.634 -0.1323  2.1305  0.5968
  233TIP3   OH2  655   1.880   3.312   1.262  0.2458  0.1688  0.0411
  233TIP3    H1  656   1.816   3.254   1.220  0.0780  0.1645  0.3001
  233TIP3    H2  657   1.869   3.396   1.218  0.2216  0.1050 -0.0737
  234TIP3   OH2  658   5.761   5.183   6.224  0.2291  0.3632  0.2503
  234TIP3    H1  659   5.810   5.121   6.170 -1.5991 -0.4501 -0.5160
  234TIP3    H2  660   5.720   5.242   6.162  0.4409  1.1976  0.8980
  235TIP3   OH2  661   1.050   3.582   0.920  0.1491 -0.5346 -0.4106
  235TIP3    H1  662   1.014   3.559   0.834 -1.4308  1.3449 -0.2813
  235TIP3    H2  663   0.986   3.547   0.982  0.3450 -0.2877 -0.0726
  236TIP3   OH2  664   7.460   6.897   1.369  0.0456  0.1317  0.2464
  236TIP3    H1  665   7.547   6.913   1.334 -0.0408 -1.8685 -0.9767
  236TIP3    H2  666   7.465   6.924   1.461  1.9481  0.0625  0.1701
  237TIP3   OH2  667   7.685   3.491   6.551 -0.7704  0.3533 -0.2903
  237TIP3    H1  668   7.748   3.425   6.520  0.8864  2.1557 -0.8402
  237TIP3    H2  669   7.719   3.574   6.517 -1.4512  1.8179  2.5240
  238TIP3   OH2  670   8.247   7.663   3.891 -0.2519 -0.0934 -0.4343
  238TIP3    H1  671   8.214   7.577   3.916  1.6104 -0.7625 -0.1534
  238TIP3    H2  672   8.291   7.696   3.969 -1.9264  1.6371 -0.1877
  239TIP3   OH2  673   4.575   4.583   5.853  0.1698  0.1709 -0.0448
  239TIP3    H1  674   4.556   4.490   5.851  2.7361 -0.3901 -0.4828
  239TIP3    H2  675   4.596   4.605   5.762 -2.0745  1.5703 -0.2609
  240TIP3   OH2  676   0.461   1.677   0.319  0.2723 -0.0937  0.2579
  240TIP3    H1  677   0.378   1.648   0.356  0.0657 -1.0455 -0.9308
  240TIP3    H2  678   0.511   1.709   0.394 -0.6224 -0.8282  1.1754
  241TIP3   OH2  679   1.767   1.991   2.396 -0.4927 -0.2716  0.1282
  241TIP3    H1  680   1.837   2.026   2.451 -0.1084  0.5769 -0.8966
  241TIP3    H2  681   1.691   1.988   2.455  0.0054  0.2842  0.8104
  242TIP3   OH2  682   0.794   1.631   4.896 -0.2779  0.2967 -0.0166
  242TIP3    H1  683   0.820   1.709   4.847 -1.8530  0.0168 -1.3210
  242TIP3    H2  684   0.703   1.616   4.872 -0.0616 -1.8577  0.3621
  243TIP3   OH2  685   4.039   2.228   2.817 -0.2562  0.1693 -0.2975
  243TIP3    H1  686   3.967   2.189   2.767 -0.7388  0.3615  0.2424
  243TIP3    H2  687   3.997   2.266   2.893  0.3534  0.7933 -0.2714
  244TIP3   OH2  688   5.266   6.360   5.884 -0.2996  0.4760 -0.4478
  244TIP3    H1  689   5.335   6.364   5.817  1.2393  0.8098  1.1362
  244TIP3    H2  690   5.277   6.275   5.925  0.1369  1.1363  0.8224
  245TIP3   OH2  691   2.860   1.614   3.794  0.0747 -0.2119  0.2640
  245TIP3    H1  692   2.904   1.567   3.724 -0.2198 -0.8964  0.5389
  245TIP3    H2  693   2.931   1.646   3.850  0.2219 -1.4273  0.7785
  246TIP3   OH2  694   3.553   1.438   0.230  0.0825 -0.1334 -0.4912
  246TIP3    H1  695   3.599   1.509   0.276 -1.4274  0.2187  0.5013
  246TIP3    H2  696   3.616   1.408   0.164  1.3881  0.9637  0.2219
  247TIP3   OH2  697   3.425   0.020   2.009 -0.1338 -0.3946 -0.2954
  247TIP3    H1  698   3.421   0.030   2.104 -0.5636 -0.6511 -0.2847
  247TIP3    H2  699   3.457   0.104   1.977  2.0689 -1.0036  0.2253
  248TIP3   OH2  700   1.188   7.227   1.658  0.6828  0.3922  0.4305
  248TIP3    H1  701   1.266   7.207   1.607 -0.6367  0.5075 -1.7049
  248TIP3    H2  702   1.151   7.305   1.617 -2.3407 -1.5329 -0.6973
  249TIP3   OH2  703   3.779   2.770   3.612  0.1309 -0.1089 -0.0788
  249TIP3    H1  704   3.746   2.823   3.684 -1.6283  0.2709 -1.1347
  249TIP3    H2  705   3.874   2.774   3.621 -0.0144  1.7628  0.9046
  250TIP3   OH2  706   3.579   1.544   0.742  0.7700  0.2344  0.2276
  250TIP3    H1  707   3.637   1.482   0.698  2.0759  0.6247  1.3632
  250TIP3    H2  708   3.637   1.598   0.795 -0.4910  1.5855  0.2708
  251TIP3   OH2  709   4.524   2.306   1.380  0.0790  0.4430 -0.0149
  251TIP3    H1  710   4.561   2.231   1.332 -1.7300  0.3815 -1.3769
  251TIP3    H2  711   4.455   2.339   1.323 -1.4606  1.0159  2.1115
  252TIP3   OH2  712   1.092   7.645   2.007  0.0341  0.4173  0.2175
  252TIP3    H1  713   1.160   7.689   2.058  1.3143  0.8994 -1.8796
  252TIP3    H2  714   1.128   7.638   1.919 -1.2839 -2.3589 -0.1428
  253TIP3   OH2  715   0.069   7.549   1.454  0.7979 -0.1460 -0.3158
  253TIP3    H1  716   0.118   7.499   1.389  1.1029 -0.7610  0.3774
  253TIP3    H2  717   0.054   7.634   1.413  0.4438 -0.7378 -1.4328
  254TIP3   OH2  718   0.088   3.862   1.675 -0.3684 -0.6594  0.1108
  254TIP3    H1  719   0.125   3.942   1.637  0.0163 -0.7091  0.3760
  254TIP3    H2  720   0.156   3.796   1.662 -0.4528 -0.8033  0.4128
  255TIP3   OH2  721   2.307   2.014   1.942 -0.0252  0.1043 -0.3377
  255TIP3    H1  722   2.273   2.046   2.026  1.3429  1.1782 -0.1830
  255TIP3    H2  723   2.231   2.019   1.883 -1.4930 -2.4138  1.2567
  256TIP3   OH2  724   3.508   1.959   0.021 -0.7118 -0.2955 -0.2665
  256TIP3    H1  725   3.464   2.044   0.014  0.8409  0.5916  0.6422
  256TIP3    H2  726   3.600   1.977   0.002 -0.6666 -2.1224 -1.9658
  257TIP3   OH2  727   3.927   2.236   1.564 -0.3698 -0.3980  0.4941
  257TIP3    H1  728   3.914   2.167   1.498 -1.0612  0.1944  0.0010
  257TIP3    H2  729   3.850   2.229   1.621 -0.1103 -0.4640  0.8351
  258TIP3   OH2  730   1.942   2.444   0.563 -0.4354  0.3150 -0.3773
  258TIP3    H1  731   1.960   2.536   0.547  1.5462  0.2680  1.3373
  258TIP3    H2  732   1.907   2.411   0.480  1.2513  2.0144 -1.7933
  259TIP3   OH2  733   2.988   1.701   1.854 -0.2896  0.7280  0.1530
  259TIP3    H1  734   3.032   1.766   1.799 -1.9782  0.8491 -1.0982
  259TIP3    H2  735   3.058   1.662   1.906  1.2139  1.2937 -1.4025
  260TIP3   OH2  736   2.947   1.537   3.536  0.8994 -0.2971  0.3757
  260TIP3    H1  737   2.969   1.553   3.444 -0.4233 -0.1652  0.0738
  260TIP3    H2  738   2.925   1.444   3.539  0.5081 -0.2007  0.4707
  261TIP3   OH2  739   2.315   2.298   0.125  0.4943 -0.2935  0.6471
  261TIP3    H1  740   2.384   2.360   0.100 -0.6273  0.7116 -0.0406
  261TIP3    H2  741   2.274   2.275   0.042  0.9796 -2.0794  0.8860
  262TIP3   OH2  742   2.751   7.515   0.341 -0.2416 -0.2898 -0.1803
  262TIP3    H1  743   2.675   7.573   0.343  1.1322  1.5237  1.5224
  262TIP3    H2  744   2.806   7.551   0.272  0.9295  0.9008  1.3373
  263TIP3   OH2  745   6.210   3.637   6.685 -0.3331  0.2875 -0.3808
  263TIP3    H1  746   6.180   3.557   6.728  0.4872  0.8836  1.3124
  263TIP3    H2  747   6.130   3.680   6.656 -1.1129  1.1674  2.8619
  264TIP3   OH2  748   2.966   0.886   1.717  0.4449 -0.1005 -0.0531
  264TIP3    H1  749   2.902   0.922   1.779 -0.5237  0.3821 -1.3059
  264TIP3    H2  750   3.007   0.813   1.764 -2.6753 -1.9020 -0.0183
  265TIP3   OH2  751   8.392   2.599   3.534 -0.2501  0.5300  0.1201
  265TIP3    H1  752   8.451   2.662   3.491  0.0367 -0.0242 -0.3074
  265TIP3    H2  753   8.388   2.526   3.473 -1.4718  0.6090  0.1023
  266TIP3   OH2  754   3.431   1.973   1.447 -0.6512 -0.1299  0.5626
  266TIP3    H1  755   3.502   1.921   1.410 -1.1799 -0.8642  0.5418
  266TIP3    H2  756   3.352   1.937   1.407 -1.0600  0.4378  0.8479
  267TIP3   OH2  757   6.045   6.713   6.197 -0.1039  0.1445 -0.7624
  267TIP3    H1  758   6.099   6.763   6.135  0.0690  0.3152 -0.4753
  267TIP3    H2  759   6.086   6.627   6.200 -2.2258 -1.0341 -3.6571
  268TIP3   OH2  760   1.121   2.497   5.068  0.3291 -0.4460 -0.2580
  268TIP3    H1  761   1.164   2.497   5.154 -0.6895 -1.1012  0.2569
  268TIP3    H2  762   1.155   2.418   5.025 -0.0983 -0.7790  0.0159
  269TIP3   OH2  763   3.557   1.190   1.218  0.1720  0.0025 -0.2150
  269TIP3    H1  764   3.478   1.158   1.175  0.9131 -1.6275 -0.4104
  269TIP3    H2  765   3.525   1.250   1.285 -1.3041 -1.3619  0.3306
  270TIP3   OH2  766   0.370   1.846   2.859  0.3449  0.0395 -0.4379
  270TIP3    H1  767   0.411   1.908   2.919  3.1152 -1.3894 -0.7835
  270TIP3    H2  768   0.328   1.781   2.915  0.9870 -0.0414 -0.0538
  271TIP3   OH2  769   0.917   3.267   1.895 -0.3886  0.0457  0.0427
  271TIP3    H1  770   0.943   3.338   1.836  3.4820 -1.8178 -0.6353
  271TIP3    H2  771   0.938   3.300   1.982  1.0049 -0.0800 -0.2364
  272TIP3   OH2  772   1.415   2.923   0.612 -0.2200  0.2679  0.7375
  272TIP3    H1  773   1.460   2.922   0.696 -0.4271  0.9754  0.8668
  272TIP3    H2  774   1.477   2.883   0.550  0.6861  1.4528  0.8621
  273TIP3   OH2  775   3.061   0.893   1.123  0.0142 -0.3829 -0.4109
  273TIP3    H1  776   3.136   0.911   1.179 -0.9091 -0.4528  0.8727
  273TIP3    H2  777   3.058   0.798   1.115  1.2735 -0.3068 -2.1810
  274TIP3   OH2  778   5.117   2.700   1.829  0.3943  0.1896  0.4393
  274TIP3    H1  779   5.098   2.763   1.899 -0.1970 -0.5771  0.9679
  274TIP3    H2  780   5.032   2.677   1.793  0.6530  0.0969 -0.1127
  275TIP3   OH2  781   4.669   4.996   6.162 -0.0816  0.3779 -0.6724
  275TIP3    H1  782   4.689   4.995   6.256  0.5503 -1.1266 -0.8062
  275TIP3    H2  783   4.627   5.081   6.147  0.1417  0.7800  0.9002
  276TIP3   OH2  784   5.857   3.011   0.975 -0.5163 -0.7207 -0.1147
  276TIP3    H1  785   5.851   3.095   1.021 -1.0132 -0.4064 -0.7507
  276TIP3    H2  786   5.927   2.965   1.021  1.5809  1.0861 -1.3699
  277TIP3   OH2  787   0.427   7.974   1.787 -0.0184 -0.1586  0.2944
  277TIP3    H1  788   0.483   7.993   1.862  0.4328  2.1884 -0.5914
  277TIP3    H2  789   0.367   8.048   1.782 -1.4021 -1.2869 -0.4410
  278TIP3   OH2  790   6.193   1.707   0.773  0.0390 -0.1228  0.1092
  278TIP3    H1  791   6.253   1.646   0.731 -0.1368 -0.2378  0.0245
  278TIP3    H2  792   6.220   1.710   0.865  0.2102 -0.1298  0.0579
  279TIP3   OH2  793   4.224   1.966   0.421  1.1138  0.4593  0.3453
  279TIP3    H1  794   4.315   1.987   0.399  1.0997  0.6554  0.4681
  279TIP3    H2  795   4.232   1.903   0.493  1.1486  0.8820  0.7110
  280TIP3   OH2  796   6.372   5.990   5.786 -0.2459 -0.4326 -0.4820
  280TIP3    H1  797   6.464   5.970   5.805 -0.0233 -2.3589 -3.3060
  280TIP3    H2  798   6.355   5.948   5.702 -4.1312 -1.3616  0.6449
  281TIP3   OH2  799   5.524   2.508   0.069  0.6632 -0.3391  0.3615
  281TIP3    H1  800   5.473   2.579   0.030 -0.1584 -1.0872  0.0678
  281TIP3    H2  801   5.615   2.537   0.062  0.5276 -0.4027 -1.9634
  282TIP3   OH2  802   6.186   1.169   1.092 -0.2846  0.4195 -0.2286
  282TIP3    H1  803   6.112   1.167   1.031 -1.8572  1.1184  1.6162
  282TIP3    H2  804   6.203   1.077   1.110 -1.1498  0.2687 -0.1372
  283TIP3   OH2  805   7.452   1.984   6.358 -0.1568  0.2130 -0.1250
  283TIP3    H1  806   7.481   2.061   6.309 -0.6992 -0.1070 -0.9602
  283TIP3    H2  807   7.357   1.992   6.362 -0.0947  0.4763  1.2960
  284TIP3   OH2  808   3.604   3.653   1.414  0.1341 -0.3059 -0.6220
  284TIP3    H1  809   3.646   3.737   1.430  0.3098 -0.5768  0.3724
  284TIP3    H2  810   3.676   3.590   1.410 -0.0446 -0.5058 -0.7245
  285TIP3   OH2  811   2.782   0.473   2.009  0.1938  0.5353 -0.8316
  285TIP3    H1  812   2.708   0.527   1.983 -0.5419  1.1790  2.3921
  285TIP3    H2  813   2.744   0.390   2.036  0.7817  0.3703 -0.4945
  286TIP3   OH2  814   6.719   3.157   1.124 -0.0082  0.3127 -0.7746
  286TIP3    H1  815   6.680   3.231   1.077  1.0855  1.8253  0.6409
  286TIP3    H2  816   6.662   3.144   1.200 -0.0225 -0.1171 -0.8563
  287TIP3   OH2  817   3.765   0.103   1.996 -0.0915 -0.2428 -0.0384
  287TIP3    H1  818   3.827   0.123   1.926 -1.0271  0.2435 -0.7237
  287TIP3    H2  819   3.820   0.094   2.074  0.7594  1.0218 -0.4765
  288TIP3   OH2  820   1.498   2.090   0.670 -0.0482  0.0682 -0.5055
  288TIP3    H1  821   1.557   2.120   0.600  1.4768  0.5084  0.9242
  288TIP3    H2  822   1.521   2.145   0.745  0.0570 -2.0323  1.0464
  289TIP3   OH2  823   8.481   4.440   6.625 -0.1358 -1.0899  0.7515
  289TIP3    H1  824   8.449   4.489   6.701  0.4429 -0.3727  0.5393
  289TIP3    H2  825   8.443   4.486   6.550  0.3921 -0.9690  0.5546
  290TIP3   OH2  826   3.939   0.554   1.743  0.0042 -0.0714  0.7300
  290TIP3    H1  827   3.859   0.530   1.790 -1.1093 -0.9287 -1.5486
  290TIP3    H2  828   3.964   0.475   1.696 -0.3202  1.4580 -2.1074
  291TIP3   OH2  829   4.328   3.277   0.667  0.1771  0.5779 -0.0513
  291TIP3    H1  830   4.350   3.366   0.693 -0.6991  0.6239  0.5470
  291TIP3    H2  831   4.411   3.239   0.640  0.5091  1.6551 -0.5549
  292TIP3   OH2  832   4.002   1.154   1.826 -0.2619 -0.3696 -0.0687
  292TIP3    H1  833   3.977   1.084   1.888 -0.0923  0.5300  1.0371
  292TIP3    H2  834   3.919   1.198   1.807 -0.2493 -0.3849 -0.1561
  293TIP3   OH2  835   8.161   4.633   6.214 -0.4918 -0.4289  0.5908
  293TIP3    H1  836   8.116   4.717   6.205 -3.0169 -1.7297  0.6667
  293TIP3    H2  837   8.092   4.571   6.234  1.2043 -2.7230 -0.4335
  294TIP3   OH2  838   4.151   1.245   0.462 -0.1296 -0.2767  0.0896
  294TIP3    H1  839   4.201   1.167   0.485  0.3727 -0.5644 -1.8801
  294TIP3    H2  840   4.076   1.212   0.413 -0.5484  0.3938  0.2749
  295TIP3   OH2  841   2.153   2.130   1.482 -0.3700  0.0500  0.1967
  295TIP3    H1  842   2.235   2.178   1.492 -0.5080  0.1793  0.7236
  295TIP3    H2  843   2.166   2.074   1.405 -0.6636  1.8624 -1.1882
  296TIP3   OH2  844   4.379   1.880   1.566  0.2489  0.2102 -0.9334
  296TIP3    H1  845   4.309   1.932   1.525  0.9848  1.1732 -0.9957
  296TIP3    H2  846   4.334   1.824   1.629 -0.6267  0.5190 -1.2787
  297TIP3   OH2  847   4.835   3.100   1.694  0.0051 -0.4387 -0.1511
  297TIP3    H1  848   4.837   3.015   1.739  0.7154  0.6203  1.9145
  297TIP3    H2  849   4.925   3.130   1.696 -0.5499  1.2676  1.0055
  298TIP3   OH2  850   0.123   3.309   6.586 -0.2095 -0.0830  0.1381
  298TIP3    H1  851   0.030   3.315   6.604 -0.0465  1.1502  0.6314
  298TIP3    H2  852   0.151   3.400   6.572  0.9610 -0.4137  0.2534
  299TIP3   OH2  853   7.522   7.029   6.753  0.1820 -0.6942  0.5713
  299TIP3    H1  854   7.608   7.048   6.716  0.4187 -2.7073 -0.0117
  299TIP3    H2  855   7.540   6.966   6.823 -0.7147 -0.2819  1.1781
  300TIP3   OH2  856   0.210   7.571   6.450 -0.7891 -0.3159  0.3257
  300TIP3    H1  857   0.304   7.557   6.464 -0.6987 -3.0428 -2.2796
  300TIP3    H2  858   0.202   7.663   6.425  0.9202  0.4480  2.5250
  301TIP3   OH2  859   3.972   0.923   1.482  0.6909 -0.1617  0.3174
  301TIP3    H1  860   3.974   1.007   1.438 -2.2519 -0.1059  0.1417
  301TIP3    H2  861   3.969   0.944   1.575 -1.1073  0.0140  0.2455
  302TIP3   OH2  862   3.004   1.337   0.216 -0.0123  0.2807  0.1092
  302TIP3    H1  863   3.096   1.318   0.237 -0.6340 -1.5506  1.3399
  302TIP3    H2  864   2.966   1.251   0.198 -1.6798  0.9291  0.4836
  303TIP3   OH2  865   5.382   0.614   0.610  0.2757  0.1541 -0.0617
  303TIP3    H1  866   5.452   0.670   0.643  0.3778 -0.4863  0.8390
  303TIP3    H2  867   5.421   0.526   0.607 -0.7401 -0.3608  1.2940
  304TIP3   OH2  868   5.056   2.105   1.655  0.1588  0.3330 -0.0272
  304TIP3    H1  869   5.150   2.125   1.650  0.5858 -1.9102 -1.5503
  304TIP3    H2  870   5.047   2.053   1.735  0.4618 -0.6973 -0.6594
  305TIP3   OH2  871   3.113   2.568   0.052 -0.5699  0.2111  0.4312
  305TIP3    H1  872   3.052   2.503   0.017 -0.1373 -0.6005  1.1608
  305TIP3    H2  873   3.172   2.518   0.109  0.7899  0.9785 -0.2730
  306TIP3   OH2  874   6.575   5.120   6.616  0.2153  0.4269 -0.2769
  306TIP3    H1  875   6.506   5.087   6.558  1.4992 -0.6788 -1.2134
  306TIP3    H2  876   6.528   5.154   6.692 -1.3406 -0.8145 -0.6521
  307TIP3   OH2  877   4.271   1.613   0.997 -0.0570 -0.0976  0.6322
  307TIP3    H1  878   4.194   1.665   1.016  0.5565  0.4377  1.6988
  307TIP3    H2  879   4.341   1.652   1.050  0.8885 -0.7331 -0.1080
  308TIP3   OH2  880   3.619   2.276   0.331  0.0670  0.3826 -0.2060
  308TIP3    H1  881   3.532   2.250   0.361 -0.0064 -2.0488 -2.3581
  308TIP3    H2  882   3.603   2.349   0.273 -0.3001  1.4508  1.2100
  309TIP3   OH2  883   4.855   2.674   1.749 -0.0083  0.1734 -0.7893
  309TIP3    H1  884   4.814   2.597   1.789 -1.2520  1.4311  0.3816
  309TIP3    H2  885   4.824   2.673   1.658 -1.4993  0.3284 -0.2798
  310TIP3   OH2  886   6.032   2.121   0.359  0.3849 -0.1349 -0.3724
  310TIP3    H1  887   5.958   2.112   0.420  0.7243  1.7003  0.3357
  310TIP3    H2  888   6.048   2.032   0.328 -0.8370 -0.8557  0.9940
  311TIP3   OH2  889   4.403   3.532   0.746  0.0264  0.5988  0.2413
  311TIP3    H1  890   4.323   3.584   0.745 -0.3577  0.0222  0.2132
  311TIP3    H2  891   4.424   3.520   0.838 -0.3041  0.1829  0.2661
  312TIP3   OH2  892   3.376   3.530   2.096 -0.4394 -0.1192 -0.0636
  312TIP3    H1  893   3.445   3.466   2.079  1.1616  1.3802  0.6118
  312TIP3    H2  894   3.296   3.478   2.104  0.4690 -1.8190 -1.6615
  313TIP3   OH2  895   6.413   2.339   0.908  0.4444  0.1644  0.1229
  313TIP3    H1  896   6.504   2.347   0.882  0.0739 -0.0923 -1.2987
  313TIP3    H2  897   6.389   2.249   0.884 -0.1483  0.1854  0.6115
  314TIP3   OH2  898   2.985   2.178   1.867 -0.3862 -0.6465 -0.3088
  314TIP3    H1  899   2.974   2.271   1.849  0.7949 -0.3013  0.7116
  314TIP3    H2  900   2.934   2.163   1.947  0.0688 -0.7148 -0.0325
  315TIP3   OH2  901   7.215   4.318   1.523  0.7117 -0.2085  0.1100
  315TIP3    H1  902   7.153   4.287   1.457 -0.3022  2.3980 -0.2216
  315TIP3    H2  903   7.196   4.265   1.600  0.5367 -1.8991 -1.0787
  316TIP3   OH2  904   3.458   0.683   1.483 -0.4293 -0.3537  0.6374
  316TIP3    H1  905   3.364   0.683   1.501 -0.1559 -1.1405  2.2591
  316TIP3    H2  906   3.482   0.590   1.485  0.1052 -0.2625 -1.3314
  317TIP3   OH2  907   3.574   0.874   1.274  0.4522 -0.3445  0.0923
  317TIP3    H1  908   3.560   0.813   1.346 -0.4058  0.9533  1.0473
  317TIP3    H2  909   3.637   0.830   1.217 -0.8571 -2.5139  0.2622
  318TIP3   OH2  910   7.548   4.762   6.801  0.3012  0.3667  0.5735
  318TIP3    H1  911   7.597   4.793   6.725  0.6187 -0.2092  0.5401
  318TIP3    H2  912   7.471   4.819   6.805  0.1842  0.2805 -0.2854
  319TIP3   OH2  913   4.529   3.324   1.448 -0.2237 -0.1346  0.4701
  319TIP3    H1  914   4.548   3.392   1.384 -0.9488  1.1486  1.5963
  319TIP3    H2  915   4.591   3.254   1.428  0.0483  0.5528 -1.1511
  320TIP3   OH2  916   2.950   3.645   3.130 -0.1535 -0.3597  0.1404
  320TIP3    H1  917   3.017   3.674   3.192  0.9005 -1.0992 -0.6378
  320TIP3    H2  918   2.869   3.648   3.180  0.6788 -0.9285  1.5656
  321TIP3   OH2  919   2.532   3.122   0.686 -0.2792  0.1695 -0.4140
  321TIP3    H1  920   2.470   3.070   0.636 -1.3335 -0.1730  1.2214
  321TIP3    H2  921   2.505   3.213   0.672 -0.2696  0.1034 -0.8592
  322TIP3   OH2  922   4.944   2.951   0.360  0.4249  0.2765 -0.7590
  322TIP3    H1  923   4.989   3.033   0.380  1.4316 -0.6048  0.5890
  322TIP3    H2  924   5.009   2.883   0.374 -1.7015 -1.1652  2.7803
  323TIP3   OH2  925   3.700   1.267   2.249 -0.0658 -0.5499 -0.1295
  323TIP3    H1  926   3.660   1.247   2.164  1.5776  1.8187 -1.5248
  323TIP3    H2  927   3.633   1.317   2.296 -0.1616  0.0765 -0.9261
  324TIP3   OH2  928   5.334   2.701   2.381 -0.4981 -0.2532  0.1064
  324TIP3    H1  929   5.341   2.672   2.290  2.8844  0.8690 -0.0334
  324TIP3    H2  930   5.357   2.623   2.432  1.3511  0.1326 -0.1087
  325TIP3   OH2  931   2.649   4.257   2.657 -0.0351 -0.2177 -0.2617
  325TIP3    H1  932   2.702   4.221   2.728 -1.8118 -1.1233  0.6511
  325TIP3    H2  933   2.616   4.340   2.692 -0.2032 -0.2466 -0.3531
  326TIP3   OH2  934   4.712   1.987   0.396 -0.3635 -0.3101 -0.1982
  326TIP3    H1  935   4.780   2.028   0.342 -2.6224  1.5463 -1.7279
  326TIP3    H2  936   4.761   1.938   0.462  2.4613  1.2738 -1.0003
  327TIP3   OH2  937   2.710   1.051   2.863  1.3465 -0.6495 -0.0670
  327TIP3    H1  938   2.784   1.011   2.816  0.4924 -0.1560 -1.8741
  327TIP3    H2  939   2.719   1.144   2.844 -0.6595 -0.7608 -1.6244
  328TIP3   OH2  940   4.288   2.412   1.256  0.4453  0.3690  0.1293
  328TIP3    H1  941   4.290   2.386   1.164 -0.2576 -0.3140  0.2969
  328TIP3    H2  942   4.327   2.499   1.258 -0.7390  0.9287 -0.9987
  329TIP3   OH2  943   5.786   2.479   2.154 -0.9592 -0.1591 -0.4502
  329TIP3    H1  944   5.781   2.567   2.192 -1.1776 -1.6051  3.0583
  329TIP3    H2  945   5.703   2.468   2.107 -2.3125  0.3921  1.7318
  330TIP3   OH2  946   0.357   7.374   2.863  0.5994 -0.4074 -0.1184
  330TIP3    H1  947   0.424   7.435   2.831 -0.6931  0.5079 -1.1015
  330TIP3    H2  948   0.338   7.405   2.952  0.3139  0.3283 -0.4281
  331TIP3   OH2  949   2.869   0.654   0.795  0.0763  0.1008 -0.0351
  331TIP3    H1  950   2.876   0.695   0.709  2.1185 -1.7667 -0.8081
  331TIP3    H2  951   2.882   0.560   0.779  0.5732 -0.2737  2.2903
  332TIP3   OH2  952   3.227   0.311   0.116  0.6862  0.4389  0.3877
  332TIP3    H1  953   3.201   0.403   0.127  3.2908  1.2154  0.2218
  332TIP3    H2  954   3.322   0.312   0.114  0.7397 -1.8705 -3.1321
  333TIP3   OH2  955   4.410   1.664   0.361  0.2197  0.0560 -0.0010
  333TIP3    H1  956   4.322   1.651   0.326  0.4311  1.3407 -1.0812
  333TIP3    H2  957   4.397   1.707   0.445 -0.2015 -0.4425  0.1902
  334TIP3   OH2  958   2.805   1.915   1.066 -0.4382 -0.0878 -0.2862
  334TIP3    H1  959   2.875   1.880   1.121  3.3107  3.2603 -2.6608
  334TIP3    H2  960   2.743   1.954   1.128  0.6109 -1.6166  1.7793
  335TIP3   OH2  961   3.515   0.899   2.632 -0.0984  0.2083 -0.0694
  335TIP3    H1  962   3.434   0.950   2.630 -0.9114 -1.1281 -2.1947
  335TIP3    H2  963   3.583   0.961   2.607 -0.7271  0.8745 -0.1323
  336TIP3   OH2  964   2.660   1.195   0.068 -0.2728  0.6024  0.1844
  336TIP3    H1  965   2.660   1.132  -0.004  0.8151  2.2856 -1.3335
  336TIP3    H2  966   2.571   1.231   0.067  0.2197  1.8722 -1.4990
  337TIP3   OH2  967   5.213   1.634   0.906  0.1690  0.5078  0.0232
  337TIP3    H1  968   5.164   1.633   0.823  2.5620  0.0354 -1.4306
  337TIP3    H2  969   5.182   1.712   0.951 -1.2005  0.7654 -1.3156
  338TIP3   OH2  970   7.547   6.136   6.825 -0.3549  0.5178  0.6053
  338TIP3    H1  971   7.588   6.094   6.901  0.6299  1.1099  0.4065
  338TIP3    H2  972   7.535   6.227   6.852  1.2188  1.0384 -0.4349
  339TIP3   OH2  973   4.197   4.007   0.644 -0.5825  0.0159 -0.0073
  339TIP3    H1  974   4.204   3.995   0.549  2.4048 -1.3607  0.3343
  339TIP3    H2  975   4.132   3.942   0.672 -0.4355 -0.5333 -0.9340
  340TIP3   OH2  976   2.869   2.457   1.851  0.3545 -0.3802  0.5349
  340TIP3    H1  977   2.802   2.421   1.794 -2.7191  1.1490  3.0020
  340TIP3    H2  978   2.862   2.552   1.840  2.2680 -0.1978  0.6848
  341TIP3   OH2  979   2.711   3.295   2.335  0.1406  0.4360  0.1041
  341TIP3    H1  980   2.735   3.387   2.328  0.6229  0.2612 -0.6305
  341TIP3    H2  981   2.679   3.271   2.249  1.4436 -0.4658 -0.1617
  342TIP3   OH2  982   3.271   1.790   2.738  0.5148  0.1297  0.4169
  342TIP3    H1  983   3.187   1.758   2.771  0.3167 -0.9232 -1.0746
  342TIP3    H2  984   3.330   1.784   2.814 -0.3418 -0.6759  1.0283
  343TIP3   OH2  985   3.427   3.896   0.552 -0.2341 -0.1934  0.0084
  343TIP3    H1  986   3.517   3.863   0.544  0.7766  2.1351  1.2388
  343TIP3    H2  987   3.372   3.825   0.519  2.1047 -1.3385 -1.5644
  344TIP3   OH2  988   0.825   6.661   6.490 -0.2123 -0.3255  0.1493
  344TIP3    H1  989   0.909   6.700   6.467 -1.2560  1.9435  0.0501
  344TIP3    H2  990   0.829   6.573   6.453  2.5357 -0.6517  1.0783
  345TIP3   OH2  991   4.163   3.111   1.086  0.5839 -1.1933  0.5140
  345TIP3    H1  992   4.221   3.088   1.013  0.5075 -1.8336  0.6541
  345TIP3    H2  993   4.075   3.093   1.054  0.4852 -0.6365  0.4591
  346TIP3   OH2  994   8.153   6.693   6.340 -0.1153  0.1699 -0.0250
  346TIP3    H1  995   8.172   6.755   6.270  2.1075  0.4629  0.8017
  346TIP3    H2  996   8.238   6.675   6.380 -0.9787 -2.0619  0.8785
  347TIP3   OH2  997   5.030   1.448   1.434  0.2121  0.2922 -0.3398
  347TIP3    H1  998   5.106   1.432   1.378  1.2242  0.8243  0.8637
  347TIP3    H2  999   4.964   1.385   1.403  0.4824  1.1012 -2.6164
  348TIP3   OH2 1000   5.963   3.718   6.593  0.7972 -0.2284  0.5633
  348TIP3    H1 1001   5.883   3.669   6.576  1.5931 -0.8856 -1.5171
  348TIP3    H2 1002   5.951   3.801   6.548  2.9279 -1.9823 -3.5483
  349TIP3   OH2 1003   1.712   0.102   3.072 -0.4823 -0.1669 -0.0200
  349TIP3    H1 1004   1.621   0.118   3.096 -0.3678  0.0469  0.2811
  349TIP3    H2 1005   1.745   0.186   3.042 -0.4959 -0.3357 -0.5071
  350TIP3   OH2 1006   5.012   0.637   1.893  0.8838  0.3146  0.5101
  350TIP3    H1 1007   4.968   0.670   1.814 -2.0881 -1.6521  1.2419
  350TIP3    H2 1008   4.992   0.702   1.960 -1.1333 -0.6005  0.8579
  351TIP3   OH2 1009   4.049   2.258   1.238  0.4553  0.4151 -0.0217
  351TIP3    H1 1010   4.055   2.232   1.146 -1.8901  0.4436 -0.2065
  351TIP3    H2 1011   4.108   2.333   1.246 -0.9606  1.8096 -2.0539
  352TIP3   OH2 1012   4.584   0.668   0.584  0.3019  0.0253 -0.0354
  352TIP3    H1 1013   4.498   0.669   0.626 -0.2133  1.0947 -1.1092
  352TIP3    H2 1014   4.574   0.608   0.510  0.2860  0.6799 -0.5659
  353TIP3   OH2 1015   8.056   7.033   6.431 -0.3939  0.6276 -0.1039
  353TIP3    H1 1016   8.083   6.977   6.504  1.5616  1.5494 -0.1085
  353TIP3    H2 1017   8.018   7.111   6.473 -2.7412 -0.4509 -0.1003
  354TIP3   OH2 1018   5.077   1.618   0.506  0.0500 -0.2531 -0.2200
  354TIP3    H1 1019   4.986   1.646   0.509 -0.4726 -1.3824 -3.5372
  354TIP3    H2 1020   5.128   1.698   0.517 -1.3386  0.5756  0.2009
  355TIP3   OH2 1021   4.772   2.624   0.127 -0.4091  0.7475 -0.7366
  355TIP3    H1 1022   4.725   2.650   0.206  1.2898 -0.8104  0.8442
  355TIP3    H2 1023   4.860   2.660   0.139  0.2601 -0.6888 -1.2445
  356TIP3   OH2 1024   2.634   2.359   2.533 -0.3095  0.5880  0.5678
  356TIP3    H1 1025   2.553   2.331   2.490  0.1450 -2.7124  1.6686
  356TIP3    H2 1026   2.701   2.351   2.464 -0.0358 -2.1067  1.0792
  357TIP3   OH2 1027   4.124   1.406   0.064 -0.9657 -0.2883 -0.2112
  357TIP3    H1 1028   4.104   1.331   0.007 -1.2816 -0.5346  0.2187
  357TIP3    H2 1029   4.213   1.389   0.095 -1.3998 -1.0090  0.6822
  358TIP3   OH2 1030   3.003   0.597   1.030  0.8202  0.1058 -0.0546
  358TIP3    H1 1031   2.955   0.543   1.091 -0.1750  3.1966  2.0224
  358TIP3    H2 1032   2.941   0.615   0.959  0.0550  1.1702  0.8699
  359TIP3   OH2 1033   7.272   0.491   0.339 -0.0716 -0.5217 -0.4297
  359TIP3    H1 1034   7.357   0.447   0.330  0.3303  0.0839  0.3508
  359TIP3    H2 1035   7.226   0.442   0.407  0.1076 -0.1570 -0.0427
  360TIP3   OH2 1036   5.923   3.348   3.152  0.0448  0.0377  0.1697
  360TIP3    H1 1037   5.891   3.432   3.184 -3.6353 -2.0753  2.3535
  360TIP3    H2 1038   5.879   3.336   3.068 -1.8381 -0.9610  1.2426
  361TIP3   OH2 1039   3.910   2.945   2.265  0.7956  0.1719 -0.0167
  361TIP3    H1 1040   3.986   2.927   2.320 -0.2853 -0.7102  1.2102
  361TIP3    H2 1041   3.840   2.890   2.301  0.0986 -0.5687 -2.3633
  362TIP3   OH2 1042   1.551   2.166   1.128  0.0316  0.7973 -0.1106
  362TIP3    H1 1043   1.483   2.190   1.191  0.7415  1.1910  0.5194
  362TIP3    H2 1044   1.531   2.217   1.050 -0.5424  0.7224 -0.0131
  363TIP3   OH2 1045   5.539   1.957   1.154  0.2602 -0.1542  0.2785
  363TIP3    H1 1046   5.622   1.994   1.125  0.8312 -1.1375  0.6208
  363TIP3    H2 1047   5.511   1.901   1.082 -0.1178  0.1984  0.1524
  364TIP3   OH2 1048   1.795   1.884   0.858 -0.1474  0.2656  0.1929
  364TIP3    H1 1049   1.871   1.940   0.843 -0.8810  0.7949 -1.6544
  364TIP3    H2 1050   1.756   1.918   0.939  0.6032  1.0622  0.2323
  365TIP3   OH2 1051   6.254   6.488   5.951 -0.7012 -0.0097 -0.0085
  365TIP3    H1 1052   6.348   6.502   5.936 -0.4486 -1.5220  0.0643
  365TIP3    H2 1053   6.245   6.482   6.046 -0.8581  0.0587 -0.0191
  366TIP3   OH2 1054   3.169   0.710   2.189 -0.6071 -0.3330  0.4108
  366TIP3    H1 1055   3.150   0.617   2.198 -1.5649 -0.2150 -0.2951
  366TIP3    H2 1056   3.126   0.735   2.107  1.5397  0.2327 -0.5767
  367TIP3   OH2 1057   5.646   7.186   4.705 -0.3548 -0.4061 -0.1943
  367TIP3    H1 1058   5.688   7.246   4.767  0.0107 -0.1979 -0.6412
  367TIP3    H2 1059   5.556   7.177   4.738 -0.9420  1.7696 -1.1057
  368TIP3   OH2 1060   7.352   4.849   6.455 -0.1245  0.1757 -0.0453
  368TIP3    H1 1061   7.315   4.864   6.542  1.0129  2.0684  0.1355
  368TIP3    H2 1062   7.410   4.923   6.440  0.7416 -0.8249 -1.8684
  369TIP3   OH2 1063   1.496   6.539   0.153 -0.0017 -0.5408 -0.4021
  369TIP3    H1 1064   1.459   6.623   0.126  1.6724  0.1177 -0.7445
  369TIP3    H2 1065   1.506   6.489   0.072 -0.1152 -0.7039 -0.3163
  370TIP3   OH2 1066   3.537   2.665   1.347 -0.2040  0.2443 -0.3863
  370TIP3    H1 1067   3.458   2.638   1.300  0.3352 -1.1391 -0.4970
  370TIP3    H2 1068   3.505   2.694   1.433 -0.7602 -0.9437 -0.1857
  371TIP3   OH2 1069   6.034   5.150   5.924 -0.2605 -0.2720  0.0837
  371TIP3    H1 1070   5.946   5.127   5.892  0.5816 -0.9805 -1.8208
  371TIP3    H2 1071   6.082   5.067   5.922 -0.0098 -0.2222  2.7246
  372TIP3   OH2 1072   3.001   0.192   0.220 -0.4748 -0.8550 -0.4667
  372TIP3    H1 1073   2.967   0.279   0.201 -0.0529 -0.7811 -0.8769
  372TIP3    H2 1074   3.088   0.190   0.180  1.1693 -0.1166  2.8346
  373TIP3   OH2 1075   0.254   7.284   1.528 -0.2013 -0.1217  0.1799
  373TIP3    H1 1076   0.228   7.346   1.459  3.5647  0.4771 -0.7917
  373TIP3    H2 1077   0.267   7.201   1.481 -0.8438 -0.5635  0.7639
  374TIP3   OH2 1078   1.886   2.207   0.325 -0.0860  0.3167 -0.1788
  374TIP3    H1 1079   1.882   2.233   0.233  0.5338 -0.6607 -0.4869
  374TIP3    H2 1080   1.979   2.216   0.348  0.0144 -0.9033 -0.0802
  375TIP3   OH2 1081   5.186   1.126   1.010 -0.4146 -0.2674  0.5209
  375TIP3    H1 1082   5.135   1.197   1.048 -0.5270  0.0893 -0.2821
  375TIP3    H2 1083   5.123   1.056   0.996 -0.4058 -0.3381  0.8424
  376TIP3   OH2 1084   7.115   1.724   2.439  0.2980  0.3379  0.5478
  376TIP3    H1 1085   7.033   1.709   2.485 -0.4376 -0.1028 -0.8566
  376TIP3    H2 1086   7.162   1.788   2.492 -0.2862 -0.5498  2.1529
  377TIP3   OH2 1087   7.345   0.678   0.921  0.5660 -0.0318 -0.1886
  377TIP3    H1 1088   7.342   0.701   1.014 -0.6575  1.7766 -0.6439
  377TIP3    H2 1089   7.253   0.680   0.893  0.8414 -1.4584 -1.2276
  378TIP3   OH2 1090   4.539   1.923   1.057 -0.1097 -0.0589 -0.5601
  378TIP3    H1 1091   4.447   1.919   1.081 -0.8617  0.0594 -3.2500
  378TIP3    H2 1092   4.566   1.831   1.051 -0.5629 -0.1330 -1.5636
  379TIP3   OH2 1093   3.509   0.424  -0.014 -0.4981 -0.5253  0.0626
  379TIP3    H1 1094   3.521   0.329  -0.015  0.1999 -0.4828  2.1198
  379TIP3    H2 1095   3.504   0.447   0.079 -1.8528  1.3130 -0.4237
  380TIP3   OH2 1096   0.374   3.016   5.051 -0.0928 -0.9385  0.2387
  380TIP3    H1 1097   0.297   3.066   5.079  0.0083 -1.5805  1.7417
  380TIP3    H2 1098   0.338   2.933   5.018 -0.0664 -1.2350  0.9330
  381TIP3   OH2 1099   3.320   2.299   2.740 -0.2840 -0.4726  0.0555
  381TIP3    H1 1100   3.369   2.220   2.717  0.5917  0.3590 -1.0256
  381TIP3    H2 1101   3.386   2.369   2.739 -1.2820  0.4736 -0.2498
  382TIP3   OH2 1102   5.871   1.687   1.586  0.1273  0.1737 -0.4427
  382TIP3    H1 1103   5.903   1.654   1.669  0.4847 -0.1192 -0.6939
  382TIP3    H2 1104   5.777   1.668   1.587 -0.3733  2.5215  0.9899
  383TIP3   OH2 1105   5.621   1.619   2.085 -0.1915  0.2365  0.2485
  383TIP3    H1 1106   5.604   1.544   2.029 -0.4034 -1.0960  2.0740
  383TIP3    H2 1107   5.541   1.630   2.136  0.1209  1.2089  0.5463
  384TIP3   OH2 1108   0.529   5.562   6.734 -0.1930  0.2224 -0.1027
  384TIP3    H1 1109   0.450   5.521   6.699 -0.5969  0.7568  0.1852
  384TIP3    H2 1110   0.512   5.656   6.730 -0.5439  0.2794  2.2037
  385TIP3   OH2 1111   0.115   3.235   3.281  0.1718  0.4145  0.0483
  385TIP3    H1 1112   0.158   3.150   3.288  0.6847  0.6815  0.1524
  385TIP3    H2 1113   0.121   3.257   3.188  0.8736  0.7596  0.1639
  386TIP3   OH2 1114   5.360   1.337   1.544 -0.1861  0.0367 -0.0977
  386TIP3    H1 1115   5.326   1.248   1.549  0.1770 -0.1159 -0.3238
  386TIP3    H2 1116   5.343   1.364   1.454  0.1444  0.0143 -0.1693
  387TIP3   OH2 1117   5.664   7.149   6.199  0.2356 -0.1478  0.4169
  387TIP3    H1 1118   5.735   7.096   6.161  1.0030  0.1608  1.3941
  387TIP3    H2 1119   5.591   7.137   6.139  1.0116 -0.7485 -0.4313
  388TIP3   OH2 1120   0.200   7.762   0.195  0.1550  0.1146  0.2140
  388TIP3    H1 1121   0.247   7.787   0.116 -2.0202  2.6414 -0.3520
  388TIP3    H2 1122   0.254   7.793   0.267  0.2095  1.4422 -0.3900
  389TIP3   OH2 1123   4.806   1.735   1.217 -0.1685 -0.4307 -0.8576
  389TIP3    H1 1124   4.743   1.760   1.284 -2.3666 -2.9218 -1.9169
  389TIP3    H2 1125   4.882   1.703   1.266 -1.1265 -0.7670  0.4148
  390TIP3   OH2 1126   5.336   6.560   6.692  0.5553  0.1249  0.3093
  390TIP3    H1 1127   5.277   6.579   6.764 -0.2805 -1.2709  0.0086
  390TIP3    H2 1128   5.368   6.471   6.710  2.2700  0.7242  0.2772
  391TIP3   OH2 1129   3.726   3.933   1.218 -0.3802 -0.5227  0.5119
  391TIP3    H1 1130   3.631   3.920   1.226 -0.3691 -1.2026 -0.3696
  391TIP3    H2 1131   3.736   4.027   1.204 -0.8153 -0.2338  2.0156
  392TIP3   OH2 1132   5.651   2.343   1.204  0.4059 -0.1494  0.0183
  392TIP3    H1 1133   5.632   2.413   1.266 -1.3780 -0.6757  0.0955
  392TIP3    H2 1134   5.722   2.293   1.245  0.4304  0.5296  0.8105
  393TIP3   OH2 1135   5.152   1.982   2.495  0.0375 -0.6852  0.0538
  393TIP3    H1 1136   5.138   2.062   2.546  1.3533  0.2126 -0.9884
  393TIP3    H2 1137   5.065   1.941   2.491 -1.1578  1.8830 -1.4072
  394TIP3   OH2 1138   0.390   6.173   6.388 -0.3132 -0.0227  0.1342
  394TIP3    H1 1139   0.324   6.158   6.321  0.4466 -0.7154 -0.4695
  394TIP3    H2 1140   0.356   6.130   6.466 -0.5509 -0.4318 -0.1957
  395TIP3   OH2 1141   2.557   3.737   1.696 -0.3362 -0.4948  0.2156
  395TIP3    H1 1142   2.517   3.678   1.760  0.5750 -0.3920  0.8877
  395TIP3    H2 1143   2.631   3.687   1.660 -0.1098 -0.0976  0.1268
  396TIP3   OH2 1144   3.245   3.724   2.510 -0.0717  0.1039 -0.0045
  396TIP3    H1 1145   3.326   3.678   2.485  1.5531  1.4345  2.5414
  396TIP3    H2 1146   3.199   3.661   2.566  0.6248  0.3783  0.8953
  397TIP3   OH2 1147   4.755   2.447   1.887 -0.0487  0.2115  0.4701
  397TIP3    H1 1148   4.667   2.483   1.898  0.1344  0.7249  0.2437
  397TIP3    H2 1149   4.769   2.396   1.967 -1.5571 -2.0117 -0.6274
  398TIP3   OH2 1150   4.222   1.106   2.249  0.2757 -0.6584  0.1396
  398TIP3    H1 1151   4.204   1.063   2.333 -1.4735 -0.4092 -0.0985
  398TIP3    H2 1152   4.138   1.143   2.222  1.1972  0.7099 -0.9155
  399TIP3   OH2 1153   0.811   7.695   1.655  0.2708  0.4578 -0.3640
  399TIP3    H1 1154   0.851   7.749   1.723  0.2940  0.0056 -0.0166
  399TIP3    H2 1155   0.850   7.609   1.667 -1.7624 -0.3299  0.8264
  400TIP3   OH2 1156   4.795   3.432   4.176 -0.0333  0.0201 -0.0750
  400TIP3    H1 1157   4.819   3.525   4.181  1.0777 -0.2894  0.4787
  400TIP3    H2 1158   4.742   3.418   4.255 -0.2267  0.1917 -0.1733
  401TIP3   OH2 1159   4.541   0.893   1.936 -0.4672  0.2291  0.2300
  401TIP3    H1 1160   4.569   0.937   2.017  1.1079 -0.6116  0.1531
  401TIP3    H2 1161   4.446   0.880   1.948 -0.8078  2.8076  0.6381
  402TIP3   OH2 1162   0.984   7.575   3.628 -0.2180  0.3313  0.4882
  402TIP3    H1 1163   0.992   7.667   3.601 -0.0842 -0.3824 -2.0823
  402TIP3    H2 1164   0.892   7.565   3.652 -0.6219  0.7690 -0.8100
  403TIP3   OH2 1165   2.038   2.628   1.395  0.8866  0.8210 -0.1359
  403TIP3    H1 1166   2.064   2.612   1.485 -2.3371  0.6014  0.8104
  403TIP3    H2 1167   2.043   2.543   1.352 -2.8409 -0.2042  1.3032
  404TIP3   OH2 1168   1.255   6.982   3.076 -0.3239  0.2466 -0.4038
  404TIP3    H1 1169   1.210   6.923   3.015 -0.3118  1.2663 -1.4251
  404TIP3    H2 1170   1.188   7.047   3.100  0.2488  1.0761 -0.9969
  405TIP3   OH2 1171   4.327   0.314   2.346  0.5115  0.2643  0.0763
  405TIP3    H1 1172   4.273   0.378   2.299  2.2312  1.2128 -0.6464
  405TIP3    H2 1173   4.283   0.302   2.430 -0.8064  1.0301 -0.4938
  406TIP3   OH2 1174   7.684   7.447   1.145 -0.1322  0.1701  0.4901
  406TIP3    H1 1175   7.735   7.395   1.084 -0.1322  0.6607  0.0677
  406TIP3    H2 1176   7.719   7.425   1.231  0.4870  0.1736  0.2396
  407TIP3   OH2 1177   3.377   4.730   6.800 -0.2488 -0.0243 -0.3160
  407TIP3    H1 1178   3.443   4.690   6.857  0.4979  1.7415  0.0948
  407TIP3    H2 1179   3.330   4.791   6.858 -0.9078  0.2065 -1.0898
  408TIP3   OH2 1180   5.267   6.729   5.941 -0.2188  0.3500 -0.0296
  408TIP3    H1 1181   5.325   6.677   5.996 -0.0056 -1.0189 -1.5353
  408TIP3    H2 1182   5.184   6.730   5.989  0.3799  0.4030  1.0215
  409TIP3   OH2 1183   4.068   2.892   0.846 -0.5221 -0.2483  0.1972
  409TIP3    H1 1184   4.146   2.944   0.827 -2.3432  3.2475  1.8156
  409TIP3    H2 1185   4.085   2.855   0.932 -1.0711  1.4656  1.0686
  410TIP3   OH2 1186   3.545   1.988   0.611  0.2768 -0.5895 -0.3312
  410TIP3    H1 1187   3.461   2.020   0.644  0.2881 -2.4860  1.6638
  410TIP3    H2 1188   3.522   1.917   0.551  0.4665 -2.4231  1.7097
  411TIP3   OH2 1189   3.976   2.758   1.112  0.4899 -0.0707 -0.2321
  411TIP3    H1 1190   3.882   2.758   1.132  0.6315  2.4580  0.4881
  411TIP3    H2 1191   4.018   2.735   1.195  0.5378 -1.6020 -0.6479
  412TIP3   OH2 1192   7.319   3.610   0.546 -0.4512 -0.7474 -0.0819
  412TIP3    H1 1193   7.409   3.596   0.517 -1.1778 -2.8635 -1.4928
  412TIP3    H2 1194   7.326   3.636   0.638  1.5256 -2.4354  0.2779
  413TIP3   OH2 1195   5.328   3.977   1.067 -0.5641  0.6815  0.2747
  413TIP3    H1 1196   5.335   3.900   1.124 -1.2985 -0.9812 -1.7947
  413TIP3    H2 1197   5.418   4.007   1.056 -0.4211  1.0869  2.3508
  414TIP3   OH2 1198   2.125   0.005   6.774 -0.4262  0.0749 -0.1322
  414TIP3    H1 1199   2.059   0.037   6.712 -1.9027  0.3926  1.5652
  414TIP3    H2 1200   2.208   0.022   6.730 -1.3998  1.0996 -1.6608
  415TIP3   OH2 1201   5.822   3.800   0.691 -0.1823 -0.2223 -0.6542
  415TIP3    H1 1202   5.799   3.718   0.647 -0.0901 -0.4876 -0.2108
  415TIP3    H2 1203   5.801   3.868   0.627 -0.3680 -0.5848 -0.9816
  416TIP3   OH2 1204   2.107   2.713   0.836 -0.5032 -0.2107  0.7644
  416TIP3    H1 1205   2.174   2.645   0.849 -0.3642  0.0019  1.1927
  416TIP3    H2 1206   2.088   2.711   0.743 -0.0161 -0.3848  0.6672
  417TIP3   OH2 1207   7.806   4.236   5.463 -0.6694 -0.3246  0.0510
  417TIP3    H1 1208   7.875   4.253   5.399  0.7132  0.6885  1.7813
  417TIP3    H2 1209   7.765   4.155   5.432  3.0857 -2.4882  0.4799
  418TIP3   OH2 1210   6.720   1.211   1.115 -0.2209  0.4032  0.7882
  418TIP3    H1 1211   6.696   1.300   1.140 -1.8651  0.6112 -1.2621
  418TIP3    H2 1212   6.775   1.222   1.037 -0.5654 -0.3543  0.4294
  419TIP3   OH2 1213   0.120   7.709   1.733 -0.4492  0.1148  0.1907
  419TIP3    H1 1214   0.102   7.793   1.690  0.0701  0.1077 -0.0376
  419TIP3    H2 1215   0.214   7.694   1.720 -0.7387 -0.9963 -0.6399
  420TIP3   OH2 1216   2.837   2.722   2.395  0.2673 -0.5475 -0.2822
  420TIP3    H1 1217   2.920   2.720   2.347  0.1944  1.1942 -0.5157
  420TIP3    H2 1218   2.795   2.803   2.366 -0.7404 -0.5575  1.1249
  421TIP3   OH2 1219   6.320   3.920   3.088  0.3154  0.7274  0.2653
  421TIP3    H1 1220   6.373   3.904   3.167  0.0156  0.4456  0.4109
  421TIP3    H2 1221   6.230   3.912   3.118  0.2074 -0.8828 -0.4054
  422TIP3   OH2 1222   6.878   0.992   2.110  0.3570  0.1633 -0.1788
  422TIP3    H1 1223   6.838   1.013   2.026 -0.9198 -0.1122  0.3600
  422TIP3    H2 1224   6.898   0.899   2.105 -0.4129 -0.0167  0.1129
  423TIP3   OH2 1225   6.361   2.441   0.039  0.3166  0.2836 -0.1121
  423TIP3    H1 1226   6.427   2.463   0.104  1.3337 -0.9080 -0.7291
  423TIP3    H2 1227   6.350   2.522  -0.013  1.2749  0.4785 -0.0093
  424TIP3   OH2 1228   7.884   6.477   6.663 -0.0854 -0.2281 -0.3447
  424TIP3    H1 1229   7.895   6.535   6.588 -0.0904  0.1939 -0.0180
  424TIP3    H2 1230   7.802   6.431   6.645  0.7496 -1.3436 -1.4112
  425TIP3   OH2 1231   6.824   0.747   1.323  0.0780  0.1233 -0.2810
  425TIP3    H1 1232   6.854   0.748   1.413 -0.0439  0.9488 -0.2521
  425TIP3    H2 1233   6.864   0.824   1.282 -1.0923  0.6201 -0.5272
  426TIP3   OH2 1234   5.647   6.150   5.995 -0.3430  0.4797  0.1204
  426TIP3    H1 1235   5.719   6.099   5.959 -0.6957  0.6234 -0.7975
  426TIP3    H2 1236   5.623   6.211   5.925 -0.0429  1.7914  1.1352
  427TIP3   OH2 1237   6.152   0.967   2.403  0.8356 -0.4087 -0.0949
  427TIP3    H1 1238   6.138   0.891   2.459 -0.3469  0.3756  0.6782
  427TIP3    H2 1239   6.068   1.012   2.401  1.2579  0.3535 -1.3468
  428TIP3   OH2 1240   2.061   2.199   1.083  0.2473 -0.0648 -0.4797
  428TIP3    H1 1241   2.013   2.129   1.127 -0.2664  0.9020  0.5151
  428TIP3    H2 1242   2.066   2.171   0.992 -1.8778 -0.3664 -0.5245
  429TIP3   OH2 1243   4.440   6.996   2.512 -0.1394 -0.1421 -0.2199
  429TIP3    H1 1244   4.447   7.055   2.587 -1.0893  1.9067 -1.6894
  429TIP3    H2 1245   4.385   6.924   2.544 -2.6576  1.9526  0.3463
  430TIP3   OH2 1246   3.281   0.898   1.322  0.0475  0.3218 -0.0394
  430TIP3    H1 1247   3.373   0.875   1.308 -0.6519 -2.0629 -1.0643
  430TIP3    H2 1248   3.250   0.834   1.386 -0.9931  0.8222 -0.0345
  431TIP3   OH2 1249   3.490   1.441   2.331  0.2064  0.0494 -0.3130
  431TIP3    H1 1250   3.494   1.529   2.293  0.6730 -0.0246 -0.4397
  431TIP3    H2 1251   3.398   1.430   2.355  0.1799  0.6489 -0.1128
  432TIP3   OH2 1252   4.054   1.021   2.549 -0.5573 -0.0482  0.1431
  432TIP3    H1 1253   4.009   1.082   2.491 -0.6284  1.1561  1.4355
  432TIP3    H2 1254   4.016   1.036   2.636 -0.5898 -1.9473  0.4897
  433TIP3   OH2 1255   3.990   3.240   1.758  0.6856 -0.1027 -0.0274
  433TIP3    H1 1256   4.013   3.302   1.688 -2.4899 -0.8596 -1.8682
  433TIP3    H2 1257   3.962   3.295   1.831 -0.6395  0.6994 -1.1054
  434TIP3   OH2 1258   2.631   3.227   2.092  0.2119 -0.8590 -0.3810
  434TIP3    H1 1259   2.576   3.156   2.060 -0.8252 -0.9569  1.5648
  434TIP3    H2 1260   2.607   3.302   2.039 -0.9189 -1.2115 -0.3790
  435TIP3   OH2 1261   4.634   3.312   1.779  0.6152  0.2525 -0.0985
  435TIP3    H1 1262   4.545   3.276   1.781 -0.2174  2.1801 -1.2472
  435TIP3    H2 1263   4.690   3.236   1.762 -0.7938 -0.9917  0.6685
  436TIP3   OH2 1264   5.032   0.146   1.328 -0.5399 -0.4151  0.4116
  436TIP3    H1 1265   5.077   0.074   1.283 -1.8563 -1.5288  0.8461
  436TIP3    H2 1266   4.970   0.178   1.263  0.6612  0.9393 -0.0918
  437TIP3   OH2 1267   2.112   2.639   1.692 -0.6511 -0.0521  0.0588
  437TIP3    H1 1268   2.204   2.618   1.704  0.1518  2.4507 -1.3160
  437TIP3    H2 1269   2.084   2.675   1.776 -0.3744 -0.8710  0.4957
  438TIP3   OH2 1270   4.657   2.122   1.208 -0.3898  0.1237 -0.4234
  438TIP3    H1 1271   4.618   2.048   1.161 -0.9904  0.0691  0.1534
  438TIP3    H2 1272   4.741   2.137   1.164 -0.1866 -1.0119 -0.4436
  439TIP3   OH2 1273   6.377   3.047   0.228 -0.4167  0.6976  0.1379
  439TIP3    H1 1274   6.455   3.087   0.187  1.7611 -2.3001  1.1903
  439TIP3    H2 1275   6.374   2.958   0.192 -1.3511 -0.3600  2.7487
  440TIP3   OH2 1276   3.880   2.494   1.505 -0.9443  0.8201 -0.1481
  440TIP3    H1 1277   3.889   2.515   1.598 -1.1407  1.2110 -0.2176
  440TIP3    H2 1278   3.910   2.403   1.498  3.0104  2.0697 -0.3682
  441TIP3   OH2 1279   5.063   2.840   1.508 -0.2199  0.1609 -0.7463
  441TIP3    H1 1280   5.052   2.747   1.526 -0.9105  0.2506 -0.6988
  441TIP3    H2 1281   5.051   2.883   1.593  2.4382  0.1183 -0.3102
  442TIP3   OH2 1282   3.637   3.056   1.237  0.4971 -0.0027  0.3945
  442TIP3    H1 1283   3.548   3.066   1.202  1.4905  2.0715 -1.6950
  442TIP3    H2 1284   3.675   2.984   1.186  0.4391 -0.0277  0.3865
  443TIP3   OH2 1285   2.829   2.197   1.431 -0.0372  0.1762  0.4587
  443TIP3    H1 1286   2.860   2.175   1.519 -0.1985 -0.6046  0.3292
  443TIP3    H2 1287   2.762   2.131   1.413  0.4940 -0.1010 -0.5366
  444TIP3   OH2 1288   5.542   2.380   2.345 -0.3208 -0.5463 -0.4300
  444TIP3    H1 1289   5.485   2.412   2.276 -0.1729 -1.9742 -1.2306
  444TIP3    H2 1290   5.630   2.402   2.316 -0.4065  1.3352  0.6369
  445TIP3   OH2 1291   0.739   7.112   0.986 -0.3885 -0.1138  0.7755
  445TIP3    H1 1292   0.713   7.173   0.918  1.3429  0.7169  0.8419
  445TIP3    H2 1293   0.702   7.148   1.066  0.1793  0.5790  0.7337
  446TIP3   OH2 1294   1.919   7.769   1.259  0.4681  0.6549 -0.0770
  446TIP3    H1 1295   1.888   7.752   1.348 -0.7599 -0.8707 -0.7849
  446TIP3    H2 1296   2.004   7.813   1.272  1.2939 -1.4003  1.8477
  447TIP3   OH2 1297   7.519   4.423   6.767  0.2910 -0.1389  0.0178
  447TIP3    H1 1298   7.543   4.515   6.773  0.1882 -0.1001 -0.1766
  447TIP3    H2 1299   7.593   4.382   6.723  0.2213 -0.1056 -0.1292
  448TIP3   OH2 1300   4.104   0.271   0.541  0.4018 -0.2039  0.3455
  448TIP3    H1 1301   4.124   0.324   0.465  0.2525 -0.3530  0.2016
  448TIP3    H2 1302   4.156   0.191   0.530 -0.1701 -0.5391  0.0314
  449TIP3   OH2 1303   6.619   6.123   5.993  0.4161  0.2222  0.3604
  449TIP3    H1 1304   6.620   6.045   5.938  2.8569 -0.0044  0.6644
  449TIP3    H2 1305   6.572   6.097   6.072  0.2376 -0.5917 -0.0161
  450TIP3   OH2 1306   0.091   5.069   6.280 -0.0216  0.4216 -0.2638
  450TIP3    H1 1307   0.041   5.068   6.198  0.5044 -1.7711 -0.5950
  450TIP3    H2 1308   0.112   4.977   6.296  0.6477  0.9177  1.8808
  451TIP3   OH2 1309   4.827   2.642   0.535 -0.0760 -0.3529 -0.4983
  451TIP3    H1 1310   4.807   2.549   0.530 -1.9557 -0.1690  2.3945
  451TIP3    H2 1311   4.912   2.647   0.578 -0.8925 -0.7103  1.2030
  452TIP3   OH2 1312   8.157   5.528   6.155  0.1227 -0.3469  0.2067
  452TIP3    H1 1313   8.089   5.546   6.091  0.3115 -0.4634 -0.0281
  452TIP3    H2 1314   8.232   5.499   6.103  1.1964  2.1738  0.2590
  453TIP3   OH2 1315   1.107   7.017   1.861 -0.2219 -0.1314 -0.8895
  453TIP3    H1 1316   1.155   7.056   1.788  0.7053  1.3757  0.4910
  453TIP3    H2 1317   1.017   7.049   1.850  0.3812  1.9042 -0.1661
  454TIP3   OH2 1318   3.295   0.063   3.697 -0.0868  0.1519 -0.1213
  454TIP3    H1 1319   3.373   0.034   3.648 -0.3717  0.1250 -0.5682
  454TIP3    H2 1320   3.292   0.005   3.773  0.2305  0.0326 -0.1966
  455TIP3   OH2 1321   3.569   2.481   2.099 -0.0722  0.4028  0.2424
  455TIP3    H1 1322   3.561   2.572   2.127 -1.6592  0.2396  0.3513
  455TIP3    H2 1323   3.568   2.485   2.003 -1.0615  0.4289  0.2509
  456TIP3   OH2 1324   3.325   3.622   3.532 -0.5819 -0.3869  0.1552
  456TIP3    H1 1325   3.273   3.613   3.612  0.7632  0.0020  1.1001
  456TIP3    H2 1326   3.411   3.587   3.555 -0.1658 -0.2402 -1.1132
  457TIP3   OH2 1327   6.399   2.408   1.291  0.3922  0.1766 -0.7949
  457TIP3    H1 1328   6.483   2.365   1.276 -0.0225 -0.9314 -0.0452
  457TIP3    H2 1329   6.415   2.466   1.366 -0.3787 -2.7307  1.7368
  458TIP3   OH2 1330   1.776   4.689   5.587  0.1656 -0.2832  0.1881
  458TIP3    H1 1331   1.713   4.624   5.618 -1.0363  0.5144 -0.5055
  458TIP3    H2 1332   1.799   4.661   5.499 -0.8802  0.5863 -0.3722
  459TIP3   OH2 1333   7.668   1.492   0.122 -0.1731 -0.1642 -0.3205
  459TIP3    H1 1334   7.648   1.584   0.140  0.0467 -0.2201  0.2018
  459TIP3    H2 1335   7.582   1.450   0.116 -0.2266 -0.4476  2.1213
  460TIP3   OH2 1336   7.279   3.735   0.806 -0.4847  0.6758 -0.0434
  460TIP3    H1 1337   7.356   3.790   0.787  0.4623 -0.7570 -0.4442
  460TIP3    H2 1338   7.302   3.688   0.886 -1.7279  1.6304  0.8969
  461TIP3   OH2 1339   1.722   0.699   6.197 -0.3196  0.2442 -0.1723
  461TIP3    H1 1340   1.806   0.664   6.168 -0.2039 -0.2724  0.7619
  461TIP3    H2 1341   1.723   0.687   6.292 -1.9956 -0.9888 -0.2848
  462TIP3   OH2 1342   4.155   1.616   0.271 -0.6427  0.5957  0.1836
  462TIP3    H1 1343   4.085   1.625   0.335  0.8573 -0.0259  1.9482
  462TIP3    H2 1344   4.143   1.529   0.234 -1.1661  0.7304  0.0413
  463TIP3   OH2 1345   0.248   5.086   5.990  0.3616 -0.0118 -0.4714
  463TIP3    H1 1346   0.255   5.098   5.896 -0.8270 -2.0433 -0.8421
  463TIP3    H2 1347   0.248   5.175   6.026  1.8267  0.7342 -2.2926
  464TIP3   OH2 1348   0.530   6.225   5.432  0.0168  0.1451  0.1682
  464TIP3    H1 1349   0.514   6.131   5.435 -1.0780  0.3013 -0.4426
  464TIP3    H2 1350   0.555   6.242   5.341 -0.7063  0.5738  0.0411
  465TIP3   OH2 1351   7.202   5.799   5.429  0.3758 -0.2251  0.0431
  465TIP3    H1 1352   7.138   5.831   5.492 -0.0442  0.3507 -0.6750
  465TIP3    H2 1353   7.242   5.723   5.472  0.4797  0.4857  1.2240
  466TIP3   OH2 1354   4.586   7.991   0.646 -0.3085  0.4580  0.3530
  466TIP3    H1 1355   4.557   7.929   0.580 -0.9133 -0.0438  1.0841
  466TIP3    H2 1356   4.563   7.950   0.730 -0.4621  1.5329  0.8472
  467TIP3   OH2 1357   7.773   1.870   0.739  0.0210  0.0018 -0.0341
  467TIP3    H1 1358   7.793   1.951   0.785 -3.3061 -0.1366  1.7921
  467TIP3    H2 1359   7.811   1.801   0.795 -2.2962 -0.0344  1.5635
  468TIP3   OH2 1360   1.360   6.703   2.078 -0.3998  0.0077 -0.2931
  468TIP3    H1 1361   1.384   6.622   2.033 -2.3866  0.2533 -1.8529
  468TIP3    H2 1362   1.429   6.765   2.055  0.9330 -1.1217  0.6064
  469TIP3   OH2 1363   6.344   6.890   6.614 -0.2040 -0.2697  0.3974
  469TIP3    H1 1364   6.279   6.840   6.566  1.6211 -1.4823 -0.8509
  469TIP3    H2 1365   6.305   6.903   6.701 -2.1478 -0.8352 -0.3694
  470TIP3   OH2 1366   6.841   1.132   0.423 -0.6635 -0.2008 -0.0755
  470TIP3    H1 1367   6.749   1.149   0.403 -0.9435 -1.4236  0.1699
  470TIP3    H2 1368   6.842   1.045   0.463  0.4187  0.3880  1.2219
  471TIP3   OH2 1369   6.631   0.262   0.712 -0.0990 -0.0623  0.4472
  471TIP3    H1 1370   6.569   0.260   0.640  0.5349  1.0406 -0.1389
  471TIP3    H2 1371   6.609   0.341   0.761  1.4759  0.9013 -0.3534
  472TIP3   OH2 1372   0.055   4.728   6.113 -0.2455  0.2625 -0.9573
  472TIP3    H1 1373   0.024   4.656   6.058  0.1846 -0.0250 -0.8302
  472TIP3    H2 1374  -0.025   4.772   6.143 -0.7608 -2.7963  2.5149
  473TIP3   OH2 1375   6.377   0.961   0.076 -0.0320  0.0956 -0.5276
  473TIP3    H1 1376   6.415   0.913   0.003 -0.3888  2.5207 -2.3552
  473TIP3    H2 1377   6.438   0.947   0.148  0.2512 -2.4387 -1.2101
  474TIP3   OH2 1378   0.101   5.839   6.716  0.1724  0.3186 -0.2501
  474TIP3    H1 1379   0.014   5.832   6.676  0.3899 -1.6906 -0.4582
  474TIP3    H2 1380   0.102   5.770   6.783  0.6508  2.1087  1.6335
  475TIP3   OH2 1381   1.046   6.173   6.476  0.2758 -0.2111  0.0947
  475TIP3    H1 1382   1.002   6.088   6.467  1.0543 -0.6620  0.5473
  475TIP3    H2 1383   1.120   6.168   6.416 -0.2227  0.5198 -0.6001
  476TIP3   OH2 1384   0.167   6.681   6.361  0.1243 -0.4805  0.1773
  476TIP3    H1 1385   0.208   6.596   6.376 -1.4058 -0.9549  1.8458
  476TIP3    H2 1386   0.089   6.661   6.309 -0.0286 -0.0625  0.2454
  477TIP3   OH2 1387   4.206   3.677   0.424  0.5710 -0.1273  0.1642
  477TIP3    H1 1388   4.168   3.725   0.351  1.1578 -0.1777 -0.1812
  477TIP3    H2 1389   4.301   3.690   0.414  0.7585 -1.6609 -0.1448
  478TIP3   OH2 1390   0.740   4.711   4.887  0.7568 -0.0430 -0.8073
  478TIP3    H1 1391   0.817   4.669   4.924  0.6257  0.6524  0.3172
  478TIP3    H2 1392   0.666   4.661   4.922  0.6716 -0.1632 -1.1584
  479TIP3   OH2 1393   0.251   7.109   6.931 -0.1706 -0.0692 -0.4965
  479TIP3    H1 1394   0.232   7.194   6.890 -0.8467 -0.1009 -0.2423
  479TIP3    H2 1395   0.212   7.044   6.873 -0.6040 -0.1488 -0.1111
  480TIP3   OH2 1396   0.568   1.886   0.563  0.1492 -0.2262  0.4647
  480TIP3    H1 1397   0.598   1.859   0.650  0.7238  1.7744  0.9278
  480TIP3    H2 1398   0.549   1.980   0.573  2.7889  0.6686 -2.2304
  481TIP3   OH2 1399   1.670   6.236   6.235  0.2674 -0.5037 -0.2663
  481TIP3    H1 1400   1.624   6.180   6.298  0.8708 -0.5153  0.1682
  481TIP3    H2 1401   1.611   6.311   6.223  0.6148  0.0196  1.1331
  482TIP3   OH2 1402   5.564   0.757   0.429 -0.1949  0.2133  0.0798
  482TIP3    H1 1403   5.582   0.792   0.516  0.1806  0.6619 -0.1795
  482TIP3    H2 1404   5.491   0.809   0.395 -1.0470 -0.6616  0.5519
  483TIP3   OH2 1405   1.120   5.922   6.313  0.0535 -0.0318 -0.4431
  483TIP3    H1 1406   1.123   5.827   6.305  1.0342 -0.1929  1.7238
  483TIP3    H2 1407   1.028   5.941   6.332  0.0696 -0.6366  0.2421
  484TIP3   OH2 1408   8.153   5.704   6.747  0.5238 -0.7658  0.4120
  484TIP3    H1 1409   8.209   5.764   6.796 -0.3494  0.4951 -0.0910
  484TIP3    H2 1410   8.084   5.680   6.809 -1.3138  1.8449 -0.4914
  485TIP3   OH2 1411   7.907   5.935   5.964  0.3644 -0.3040 -0.0174
  485TIP3    H1 1412   7.813   5.954   5.966 -0.0271 -1.7172 -2.3315
  485TIP3    H2 1413   7.934   5.939   6.055 -1.9174  0.2872  0.6778
  486TIP3   OH2 1414   6.436   1.090   0.746  0.2381 -0.9431  0.2319
  486TIP3    H1 1415   6.361   1.034   0.765  0.5694 -0.4082  3.3145
  486TIP3    H2 1416   6.406   1.145   0.673 -3.4176  1.1662  3.1816
  487TIP3   OH2 1417   7.035   1.878   1.385  0.1858  0.0778 -0.2527
  487TIP3    H1 1418   6.994   1.803   1.342 -1.0734  0.0500  0.9486
  487TIP3    H2 1419   6.968   1.946   1.385  0.1747  0.1070  1.5418
  488TIP3   OH2 1420   8.232   5.123   4.525  0.0744 -0.1031 -0.3506
  488TIP3    H1 1421   8.219   5.164   4.611 -0.6523  1.4187 -1.1691
  488TIP3    H2 1422   8.148   5.135   4.480  0.0488 -1.9416 -0.8673
  489TIP3   OH2 1423   6.962   3.583   1.051 -0.0786 -0.1616 -0.1805
  489TIP3    H1 1424   6.974   3.494   1.084 -1.9785 -0.8361 -1.2250
  489TIP3    H2 1425   6.909   3.626   1.118  1.8897  0.5810  0.9225
  490TIP3   OH2 1426   5.817   2.613   1.103 -0.1790 -0.3848 -0.2623
  490TIP3    H1 1427   5.871   2.534   1.109  1.0247  0.5046  0.8482
  490TIP3    H2 1428   5.748   2.599   1.169 -0.8169 -1.1315 -1.0726
  491TIP3   OH2 1429   7.189   6.615   6.439  0.1183 -0.0509  0.0316
  491TIP3    H1 1430   7.223   6.691   6.392  1.7540 -1.7258 -1.5806
  491TIP3    H2 1431   7.123   6.578   6.381  0.6274 -0.9009 -0.0167
  492TIP3   OH2 1432   7.064   2.127   0.659 -0.0787 -0.0428  0.4065
  492TIP3    H1 1433   7.091   2.123   0.567 -1.1907 -0.0713  0.0704
  492TIP3    H2 1434   7.143   2.108   0.709  0.5206 -0.0687 -0.5503
  493TIP3   OH2 1435   6.012   2.821   1.120  0.0681  0.2062  0.0652
  493TIP3    H1 1436   5.928   2.776   1.110 -0.5717  1.3465  0.2788
  493TIP3    H2 1437   6.036   2.805   1.211  0.4603 -0.7617 -0.2021
  494TIP3   OH2 1438   6.594   7.214   4.786  0.1544 -0.1210 -0.2530
  494TIP3    H1 1439   6.611   7.142   4.848  0.1007  1.0186  1.1016
  494TIP3    H2 1440   6.506   7.244   4.807  0.1175  0.2498 -0.9183
  495TIP3   OH2 1441   5.084   3.198   0.395  0.2845 -0.0617  0.0300
  495TIP3    H1 1442   5.080   3.260   0.467  0.1066  1.5818 -1.3703
  495TIP3    H2 1443   5.174   3.165   0.396  0.9783  1.7972 -0.5185
  496TIP3   OH2 1444   5.584   1.360   0.442 -0.0276  0.1453  0.1714
  496TIP3    H1 1445   5.538   1.310   0.510 -0.9136 -0.2823 -0.7315
  496TIP3    H2 1446   5.634   1.294   0.394 -0.8105  0.1864 -0.7110
  497TIP3   OH2 1447   7.111   3.357   0.735 -0.2798 -0.0604 -0.3428
  497TIP3    H1 1448   7.032   3.396   0.773  1.8424  2.7542  1.4435
  497TIP3    H2 1449   7.136   3.287   0.796 -1.1150 -0.6070 -0.6340
  498TIP3   OH2 1450   6.309   1.785   1.903  0.4521 -0.1754  0.4406
  498TIP3    H1 1451   6.300   1.814   1.812  1.6870  0.6905  0.5780
  498TIP3    H2 1452   6.220   1.780   1.935  0.1180  1.8673 -0.1115
  499TIP3   OH2 1453   1.856   7.285   1.021 -0.5337  0.0307 -0.1945
  499TIP3    H1 1454   1.761   7.280   1.030 -0.3856  0.3879  2.0191
  499TIP3    H2 1455   1.889   7.225   1.089  0.8190 -0.6356 -1.4112
  500TIP3   OH2 1456   6.973   1.383   0.415  0.4956  0.3806 -0.0911
  500TIP3    H1 1457   6.938   1.294   0.418  0.4450  0.3968 -0.2277
  500TIP3    H2 1458   7.068   1.372   0.412  0.4686  0.3262 -0.6564
  501TIP3   OH2 1459   7.648   1.919   1.767 -0.0748 -0.0685 -0.1686
  501TIP3    H1 1460   7.578   1.984   1.777 -0.6131 -0.8495  1.2537
  501TIP3    H2 1461   7.680   1.905   1.856 -0.1966 -2.0231 -0.4162
  502TIP3   OH2 1462   4.840   0.520   0.200  0.1829 -0.1307 -0.2868
  502TIP3    H1 1463   4.857   0.613   0.184  0.5480 -0.0617  0.4476
  502TIP3    H2 1464   4.926   0.483   0.220  0.0981 -0.7158 -0.9924
  503TIP3   OH2 1465   6.746   2.620   6.935 -0.0452  0.1170  0.3465
  503TIP3    H1 1466   6.799   2.646   7.010  0.0660 -1.9348  1.0217
  503TIP3    H2 1467   6.778   2.674   6.863  2.5838 -0.6693  0.8745
  504TIP3   OH2 1468   6.950   1.671   0.046 -0.4621  0.2086  0.0901
  504TIP3    H1 1469   6.932   1.617  -0.031 -0.0902 -1.2510  1.0239
  504TIP3    H2 1470   6.984   1.753   0.009  0.9419 -0.9449 -1.2850
  505TIP3   OH2 1471   1.862   6.055   5.550 -0.6545  0.0413 -0.0980
  505TIP3    H1 1472   1.956   6.037   5.540 -0.6830  0.3948 -1.0738
  505TIP3    H2 1473   1.819   5.974   5.522 -0.6606  0.1402 -0.3759
  506TIP3   OH2 1474   1.314   6.501   6.525 -0.3521 -0.1981  0.0575
  506TIP3    H1 1475   1.387   6.561   6.538 -0.7016  0.4357 -0.8789
  506TIP3    H2 1476   1.338   6.423   6.574  0.2381  0.5977  1.0460
  507TIP3   OH2 1477   2.541   2.446   0.050 -1.2602  0.1740  0.0662
  507TIP3    H1 1478   2.591   2.365   0.036 -1.8553 -0.1963  0.0341
  507TIP3    H2 1479   2.607   2.513   0.065 -0.6613  0.1488 -2.2381
  508TIP3   OH2 1480   3.043   7.190   0.163  0.0402 -0.0286 -0.0461
  508TIP3    H1 1481   2.992   7.270   0.147  0.5954  0.4147  0.3718
  508TIP3    H2 1482   3.121   7.200   0.109 -0.1350 -0.5342 -0.3962
  509TIP3   OH2 1483   7.390   1.131   1.515 -0.3689  0.4951  0.6528
  509TIP3    H1 1484   7.391   1.047   1.469  0.0219 -0.0717  1.6935
  509TIP3    H2 1485   7.449   1.187   1.465  2.2855 -0.9777  2.0562
  510TIP3   OH2 1486   6.343   3.706   0.221 -0.1190  0.0183 -0.4968
  510TIP3    H1 1487   6.337   3.611   0.213  3.7008 -0.2491 -0.9351
  510TIP3    H2 1488   6.416   3.731   0.165 -0.8179  3.2044 -0.1002
  511TIP3   OH2 1489   2.905   7.619   0.902 -0.0457 -0.0255  0.2956
  511TIP3    H1 1490   2.848   7.680   0.949  0.9688  0.7215  0.5831
  511TIP3    H2 1491   2.851   7.542   0.887 -1.6156  1.2447 -0.7528
  512TIP3   OH2 1492   0.720   5.428   6.898 -0.0918 -0.7321 -0.6156
  512TIP3    H1 1493   0.642   5.442   6.844 -0.8578 -3.4093 -0.2950
  512TIP3    H2 1494   0.792   5.459   6.843 -1.1167 -0.8245 -2.0627
  513TIP3   OH2 1495   8.124   3.964   0.223 -0.4198  0.0988 -0.3863
  513TIP3    H1 1496   8.071   3.886   0.203 -0.4354  0.3437 -1.2992
  513TIP3    H2 1497   8.197   3.930   0.275 -0.3486 -0.5487 -0.9025
  514TIP3   OH2 1498   4.877   1.640   2.432 -0.4734 -0.0609 -0.3146
  514TIP3    H1 1499   4.910   1.723   2.466  0.0943  0.3760 -1.8681
  514TIP3    H2 1500   4.947   1.577   2.448 -1.0122 -0.3091  1.1042
  515TIP3   OH2 1501   0.742   3.816   6.231  0.0432 -0.1550 -0.2143
  515TIP3    H1 1502   0.729   3.784   6.321 -0.8046  0.4479 -0.1266
  515TIP3    H2 1503   0.799   3.892   6.242 -1.5942  1.0553 -0.0053
  516TIP3   OH2 1504   1.764   5.812   6.419  0.3336 -0.2596  0.0582
  516TIP3    H1 1505   1.815   5.792   6.497  1.2456  0.5031 -0.3231
  516TIP3    H2 1506   1.830   5.827   6.351 -0.3494  1.7761 -0.1976
  517TIP3   OH2 1507   8.479   1.327   1.220  0.1104  0.2697  0.0826
  517TIP3    H1 1508   8.527   1.271   1.281  0.3390  1.6203  1.1573
  517TIP3    H2 1509   8.425   1.266   1.170 -0.7935 -0.7653  2.2712
  518TIP3   OH2 1510   7.394   1.260   0.757  0.1278 -0.2785  0.1069
  518TIP3    H1 1511   7.428   1.289   0.672  1.0225  0.1684  0.6085
  518TIP3    H2 1512   7.425   1.170   0.766 -0.7914 -0.6573 -0.4703
  519TIP3   OH2 1513   5.158   2.162   1.045  0.5821 -0.3574  0.0927
  519TIP3    H1 1514   5.208   2.118   0.976 -1.1150 -0.2592 -1.2508
  519TIP3    H2 1515   5.198   2.249   1.052  0.1653 -0.0174 -1.4726
  520TIP3   OH2 1516   7.119   0.719   0.294 -0.0225  0.1343 -0.0196
  520TIP3    H1 1517   7.032   0.704   0.331  0.1485 -0.9382 -0.0082
  520TIP3    H2 1518   7.171   0.645   0.326 -0.1093 -1.3930 -3.1614
  521TIP3   OH2 1519   7.389   1.637   0.415 -0.0931  0.4976  0.2305
  521TIP3    H1 1520   7.456   1.610   0.478  1.7951  1.5580 -1.2708
  521TIP3    H2 1521   7.347   1.713   0.456  0.3511  0.4996  0.6960
  522TIP3   OH2 1522   5.619   1.322   1.644 -0.4504 -0.7338 -0.0526
  522TIP3    H1 1523   5.536   1.321   1.598 -0.7749  1.5692  0.4045
  522TIP3    H2 1524   5.643   1.415   1.648  1.2830 -1.2065  1.3282
  523TIP3   OH2 1525   6.759   0.514   0.596  0.0453  0.4048  0.1871
  523TIP3    H1 1526   6.677   0.533   0.552 -0.5038 -0.8824  0.6560
  523TIP3    H2 1527   6.740   0.528   0.689  0.0010 -1.1099  0.4160
  524TIP3   OH2 1528   6.765   4.441   0.535  0.2611 -0.0329 -0.0131
  524TIP3    H1 1529   6.776   4.532   0.506  0.6114 -0.0073  0.2037
  524TIP3    H2 1530   6.670   4.430   0.542  0.1210 -0.2885 -1.9959
  525TIP3   OH2 1531   8.306   1.481   0.475  0.0884  0.2106 -0.0850
  525TIP3    H1 1532   8.236   1.425   0.442 -0.5714  1.0463 -0.1106
  525TIP3    H2 1533   8.262   1.546   0.529  0.7326  1.3435 -0.9031
  526TIP3   OH2 1534   7.761   6.693   5.674  0.6151  0.6421  0.6504
  526TIP3    H1 1535   7.667   6.701   5.692  0.7679 -0.4966  2.0541
  526TIP3    H2 1536   7.794   6.636   5.743  1.7446 -1.6674 -1.6940
  527TIP3   OH2 1537   0.320   5.311   6.851 -0.4080 -0.0304  0.2911
  527TIP3    H1 1538   0.373   5.285   6.775  0.8156 -0.2731  1.2163
  527TIP3    H2 1539   0.366   5.272   6.926 -0.4719  1.9237  1.3592
  528TIP3   OH2 1540   6.954   4.085   0.851  1.0972 -0.0279  0.0607
  528TIP3    H1 1541   6.958   4.114   0.760  1.5704  1.0172  0.4046
  528TIP3    H2 1542   6.932   3.992   0.846  0.0879  0.2597 -1.0851
  529TIP3   OH2 1543   6.561   1.177   0.382 -0.1030  0.1207  0.0755
  529TIP3    H1 1544   6.554   1.239   0.310 -2.1976  0.0621  0.2091
  529TIP3    H2 1545   6.494   1.203   0.444 -0.3384 -1.6494  0.6095
  530TIP3   OH2 1546   1.326   3.424   6.757 -0.5425 -0.1322 -0.4296
  530TIP3    H1 1547   1.374   3.401   6.678 -0.4717  0.4032 -0.5443
  530TIP3    H2 1548   1.385   3.400   6.829 -0.4407 -0.2411 -0.5502
  531TIP3   OH2 1549   6.671   0.708   0.187 -0.1116 -0.0078 -0.0821
  531TIP3    H1 1550   6.618   0.780   0.221 -0.8146 -1.0388  1.0318
  531TIP3    H2 1551   6.724   0.680   0.262 -0.1074 -0.8772 -0.4062
  532TIP3   OH2 1552   5.992   4.614   0.430 -0.2226 -0.8153 -0.3974
  532TIP3    H1 1553   5.954   4.630   0.517  1.8440  0.1170  0.3752
  532TIP3    H2 1554   6.009   4.701   0.395  0.8587 -1.2005 -0.8500
  533TIP3   OH2 1555   4.553   2.275   2.218  0.2851 -0.5757 -0.5327
  533TIP3    H1 1556   4.495   2.201   2.236 -0.0040 -0.7597 -2.1669
  533TIP3    H2 1557   4.517   2.315   2.139  1.8717 -0.1436 -1.0552
  534TIP3   OH2 1558   7.749   2.517   0.241 -0.3515  0.6205 -0.0943
  534TIP3    H1 1559   7.799   2.471   0.308 -0.8770  0.7351  0.3799
  534TIP3    H2 1560   7.666   2.540   0.283  0.2512  2.8148 -0.0272
  535TIP3   OH2 1561   7.915   6.550   5.888 -0.0589 -0.2134 -0.2919
  535TIP3    H1 1562   7.989   6.494   5.865  1.2792  1.2886  0.2484
  535TIP3    H2 1563   7.855   6.492   5.935  1.4152 -1.1431  0.4844
  536TIP3   OH2 1564   7.438   5.757   5.270 -0.3668  0.0574  0.0141
  536TIP3    H1 1565   7.381   5.786   5.342 -1.0140 -0.0338 -0.4552
  536TIP3    H2 1566   7.456   5.837   5.221 -0.0667  0.0915  0.1811
  537TIP3   OH2 1567   8.207   6.013   6.785 -0.3389 -0.7593 -0.5565
  537TIP3    H1 1568   8.255   6.017   6.867 -0.0825  1.7367 -0.8017
  537TIP3    H2 1569   8.249   6.078   6.728 -1.3196 -1.5361 -2.2298
  538TIP3   OH2 1570   6.190   2.281   2.186  0.1763  0.1798 -0.3052
  538TIP3    H1 1571   6.136   2.339   2.132  1.6745  1.7952 -0.1517
  538TIP3    H2 1572   6.238   2.227   2.123 -0.4775 -0.2004 -0.4813
  539TIP3   OH2 1573   4.391   0.189   6.038  0.2513  0.1520 -0.1091
  539TIP3    H1 1574   4.306   0.147   6.025  0.9806 -0.8466 -1.7157
  539TIP3    H2 1575   4.380   0.277   6.002 -0.0801  0.0039 -0.3741
  540TIP3   OH2 1576   5.154   1.367   0.558  0.8507 -0.4047 -0.9944
  540TIP3    H1 1577   5.136   1.460   0.544  0.2610 -0.0151  2.0291
  540TIP3    H2 1578   5.214   1.365   0.632 -0.2656 -2.4590 -0.0840
  541TIP3   OH2 1579   2.303   0.195   5.219  0.3955 -0.2273  0.0923
  541TIP3    H1 1580   2.211   0.205   5.196  0.1164  0.8110  1.5740
  541TIP3    H2 1581   2.326   0.278   5.261  1.5003 -1.1766  1.4022
  542TIP3   OH2 1582   7.726   2.571   2.325  0.2040 -0.1239  0.1065
  542TIP3    H1 1583   7.734   2.630   2.400 -0.9245 -1.6759  1.4941
  542TIP3    H2 1584   7.816   2.548   2.303  0.4964 -0.5577  1.7301
  543TIP3   OH2 1585   6.121   1.005   0.069 -0.0011  0.6503  0.0942
  543TIP3    H1 1586   6.215   0.992   0.084 -0.3801 -1.7239  0.5304
  543TIP3    H2 1587   6.112   1.001  -0.026  0.0667 -1.2261  0.1505
  544TIP3   OH2 1588   6.065   1.943   1.110 -0.3081  0.2781 -0.2412
  544TIP3    H1 1589   6.045   2.033   1.137 -0.5436  0.2004 -0.1520
  544TIP3    H2 1590   6.004   1.925   1.039  0.6224  0.6408 -1.1417
  545TIP3   OH2 1591   7.213   4.871   0.014  0.4725  0.1199  0.2477
  545TIP3    H1 1592   7.127   4.910   0.030  0.7917  0.4078  1.3062
  545TIP3    H2 1593   7.210   4.787   0.058  0.3885 -0.3102 -0.5723
  546TIP3   OH2 1594   3.929   2.453   0.994 -0.6167 -0.3432 -0.1606
  546TIP3    H1 1595   3.960   2.525   0.939 -0.3471 -1.2493 -1.2086
  546TIP3    H2 1596   3.895   2.496   1.072  2.9614  0.7335  0.9066
  547TIP3   OH2 1597   7.906   0.080   0.660  0.4070  0.9692  0.7763
  547TIP3    H1 1598   7.817   0.055   0.684  0.8845 -2.4101 -0.6313
  547TIP3    H2 1599   7.901   0.099   0.566  1.3794 -0.4301  0.4307
  548TIP3   OH2 1600   4.198   4.486   2.662 -0.7118  0.1698 -0.1314
  548TIP3    H1 1601   4.251   4.480   2.582  0.2593  2.8526  0.2651
  548TIP3    H2 1602   4.109   4.463   2.634 -0.0758 -0.5312 -1.6251
  549TIP3   OH2 1603   5.239   3.488   2.103  0.2256 -0.0621  0.3703
  549TIP3    H1 1604   5.216   3.526   2.018 -0.0178 -0.8216  0.0889
  549TIP3    H2 1605   5.265   3.398   2.082 -2.1994 -1.0398  1.4003
  550TIP3   OH2 1606   6.347   2.899   3.487  0.3191 -0.2681 -0.4687
  550TIP3    H1 1607   6.426   2.849   3.508 -1.7523 -3.6020 -0.3909
  550TIP3    H2 1608   6.285   2.834   3.454 -2.2814  2.3571 -0.9551
  551TIP3   OH2 1609   6.247   1.290   0.154  0.0554 -0.2615  0.4325
  551TIP3    H1 1610   6.285   1.205   0.176 -0.8125 -0.4899  1.0384
  551TIP3    H2 1611   6.295   1.318   0.076 -1.4467 -2.5381 -1.3684
  552TIP3   OH2 1612   0.713   6.754   4.114  0.1150 -0.0194 -0.1800
  552TIP3    H1 1613   0.804   6.760   4.083  0.0842 -0.0044 -0.2679
  552TIP3    H2 1614   0.674   6.838   4.090  0.1357  0.0559  0.0475
  553TIP3   OH2 1615   6.457   1.400   0.774 -0.3876 -0.2279  0.1264
  553TIP3    H1 1616   6.418   1.320   0.810 -1.3244 -0.2498 -0.8976
  553TIP3    H2 1617   6.499   1.442   0.849 -1.9639 -0.4732  1.1812
  554TIP3   OH2 1618   5.823   1.539   0.404 -0.3754  0.5350 -0.3875
  554TIP3    H1 1619   5.910   1.577   0.393 -0.0820 -0.1781 -0.5438
  554TIP3    H2 1620   5.780   1.596   0.469  0.7196  0.0287  0.8026
  555TIP3   OH2 1621   5.015   2.571   1.517  0.0363 -0.2191  0.1307
  555TIP3    H1 1622   5.095   2.528   1.487  0.6037  1.0867 -0.2678
  555TIP3    H2 1623   4.970   2.505   1.569  1.7754 -0.7336  1.0352
  556TIP3   OH2 1624   8.492   1.656   0.632  0.0032 -0.6715 -0.1022
  556TIP3    H1 1625   8.490   1.744   0.593  0.0515 -1.3968 -1.7674
  556TIP3    H2 1626   8.401   1.627   0.630  0.2810 -1.4571 -1.4062
  557TIP3   OH2 1627   6.568   1.380   1.805  0.5172 -0.2490 -0.2445
  557TIP3    H1 1628   6.543   1.469   1.778  1.1583 -0.0579 -0.2051
  557TIP3    H2 1629   6.494   1.350   1.858 -0.3755 -0.2941 -1.4673
  558TIP3   OH2 1630   3.147   4.965   6.468  0.3024  0.4263 -0.0124
  558TIP3    H1 1631   3.152   5.044   6.521  2.3951  0.1400  0.2553
  558TIP3    H2 1632   3.191   4.898   6.520 -1.8865 -1.0704 -0.0097
  559TIP3   OH2 1633   8.032   1.327   1.847 -0.2140  0.3068  0.4557
  559TIP3    H1 1634   7.972   1.323   1.921  1.2329 -1.3258  1.5696
  559TIP3    H2 1635   8.118   1.341   1.886  0.4077  0.6866 -1.0079
  560TIP3   OH2 1636   2.748   6.336   6.623  0.4752 -0.4074  0.2285
  560TIP3    H1 1637   2.694   6.272   6.577  3.2565 -1.2674 -2.0398
  560TIP3    H2 1638   2.711   6.421   6.601 -0.8139 -1.0425 -0.0609
  561TIP3   OH2 1639   8.353   2.002   1.541 -0.1735  0.1065  0.1433
  561TIP3    H1 1640   8.304   1.955   1.607  0.6574 -0.1487  0.5870
  561TIP3    H2 1641   8.371   1.937   1.473  0.5762 -0.1194  0.5432
  562TIP3   OH2 1642   5.981   1.256   0.821 -0.2228  0.4002  0.2414
  562TIP3    H1 1643   5.923   1.311   0.767  0.1937  0.8766  0.2723
  562TIP3    H2 1644   5.996   1.179   0.767  1.4084  1.5400 -0.9989
  563TIP3   OH2 1645   7.845   2.421   0.480  0.0123  0.5797 -0.3891
  563TIP3    H1 1646   7.835   2.504   0.526  1.9070 -0.1791  1.4796
  563TIP3    H2 1647   7.786   2.361   0.524 -2.8012  1.3519 -2.9653
  564TIP3   OH2 1648   7.787   4.246   0.365  0.2696 -0.2143  0.3323
  564TIP3    H1 1649   7.851   4.222   0.298 -0.7656 -0.5860 -0.5460
  564TIP3    H2 1650   7.709   4.272   0.315 -1.5686 -3.3950  1.3728
  565TIP3   OH2 1651   6.713   0.019   0.868 -0.0011  0.4664 -0.1351
  565TIP3    H1 1652   6.663   0.068   0.803 -0.4510 -1.1098 -1.0071
  565TIP3    H2 1653   6.732   0.083   0.937 -1.8140  1.4927 -0.5562
  566TIP3   OH2 1654   5.682   1.129   0.336  0.3690  0.0107 -0.2984
  566TIP3    H1 1655   5.768   1.087   0.332  0.8471  1.0773 -1.4329
  566TIP3    H2 1656   5.680   1.187   0.260 -1.2476  0.2089 -0.1187
  567TIP3   OH2 1657   6.755   1.938   1.187 -0.5105 -0.7345 -0.6440
  567TIP3    H1 1658   6.787   1.855   1.154  1.4505 -0.2774  0.0589
  567TIP3    H2 1659   6.720   1.983   1.110  0.9327 -1.0568 -1.4896
  568TIP3   OH2 1660   6.073   0.900   1.009  0.0564  0.0350 -0.2063
  568TIP3    H1 1661   6.017   0.830   0.973 -2.3783  0.7986  1.9252
  568TIP3    H2 1662   6.043   0.910   1.099  3.3557  0.8700  0.8330
  569TIP3   OH2 1663   6.458   3.347   0.671 -0.0285  0.0266 -0.1501
  569TIP3    H1 1664   6.462   3.306   0.585 -1.2869  0.4441 -0.4191
  569TIP3    H2 1665   6.461   3.441   0.653 -1.8377  0.1546  0.1484
  570TIP3   OH2 1666   5.348   2.121   1.348  0.0352  0.1010 -0.2468
  570TIP3    H1 1667   5.301   2.038   1.343  0.5376 -0.2021  0.1095
  570TIP3    H2 1668   5.429   2.106   1.299  0.2251  0.3140  0.0038
  571TIP3   OH2 1669   8.110   4.092   4.975  0.5061 -0.2404  0.4444
  571TIP3    H1 1670   8.069   4.080   5.060 -1.0770  0.2041 -0.2351
  571TIP3    H2 1671   8.105   4.007   4.933  0.4767 -0.2369  0.4414
  572TIP3   OH2 1672   7.624   6.862   5.351  0.3163  0.5491  0.0718
  572TIP3    H1 1673   7.579   6.845   5.268  0.1259 -1.5455  0.5878
  572TIP3    H2 1674   7.679   6.938   5.333  0.9836 -0.4448 -2.2473
  573TIP3   OH2 1675   6.969   6.234   6.720  0.4759 -0.5651  0.4433
  573TIP3    H1 1676   6.947   6.145   6.694  1.9072 -1.0949  1.0087
  573TIP3    H2 1677   7.061   6.230   6.746  0.2864  0.8667  1.4088
  574TIP3   OH2 1678   4.142   3.279   0.144 -0.0667  0.0133  0.1049
  574TIP3    H1 1679   4.129   3.359   0.195  1.8122 -0.3410  1.1778
  574TIP3    H2 1680   4.212   3.232   0.190 -0.8721 -2.0682 -0.7367
  575TIP3   OH2 1681   1.377   5.100   6.436 -0.6902 -0.4148  0.3914
  575TIP3    H1 1682   1.356   5.014   6.400  1.7237 -0.3611 -1.3045
  575TIP3    H2 1683   1.297   5.129   6.479 -1.8475 -3.0600  0.0932
  576TIP3   OH2 1684   3.616   1.621   6.900  0.2305 -0.1086  0.1441
  576TIP3    H1 1685   3.657   1.706   6.917 -0.6075  0.0418  1.5038
  576TIP3    H2 1686   3.689   1.563   6.877  0.9204  0.7454  0.1623
  577TIP3   OH2 1687   7.701   2.286   2.366  0.2194  0.7188 -0.0450
  577TIP3    H1 1688   7.661   2.373   2.366  0.4498  0.8234 -0.1458
  577TIP3    H2 1689   7.627   2.226   2.352  0.0532  0.8924  0.0876
  578TIP3   OH2 1690   7.168   1.422   0.049  0.2688 -0.1466 -0.1347
  578TIP3    H1 1691   7.099   1.359   0.067  0.1196 -0.1136 -0.5911
  578TIP3    H2 1692   7.170   1.478   0.127 -1.2744  0.8317 -0.7933
  579TIP3   OH2 1693   3.186   0.194   6.882  0.1331  0.3097 -0.0833
  579TIP3    H1 1694   3.200   0.287   6.898 -0.9713  0.7464 -1.4975
  579TIP3    H2 1695   3.101   0.175   6.922  0.1373  0.0288 -0.2077
  580TIP3   OH2 1696   6.806   2.666   1.159 -0.1657 -0.5536  1.0388
  580TIP3    H1 1697   6.813   2.678   1.253 -0.2919  0.7727  0.8830
  580TIP3    H2 1698   6.849   2.581   1.143  0.6006 -0.3960  2.1756
  581TIP3   OH2 1699   5.071   4.948   2.475  0.0965 -0.3510  0.0994
  581TIP3    H1 1700   5.000   4.995   2.432  0.0119  2.1314  2.8211
  581TIP3    H2 1701   5.101   5.007   2.544  1.5170 -3.3473  2.1877
  582TIP3   OH2 1702   7.431   2.295   0.780  0.0670  0.5609 -0.0867
  582TIP3    H1 1703   7.383   2.352   0.719  0.0312  3.1964  2.3250
  582TIP3    H2 1704   7.363   2.262   0.839  0.2406 -1.3023 -0.8842
  583TIP3   OH2 1705   6.774   4.034   2.271  0.0129 -0.1521  0.1577
  583TIP3    H1 1706   6.754   4.093   2.343  1.2206 -0.5446  0.8191
  583TIP3    H2 1707   6.688   4.001   2.243 -0.7181  2.3041 -0.5806
  584TIP3   OH2 1708   7.342   5.655   6.902  0.0087  0.3160 -0.5904
  584TIP3    H1 1709   7.263   5.633   6.853 -0.1908  0.4113 -0.3096
  584TIP3    H2 1710   7.326   5.620   6.989 -0.0814  1.1030 -0.2952
  585TIP3   OH2 1711   1.364   5.073   5.332  0.3023  0.0022  0.1107
  585TIP3    H1 1712   1.382   4.979   5.331 -0.5867 -0.1718  0.2058
  585TIP3    H2 1713   1.410   5.105   5.410  0.5170 -0.3760  0.1399
  586TIP3   OH2 1714   6.375   1.765   0.299  0.3215 -0.6062 -0.0472
  586TIP3    H1 1715   6.347   1.674   0.310  1.9820 -1.2967 -1.4291
  586TIP3    H2 1716   6.469   1.760   0.283  0.4287  1.3593 -0.1875
  587TIP3   OH2 1717   7.292   0.633   1.983 -0.0824  0.3337  0.0934
  587TIP3    H1 1718   7.245   0.550   1.992 -0.3153  0.7256  2.9300
  587TIP3    H2 1719   7.363   0.628   2.048  1.0272  1.5996 -0.9906
  588TIP3   OH2 1720   7.726   1.290   0.875 -0.3364  0.5561  0.0694
  588TIP3    H1 1721   7.679   1.211   0.849 -0.3321  0.3371  0.7454
  588TIP3    H2 1722   7.657   1.356   0.885 -0.5173  0.1789  1.2749
  589TIP3   OH2 1723   3.066   7.827   0.773 -0.1128  0.5876  0.4834
  589TIP3    H1 1724   3.161   7.828   0.785 -0.0891  1.1104  0.2808
  589TIP3    H2 1725   3.038   7.740   0.803  0.5099  0.1819 -0.0999
  590TIP3   OH2 1726   0.724   2.895   2.020 -0.2881  0.3289  0.1989
  590TIP3    H1 1727   0.789   2.909   2.089  0.0371  3.6423 -0.6878
  590TIP3    H2 1728   0.776   2.871   1.943 -0.6595 -3.4975  1.0323
  591TIP3   OH2 1729   4.527   1.436   1.274  0.0489  0.2165  0.1419
  591TIP3    H1 1730   4.507   1.410   1.364 -2.1026  1.5880  0.0846
  591TIP3    H2 1731   4.518   1.355   1.224 -0.1994 -0.2441  0.9245
  592TIP3   OH2 1732   5.981   2.396   0.988 -0.3871  0.4213 -0.0561
  592TIP3    H1 1733   6.061   2.442   1.012 -0.9534  0.2289  2.3170
  592TIP3    H2 1734   5.976   2.322   1.048 -2.0126  0.0654 -0.5927
  593TIP3   OH2 1735   1.345   4.088   6.548 -0.7023  0.4946 -0.1172
  593TIP3    H1 1736   1.413   4.121   6.489  0.3515  0.4237  1.0154
  593TIP3    H2 1737   1.333   3.997   6.521 -0.0899  0.4085 -0.1251
  594TIP3   OH2 1738   5.218   4.592   0.617  0.2375 -0.4007  0.1293
  594TIP3    H1 1739   5.181   4.613   0.532 -0.1631  0.1515  0.4363
  594TIP3    H2 1740   5.149   4.544   0.663  0.2060 -0.1041  0.3941
  595TIP3   OH2 1741   5.486   3.778   0.735  0.1659  0.1304  0.6583
  595TIP3    H1 1742   5.513   3.870   0.732 -3.2924  1.2320  1.2425
  595TIP3    H2 1743   5.480   3.752   0.643  0.4827  0.6761  0.4787
  596TIP3   OH2 1744   7.489   3.351   0.907 -0.4111 -0.4496  0.1865
  596TIP3    H1 1745   7.529   3.428   0.946  2.1956 -1.5310 -0.2446
  596TIP3    H2 1746   7.401   3.348   0.943 -0.2548  2.2357  0.8568
  597TIP3   OH2 1747   6.567   3.213   0.129  0.5636  0.4680  0.1030
  597TIP3    H1 1748   6.656   3.249   0.120  0.9100 -0.4168 -0.0659
  597TIP3    H2 1749   6.534   3.208   0.039  0.6377  0.0626  0.0981
  598TIP3   OH2 1750   5.646   4.405   2.275 -0.4373 -0.1523  0.2492
  598TIP3    H1 1751   5.571   4.351   2.300 -0.9711  0.3968 -0.1515
  598TIP3    H2 1752   5.708   4.344   2.235 -0.8737 -0.5351  0.1582
  599TIP3   OH2 1753   7.196   1.781   0.574 -0.0075  0.5356 -0.1114
  599TIP3    H1 1754   7.140   1.783   0.651  0.0011  0.0801 -0.0869
  599TIP3    H2 1755   7.269   1.839   0.594 -0.3404  0.9258 -0.0385
  600TIP3   OH2 1756   6.699   1.813   0.606 -0.1950 -0.4036  0.5671
  600TIP3    H1 1757   6.737   1.814   0.693 -1.6102 -1.9803  1.2423
  600TIP3    H2 1758   6.763   1.765   0.553  1.0699  1.3045  0.5106
  601TIP3   OH2 1759   4.642   1.424   6.643 -0.3574  0.0818 -0.0830
  601TIP3    H1 1760   4.602   1.340   6.666  0.3770  0.2986  2.1218
  601TIP3    H2 1761   4.726   1.401   6.602  1.1077 -0.2808  2.9804
  602TIP3   OH2 1762   6.178   3.491   2.014 -0.3101 -0.2580 -0.2069
  602TIP3    H1 1763   6.214   3.417   2.063 -0.3587  0.2046  0.5297
  602TIP3    H2 1764   6.092   3.507   2.054 -1.2270 -1.1720 -1.7621
  603TIP3   OH2 1765   6.523   2.010   2.279 -0.0784  0.4890 -0.6174
  603TIP3    H1 1766   6.480   2.083   2.234  0.3474  0.9819 -0.2207
  603TIP3    H2 1767   6.597   2.050   2.324  0.1704 -0.1952 -0.4231
  604TIP3   OH2 1768   5.238   3.476   0.756 -0.5289 -0.3889 -0.3141
  604TIP3    H1 1769   5.312   3.426   0.790 -1.2371 -2.2060 -1.4167
  604TIP3    H2 1770   5.202   3.520   0.834  0.1363 -1.5323  0.6553
  605TIP3   OH2 1771   5.576   1.793   1.848  0.0942 -0.6704  0.7631
  605TIP3    H1 1772   5.638   1.866   1.845 -0.1311 -0.4962  0.3912
  605TIP3    H2 1773   5.584   1.759   1.937  0.3106 -0.2908  0.8898
  606TIP3   OH2 1774   7.114   6.995   6.703 -0.1873 -0.6196  0.5005
  606TIP3    H1 1775   7.174   6.924   6.681  1.7421  0.7109  1.2131
  606TIP3    H2 1776   7.028   6.963   6.678  0.6737 -3.0489  0.4714
  607TIP3   OH2 1777   7.634   5.734   6.897 -0.2113  0.0066  0.5377
  607TIP3    H1 1778   7.556   5.683   6.881  0.5535 -0.9740 -0.1064
  607TIP3    H2 1779   7.690   5.719   6.821  0.6587  0.5991  1.0369
  608TIP3   OH2 1780   4.176   0.353   1.926 -0.3317 -0.3061  0.2792
  608TIP3    H1 1781   4.153   0.339   1.834  0.4573 -2.0872  0.3343
  608TIP3    H2 1782   4.204   0.444   1.930 -1.2878  0.0700 -1.0452
  609TIP3   OH2 1783   1.160   7.001   6.802 -0.0513 -0.1957  0.1874
  609TIP3    H1 1784   1.105   7.010   6.880  0.4928  0.0106  0.5579
  609TIP3    H2 1785   1.159   6.908   6.782 -1.5996 -0.0199 -0.6041
  610TIP3   OH2 1786   5.548   2.550   2.050 -0.0778  0.4182 -0.3072
  610TIP3    H1 1787   5.455   2.529   2.047 -0.8740  3.6916 -0.2030
  610TIP3    H2 1788   5.552   2.644   2.032  3.1516  0.4351  0.2525
  611TIP3   OH2 1789   0.262   3.472   0.944 -0.2780  0.3575  0.0339
  611TIP3    H1 1790   0.299   3.523   1.017  0.6690 -2.5170  1.6589
  611TIP3    H2 1791   0.172   3.455   0.970 -0.7861  1.7055 -0.8071
  612TIP3   OH2 1792   4.796   3.613   0.414 -0.4452 -0.0813 -0.4644
  612TIP3    H1 1793   4.798   3.529   0.460 -1.9653 -0.0532 -0.3213
  612TIP3    H2 1794   4.873   3.660   0.445  0.1187 -1.2119 -0.1361
  613TIP3   OH2 1795   0.253   4.555   0.675  0.3507 -0.0146 -0.2654
  613TIP3    H1 1796   0.299   4.555   0.590  0.3696  1.4683 -0.2691
  613TIP3    H2 1797   0.213   4.468   0.681  0.6445 -0.2542 -1.6399
  614TIP3   OH2 1798   6.283   3.984   0.552 -0.1843  0.3746  0.8634
  614TIP3    H1 1799   6.224   3.952   0.484  1.1749  1.4096 -0.8501
  614TIP3    H2 1800   6.225   4.015   0.622 -1.5957 -0.7784  0.2325
  615TIP3   OH2 1801   8.211   5.440   1.374 -0.5348 -0.0918  0.1267
  615TIP3    H1 1802   8.168   5.425   1.459  2.5674  0.6944  1.9037
  615TIP3    H2 1803   8.285   5.380   1.373 -0.5956 -0.1802 -2.1402
  616TIP3   OH2 1804   6.633   2.082   0.992 -0.1248  0.6344  0.1513
  616TIP3    H1 1805   6.662   2.120   0.910 -0.2341  0.0287 -0.1735
  616TIP3    H2 1806   6.555   2.031   0.969 -0.4076  0.8143  0.7029
  617TIP3   OH2 1807   7.482   2.689   0.603  0.0384 -0.5052  0.2064
  617TIP3    H1 1808   7.570   2.725   0.611 -0.0683 -0.3246  0.5647
  617TIP3    H2 1809   7.460   2.657   0.690 -1.1489  1.5664  0.7129
  618TIP3   OH2 1810   7.232   3.634   1.075  0.1687  0.3677 -0.5075
  618TIP3    H1 1811   7.265   3.558   1.122  2.9105  0.7560 -1.7454
  618TIP3    H2 1812   7.138   3.618   1.067  0.4050 -1.9283  0.9769
  619TIP3   OH2 1813   1.514   5.642   6.348 -0.6580  0.3320 -0.0137
  619TIP3    H1 1814   1.481   5.679   6.266  0.5058  1.1609 -0.1231
  619TIP3    H2 1815   1.608   5.661   6.347 -0.3905 -0.9071  0.8567
  620TIP3   OH2 1816   7.092   1.878   0.328 -0.0566  0.3805 -0.8907
  620TIP3    H1 1817   7.164   1.936   0.304 -0.0227  0.2022 -1.2182
  620TIP3    H2 1818   7.109   1.854   0.419  0.0797  0.6598 -0.8430
  621TIP3   OH2 1819   8.408   2.930   0.203  0.1688 -0.0027  0.0333
  621TIP3    H1 1820   8.434   3.021   0.216 -0.5254  0.6324 -2.7563
  621TIP3    H2 1821   8.385   2.899   0.291 -1.6872  3.1590  0.7297
  622TIP3   OH2 1822   7.457   1.610   2.461 -0.2355  0.2209 -0.2504
  622TIP3    H1 1823   7.453   1.552   2.536  1.0025  0.4039 -0.0224
  622TIP3    H2 1824   7.469   1.697   2.499 -2.5902  0.7000 -0.5695
  623TIP3   OH2 1825   7.443   2.948   1.520 -0.6100  0.0403 -0.0242
  623TIP3    H1 1826   7.522   2.999   1.534  0.3225 -0.8161 -1.9504
  623TIP3    H2 1827   7.412   2.974   1.433 -2.6581  0.6198  0.8443
  624TIP3   OH2 1828   6.716   0.884   0.603 -0.1041 -0.3985  0.5841
  624TIP3    H1 1829   6.697   0.813   0.665  1.9556 -0.4993  1.1420
  624TIP3    H2 1830   6.738   0.958   0.659  3.8453 -1.0674  0.0219
  625TIP3   OH2 1831   6.431   2.678   1.498  0.4437  0.1641  0.3138
  625TIP3    H1 1832   6.524   2.673   1.521  0.6683  2.6935  0.0732
  625TIP3    H2 1833   6.393   2.732   1.567 -1.2803 -2.4604  1.5196
  626TIP3   OH2 1834   0.819   4.246   6.130 -0.0734  0.5004 -0.2129
  626TIP3    H1 1835   0.740   4.295   6.152 -0.4568  0.2607 -1.0407
  626TIP3    H2 1836   0.891   4.307   6.147 -0.4930  1.0496 -0.4053
  627TIP3   OH2 1837   8.226   0.744   0.953  0.3568  0.0797 -0.0867
  627TIP3    H1 1838   8.250   0.748   0.861  0.4263  2.7680  0.0176
  627TIP3    H2 1839   8.277   0.671   0.988  0.6382 -0.7023 -2.0655
  628TIP3   OH2 1840   7.627   2.087   0.425  0.5182  0.3723  0.0980
  628TIP3    H1 1841   7.591   2.096   0.337  1.5216  0.4804 -0.3016
  628TIP3    H2 1842   7.699   2.025   0.416  0.7354  0.5152  0.8155
  629TIP3   OH2 1843   0.063   3.707   3.092  0.1913  0.0077  0.2428
  629TIP3    H1 1844   0.144   3.658   3.079  0.0827 -0.3023  0.7201
  629TIP3    H2 1845   0.092   3.795   3.116  0.3852  0.2555 -0.9017
  630TIP3   OH2 1846   0.535   7.696   6.496  0.3578 -0.2999 -0.0789
  630TIP3    H1 1847   0.558   7.779   6.455  0.7416 -0.7152 -0.7193
  630TIP3    H2 1848   0.619   7.658   6.522  0.0674  0.3204  1.8189
  631TIP3   OH2 1849   2.112   6.948   6.838  0.3657 -0.4758  0.0781
  631TIP3    H1 1850   2.144   7.004   6.908 -3.5715  1.1238  0.7856
  631TIP3    H2 1851   2.186   6.938   6.778  1.5699  4.5626  0.5449
  632TIP3   OH2 1852   7.351   4.109   0.406 -0.1901 -0.1137  0.0538
  632TIP3    H1 1853   7.302   4.033   0.377  1.3713 -0.3233 -2.2375
  632TIP3    H2 1854   7.321   4.126   0.495 -1.8907 -2.2690 -0.0867
  633TIP3   OH2 1855   7.891   3.900   1.230  0.1372 -0.7004  0.1610
  633TIP3    H1 1856   7.818   3.950   1.195  0.2925 -1.3574 -1.1274
  633TIP3    H2 1857   7.933   3.861   1.153  2.3083  0.2732  0.7892
  634TIP3   OH2 1858   3.859   7.878   1.329 -0.2688  0.1353  0.2300
  634TIP3    H1 1859   3.858   7.896   1.423  0.0165 -0.0522  0.2706
  634TIP3    H2 1860   3.811   7.950   1.290 -0.4640  0.1675  0.5303
  635TIP3   OH2 1861   8.103   1.057   2.802 -0.4976  0.0941  0.2901
  635TIP3    H1 1862   8.150   1.128   2.845 -2.0689 -0.2651  2.6831
  635TIP3    H2 1863   8.118   0.981   2.858 -2.2480 -0.4781  0.0121
  636TIP3   OH2 1864   0.548   3.510   1.987  0.2848  0.1612 -0.0448
  636TIP3    H1 1865   0.458   3.535   1.963  0.8335  1.3528 -0.9218
  636TIP3    H2 1866   0.546   3.415   1.992 -0.9579  0.1588 -0.3725
  637TIP3   OH2 1867   8.321   0.637   2.176  0.1308 -0.7220  0.0238
  637TIP3    H1 1868   8.399   0.685   2.206 -0.5464  0.6573 -0.3791
  637TIP3    H2 1869   8.281   0.605   2.256  0.3145 -0.1710  0.3423
  638TIP3   OH2 1870   0.184   7.610   4.651 -0.0243  0.0670 -0.1578
  638TIP3    H1 1871   0.165   7.699   4.621 -0.0655  0.0170 -0.2778
  638TIP3    H2 1872   0.100   7.565   4.646 -0.3247  0.4222  1.2821
  639TIP3   OH2 1873   7.450   1.302   0.049  0.1999 -0.8112 -0.0104
  639TIP3    H1 1874   7.435   1.210   0.071 -0.8369 -0.9726 -1.3105
  639TIP3    H2 1875   7.366   1.331   0.014 -0.1284  1.2231  2.3357
  640TIP3   OH2 1876   7.237   1.296   1.273  0.2531  0.0648 -0.0591
  640TIP3    H1 1877   7.243   1.378   1.322  0.6129  0.3404 -0.5634
  640TIP3    H2 1878   7.327   1.275   1.248  0.1957 -0.6200  0.2864
  641TIP3   OH2 1879   7.648   2.470   1.096 -0.6215 -0.3431 -0.1475
  641TIP3    H1 1880   7.638   2.535   1.166  1.6579  1.0298 -1.0398
  641TIP3    H2 1881   7.642   2.386   1.141  1.8767  0.5099  1.9042
  642TIP3   OH2 1882   6.186   3.410   1.737  0.2320 -0.6963 -0.1207
  642TIP3    H1 1883   6.236   3.491   1.721 -2.0016  0.6000 -0.7571
  642TIP3    H2 1884   6.211   3.384   1.825 -0.9808  2.1640  1.1320
  643TIP3   OH2 1885   7.503   3.883   0.698  0.1879  0.1115  0.3861
  643TIP3    H1 1886   7.572   3.865   0.762  1.2276  0.0400 -0.7272
  643TIP3    H2 1887   7.550   3.889   0.614 -1.2567 -0.7024 -0.4907
  644TIP3   OH2 1888   7.435   5.077   1.498 -0.1538 -0.3432  0.5797
  644TIP3    H1 1889   7.381   5.006   1.463 -0.9393  0.4273  0.2258
  644TIP3    H2 1890   7.499   5.033   1.554  0.3105 -1.4773 -0.8124
  645TIP3   OH2 1891   2.725   6.833   6.887 -0.0465  0.2974  0.0011
  645TIP3    H1 1892   2.716   6.881   6.970  1.6511 -0.4740  0.6583
  645TIP3    H2 1893   2.781   6.889   6.833 -2.7981  1.7506 -1.4052
  646TIP3   OH2 1894   6.066   0.905   6.298 -0.6479  0.1529 -0.9128
  646TIP3    H1 1895   6.143   0.957   6.275 -0.1453 -0.4556 -0.6268
  646TIP3    H2 1896   6.096   0.814   6.294 -1.5382 -0.1242 -1.4829
  647TIP3   OH2 1897   7.124   2.730   1.846 -0.1978  0.0847 -0.0693
  647TIP3    H1 1898   7.167   2.678   1.914  3.5569  1.2995 -1.3737
  647TIP3    H2 1899   7.154   2.819   1.861 -2.1337  0.9574 -1.2111
  648TIP3   OH2 1900   8.192   6.461   5.469 -0.2097  0.2095 -0.1173
  648TIP3    H1 1901   8.159   6.458   5.379  0.8587 -3.0691 -0.4851
  648TIP3    H2 1902   8.124   6.418   5.520  0.3478 -0.2928  0.2065
  649TIP3   OH2 1903   7.326   2.987   2.239  0.4897 -0.2660 -0.1965
  649TIP3    H1 1904   7.403   2.930   2.242  1.7460  1.3993 -0.2670
  649TIP3    H2 1905   7.310   3.010   2.331  0.4766 -0.0874 -0.2437
  650TIP3   OH2 1906   7.063   3.908   2.711  0.1008  0.2797  0.5285
  650TIP3    H1 1907   7.128   3.873   2.650 -0.3051 -0.6657  0.6323
  650TIP3    H2 1908   7.114   3.937   2.787  0.3437 -0.9593  0.8370
  651TIP3   OH2 1909   8.146   1.978   1.124  0.2998 -0.2420  0.0220
  651TIP3    H1 1910   8.171   2.046   1.187  1.5138  1.6004 -2.4173
  651TIP3    H2 1911   8.050   1.977   1.128  0.3059  0.8223  0.8784
  652TIP3   OH2 1912   7.885   1.761   2.340 -0.0729 -0.3816 -0.8665
  652TIP3    H1 1913   7.806   1.803   2.376 -0.1633 -2.1737  1.1173
  652TIP3    H2 1914   7.953   1.828   2.347 -0.7176  0.1797  0.2125
  653TIP3   OH2 1915   8.264   4.539   2.888  0.1478  0.5200 -0.2192
  653TIP3    H1 1916   8.247   4.516   2.980 -0.5447  1.2384 -0.1675
  653TIP3    H2 1917   8.359   4.528   2.879  0.0497 -0.8777  0.2144
  654TIP3   OH2 1918   7.305   4.220   2.805  0.0525 -0.1963 -0.7196
  654TIP3    H1 1919   7.269   4.134   2.826  0.4303 -0.0928  0.3953
  654TIP3    H2 1920   7.252   4.282   2.855  1.8266 -0.0557  1.0626
  655TIP3   OH2 1921   0.992   2.774   2.397 -0.6088 -0.0882 -0.0313
  655TIP3    H1 1922   1.063   2.710   2.398 -1.0984 -0.6673 -0.6885
  655TIP3    H2 1923   0.998   2.819   2.481 -1.1942 -2.0786  1.1173
  656TIP3   OH2 1924   1.198   2.785   1.505 -0.2583 -0.4925 -0.2070
  656TIP3    H1 1925   1.287   2.806   1.476 -0.2047  2.4677  1.8826
  656TIP3    H2 1926   1.210   2.729   1.581 -0.0098  2.0773  1.7382
  657TIP3   OH2 1927   7.108   4.113   4.602  0.2963  0.4023 -0.7349
  657TIP3    H1 1928   7.166   4.078   4.534  0.6985 -0.5967  0.1046
  657TIP3    H2 1929   7.166   4.128   4.677 -0.8305 -2.4393  0.7624
  658TIP3   OH2 1930   8.381   2.295   2.708 -0.0664 -0.5654  0.0881
  658TIP3    H1 1931   8.465   2.280   2.666  0.5266  0.3960  0.9149
  658TIP3    H2 1932   8.325   2.330   2.638  0.4923 -0.3329 -0.2500
  659TIP3   OH2 1933   0.452   4.222   1.840  0.0523  0.3714 -0.1860
  659TIP3    H1 1934   0.511   4.168   1.788  1.0828  0.9388  0.3780
  659TIP3    H2 1935   0.425   4.293   1.781 -0.1949  0.0190 -0.4951
  660TIP3   OH2 1936   8.405   4.749   1.878  0.0928  0.0737  0.0048
  660TIP3    H1 1937   8.440   4.825   1.925 -0.6613  0.3877  0.0693
  660TIP3    H2 1938   8.444   4.674   1.922 -1.4541  0.3217  1.8386
  661TIP3   OH2 1939   1.333   1.995   4.135 -0.3546  0.3933 -0.3307
  661TIP3    H1 1940   1.247   1.995   4.177 -0.2780  1.0241 -0.1665
  661TIP3    H2 1941   1.358   1.902   4.131 -0.4559  0.3062  0.8329
  662TIP3   OH2 1942   0.680   2.463  -0.024  0.2788  0.1950  0.4692
  662TIP3    H1 1943   0.736   2.419   0.040 -0.1361 -2.7175 -1.0761
  662TIP3    H2 1944   0.615   2.510   0.028  1.5236  0.0272  2.1936
  663TIP3   OH2 1945   8.466   3.856   3.341 -0.1861 -0.1075 -0.4151
  663TIP3    H1 1946   8.550   3.811   3.337  0.6623  1.5821 -2.4876
  663TIP3    H2 1947   8.405   3.795   3.299  0.8349  0.3597 -2.6329
  664TIP3   OH2 1948   0.777   3.286   0.054  0.1821 -0.7209  0.3222
  664TIP3    H1 1949   0.693   3.248   0.079  1.3079 -2.5295  1.4834
  664TIP3    H2 1950   0.800   3.242  -0.028  0.3436 -0.8134  0.4149
  665TIP3   OH2 1951   8.140   2.146   1.319 -0.1635 -0.9626  0.0705
  665TIP3    H1 1952   8.046   2.135   1.328 -0.6779  3.8531  2.1348
  665TIP3    H2 1953   8.174   2.144   1.408  1.2968 -0.0492 -0.4327
  666TIP3   OH2 1954   0.462   6.273   4.263  0.4854 -0.3532 -0.9810
  666TIP3    H1 1955   0.410   6.228   4.197  1.9815 -0.8959 -1.8217
  666TIP3    H2 1956   0.437   6.365   4.256 -0.4788 -0.6307 -1.2362
  667TIP3   OH2 1957   8.270   6.301   2.984 -0.0642 -0.4836 -0.3655
  667TIP3    H1 1958   8.198   6.283   2.923 -0.8638 -0.2223  0.4741
  667TIP3    H2 1959   8.231   6.358   3.050  1.0369 -0.0149 -0.1133
  668TIP3   OH2 1960   7.296   2.408   3.430 -1.0620 -0.3789 -0.8720
  668TIP3    H1 1961   7.337   2.465   3.365 -0.9671  2.3670  1.4835
  668TIP3    H2 1962   7.368   2.355   3.465 -0.2356  1.4219  0.2310
  669TIP3   OH2 1963   7.370   3.179   2.495  0.2465  0.0639 -0.0626
  669TIP3    H1 1964   7.439   3.205   2.556 -0.2212  1.0727  0.0421
  669TIP3    H2 1965   7.333   3.261   2.464  0.2303 -0.4541 -1.4298
  670TIP3   OH2 1966   7.302   1.739   1.847 -0.2627 -0.7407 -0.0366
  670TIP3    H1 1967   7.207   1.729   1.837 -0.3947 -0.3767  0.8226
  670TIP3    H2 1968   7.339   1.658   1.811 -0.8853 -0.7463 -0.6587
  671TIP3   OH2 1969   0.020   2.880   3.847  0.5665  0.3492  0.3185
  671TIP3    H1 1970   0.011   2.787   3.865  0.4475  0.1022 -0.9196
  671TIP3    H2 1971   0.079   2.884   3.772 -1.8121  1.0695 -1.5834
  672TIP3   OH2 1972   8.115   3.222   2.700  0.1000 -0.3024  0.0179
  672TIP3    H1 1973   8.200   3.264   2.710  0.4438 -1.3485  1.7718
  672TIP3    H2 1974   8.053   3.282   2.741 -0.1155  0.6952 -1.6965
  673TIP3   OH2 1975   1.972   3.748   2.012 -0.0599 -0.0758  0.9966
  673TIP3    H1 1976   1.901   3.800   1.974  2.4028  2.3592 -0.4160
  673TIP3    H2 1977   1.987   3.677   1.950 -1.9888 -1.2835  1.8710
  674TIP3   OH2 1978   0.956   4.644   1.084 -0.6598  0.4646  0.1890
  674TIP3    H1 1979   0.997   4.647   1.171  0.3293  1.3063 -0.3013
  674TIP3    H2 1980   1.008   4.581   1.035 -1.5159 -0.3762  0.3498
  675TIP3   OH2 1981   2.107   3.855   2.971 -0.0938  0.3076  0.3194
  675TIP3    H1 1982   2.141   3.926   2.916  2.4103  2.2930  4.1630
  675TIP3    H2 1983   2.183   3.825   3.021 -2.1403 -1.6952  2.3535
  676TIP3   OH2 1984   7.848   2.881   3.913 -0.1644  0.1205  0.4939
  676TIP3    H1 1985   7.871   2.810   3.853  0.0684  0.0968  0.6133
  676TIP3    H2 1986   7.928   2.932   3.922 -0.7233  1.2628 -0.7691
  677TIP3   OH2 1987   4.654   6.503   5.756 -0.0162 -0.0626  0.6843
  677TIP3    H1 1988   4.698   6.457   5.828  1.7150  0.4539 -0.0082
  677TIP3    H2 1989   4.726   6.532   5.699 -1.1037  2.6266  0.6085
  678TIP3   OH2 1990   8.040   5.939   1.475 -0.4088 -0.2482  0.2525
  678TIP3    H1 1991   8.019   5.871   1.411 -1.4230  1.5286 -1.3523
  678TIP3    H2 1992   7.965   5.997   1.474  0.1437  0.5469  2.1211
  679TIP3   OH2 1993   0.894   2.836   2.844 -0.6463 -0.1076 -0.5511
  679TIP3    H1 1994   0.879   2.761   2.786 -1.3448  1.5843 -2.6031
  679TIP3    H2 1995   0.807   2.864   2.871 -0.3806 -0.0482  0.2686
  680TIP3   OH2 1996   0.923   3.463   2.100  0.2270  0.3298  0.3111
  680TIP3    H1 1997   0.982   3.533   2.128 -0.6685  1.1038  0.2528
  680TIP3    H2 1998   0.915   3.407   2.177  0.6183  0.5046  0.4829
  681TIP3   OH2 1999   2.357   1.505   0.742 -0.2696  0.3969 -0.2783
  681TIP3    H1 2000   2.346   1.573   0.809  1.3846  1.7191 -1.2873
  681TIP3    H2 2001   2.351   1.552   0.659 -1.2218 -1.0531 -1.0522
  682TIP3   OH2 2002   2.169   2.790   2.020 -0.1790  0.1587 -0.6711
  682TIP3    H1 2003   2.095   2.763   2.074 -0.3649 -1.6395 -1.7807
  682TIP3    H2 2004   2.149   2.880   1.995 -1.4970  0.0171 -0.1538
  683TIP3   OH2 2005   8.055   2.488   1.408  0.0204 -0.1518  0.5076
  683TIP3    H1 2006   7.972   2.513   1.448  0.5857  1.1361  0.9082
  683TIP3    H2 2007   8.033   2.472   1.316 -0.4669  1.3651  0.3443
  684TIP3   OH2 2008   1.366   6.282   4.237  0.3841 -0.2902 -0.2749
  684TIP3    H1 2009   1.338   6.205   4.287  2.0278 -1.5121 -1.2044
  684TIP3    H2 2010   1.460   6.286   4.251  0.2461  1.8534  0.1360
  685TIP3   OH2 2011   0.955   3.497   3.451  0.2814  0.5049 -0.0640
  685TIP3    H1 2012   1.050   3.510   3.443  1.0279 -3.1161  1.5511
  685TIP3    H2 2013   0.925   3.568   3.507  2.4731  0.3514  1.3560
  686TIP3   OH2 2014   2.314   5.414   2.456  0.7817 -0.1406 -0.2180
  686TIP3    H1 2015   2.227   5.375   2.470  1.2277 -1.5149 -1.1866
  686TIP3    H2 2016   2.374   5.351   2.497  1.3440  0.6804  0.2144
  687TIP3   OH2 2017   0.640   3.650   2.255  0.3789 -0.4590  0.4924
  687TIP3    H1 2018   0.649   3.557   2.236  0.6667 -0.2668 -0.3111
  687TIP3    H2 2019   0.630   3.692   2.169  0.3420  0.2569  0.8408
  688TIP3   OH2 2020   0.152   2.916   2.552  0.1754 -0.2636  0.2008
  688TIP3    H1 2021   0.072   2.878   2.587  1.0666 -0.5799  1.9780
  688TIP3    H2 2022   0.167   2.869   2.469 -2.1469  0.7201 -0.8073
  689TIP3   OH2 2023   8.239   4.399   3.112 -0.8162 -0.1121 -0.0880
  689TIP3    H1 2024   8.143   4.399   3.117 -0.7379 -1.4944  2.1927
  689TIP3    H2 2025   8.268   4.399   3.203  1.3749  1.0890 -0.7518
  690TIP3   OH2 2026   0.543   4.194   1.152 -0.1029 -0.4779  0.0501
  690TIP3    H1 2027   0.586   4.265   1.200 -1.0927 -1.2585  2.1304
  690TIP3    H2 2028   0.515   4.133   1.219 -2.7699 -0.9386 -1.3993
  691TIP3   OH2 2029   2.395   3.036   2.949 -0.2120  0.0403  0.1393
  691TIP3    H1 2030   2.414   3.048   2.856  0.2976 -2.4692 -0.1260
  691TIP3    H2 2031   2.301   3.020   2.952  0.1307 -2.2533 -0.2593
  692TIP3   OH2 2032   1.628   3.463   1.923  0.8965  0.3388 -0.1140
  692TIP3    H1 2033   1.659   3.444   1.835  0.8948  1.4275 -0.3602
  692TIP3    H2 2034   1.639   3.558   1.932 -2.4334  0.7886 -0.2406
  693TIP3   OH2 2035   2.335   3.598   1.037 -0.3976  0.7606  0.5217
  693TIP3    H1 2036   2.381   3.545   1.103 -0.9821 -0.2162  0.1534
  693TIP3    H2 2037   2.254   3.550   1.020 -0.7072  1.5224 -0.1888
  694TIP3   OH2 2038   0.449   4.270   2.925  0.0964  0.0532  0.2327
  694TIP3    H1 2039   0.519   4.300   2.983 -0.0302  1.6309 -0.3937
  694TIP3    H2 2040   0.433   4.180   2.951  1.2445  0.1897  1.4743
  695TIP3   OH2 2041   1.914   5.510   2.364 -0.2826 -0.5190  0.2454
  695TIP3    H1 2042   1.952   5.442   2.420  0.8239 -2.2154 -2.4593
  695TIP3    H2 2043   1.925   5.591   2.414  3.1426 -1.5671  1.3585
  696TIP3   OH2 2044   1.784   4.417   2.733 -0.3272 -0.1209  0.0668
  696TIP3    H1 2045   1.690   4.429   2.727 -0.1831  2.2274  1.7303
  696TIP3    H2 2046   1.795   4.323   2.747 -2.2561 -0.7495 -2.3091
  697TIP3   OH2 2047   3.201   2.594   0.919  0.8494  0.0654 -0.5173
  697TIP3    H1 2048   3.118   2.641   0.925  0.3922 -0.8129  0.2405
  697TIP3    H2 2049   3.268   2.660   0.937  0.3335  0.8668 -1.5517
  698TIP3   OH2 2050   3.649   5.830   6.147 -0.4207 -0.0836 -0.3995
  698TIP3    H1 2051   3.717   5.786   6.097  0.6378  1.3591 -0.2750
  698TIP3    H2 2052   3.568   5.788   6.121  0.4410 -1.2961 -1.1426
  699TIP3   OH2 2053   1.278   2.327   2.755 -0.1309  0.3072 -0.1398
  699TIP3    H1 2054   1.207   2.368   2.706 -1.2905 -0.6901  0.6942
  699TIP3    H2 2055   1.242   2.243   2.785  1.9355 -1.0027 -1.1744
  700TIP3   OH2 2056   1.677   2.628   0.781  0.2361 -0.7093 -0.2741
  700TIP3    H1 2057   1.663   2.720   0.757 -1.2506 -1.5111 -2.6973
  700TIP3    H2 2058   1.753   2.601   0.729  0.0337 -1.1079 -0.3672
  701TIP3   OH2 2059   3.337   6.183   6.905 -0.0936 -0.2521  0.6279
  701TIP3    H1 2060   3.408   6.205   6.965 -0.8826  2.7793  0.5575
  701TIP3    H2 2061   3.376   6.124   6.841  1.9657  0.1826  1.4447
  702TIP3   OH2 2062   1.920   3.740   0.700  0.3921 -0.4013  0.0885
  702TIP3    H1 2063   2.006   3.760   0.736  0.0564 -0.2127  0.8167
  702TIP3    H2 2064   1.921   3.646   0.684  1.5618 -0.0303 -2.2029
  703TIP3   OH2 2065   0.906   2.323   0.713  0.0341 -0.2646  0.5269
  703TIP3    H1 2066   0.848   2.332   0.788 -0.2269 -1.2006  0.4439
  703TIP3    H2 2067   0.939   2.233   0.719  0.4778 -0.1472 -0.1360
  704TIP3   OH2 2068   0.883   2.561   1.285  0.3779  0.1284  0.7903
  704TIP3    H1 2069   0.922   2.625   1.226  0.4252 -0.3267  0.3193
  704TIP3    H2 2070   0.954   2.538   1.345  0.9238 -0.8710 -0.2103
  705TIP3   OH2 2071   3.165   3.086   0.795  0.1671  0.4926 -0.2349
  705TIP3    H1 2072   3.074   3.086   0.824 -0.4946  0.4603 -2.2308
  705TIP3    H2 2073   3.200   3.170   0.824 -0.2927  0.2180  1.1344
  706TIP3   OH2 2074   3.679   7.977   6.407  0.0773  0.1176  0.0131
  706TIP3    H1 2075   3.759   8.021   6.378  1.3866 -0.8275  2.0559
  706TIP3    H2 2076   3.667   8.006   6.498 -1.3513 -0.5289  0.0592
  707TIP3   OH2 2077   1.126   3.210   4.794  0.4179 -0.0265 -0.1510
  707TIP3    H1 2078   1.095   3.140   4.737  1.2260 -1.4124  1.0959
  707TIP3    H2 2079   1.170   3.271   4.734  1.3549 -1.5295 -1.0375
  708TIP3   OH2 2080   4.809   6.453   6.591 -0.3028 -0.4703  0.1856
  708TIP3    H1 2081   4.879   6.508   6.627  0.1576 -1.2960  0.5845
  708TIP3    H2 2082   4.744   6.448   6.661 -0.6397  0.1017 -0.0945
  709TIP3   OH2 2083   2.331   4.338   2.571 -0.3387  0.8134  0.4890
  709TIP3    H1 2084   2.353   4.245   2.571 -1.1693  0.6002 -0.8906
  709TIP3    H2 2085   2.238   4.341   2.545 -0.1170  2.0546 -0.2298
  710TIP3   OH2 2086   1.894   3.662   0.051  0.4108  0.6073  0.2689
  710TIP3    H1 2087   1.958   3.733   0.048 -0.4822  1.5394  2.2001
  710TIP3    H2 2088   1.831   3.689   0.118 -0.5165 -1.5274  0.3146
  711TIP3   OH2 2089   0.037   0.720   5.887 -0.0228  0.2056  0.4253
  711TIP3    H1 2090  -0.037   0.702   5.829  0.6320  0.1557 -0.4199
  711TIP3    H2 2091   0.040   0.646   5.947  1.4806 -1.6164 -1.8065
  712TIP3   OH2 2092   2.662   4.879   3.277 -0.2725  0.7739  0.1728
  712TIP3    H1 2093   2.667   4.817   3.350 -0.8234  0.7791  0.2177
  712TIP3    H2 2094   2.705   4.958   3.310  1.0235  0.1989 -0.1159
  713TIP3   OH2 2095   2.874   5.547   2.050 -0.3482 -0.9209  0.3561
  713TIP3    H1 2096   2.872   5.554   1.954  1.6365 -0.0760  0.3560
  713TIP3    H2 2097   2.949   5.491   2.068 -1.2727 -1.8475  1.4002
  714TIP3   OH2 2098   1.310   4.218   0.942 -0.0831 -0.6291  0.0128
  714TIP3    H1 2099   1.324   4.191   1.032 -0.6454  0.7288  0.5274
  714TIP3    H2 2100   1.397   4.242   0.910 -0.2587  1.7060  1.1619
  715TIP3   OH2 2101   1.611   1.781   0.182 -0.2333 -0.0041 -0.1212
  715TIP3    H1 2102   1.556   1.750   0.254  1.2443  0.3223  1.1784
  715TIP3    H2 2103   1.562   1.855   0.145  0.0070  1.2215  1.9577
  716TIP3   OH2 2104   0.575   4.700   0.958 -0.2323  0.3535  0.3760
  716TIP3    H1 2105   0.525   4.780   0.941 -0.9063 -0.5175 -1.9740
  716TIP3    H2 2106   0.509   4.630   0.958  0.5216 -0.3762  0.9904
  717TIP3   OH2 2107   0.977   4.696   2.481  0.3220  0.2285  0.2103
  717TIP3    H1 2108   0.922   4.723   2.407 -0.5118 -0.4900  0.5524
  717TIP3    H2 2109   0.948   4.607   2.500  0.7132  0.3207  1.2414
  718TIP3   OH2 2110   2.828   3.463   1.891 -0.1501 -0.5819 -0.1158
  718TIP3    H1 2111   2.734   3.461   1.870 -0.5621  1.0229  1.4346
  718TIP3    H2 2112   2.831   3.455   1.986  1.1460  1.9146  0.0827
  719TIP3   OH2 2113   3.619   6.868   6.062 -0.2634  0.8608 -0.3893
  719TIP3    H1 2114   3.697   6.861   6.118 -2.0433 -0.3021  2.0112
  719TIP3    H2 2115   3.606   6.780   6.028 -0.1674  1.1965 -1.2949
  720TIP3   OH2 2116   3.677   6.735   5.751 -0.7230 -0.2186 -0.1651
  720TIP3    H1 2117   3.683   6.642   5.772 -1.3717 -0.3174 -0.4019
  720TIP3    H2 2118   3.765   6.759   5.721 -1.0926 -1.2367 -2.0676
  721TIP3   OH2 2119   1.083   4.111   1.606 -0.4981  0.0744 -0.3025
  721TIP3    H1 2120   1.174   4.140   1.608 -0.6581  0.6424 -1.3488
  721TIP3    H2 2121   1.067   4.085   1.515 -1.5380  0.4670 -0.2399
  722TIP3   OH2 2122   4.453   5.162   0.431 -0.3307  0.2146 -0.1762
  722TIP3    H1 2123   4.412   5.148   0.345  0.8438  1.5829 -0.9675
  722TIP3    H2 2124   4.488   5.076   0.454 -2.4934 -0.6764 -0.0702
  723TIP3   OH2 2125   1.561   2.934   1.785  0.1479 -0.2285 -0.5201
  723TIP3    H1 2126   1.600   2.956   1.701  1.2265  0.9269  0.2626
  723TIP3    H2 2127   1.630   2.886   1.831 -0.2737 -0.4620 -0.1306
  724TIP3   OH2 2128   0.068   4.465   3.034  0.1912 -0.9325  0.4398
  724TIP3    H1 2129   0.127   4.523   2.986 -0.9979  0.0289  0.1281
  724TIP3    H2 2130   0.117   4.383   3.041  1.0883 -0.5373 -0.8858
  725TIP3   OH2 2131   2.095   5.055   2.278 -0.2160  0.0830 -0.3741
  725TIP3    H1 2132   2.169   5.092   2.231 -0.0346 -0.3064 -0.4018
  725TIP3    H2 2133   2.135   5.007   2.351 -0.4585  0.1384 -0.2032
  726TIP3   OH2 2134   2.656   4.102   4.181  0.3903 -0.3029 -0.5692
  726TIP3    H1 2135   2.704   4.037   4.129  1.1314  0.7055 -1.1826
  726TIP3    H2 2136   2.716   4.177   4.186 -0.0734 -0.0239  0.9169
  727TIP3   OH2 2137   1.839   3.802   2.943 -0.5971  0.4510  0.5539
  727TIP3    H1 2138   1.820   3.885   2.899 -0.8878  0.6084  0.9700
  727TIP3    H2 2139   1.926   3.814   2.980 -0.5190  0.4663  0.3621
  728TIP3   OH2 2140   4.968   1.651   5.413 -0.1017 -0.4430 -0.1958
  728TIP3    H1 2141   4.909   1.720   5.443  0.0383  0.1809 -1.3417
  728TIP3    H2 2142   5.034   1.697   5.361 -0.8878 -1.6189 -2.2958
  729TIP3   OH2 2143   0.360   6.209   2.274 -0.1731 -0.2417  0.2946
  729TIP3    H1 2144   0.335   6.203   2.366 -0.6336  1.0283  0.2690
  729TIP3    H2 2145   0.359   6.119   2.243 -2.4462 -0.4581  0.9071
  730TIP3   OH2 2146   8.295   4.926   2.366 -0.6786  0.1600  0.2392
  730TIP3    H1 2147   8.273   4.833   2.369  0.2013 -0.0482  0.2483
  730TIP3    H2 2148   8.286   4.956   2.457  0.8420 -0.3403  0.5668
  731TIP3   OH2 2149   0.691   2.218   1.892 -0.3612  0.3808 -0.0864
  731TIP3    H1 2150   0.701   2.297   1.946 -0.8848  1.0769 -1.0094
  731TIP3    H2 2151   0.756   2.157   1.927  0.8526  1.6379 -0.1302
  732TIP3   OH2 2152   7.974   5.371   1.833 -0.8564 -0.2947 -0.6405
  732TIP3    H1 2153   8.002   5.323   1.910  1.4355 -0.5083 -1.5796
  732TIP3    H2 2154   7.882   5.393   1.850 -0.4443 -0.5301  2.0224
  733TIP3   OH2 2155   1.628   3.243   2.078  0.3551  0.2593 -0.6871
  733TIP3    H1 2156   1.586   3.318   2.035  0.2272  0.0493 -0.9273
  733TIP3    H2 2157   1.721   3.253   2.058  0.1913 -0.3402 -1.7889
  734TIP3   OH2 2158   1.000   3.231   1.375  0.5880  0.3137  0.1368
  734TIP3    H1 2159   0.908   3.250   1.361  0.6970  1.8860  1.4409
  734TIP3    H2 2160   1.004   3.136   1.387 -0.6187  0.0216 -1.6083
  735TIP3   OH2 2161   0.187   3.214   1.678 -0.0662 -0.3367  0.0463
  735TIP3    H1 2162   0.203   3.126   1.713  1.9521  1.1567  3.1945
  735TIP3    H2 2163   0.141   3.260   1.749 -0.0124  1.4946 -1.0673
  736TIP3   OH2 2164   4.520   5.799   6.186  0.4977  0.0989 -0.2842
  736TIP3    H1 2165   4.428   5.810   6.212  0.2245 -0.5960 -0.9604
  736TIP3    H2 2166   4.532   5.863   6.116  0.5580  0.2472 -0.1400
  737TIP3   OH2 2167   1.034   2.275   1.761 -0.6040  0.4305 -0.3075
  737TIP3    H1 2168   1.115   2.291   1.714  0.2018  3.5954  1.9856
  737TIP3    H2 2169   1.040   2.329   1.840 -3.7443 -1.3796  1.3102
  738TIP3   OH2 2170   0.557   3.986   0.133 -0.1262 -0.5422  0.2348
  738TIP3    H1 2171   0.591   3.898   0.149  0.1537 -0.4325  0.2414
  738TIP3    H2 2172   0.632   4.044   0.146  0.0890 -0.4366 -1.3002
  739TIP3   OH2 2173   2.206   2.902   3.300 -0.2390 -0.1820  0.0733
  739TIP3    H1 2174   2.195   2.838   3.230  2.4365 -1.4443  0.7464
  739TIP3    H2 2175   2.123   2.900   3.348 -0.7405 -2.0192 -0.8317
  740TIP3   OH2 2176   2.267   2.006   3.257 -0.3425  0.6535 -0.1484
  740TIP3    H1 2177   2.341   1.954   3.289 -1.0872  0.3286  1.0714
  740TIP3    H2 2178   2.189   1.957   3.285 -1.0567  2.4409  1.0759
  741TIP3   OH2 2179   1.765   1.646   0.003 -0.5233 -0.4345  0.0669
  741TIP3    H1 2180   1.690   1.689   0.045  0.8885  0.3466  1.8253
  741TIP3    H2 2181   1.804   1.592   0.072  0.3069 -1.1599 -0.9519
  742TIP3   OH2 2182   0.788   6.110   1.939 -0.0043 -0.7203 -0.3047
  742TIP3    H1 2183   0.868   6.138   1.984  0.1244 -1.5037 -0.0452
  742TIP3    H2 2184   0.724   6.179   1.959  0.7625  0.1852 -0.9742
  743TIP3   OH2 2185   2.460   3.448   1.224 -0.3410  0.1248 -0.0837
  743TIP3    H1 2186   2.399   3.375   1.220 -0.4752  0.2542 -0.5267
  743TIP3    H2 2187   2.547   3.408   1.224 -0.3915 -0.0142 -1.2979
  744TIP3   OH2 2188   0.749   2.377   3.254 -0.0619 -0.2788 -0.0217
  744TIP3    H1 2189   0.838   2.409   3.266 -0.3643  0.0049  1.7623
  744TIP3    H2 2190   0.708   2.441   3.197  0.7458 -0.1525 -0.4632
  745TIP3   OH2 2191   4.575   6.032   6.651 -0.0512 -0.2029  0.2848
  745TIP3    H1 2192   4.639   6.095   6.682 -0.5351  0.6848 -0.5114
  745TIP3    H2 2193   4.495   6.083   6.638 -0.8611 -1.2545  1.0525
  746TIP3   OH2 2194   4.876   7.924   6.914  0.4463  0.5285  0.5152
  746TIP3    H1 2195   4.849   7.924   6.822  1.0573 -0.0698  0.3301
  746TIP3    H2 2196   4.798   7.951   6.962  0.4930  2.1689 -0.2932
  747TIP3   OH2 2197   1.196   1.893   2.883 -0.1820  0.1603  0.1781
  747TIP3    H1 2198   1.154   1.889   2.797 -0.4143 -0.3944  0.3127
  747TIP3    H2 2199   1.139   1.949   2.935 -0.6907 -0.4671  0.3153
  748TIP3   OH2 2200   1.975   4.209   0.926  0.1306 -0.4417  0.3538
  748TIP3    H1 2201   1.996   4.124   0.965 -0.6355  0.2165  2.2517
  748TIP3    H2 2202   1.880   4.218   0.937  0.1249  0.4034 -0.3469
  749TIP3   OH2 2203   8.359   5.376   3.836  0.2777 -0.3880  0.7257
  749TIP3    H1 2204   8.364   5.426   3.755 -2.3166  0.4609  1.0229
  749TIP3    H2 2205   8.449   5.354   3.857  1.1909  1.4664 -1.1084
  750TIP3   OH2 2206   0.235   2.862   3.058  0.2131  0.1255 -0.0987
  750TIP3    H1 2207   0.192   2.778   3.074 -0.8904  1.0280  1.8940
  750TIP3    H2 2208   0.173   2.911   3.004 -0.1967  0.5061  0.7018
  751TIP3   OH2 2209   2.457   2.083   4.138 -0.1649  0.6083  0.4663
  751TIP3    H1 2210   2.440   2.177   4.142  2.5346  1.3323 -2.8220
  751TIP3    H2 2211   2.518   2.066   4.209 -0.1119  1.4549  0.6258
  752TIP3   OH2 2212   0.797   1.658   0.215 -0.0900  0.0428 -0.1692
  752TIP3    H1 2213   0.860   1.611   0.161 -1.4579 -1.0283 -0.8711
  752TIP3    H2 2214   0.712   1.623   0.188 -1.1238  2.7004 -0.4829
  753TIP3   OH2 2215   1.313   0.910   6.339 -0.3964  0.2418  0.0633
  753TIP3    H1 2216   1.304   0.993   6.387 -2.3679  0.5250 -0.7593
  753TIP3    H2 2217   1.291   0.843   6.403  0.3684  0.3904  0.4954
  754TIP3   OH2 2218   2.698   5.515   1.801 -0.3063  0.2763 -0.3662
  754TIP3    H1 2219   2.674   5.534   1.710 -0.8931  1.3335 -0.0062
  754TIP3    H2 2220   2.793   5.521   1.803 -0.2778  0.0652 -0.9453
  755TIP3   OH2 2221   2.183   3.416   3.769 -0.5267  0.0251 -0.0435
  755TIP3    H1 2222   2.169   3.409   3.863 -1.0040 -0.2910 -0.1330
  755TIP3    H2 2223   2.264   3.367   3.753  0.4067  1.3879  0.4084
  756TIP3   OH2 2224   1.938   2.751   2.293 -0.1456 -0.2234 -0.3928
  756TIP3    H1 2225   1.877   2.715   2.357 -0.6641 -1.0417 -1.3332
  756TIP3    H2 2226   2.007   2.791   2.346 -3.2836  4.0188  0.8030
  757TIP3   OH2 2227   0.054   3.303   1.454 -0.1977 -0.3911  0.1947
  757TIP3    H1 2228   0.111   3.287   1.529  0.5226  0.8878 -0.0729
  757TIP3    H2 2229   0.019   3.217   1.432  0.7241 -1.0057  1.0885
  758TIP3   OH2 2230   1.155   4.177   1.902  0.0506  0.1478  0.1413
  758TIP3    H1 2231   1.165   4.264   1.939 -1.3412 -0.6158  2.4573
  758TIP3    H2 2232   1.243   4.140   1.901  0.3927  0.9398  0.8001
  759TIP3   OH2 2233   3.737   6.448   5.748 -0.2934  0.1416 -0.1149
  759TIP3    H1 2234   3.761   6.468   5.657 -0.6755 -0.1021 -0.2702
  759TIP3    H2 2235   3.700   6.360   5.745 -0.1368  0.0577  0.3108
  760TIP3   OH2 2236   8.331   2.445   1.441 -0.0188 -0.4603  0.3869
  760TIP3    H1 2237   8.352   2.369   1.496 -0.8670 -1.1390 -0.2154
  760TIP3    H2 2238   8.235   2.451   1.444 -0.0010  0.1577 -0.1411
  761TIP3   OH2 2239   3.592   7.048   6.742 -0.0179  0.2068 -0.4929
  761TIP3    H1 2240   3.513   7.068   6.692 -0.3030 -0.2987 -0.2596
  761TIP3    H2 2241   3.613   6.958   6.718 -1.9459 -1.1555  2.5788
  762TIP3   OH2 2242   7.480   1.412   5.787  0.2748 -0.3613 -0.2462
  762TIP3    H1 2243   7.568   1.443   5.766 -0.2003  1.3605  0.1818
  762TIP3    H2 2244   7.437   1.489   5.825 -0.5077 -1.9471  2.2052
  763TIP3   OH2 2245   4.275   7.336   6.315 -0.4742 -0.0948  0.1362
  763TIP3    H1 2246   4.228   7.324   6.233 -0.9812 -0.5160  0.4855
  763TIP3    H2 2247   4.331   7.412   6.299 -1.4846  0.5998 -0.1909
  764TIP3   OH2 2248   7.396   2.332   1.531 -0.2181 -0.6409 -0.2925
  764TIP3    H1 2249   7.306   2.345   1.559 -0.6548 -3.1225 -0.3696
  764TIP3    H2 2250   7.421   2.414   1.487 -1.8956  0.6169  1.0857
  765TIP3   OH2 2251   4.943   5.972   5.388 -0.8932  0.0717 -0.5727
  765TIP3    H1 2252   4.987   5.987   5.305 -0.4820  0.1747 -0.3356
  765TIP3    H2 2253   4.931   6.059   5.425  1.3909 -0.1295  0.7491
  766TIP3   OH2 2254   0.203   4.537   1.795  0.6198  0.0201  0.1875
  766TIP3    H1 2255   0.200   4.597   1.721  0.2089  0.0805  0.2547
  766TIP3    H2 2256   0.293   4.545   1.828  0.7720  0.0708 -0.2358
  767TIP3   OH2 2257   3.454   5.718   5.989 -0.0083  0.3005 -0.0484
  767TIP3    H1 2258   3.513   5.744   5.918  0.7591  0.4762  0.6409
  767TIP3    H2 2259   3.370   5.756   5.967 -0.2861 -1.3035 -1.8891
  768TIP3   OH2 2260   4.090   7.534   6.891  0.1037 -0.5497  0.4488
  768TIP3    H1 2261   4.096   7.440   6.905 -3.8520 -1.3542 -2.4275
  768TIP3    H2 2262   4.115   7.546   6.799  1.1320  1.2798  0.9501
  769TIP3   OH2 2263   1.674   2.794   3.148  0.3736 -0.5602 -0.1980
  769TIP3    H1 2264   1.595   2.765   3.102 -1.1228 -0.2505  2.0646
  769TIP3    H2 2265   1.711   2.713   3.184  0.4817 -0.5778 -0.3502
  770TIP3   OH2 2266   3.132   2.517   1.445  0.4498  0.2782 -0.0354
  770TIP3    H1 2267   3.146   2.445   1.383 -1.6303  0.1918 -0.4392
  770TIP3    H2 2268   3.201   2.580   1.424  0.7119 -0.4301 -1.4121
  771TIP3   OH2 2269   2.981   2.103   3.345  0.7846 -0.4598 -0.5181
  771TIP3    H1 2270   2.977   2.139   3.256 -2.0505 -2.3986 -1.2191
  771TIP3    H2 2271   3.072   2.074   3.354  0.8776 -1.1091 -3.1307
  772TIP3   OH2 2272   1.591   3.192   2.343  0.7474 -0.4244  0.3497
  772TIP3    H1 2273   1.528   3.124   2.370  0.6778 -0.2821  0.5413
  772TIP3    H2 2274   1.581   3.196   2.248  0.1576 -0.1006  0.4230
  773TIP3   OH2 2275   1.203   6.002   3.279 -0.5807  0.5417 -0.3372
  773TIP3    H1 2276   1.232   6.087   3.313 -1.0986  0.3074  0.7142
  773TIP3    H2 2277   1.116   5.990   3.316  0.8460 -2.0264  2.4277
  774TIP3   OH2 2278   1.595   5.054   1.880 -0.0836  0.0093  0.2934
  774TIP3    H1 2279   1.614   5.146   1.862 -0.1325 -0.6185 -3.2737
  774TIP3    H2 2280   1.678   5.016   1.908  0.2166  0.8279  0.5121
  775TIP3   OH2 2281   3.062   2.612   0.456 -0.2209  0.1359  0.3516
  775TIP3    H1 2282   3.088   2.583   0.544  1.5923 -0.2642 -0.3018
  775TIP3    H2 2283   3.137   2.661   0.423 -0.1726 -1.2196 -1.6611
  776TIP3   OH2 2284   4.826   5.060   6.792  0.5026 -0.3059  0.0825
  776TIP3    H1 2285   4.792   4.970   6.796  0.8046 -0.4224  0.0065
  776TIP3    H2 2286   4.748   5.115   6.783  0.2828 -0.5219  0.7191
  777TIP3   OH2 2287   7.912   5.339   3.052 -0.4433 -0.0691 -0.3694
  777TIP3    H1 2288   7.836   5.291   3.087  0.9775 -1.4744  0.8814
  777TIP3    H2 2289   7.962   5.273   3.004 -1.2009  1.3655 -3.2169
  778TIP3   OH2 2290   8.428   3.512   3.856 -0.3382  0.2953  0.4681
  778TIP3    H1 2291   8.413   3.548   3.944 -0.0745  0.1537  0.5709
  778TIP3    H2 2292   8.351   3.540   3.806  0.7547  2.5958  0.0492
  779TIP3   OH2 2293   4.587   3.583   2.179 -0.7096  0.5001  0.7214
  779TIP3    H1 2294   4.604   3.509   2.236 -0.0708 -1.1637 -1.5365
  779TIP3    H2 2295   4.503   3.618   2.209 -1.3802 -1.5890  1.3636
  780TIP3   OH2 2296   0.214   2.629   1.661 -0.1343 -0.1962 -0.1177
  780TIP3    H1 2297   0.162   2.621   1.581  0.6430 -0.5006 -0.5881
  780TIP3    H2 2298   0.252   2.717   1.657  2.0316 -1.1582 -1.3710
  781TIP3   OH2 2299   4.188   1.466   4.345 -0.2992 -0.2826  0.0055
  781TIP3    H1 2300   4.182   1.504   4.433 -3.6236 -0.0356 -0.2807
  781TIP3    H2 2301   4.209   1.540   4.288 -0.5487  0.0018  0.2817
  782TIP3   OH2 2302   0.803   2.701   1.813 -0.2862  0.1740 -0.0345
  782TIP3    H1 2303   0.892   2.730   1.832 -0.0032  0.9807 -2.3682
  782TIP3    H2 2304   0.812   2.648   1.733 -1.8258 -0.1990  0.0237
  783TIP3   OH2 2305   2.522   4.018   1.741 -0.1609  0.6655  0.3625
  783TIP3    H1 2306   2.507   3.933   1.700 -1.3068  0.0867  1.9144
  783TIP3    H2 2307   2.584   4.062   1.684 -1.4953 -0.2179 -1.8253
  784TIP3   OH2 2308   1.289   1.379   3.282  0.0664 -0.1578  0.3418
  784TIP3    H1 2309   1.290   1.443   3.353  0.9201 -0.7438  0.8680
  784TIP3    H2 2310   1.368   1.327   3.296 -0.1654 -0.7685 -0.5936
  785TIP3   OH2 2311   1.033   6.082   0.436 -0.6174 -0.0692 -0.2898
  785TIP3    H1 2312   1.074   6.150   0.383  0.9393 -1.4869 -0.9628
  785TIP3    H2 2313   0.972   6.129   0.494  0.7974  1.9145 -0.3789
  786TIP3   OH2 2314   2.241   4.378   3.853 -0.5717  0.2137 -0.0706
  786TIP3    H1 2315   2.189   4.440   3.904 -0.0620  1.0433 -0.5367
  786TIP3    H2 2316   2.323   4.425   3.836 -0.4344 -0.3487 -0.9672
  787TIP3   OH2 2317   2.297   0.472   0.421 -0.3703  0.6098 -0.2254
  787TIP3    H1 2318   2.337   0.522   0.350 -0.2037 -0.2737 -0.7615
  787TIP3    H2 2319   2.300   0.381   0.391  1.4588 -0.0164  1.7102
  788TIP3   OH2 2320   4.410   6.265   6.674  0.3725 -0.1478 -0.5829
  788TIP3    H1 2321   4.321   6.300   6.670  0.7406  0.9297  0.2703
  788TIP3    H2 2322   4.466   6.343   6.665  1.2162 -0.5011  1.3413
  789TIP3   OH2 2323   1.824   2.326   3.195  0.2055  0.3621 -0.3137
  789TIP3    H1 2324   1.882   2.277   3.253 -1.7039 -1.7344 -0.1507
  789TIP3    H2 2325   1.766   2.374   3.254 -0.0596  0.2712 -0.5023
  790TIP3   OH2 2326   2.851   3.453   1.004  0.0102 -0.3776 -0.1388
  790TIP3    H1 2327   2.862   3.527   0.945 -1.3349  0.7907  1.0486
  790TIP3    H2 2328   2.773   3.408   0.973  0.2301 -0.6998 -0.2286
  791TIP3   OH2 2329   2.517   0.322   3.719  0.2903 -0.0597 -0.1618
  791TIP3    H1 2330   2.520   0.412   3.751 -0.3573 -0.7451  1.9286
  791TIP3    H2 2331   2.424   0.301   3.714  0.4406 -1.2024  1.2150
  792TIP3   OH2 2332   1.944   2.354   1.512 -0.4983  0.1875  1.1925
  792TIP3    H1 2333   1.924   2.344   1.419  0.7714 -0.2761  0.9570
  792TIP3    H2 2334   2.018   2.295   1.527  1.6338  2.8708  1.6777
  793TIP3   OH2 2335   3.543   0.264   1.983  0.8643 -0.3848  0.0040
  793TIP3    H1 2336   3.519   0.322   2.056  1.0264 -1.3030  0.7921
  793TIP3    H2 2337   3.614   0.210   2.018  1.1861 -0.5906 -0.9555
  794TIP3   OH2 2338   5.455   0.114   5.558  0.1084  0.2044  0.3131
  794TIP3    H1 2339   5.397   0.110   5.481 -0.1958  0.2524  0.5414
  794TIP3    H2 2340   5.441   0.201   5.595 -1.2737 -0.5584  1.6210
  795TIP3   OH2 2341   0.150   0.782   6.187  0.0159 -0.0222 -0.1665
  795TIP3    H1 2342   0.148   0.693   6.152  1.6366  0.4784 -1.6427
  795TIP3    H2 2343   0.116   0.837   6.116  3.3974  1.0116 -1.1133
  796TIP3   OH2 2344   0.792   3.158   0.793 -0.4588  0.2647 -0.0784
  796TIP3    H1 2345   0.738   3.082   0.770  0.1898  0.1130 -1.1106
  796TIP3    H2 2346   0.830   3.186   0.710 -0.2897  1.4084  0.3875
  797TIP3   OH2 2347   2.785   3.077   0.598  0.0882  0.3082 -0.0347
  797TIP3    H1 2348   2.691   3.090   0.613 -0.2248  1.0097 -2.4451
  797TIP3    H2 2349   2.796   2.982   0.594 -0.3226  0.1921  1.2937
  798TIP3   OH2 2350   2.717   4.131   1.425  0.3516 -0.0283 -0.3561
  798TIP3    H1 2351   2.666   4.062   1.382  0.4503  0.2210 -0.8691
  798TIP3    H2 2352   2.703   4.209   1.372  1.0295  0.1135 -0.3316
  799TIP3   OH2 2353   4.166   4.312   2.185 -0.8177 -0.1013  0.1865
  799TIP3    H1 2354   4.186   4.360   2.105 -0.2475 -0.2467  0.2342
  799TIP3    H2 2355   4.079   4.343   2.211 -0.1420  1.5033  0.6475
  800TIP3   OH2 2356   1.004   4.681   0.626  0.0284 -0.3020 -0.2154
  800TIP3    H1 2357   1.078   4.670   0.686 -0.7590  2.1812  1.3303
  800TIP3    H2 2358   0.946   4.743   0.672 -1.2593  0.6029 -2.9683
  801TIP3   OH2 2359   3.800   4.288   1.160 -0.2373  0.0287 -0.6143
  801TIP3    H1 2360   3.714   4.273   1.201 -0.2695  0.4600 -0.5252
  801TIP3    H2 2361   3.781   4.341   1.083 -0.2421 -1.2189 -1.4961
  802TIP3   OH2 2362   1.303   1.582   0.081  0.4255  0.2118  0.1856
  802TIP3    H1 2363   1.352   1.503   0.103 -0.3154 -0.5706 -0.9505
  802TIP3    H2 2364   1.334   1.605  -0.007 -1.0529 -0.1409 -0.4353
  803TIP3   OH2 2365   2.636   3.324   0.891  0.5539  0.5151 -0.2063
  803TIP3    H1 2366   2.630   3.393   0.825 -0.9381  2.2767  1.7040
  803TIP3    H2 2367   2.547   3.289   0.897  0.1445  1.8736  2.3637
  804TIP3   OH2 2368   4.072   6.741   6.663  0.2939  0.3003  0.1393
  804TIP3    H1 2369   4.069   6.835   6.649  0.9521  0.5442  1.5014
  804TIP3    H2 2370   4.123   6.730   6.744 -1.6595 -1.0685  1.2628
  805TIP3   OH2 2371   2.800   5.186   1.798  0.0823 -0.0475  0.3362
  805TIP3    H1 2372   2.753   5.105   1.819 -0.6141  0.2803  0.0590
  805TIP3    H2 2373   2.736   5.255   1.816  0.3697  0.3836 -0.3110
  806TIP3   OH2 2374   3.401   0.488   0.266 -0.9499  0.3575 -0.5500
  806TIP3    H1 2375   3.378   0.441   0.347  0.5197  0.3591 -0.1191
  806TIP3    H2 2376   3.436   0.571   0.297  0.5015 -0.0190 -1.1436
  807TIP3   OH2 2377   0.258   2.210   1.740  0.0569  0.4029 -0.0848
  807TIP3    H1 2378   0.344   2.250   1.733 -1.0547  2.6798 -1.1624
  807TIP3    H2 2379   0.222   2.212   1.652 -0.9325 -0.9409  0.2622
  808TIP3   OH2 2380   2.140   1.281   0.694  0.7094  0.0220  0.2333
  808TIP3    H1 2381   2.120   1.331   0.615  1.3827 -1.0272 -0.6161
  808TIP3    H2 2382   2.212   1.329   0.735 -0.2682  1.0948  0.7276
  809TIP3   OH2 2383   5.303   6.097   6.803  0.0993  0.1252 -0.4695
  809TIP3    H1 2384   5.352   6.042   6.742  3.1196  1.8524  0.2993
  809TIP3    H2 2385   5.320   6.058   6.889 -2.8827 -1.3793 -0.4862
  810TIP3   OH2 2386   0.482   2.980   2.178 -0.3442  0.7462  0.4395
  810TIP3    H1 2387   0.529   2.987   2.261 -0.0688  2.0703  0.1803
  810TIP3    H2 2388   0.535   2.920   2.125  1.0317  2.1737  0.1725
  811TIP3   OH2 2389   1.685   5.415   1.369 -0.3866 -0.7241 -0.4551
  811TIP3    H1 2390   1.715   5.375   1.450 -1.3595 -0.6563 -0.0538
  811TIP3    H2 2391   1.610   5.361   1.342  0.0445 -0.8664 -1.4106
  812TIP3   OH2 2392   1.469   3.151   1.026  0.1576  0.1200 -0.3845
  812TIP3    H1 2393   1.398   3.088   1.037 -0.7967  1.0680 -0.9833
  812TIP3    H2 2394   1.524   3.139   1.103  1.4576 -3.2693 -1.7420
  813TIP3   OH2 2395   3.575   1.923   2.839 -0.0171  0.4037  0.2568
  813TIP3    H1 2396   3.657   1.899   2.883 -0.4576 -0.7182  0.5036
  813TIP3    H2 2397   3.507   1.878   2.890 -0.5820 -0.5289 -1.2942
  814TIP3   OH2 2398   2.248   4.083   2.352  0.2527 -0.3500 -0.0909
  814TIP3    H1 2399   2.240   4.087   2.257  1.1555 -1.4473 -0.2199
  814TIP3    H2 2400   2.336   4.049   2.368  0.5884  1.0436  1.1562
  815TIP3   OH2 2401   0.818   3.715   3.182  0.2668 -0.1069  0.5568
  815TIP3    H1 2402   0.745   3.695   3.241 -1.2866 -0.3514 -1.3838
  815TIP3    H2 2403   0.864   3.788   3.224 -1.9307  0.9871  1.1390
  816TIP3   OH2 2404   1.343   2.707   2.151  0.0150 -0.5370  0.4089
  816TIP3    H1 2405   1.347   2.631   2.208 -0.0851 -0.8765 -0.0323
  816TIP3    H2 2406   1.333   2.671   2.063 -1.2189  0.0026  0.3111
  817TIP3   OH2 2407   3.173   3.962   3.253  0.1194 -0.1948 -0.4862
  817TIP3    H1 2408   3.130   3.998   3.331 -1.1383 -0.3929 -1.0810
  817TIP3    H2 2409   3.193   3.871   3.276  1.4542  0.2653  0.2714
  818TIP3   OH2 2410   3.111   4.189   0.282 -0.0027 -0.0386 -0.5612
  818TIP3    H1 2411   3.195   4.234   0.274  0.7603 -1.4060 -0.4887
  818TIP3    H2 2412   3.125   4.124   0.352 -1.9422  1.5377  1.3755
  819TIP3   OH2 2413   0.261   2.800   1.101 -0.3681  0.1123  0.1080
  819TIP3    H1 2414   0.262   2.880   1.152 -1.1902  0.0533  0.2353
  819TIP3    H2 2415   0.177   2.758   1.124 -0.6131 -0.0547 -1.0477
  820TIP3   OH2 2416   8.331   5.757   3.395 -0.0660  0.3335  0.0707
  820TIP3    H1 2417   8.314   5.785   3.484 -0.1522 -0.1090  0.1957
  820TIP3    H2 2418   8.245   5.757   3.353  0.0664  1.1953 -0.2036
  821TIP3   OH2 2419   1.001   3.623   0.580 -0.0243 -0.0657  0.1448
  821TIP3    H1 2420   0.957   3.632   0.496  0.2836 -1.2297 -0.1346
  821TIP3    H2 2421   1.006   3.529   0.596 -0.4165  0.1403  1.6357
  822TIP3   OH2 2422   0.091   0.369   6.517 -0.4353 -0.6643  0.2139
  822TIP3    H1 2423   0.039   0.293   6.490  0.2153 -1.8382  2.1635
  822TIP3    H2 2424   0.136   0.340   6.597 -1.4557  2.3127  1.9391
  823TIP3   OH2 2425   2.166   4.843   1.193  0.4875  0.0750  0.1271
  823TIP3    H1 2426   2.250   4.817   1.156  0.5403  0.1623  0.1843
  823TIP3    H2 2427   2.128   4.762   1.226  0.9988  0.1891  1.0044
  824TIP3   OH2 2428   8.451   4.849   3.922  0.5348  0.5934  0.0036
  824TIP3    H1 2429   8.385   4.784   3.943  1.0205 -0.8426 -2.7682
  824TIP3    H2 2430   8.518   4.838   3.991 -0.3446 -0.4447  0.7031
  825TIP3   OH2 2431   7.929   5.825   2.456 -0.2869  0.0214  0.1236
  825TIP3    H1 2432   7.897   5.744   2.497  0.1974 -0.6829 -0.8640
  825TIP3    H2 2433   8.025   5.820   2.465 -0.1795 -0.1355 -1.0717
  826TIP3   OH2 2434   8.263   3.707   3.215 -0.2322 -0.4307  0.6460
  826TIP3    H1 2435   8.273   3.612   3.205 -2.1695 -0.4311 -1.5459
  826TIP3    H2 2436   8.169   3.722   3.204  0.2113  1.8741 -0.1442
  827TIP3   OH2 2437   5.614   6.411   6.517  0.0102 -0.2797 -0.1194
  827TIP3    H1 2438   5.569   6.357   6.582 -0.5624  0.4456  0.0933
  827TIP3    H2 2439   5.565   6.397   6.436 -1.3319  1.4082  0.3731
  828TIP3   OH2 2440   8.109   1.169   0.570  0.2174 -0.4688 -0.0349
  828TIP3    H1 2441   8.075   1.246   0.525 -1.2285 -0.6355  0.7341
  828TIP3    H2 2442   8.180   1.202   0.625  0.1835  0.1659 -0.3710
  829TIP3   OH2 2443   1.648   2.720   2.143  0.2169 -0.2548  0.6931
  829TIP3    H1 2444   1.661   2.808   2.178 -1.1870  0.7010 -1.0987
  829TIP3    H2 2445   1.555   2.702   2.155 -0.0559 -0.3887 -1.3560
  830TIP3   OH2 2446   8.507   2.676   1.110 -0.4975  0.3242 -0.3013
  830TIP3    H1 2447   8.424   2.724   1.111 -0.4185  0.4457  1.2915
  830TIP3    H2 2448   8.502   2.621   1.032 -1.3949  1.5241 -1.0936
  831TIP3   OH2 2449   1.472   3.772   0.462  0.3651  0.2898 -0.0119
  831TIP3    H1 2450   1.527   3.759   0.539  1.8519  1.6295 -0.8086
  831TIP3    H2 2451   1.414   3.845   0.486  1.4079  1.2844 -0.4192
  832TIP3   OH2 2452   8.385   4.740   0.586  0.1866  0.2845 -0.1320
  832TIP3    H1 2453   8.435   4.758   0.666 -0.8098 -0.2786  0.6317
  832TIP3    H2 2454   8.420   4.657   0.555 -1.5237 -1.0610  1.4360
  833TIP3   OH2 2455   4.214   6.959   6.965  0.4165 -0.8389  0.0258
  833TIP3    H1 2456   4.258   6.992   6.887 -0.1856 -0.9398 -0.3543
  833TIP3    H2 2457   4.123   6.985   6.954  0.6141  0.5830  1.4578
  834TIP3   OH2 2458   0.994   4.157   0.611  0.6588  0.4163 -0.2682
  834TIP3    H1 2459   0.994   4.251   0.632 -0.4163  0.1718  0.8961
  834TIP3    H2 2460   1.050   4.118   0.678 -0.3129  0.0135  0.3246
  835TIP3   OH2 2461   2.036   5.290   1.582 -0.2844 -0.0529 -0.4400
  835TIP3    H1 2462   2.099   5.290   1.510  0.0169 -0.7668 -0.1721
  835TIP3    H2 2463   2.019   5.383   1.599  0.2102  0.1288 -0.9305
  836TIP3   OH2 2464   2.358   4.191   1.224  0.2768  0.0323 -0.2316
  836TIP3    H1 2465   2.321   4.221   1.141  0.6544  0.3744 -0.2786
  836TIP3    H2 2466   2.419   4.121   1.199  1.4782  1.1136 -0.3858
  837TIP3   OH2 2467   1.940   4.143   2.062 -0.1223  0.0074  0.4106
  837TIP3    H1 2468   1.990   4.073   2.021 -0.2922  0.0382  0.1501
  837TIP3    H2 2469   1.917   4.201   1.990 -0.6486 -0.0793  0.5096
  838TIP3   OH2 2470   2.226   2.046   0.502 -0.2725  0.3905 -0.3953
  838TIP3    H1 2471   2.182   1.972   0.544  0.1753  0.3005 -0.0827
  838TIP3    H2 2472   2.316   2.043   0.536 -0.0936  0.7230 -0.8365
  839TIP3   OH2 2473   4.992   3.702   1.345 -0.0967 -0.2283  0.0258
  839TIP3    H1 2474   4.897   3.695   1.334  0.0795  1.0975 -2.6325
  839TIP3    H2 2475   5.018   3.618   1.382 -2.3070 -0.5831  0.8640
  840TIP3   OH2 2476   1.508   4.364   0.563  0.5826  0.0694  0.1066
  840TIP3    H1 2477   1.484   4.427   0.630  1.2678 -0.3322  0.7383
  840TIP3    H2 2478   1.565   4.301   0.608 -1.9783 -2.3417  0.0959
  841TIP3   OH2 2479   2.979   5.305   6.913  0.2076  0.1724 -0.4790
  841TIP3    H1 2480   3.023   5.370   6.969 -1.7509  0.0804  1.2284
  841TIP3    H2 2481   3.051   5.250   6.879  1.4211 -0.1719  2.4809
  842TIP3   OH2 2482   2.679   4.150   0.540  0.6170  0.4133 -0.3194
  842TIP3    H1 2483   2.603   4.191   0.582  0.4242  1.0262 -1.2453
  842TIP3    H2 2484   2.754   4.193   0.580  0.4096  1.9216 -1.4944
  843TIP3   OH2 2485   4.731   3.259   0.904 -0.0010  0.1674  0.1176
  843TIP3    H1 2486   4.751   3.232   0.994 -0.4699  2.0829  0.8292
  843TIP3    H2 2487   4.770   3.346   0.896  0.0053  0.0250 -1.5321
  844TIP3   OH2 2488   7.195   7.383   6.218 -0.4292 -0.3611  0.2959
  844TIP3    H1 2489   7.117   7.335   6.242 -0.3388 -0.4907  0.3294
  844TIP3    H2 2490   7.227   7.340   6.139  0.3795 -1.1819  1.0550
  845TIP3   OH2 2491   3.754   4.455   0.971  0.3235  0.7977 -0.1278
  845TIP3    H1 2492   3.767   4.534   1.022 -0.7223  0.2913  0.9606
  845TIP3    H2 2493   3.662   4.459   0.944 -0.0507 -0.5607  0.8695
  846TIP3   OH2 2494   3.700   0.765   6.523  0.0627  0.1690  0.1392
  846TIP3    H1 2495   3.694   0.855   6.555  0.9017  0.1878  0.2475
  846TIP3    H2 2496   3.609   0.737   6.514 -0.2062  0.3002  2.1487
  847TIP3   OH2 2497   2.582   4.750   2.567  0.6544  0.2309 -0.8458
  847TIP3    H1 2498   2.651   4.714   2.512 -1.4731 -1.9281 -2.1899
  847TIP3    H2 2499   2.577   4.842   2.542  2.6284  0.2873 -1.1326
  848TIP3   OH2 2500   8.250   6.454   6.704 -0.0881  0.5954  0.0209
  848TIP3    H1 2501   8.292   6.397   6.768  3.2773  2.0146 -0.8432
  848TIP3    H2 2502   8.255   6.541   6.743 -1.8005  0.8773 -0.3471
  849TIP3   OH2 2503   3.970   1.689   1.130  0.0557 -0.2285  0.7388
  849TIP3    H1 2504   4.046   1.708   1.186  0.9779  0.3408 -0.6907
  849TIP3    H2 2505   3.901   1.664   1.192  1.5908 -1.4472  2.0315
  850TIP3   OH2 2506   1.824   3.187   1.514  0.4743 -0.2937 -0.0553
  850TIP3    H1 2507   1.916   3.163   1.525  0.2804 -0.5342  1.0957
  850TIP3    H2 2508   1.826   3.258   1.450  1.2538 -1.7502 -1.6869
  851TIP3   OH2 2509   3.620   4.633   0.144 -0.4317  0.5280 -0.1493
  851TIP3    H1 2510   3.703   4.594   0.117 -1.2003 -0.4641 -1.1704
  851TIP3    H2 2511   3.616   4.620   0.238  0.6870  0.8123 -0.0636
  852TIP3   OH2 2512   3.083   3.198   1.841 -0.7711 -0.0725  0.4831
  852TIP3    H1 2513   3.140   3.122   1.848  1.4435  1.6857  2.2281
  852TIP3    H2 2514   2.999   3.162   1.812  0.8963 -2.8457 -1.1356
  853TIP3   OH2 2515   2.378   0.826   6.542 -0.1060 -0.4430  0.0912
  853TIP3    H1 2516   2.467   0.792   6.553  0.3867  1.3444  2.1046
  853TIP3    H2 2517   2.358   0.867   6.626 -1.2908  2.7337 -1.6803
  854TIP3   OH2 2518   4.688   7.359   6.534 -0.1653  0.0757  0.4238
  854TIP3    H1 2519   4.719   7.269   6.529  0.5364  0.2899  0.8375
  854TIP3    H2 2520   4.643   7.365   6.618  1.8454  0.7386  1.4729
  855TIP3   OH2 2521   3.595   1.471   1.961 -0.4948  0.2216  0.4781
  855TIP3    H1 2522   3.535   1.546   1.963 -1.8117 -0.7265 -1.7286
  855TIP3    H2 2523   3.541   1.396   1.983 -0.7319 -0.9741 -3.7871
  856TIP3   OH2 2524   3.181   3.270   2.915  0.1153 -0.3607  0.2483
  856TIP3    H1 2525   3.198   3.360   2.944 -0.9158 -0.1789  0.2853
  856TIP3    H2 2526   3.092   3.251   2.944  0.0330 -1.1112 -0.4806
  857TIP3   OH2 2527   4.534   4.120   2.459 -0.3101 -0.1881  0.3961
  857TIP3    H1 2528   4.499   4.031   2.463 -2.2246  0.4924 -0.8043
  857TIP3    H2 2529   4.540   4.147   2.551 -2.7388 -0.4237  0.6602
  858TIP3   OH2 2530   1.051   0.464   6.604  0.0214 -0.0430  0.3999
  858TIP3    H1 2531   0.971   0.450   6.653  1.0902 -0.0247  2.1973
  858TIP3    H2 2532   1.034   0.543   6.553 -1.3873 -0.5145  0.1139
  859TIP3   OH2 2533   1.138   0.140   5.242  0.2804  0.7210  0.2438
  859TIP3    H1 2534   1.091   0.064   5.277  2.6812 -0.8938  0.1534
  859TIP3    H2 2535   1.079   0.177   5.177 -1.0632 -0.9367  0.4846
  860TIP3   OH2 2536   5.291   2.086   0.199 -0.1465 -0.3200  0.1927
  860TIP3    H1 2537   5.251   2.060   0.116  2.8021  0.3149 -1.4967
  860TIP3    H2 2538   5.290   2.182   0.196  0.4632 -0.3022  0.6623
  861TIP3   OH2 2539   1.813   3.052   0.878  0.7112 -0.3856 -0.0183
  861TIP3    H1 2540   1.907   3.045   0.867  0.9912  2.9206 -0.3460
  861TIP3    H2 2541   1.795   3.147   0.876 -3.0039 -0.9966 -3.5563
  862TIP3   OH2 2542   4.893   3.606   0.132 -1.0742 -0.3886 -0.5313
  862TIP3    H1 2543   4.839   3.586   0.209  0.5292 -0.4571  0.6061
  862TIP3    H2 2544   4.958   3.536   0.130 -1.5102 -0.7616 -2.3656
  863TIP3   OH2 2545   7.131   7.392   6.544  0.3834 -0.0161 -0.3121
  863TIP3    H1 2546   7.131   7.472   6.595  0.9258 -0.4253  0.3472
  863TIP3    H2 2547   7.043   7.357   6.553 -0.1566  1.0285 -1.4437
  864TIP3   OH2 2548   3.861   4.217   0.077 -0.1282 -0.5501  0.1401
  864TIP3    H1 2549   3.865   4.311   0.059  1.1523 -0.8276 -1.0659
  864TIP3    H2 2550   3.919   4.204   0.152 -0.1669 -0.4053  0.1955
  865TIP3   OH2 2551   5.683   7.370   6.511 -0.1362 -0.2482 -0.3095
  865TIP3    H1 2552   5.663   7.276   6.512 -0.4256 -0.2120 -1.9360
  865TIP3    H2 2553   5.612   7.410   6.561 -0.5061 -0.8128 -0.3748
  866TIP3   OH2 2554   5.598   2.200   0.399  0.7359  0.3759  0.0764
  866TIP3    H1 2555   5.615   2.285   0.359 -2.1771  0.0975 -1.8970
  866TIP3    H2 2556   5.652   2.139   0.349  1.1498  0.7673  0.0464
  867TIP3   OH2 2557   3.279   4.448   0.062 -0.5734 -0.0421 -0.4918
  867TIP3    H1 2558   3.291   4.402   0.144  1.4847  1.5721  0.1549
  867TIP3    H2 2559   3.307   4.538   0.080 -1.6750  0.7568 -2.5068
  868TIP3   OH2 2560   8.403   6.338   5.578  0.1514 -0.6715  0.5541
  868TIP3    H1 2561   8.435   6.273   5.516  2.1680  0.6816  0.1262
  868TIP3    H2 2562   8.340   6.390   5.528 -0.1694 -1.2251  0.3914
  869TIP3   OH2 2563   3.482   4.093   1.976 -0.0272 -0.4973 -0.1187
  869TIP3    H1 2564   3.492   4.179   2.018  1.8310 -0.7819  0.0407
  869TIP3    H2 2565   3.507   4.030   2.043  0.2772 -1.0902 -0.7841
  870TIP3   OH2 2566   4.609   7.133   6.834 -0.1779 -0.0822  0.1741
  870TIP3    H1 2567   4.640   7.074   6.902 -0.2178  0.6626  0.8560
  870TIP3    H2 2568   4.572   7.207   6.882 -0.4759  0.3204 -0.6562
  871TIP3   OH2 2569   2.486   1.725   1.768 -0.1825  0.0753 -0.0359
  871TIP3    H1 2570   2.475   1.753   1.677  0.2696  1.2171  0.2617
  871TIP3    H2 2571   2.581   1.726   1.782 -0.1816 -1.1915  0.1108
  872TIP3   OH2 2572   1.708   4.705   2.731  0.1722 -0.2311  0.3622
  872TIP3    H1 2573   1.763   4.763   2.678 -1.6826  0.1827 -1.1575
  872TIP3    H2 2574   1.673   4.641   2.669 -1.1585 -0.4145  1.2866
  873TIP3   OH2 2575   2.462   4.627   0.733 -0.1895 -0.3060  0.0559
  873TIP3    H1 2576   2.518   4.566   0.781  0.2270  0.6830  0.8460
  873TIP3    H2 2577   2.374   4.591   0.741 -0.4315  0.9134  3.2880
  874TIP3   OH2 2578   3.136   0.183   3.975 -0.3576  0.0861 -0.0492
  874TIP3    H1 2579   3.208   0.155   3.918  1.3898  2.1136  1.0797
  874TIP3    H2 2580   3.062   0.195   3.915  0.6247 -0.6489 -1.4582
  875TIP3   OH2 2581   5.223   3.863   1.317 -0.1175  0.2663 -0.2286
  875TIP3    H1 2582   5.266   3.946   1.340  0.9382 -0.1097 -0.8219
  875TIP3    H2 2583   5.178   3.837   1.397  1.2395  0.3893  0.5944
  876TIP3   OH2 2584   4.205   3.798   0.999 -0.2259  0.2741 -0.4719
  876TIP3    H1 2585   4.153   3.745   1.060 -0.6437  1.6279  0.3837
  876TIP3    H2 2586   4.203   3.749   0.917 -0.5563 -1.0526  0.3099
  877TIP3   OH2 2587   7.297   6.455   6.787 -0.2094  0.0080  0.1009
  877TIP3    H1 2588   7.307   6.434   6.694 -3.2675 -0.2125 -0.2353
  877TIP3    H2 2589   7.345   6.385   6.832  2.1230  0.6486 -1.2706
  878TIP3   OH2 2590   2.551   6.175   1.864  0.4292  0.2589  0.4520
  878TIP3    H1 2591   2.565   6.258   1.820  0.1367  0.1324  0.1218
  878TIP3    H2 2592   2.637   6.132   1.862  0.2402 -0.0839 -0.6962
  879TIP3   OH2 2593   7.485   5.838   6.599 -1.2388 -0.4603 -0.5353
  879TIP3    H1 2594   7.437   5.917   6.626  0.7779  0.7867 -0.4682
  879TIP3    H2 2595   7.570   5.871   6.571 -0.2376 -2.6830 -0.1767
  880TIP3   OH2 2596   3.508   5.975   6.809  0.3902 -0.2441 -0.7072
  880TIP3    H1 2597   3.590   5.927   6.819  0.2952 -0.2143  0.2776
  880TIP3    H2 2598   3.469   5.974   6.897  0.1015  1.1012 -0.8114
  881TIP3   OH2 2599   2.547   2.813   2.205  0.5683 -0.3627 -0.0805
  881TIP3    H1 2600   2.618   2.862   2.248 -0.1948  0.6688  0.0208
  881TIP3    H2 2601   2.514   2.873   2.138 -2.2185  0.3612  1.8761
  882TIP3   OH2 2602   2.304   5.353   0.776 -0.0678  0.1177 -0.7518
  882TIP3    H1 2603   2.262   5.293   0.837  1.4864  0.3884  0.6192
  882TIP3    H2 2604   2.320   5.301   0.697  0.5342 -1.0348  0.1288
  883TIP3   OH2 2605   1.796   5.630   0.814  0.4618 -0.5878 -0.3515
  883TIP3    H1 2606   1.879   5.582   0.822  0.5592 -0.0785  2.2795
  883TIP3    H2 2607   1.762   5.635   0.904 -1.4832  0.8597 -1.1163
  884TIP3   OH2 2608   4.802   2.383   0.764  0.3417  0.0548  0.4168
  884TIP3    H1 2609   4.880   2.340   0.800  0.7215 -0.8153 -1.4049
  884TIP3    H2 2610   4.753   2.313   0.721 -0.6719  0.8753  0.2097
  885TIP3   OH2 2611   2.349   3.878   0.585  0.1918  0.2057  0.0224
  885TIP3    H1 2612   2.330   3.784   0.593  0.7615  0.1018  0.2023
  885TIP3    H2 2613   2.407   3.884   0.509 -2.3664  0.7872 -1.9736
  886TIP3   OH2 2614   2.041   4.994   1.000 -0.8532 -0.0426 -0.5020
  886TIP3    H1 2615   2.122   5.043   0.990 -0.2113 -1.0289 -0.1525
  886TIP3    H2 2616   2.060   4.928   1.066 -1.7175 -0.7338 -0.9270
  887TIP3   OH2 2617   2.060   0.527   6.675  0.2715  0.0857 -0.5150
  887TIP3    H1 2618   2.145   0.507   6.716  0.4488 -1.2200 -1.4857
  887TIP3    H2 2619   2.080   0.540   6.583 -0.6563 -0.6925 -0.8302
  888TIP3   OH2 2620   4.184   0.180   6.597 -0.2290 -0.6963 -0.5818
  888TIP3    H1 2621   4.220   0.260   6.636  0.4338 -0.7028 -1.1696
  888TIP3    H2 2622   4.102   0.166   6.644  0.0143 -0.0892  0.0469
  889TIP3   OH2 2623   4.890   3.295   2.328  0.5797  0.4108 -0.1793
  889TIP3    H1 2624   4.984   3.291   2.346  0.7439  2.5835 -0.4646
  889TIP3    H2 2625   4.883   3.286   2.233  0.5273  0.6518 -0.1987
  890TIP3   OH2 2626   2.516   3.477   2.974 -0.3688 -0.2942 -0.0769
  890TIP3    H1 2627   2.438   3.495   3.027 -0.7329 -2.3794  0.1693
  890TIP3    H2 2628   2.537   3.386   2.994  1.6895  0.0185 -0.7331
  891TIP3   OH2 2629   5.897   3.921   1.142 -0.1741 -0.2348 -0.5163
  891TIP3    H1 2630   5.872   3.862   1.213 -0.5495  0.4243 -0.0916
  891TIP3    H2 2631   5.918   3.863   1.069 -1.5855 -0.8721 -0.4387
  892TIP3   OH2 2632   5.985   2.765   0.269  0.2970  0.5267  0.3715
  892TIP3    H1 2633   5.925   2.827   0.311  0.3859 -0.0976  1.4417
  892TIP3    H2 2634   6.020   2.713   0.341  0.2358 -0.7623 -0.5068
  893TIP3   OH2 2635   5.571   1.890   1.439 -0.0246 -0.5978 -0.2727
  893TIP3    H1 2636   5.565   1.914   1.347  0.0325 -0.3933 -0.2242
  893TIP3    H2 2637   5.511   1.816   1.449  1.1968 -1.6807 -0.8237
  894TIP3   OH2 2638   2.572   4.496   0.295  0.7203 -0.6195  0.4106
  894TIP3    H1 2639   2.549   4.460   0.209  1.7426  0.5265 -0.3675
  894TIP3    H2 2640   2.495   4.481   0.349  0.3002 -1.9378 -0.5215
  895TIP3   OH2 2641   3.543   7.871   6.703 -0.2449 -0.2106 -0.1810
  895TIP3    H1 2642   3.599   7.844   6.775 -0.5384  0.3719  0.2634
  895TIP3    H2 2643   3.560   7.965   6.692  0.7529 -0.5475 -1.7028
  896TIP3   OH2 2644   3.278   2.722   2.067  0.4123  0.2127 -0.0788
  896TIP3    H1 2645   3.369   2.735   2.092  0.8219 -0.9716 -0.8621
  896TIP3    H2 2646   3.281   2.710   1.972 -0.5233 -0.0791 -0.0770
  897TIP3   OH2 2647   3.372   3.677   1.880  0.2915  0.1601 -0.8513
  897TIP3    H1 2648   3.372   3.670   1.976 -0.1411  3.1073 -0.5902
  897TIP3    H2 2649   3.339   3.593   1.850 -1.6738 -0.0378  1.6852
  898TIP3   OH2 2650   2.943   3.830   1.309  0.1487 -0.7771  0.1003
  898TIP3    H1 2651   2.874   3.767   1.330  1.3509 -1.3389  2.4727
  898TIP3    H2 2652   3.021   3.777   1.297  1.1080  0.2091  1.8528
  899TIP3   OH2 2653   4.091   4.678   1.237 -0.1081  0.3417 -0.7233
  899TIP3    H1 2654   4.169   4.666   1.290 -0.3716  1.2992 -0.1067
  899TIP3    H2 2655   4.028   4.614   1.272 -0.2910  0.9878  0.1553
  900TIP3   OH2 2656   5.079   3.430   1.456 -0.4610 -0.5655 -0.1266
  900TIP3    H1 2657   4.991   3.446   1.490 -0.5788  1.4720 -1.2972
  900TIP3    H2 2658   5.136   3.445   1.531 -0.8451  2.1367 -0.3082
  901TIP3   OH2 2659   3.990   2.906   0.518 -0.0067 -0.2411 -0.2050
  901TIP3    H1 2660   3.935   2.955   0.457 -0.4131 -2.0785 -1.3475
  901TIP3    H2 2661   3.945   2.914   0.603  0.0058  1.4420 -0.3443
  902TIP3   OH2 2662   5.791   7.374   6.264  0.7354  0.3372  0.1242
  902TIP3    H1 2663   5.737   7.401   6.338  0.7939  0.3657  0.1562
  902TIP3    H2 2664   5.753   7.290   6.236 -0.8489  1.5339 -1.4059
  903TIP3   OH2 2665   1.569   2.922   0.856  0.6230  0.0921 -0.0554
  903TIP3    H1 2666   1.653   2.967   0.854  1.7278 -1.8807  0.7727
  903TIP3    H2 2667   1.550   2.910   0.949  0.3093 -1.0662 -0.2636
  904TIP3   OH2 2668   2.962   4.013   0.894  0.0362 -0.5596  0.3000
  904TIP3    H1 2669   2.977   3.999   0.800  0.8109  1.6813  0.0565
  904TIP3    H2 2670   2.884   4.069   0.897 -0.1850 -0.9052  1.0133
  905TIP3   OH2 2671   5.067   6.986   6.057  0.0981 -0.4520  0.1603
  905TIP3    H1 2672   4.979   6.951   6.047 -0.0131 -0.4663  1.1282
  905TIP3    H2 2673   5.112   6.923   6.113  0.7175 -0.4370 -0.3157
  906TIP3   OH2 2674   5.653   1.581   0.199  0.0847  0.2059  0.2295
  906TIP3    H1 2675   5.615   1.497   0.228  0.9841 -0.2415  0.1206
  906TIP3    H2 2676   5.711   1.607   0.270 -0.2216  0.7557  0.2768
  907TIP3   OH2 2677   2.702   5.013   2.599  0.3338  0.1729  0.2593
  907TIP3    H1 2678   2.738   5.095   2.566 -1.2660  0.4166 -0.9038
  907TIP3    H2 2679   2.771   4.978   2.656  0.6111  2.8313  1.6219
  908TIP3   OH2 2680   6.369   6.103   6.627 -0.2649 -0.1523 -0.0106
  908TIP3    H1 2681   6.462   6.084   6.613 -0.5872 -1.4733 -0.4566
  908TIP3    H2 2682   6.323   6.046   6.565 -1.3204  1.6719 -0.9452
  909TIP3   OH2 2683   5.643   5.602   0.860 -0.2133  0.0913  0.0739
  909TIP3    H1 2684   5.714   5.666   0.859  0.2572 -0.4135  0.7597
  909TIP3    H2 2685   5.684   5.520   0.832  0.1410 -0.8549  3.1546
  910TIP3   OH2 2686   5.401   7.186   6.689  0.6297  0.6118  0.2879
  910TIP3    H1 2687   5.480   7.162   6.642 -0.1173  0.4552 -0.9001
  910TIP3    H2 2688   5.424   7.266   6.736  1.1245  1.2452 -1.0210
  911TIP3   OH2 2689   2.203   6.081   0.587 -0.7533  0.0544 -0.6423
  911TIP3    H1 2690   2.115   6.070   0.551 -1.0814  1.6918 -0.3759
  911TIP3    H2 2691   2.228   5.994   0.615 -3.0811 -0.1084  1.0842
  912TIP3   OH2 2692   4.829   4.925   3.261  0.5395 -0.5185 -0.4986
  912TIP3    H1 2693   4.901   4.887   3.212 -0.2266 -1.1196 -1.1668
  912TIP3    H2 2694   4.801   5.000   3.208  0.0236 -0.8814 -0.7357
  913TIP3   OH2 2695   5.948   1.049   0.652  0.9623 -0.2470  0.0945
  913TIP3    H1 2696   5.981   1.124   0.602 -0.0632  0.8112  0.9593
  913TIP3    H2 2697   5.900   0.997   0.588 -2.1163  2.1736  0.3201
  914TIP3   OH2 2698   5.656   5.372   6.063  0.3920  0.2031 -0.1127
  914TIP3    H1 2699   5.718   5.427   6.014  0.0562  1.8630  1.2958
  914TIP3    H2 2700   5.625   5.308   5.999  1.7204  0.8697 -1.4573
  915TIP3   OH2 2701   1.355   0.992   5.643  0.3855 -0.1260  0.1329
  915TIP3    H1 2702   1.442   1.019   5.673  0.5406  1.6406 -1.8121
  915TIP3    H2 2703   1.370   0.950   5.558 -0.5300 -1.0995  0.4303
  916TIP3   OH2 2704   1.376   4.603   2.280  0.0621  0.0689 -0.0787
  916TIP3    H1 2705   1.357   4.512   2.304  0.1286  0.4150  1.3821
  916TIP3    H2 2706   1.298   4.633   2.234 -0.3666 -0.4254  0.3190
  917TIP3   OH2 2707   6.493   3.208   1.371 -0.3921  0.8958 -0.0995
  917TIP3    H1 2708   6.413   3.261   1.368 -0.0328  1.4658  0.3869
  917TIP3    H2 2709   6.564   3.271   1.382  0.2683  0.5090 -1.9473
  918TIP3   OH2 2710   5.586   3.659   0.987  0.2627 -0.2851  0.2022
  918TIP3    H1 2711   5.676   3.674   0.958 -0.0749  0.8080 -0.2991
  918TIP3    H2 2712   5.534   3.663   0.906 -0.6338  2.3801  0.8679
  919TIP3   OH2 2713   3.517   3.014   2.047  0.3340  0.6259 -0.2113
  919TIP3    H1 2714   3.516   3.091   2.103  1.5583 -0.0731  0.7919
  919TIP3    H2 2715   3.592   3.026   1.990  0.2907  0.3718 -0.3239
  920TIP3   OH2 2716   4.890   2.677   1.260  0.4098  0.0518 -0.1841
  920TIP3    H1 2717   4.922   2.638   1.341 -2.4807 -0.4012  0.8107
  920TIP3    H2 2718   4.846   2.605   1.215 -1.0188  1.0948 -0.4843
  921TIP3   OH2 2719   3.478   6.793   5.193  0.1824  0.1022 -0.4867
  921TIP3    H1 2720   3.403   6.770   5.138  1.1647  1.0067 -2.2435
  921TIP3    H2 2721   3.531   6.713   5.197 -1.0995 -0.6914  1.1776
  922TIP3   OH2 2722   2.012   0.729   5.276  0.5617 -0.3812  0.1042
  922TIP3    H1 2723   2.057   0.701   5.356  1.5065 -2.2140 -1.0572
  922TIP3    H2 2724   1.987   0.648   5.232 -1.0266  0.6077 -0.8871
  923TIP3   OH2 2725   0.183   4.595   3.589  0.0860  0.1754  0.3375
  923TIP3    H1 2726   0.179   4.576   3.496  0.0450 -1.1627  0.6093
  923TIP3    H2 2727   0.103   4.557   3.625 -0.2556  1.3097  0.8188
  924TIP3   OH2 2728   2.155   3.550   1.523  0.3541 -0.1810  0.4277
  924TIP3    H1 2729   2.087   3.545   1.456  0.3389 -0.8861  0.4965
  924TIP3    H2 2730   2.106   3.558   1.605  0.3404 -1.4861  0.5498
  925TIP3   OH2 2731   2.343   5.200   0.545  0.0657 -0.6349 -0.0354
  925TIP3    H1 2732   2.258   5.181   0.505 -0.3713  0.5024  0.3256
  925TIP3    H2 2733   2.404   5.140   0.502 -1.0678 -2.0458  0.3084
  926TIP3   OH2 2734   4.406   6.062   0.337 -0.1029 -0.3853  0.0431
  926TIP3    H1 2735   4.492   6.099   0.319  0.0196 -0.3752  0.6443
  926TIP3    H2 2736   4.356   6.135   0.375 -0.3811 -0.3847 -0.3229
  927TIP3   OH2 2737   4.739   4.397   2.489  0.0657 -0.3659  0.3147
  927TIP3    H1 2738   4.668   4.342   2.522  1.9131 -3.6636 -1.0024
  927TIP3    H2 2739   4.811   4.382   2.549 -0.1423  2.6270  1.3898
  928TIP3   OH2 2740   6.661   3.402   1.434  0.1446  0.0352  0.1862
  928TIP3    H1 2741   6.740   3.376   1.481  0.2353  0.4654  0.2781
  928TIP3    H2 2742   6.639   3.488   1.470  0.7833  0.8178 -1.2438
  929TIP3   OH2 2743   6.017   2.352   1.698 -0.3146 -0.4006 -0.0843
  929TIP3    H1 2744   6.011   2.422   1.763 -1.6457 -0.6629  0.0813
  929TIP3    H2 2745   5.927   2.323   1.686  0.2865 -2.5060  0.3021
  930TIP3   OH2 2746   3.134   7.369   6.778 -0.4912 -0.1220  0.5548
  930TIP3    H1 2747   3.206   7.307   6.769  0.6475  1.2191  0.3081
  930TIP3    H2 2748   3.079   7.355   6.701  0.5449  0.1630 -0.2478
  931TIP3   OH2 2749   1.673   2.841   1.194 -0.0700 -0.0883  0.2321
  931TIP3    H1 2750   1.746   2.825   1.253  1.4258  0.3395 -1.4411
  931TIP3    H2 2751   1.648   2.753   1.164 -1.4874 -0.3853  2.2278
  932TIP3   OH2 2752   3.326   6.014   6.628 -0.2746 -0.0238  0.5280
  932TIP3    H1 2753   3.348   6.024   6.535 -0.3851  0.0329  0.5069
  932TIP3    H2 2754   3.410   5.996   6.671  0.3187  3.1590  0.8694
  933TIP3   OH2 2755   2.447   3.981   2.524 -0.6193  0.3143 -0.4542
  933TIP3    H1 2756   2.523   4.006   2.576  1.6831 -1.4212 -2.8792
  933TIP3    H2 2757   2.441   3.886   2.534 -2.0934  0.3526 -0.8072
  934TIP3   OH2 2758   1.103   4.670   0.036  0.6860  0.5713 -0.0605
  934TIP3    H1 2759   1.167   4.694  -0.031 -0.8214  0.4957 -1.5572
  934TIP3    H2 2760   1.080   4.579   0.016 -0.5427  0.8797 -0.0810
  935TIP3   OH2 2761   2.874   5.171   1.544 -0.2035 -0.3396  0.5177
  935TIP3    H1 2762   2.826   5.196   1.623 -0.3804  0.1796  0.2497
  935TIP3    H2 2763   2.877   5.075   1.548 -1.1681 -0.3815  0.5974
  936TIP3   OH2 2764   5.666   6.674   6.713 -0.0072  0.5262 -0.5042
  936TIP3    H1 2765   5.616   6.602   6.674  0.6433  0.9220 -2.0691
  936TIP3    H2 2766   5.658   6.659   6.808  2.1801 -3.0466 -0.8022
  937TIP3   OH2 2767   1.800   3.956   0.956 -0.2099 -0.3118 -0.7269
  937TIP3    H1 2768   1.830   3.972   0.866 -1.0963  1.1088 -0.7884
  937TIP3    H2 2769   1.777   3.863   0.957 -0.1251 -0.3580 -1.9517
  938TIP3   OH2 2770   1.527   2.566   1.336  0.1948  0.2979 -0.4120
  938TIP3    H1 2771   1.545   2.539   1.246 -0.1099 -2.5276  0.3261
  938TIP3    H2 2772   1.602   2.535   1.387  0.3051  1.7491  0.3169
  939TIP3   OH2 2773   4.326   3.306   1.814  0.4962 -0.2290 -0.2942
  939TIP3    H1 2774   4.334   3.338   1.724  1.2135 -1.5520 -0.7161
  939TIP3    H2 2775   4.299   3.383   1.865  1.6494  0.9024 -1.3664
  940TIP3   OH2 2776   2.609   4.186   0.175 -0.5224  0.3628 -0.3246
  940TIP3    H1 2777   2.691   4.139   0.160 -0.4093  0.1756  0.8619
  940TIP3    H2 2778   2.622   4.270   0.130  0.2779  0.2965 -0.2225
  941TIP3   OH2 2779   2.807   3.703   1.540 -0.5460 -0.2552  0.0065
  941TIP3    H1 2780   2.855   3.784   1.555  0.4822 -1.3467  2.8294
  941TIP3    H2 2781   2.874   3.634   1.541 -1.7534 -1.4519  0.7241
  942TIP3   OH2 2782   1.909   4.498   0.630 -0.0338  0.1192 -0.6247
  942TIP3    H1 2783   1.976   4.442   0.669  0.2608 -0.6901 -2.2329
  942TIP3    H2 2784   1.887   4.455   0.547 -0.2867  2.0367 -1.5793
  943TIP3   OH2 2785   1.401   4.954   3.253  0.7794  0.0413  0.0333
  943TIP3    H1 2786   1.347   4.997   3.187 -1.6021 -0.7538  1.4233
  943TIP3    H2 2787   1.410   5.019   3.323  2.0806  0.3527 -0.4032
  944TIP3   OH2 2788   1.942   0.766   6.841 -0.3781  0.2748  0.0970
  944TIP3    H1 2789   1.867   0.732   6.889 -0.3448 -0.6209 -0.4738
  944TIP3    H2 2790   1.966   0.696   6.780 -0.5069  1.4528 -1.3371
  945TIP3   OH2 2791   3.806   2.638   0.240 -0.3279 -0.0040  0.1501
  945TIP3    H1 2792   3.812   2.645   0.144  0.5228  2.1573  0.3403
  945TIP3    H2 2793   3.894   2.611   0.267  0.5741  3.1985  0.5989
  946TIP3   OH2 2794   1.813   5.623   1.134 -0.5531 -0.3029  0.2121
  946TIP3    H1 2795   1.837   5.703   1.180 -0.8464  0.2217 -0.5410
  946TIP3    H2 2796   1.790   5.561   1.203  1.4975 -0.3546  0.8808
  947TIP3   OH2 2797   2.904   2.752   0.256 -0.1955 -0.8634  0.0074
  947TIP3    H1 2798   2.986   2.801   0.249 -0.2147 -0.9835 -1.2928
  947TIP3    H2 2799   2.920   2.686   0.323  0.6193 -0.5829  0.0878
  948TIP3   OH2 2800   4.071   4.982   1.344 -0.0360 -0.2352  0.4059
  948TIP3    H1 2801   4.039   4.895   1.367  0.8723 -0.4517  0.8646
  948TIP3    H2 2802   4.010   5.012   1.276 -1.4266 -0.4759  1.5270
  949TIP3   OH2 2803   5.770   1.405   0.672  0.7595 -0.0987  0.6625
  949TIP3    H1 2804   5.732   1.397   0.585  0.5678  0.3609  0.6991
  949TIP3    H2 2805   5.725   1.481   0.710  0.0127 -0.9818  1.5830
  950TIP3   OH2 2806   3.186   3.907   0.738 -0.5186  0.3136 -0.1862
  950TIP3    H1 2807   3.238   3.872   0.809 -0.3724  1.6626  0.3864
  950TIP3    H2 2808   3.144   3.830   0.698  1.4681 -0.7287 -0.3227
  951TIP3   OH2 2809   5.291   6.116   6.345  0.2579 -0.5079  0.6907
  951TIP3    H1 2810   5.212   6.062   6.350  0.0406 -0.3048 -0.3591
  951TIP3    H2 2811   5.345   6.087   6.419 -1.4435  0.3895  2.3372
  952TIP3   OH2 2812   3.940   4.855   2.239 -0.2660  0.2527 -0.5439
  952TIP3    H1 2813   3.927   4.907   2.160 -1.4762 -0.8525 -1.0927
  952TIP3    H2 2814   3.853   4.851   2.280 -0.2181 -1.4291 -0.5804
  953TIP3   OH2 2815   3.844   3.223   1.335  0.2282  0.4363 -0.5357
  953TIP3    H1 2816   3.857   3.140   1.382 -0.9102  1.5782  1.8931
  953TIP3    H2 2817   3.782   3.201   1.265 -0.8780 -0.5702  0.7193
  954TIP3   OH2 2818   2.550   5.279   1.534 -0.0802  0.0671 -0.0914
  954TIP3    H1 2819   2.579   5.252   1.447 -0.1574  1.6337 -0.6138
  954TIP3    H2 2820   2.567   5.373   1.537 -1.1096  0.2254  1.1848
  955TIP3   OH2 2821   1.248   3.349   1.323 -0.2816 -0.3001  0.2422
  955TIP3    H1 2822   1.157   3.321   1.334 -0.3763  0.8036  2.6056
  955TIP3    H2 2823   1.299   3.269   1.334 -0.8701 -0.5993  0.8128
  956TIP3   OH2 2824   5.423   2.185   0.618 -0.5357  0.1630  0.1065
  956TIP3    H1 2825   5.416   2.270   0.660  0.2837 -0.1145  0.8163
  956TIP3    H2 2826   5.469   2.202   0.536 -0.3542  0.4001  0.2588
  957TIP3   OH2 2827   1.410   4.240   2.222  0.7468 -0.0997  0.4155
  957TIP3    H1 2828   1.316   4.256   2.233  0.7104  1.6208 -1.9937
  957TIP3    H2 2829   1.418   4.205   2.133  2.2553 -1.4990  1.0792
  958TIP3   OH2 2830   0.766   5.556   1.710 -0.0766 -0.1795 -0.3445
  958TIP3    H1 2831   0.777   5.636   1.659 -0.7424 -0.5451 -1.0645
  958TIP3    H2 2832   0.696   5.508   1.666 -0.0540 -0.9113  0.3956
  959TIP3   OH2 2833   2.235   4.249   1.975  0.2067 -0.6265 -0.5776
  959TIP3    H1 2834   2.169   4.314   2.002 -0.2455 -1.5527  0.5882
  959TIP3    H2 2835   2.225   4.243   1.880 -0.3276  0.3962 -0.5945
  960TIP3   OH2 2836   1.960   4.437   1.601 -0.5548  0.2852 -0.1403
  960TIP3    H1 2837   1.867   4.434   1.576 -0.8489 -0.6775  1.0117
  960TIP3    H2 2838   2.006   4.458   1.520 -1.5806 -1.5717 -1.2371
  961TIP3   OH2 2839   3.132   4.894   1.139  0.2760  0.7051  0.4247
  961TIP3    H1 2840   3.150   4.984   1.111  3.5742 -0.4417 -1.4823
  961TIP3    H2 2841   3.209   4.869   1.189  0.7397 -1.9863 -1.5381
  962TIP3   OH2 2842   3.795   4.900   1.271 -0.0789 -0.0392 -0.2584
  962TIP3    H1 2843   3.724   4.853   1.227  0.3142 -2.0894  1.2382
  962TIP3    H2 2844   3.785   4.877   1.363 -0.1493  3.2210  0.5982
  963TIP3   OH2 2845   0.959   5.008   3.460 -0.0793 -0.2285  0.2085
  963TIP3    H1 2846   1.030   5.027   3.521  0.1770  0.2149 -0.2312
  963TIP3    H2 2847   0.893   5.075   3.479 -0.1458 -0.3016  0.2353
  964TIP3   OH2 2848   1.728   2.717   2.473  0.4916 -0.2115 -0.4603
  964TIP3    H1 2849   1.754   2.794   2.523  0.3757 -0.2487 -0.3419
  964TIP3    H2 2850   1.647   2.688   2.514  0.6879 -0.5655 -0.3193
  965TIP3   OH2 2851   2.083   3.974   1.045  0.1987  0.4400 -0.0082
  965TIP3    H1 2852   2.123   3.965   1.131 -0.9686  0.1012  0.5009
  965TIP3    H2 2853   2.090   3.888   1.005 -1.5483 -0.0744  0.7570
  966TIP3   OH2 2854   0.926   1.360   6.626  0.0771  0.7444 -0.3046
  966TIP3    H1 2855   0.853   1.386   6.682 -0.4034  0.2711 -0.7077
  966TIP3    H2 2856   0.988   1.317   6.686 -0.9145 -0.7065 -0.3061
  967TIP3   OH2 2857   1.527   4.939   1.655 -0.0658 -0.4746 -0.4640
  967TIP3    H1 2858   1.486   5.009   1.605 -0.6531 -0.4555  0.0301
  967TIP3    H2 2859   1.538   4.976   1.743 -0.6173 -1.0841 -0.1326
  968TIP3   OH2 2860   2.604   2.309   2.800 -0.1198 -0.1780 -0.0946
  968TIP3    H1 2861   2.596   2.325   2.706  0.1091 -1.5523 -0.3653
  968TIP3    H2 2862   2.664   2.234   2.806  0.5630  0.4557  1.1810
  969TIP3   OH2 2863   2.751   4.993   1.233  0.2609  0.7575  0.0507
  969TIP3    H1 2864   2.796   5.078   1.243  0.6411  0.2962  2.5533
  969TIP3    H2 2865   2.671   5.002   1.285 -0.4500  0.0827 -0.9156
  970TIP3   OH2 2866   3.850   2.435   2.256  0.1724  0.2521 -0.1751
  970TIP3    H1 2867   3.772   2.454   2.307  0.9599  1.8948  0.4600
  970TIP3    H2 2868   3.850   2.340   2.246 -2.4044  0.3269 -1.0265
  971TIP3   OH2 2869   4.549   2.950   1.493 -0.1375 -0.0973 -0.5216
  971TIP3    H1 2870   4.475   2.948   1.553 -0.6292  1.3954 -1.0626
  971TIP3    H2 2871   4.510   2.962   1.407  0.6589 -0.7359 -0.9799
  972TIP3   OH2 2872   7.440   3.937   1.914 -0.5389  0.3229 -0.0437
  972TIP3    H1 2873   7.413   3.969   2.000  1.2011 -0.3641  0.7726
  972TIP3    H2 2874   7.387   3.988   1.852 -1.9972  0.6453  1.4202
  973TIP3   OH2 2875   2.320   3.420   1.791 -0.2046  0.1236 -0.1430
  973TIP3    H1 2876   2.324   3.325   1.803  2.0280  0.1773 -0.2888
  973TIP3    H2 2877   2.312   3.432   1.697 -0.0114  0.0839 -0.1653
  974TIP3   OH2 2878   5.126   3.177   3.159 -0.0383 -0.6593 -0.8167
  974TIP3    H1 2879   5.042   3.222   3.146  0.6230  0.3855 -1.4836
  974TIP3    H2 2880   5.122   3.146   3.250 -0.6731  0.3679 -0.4837
  975TIP3   OH2 2881   2.914   3.715   0.876  0.1808  0.5824 -0.0561
  975TIP3    H1 2882   3.009   3.704   0.887  0.5432  3.2911 -0.1971
  975TIP3    H2 2883   2.895   3.800   0.914 -2.3765 -0.3030  0.7494
  976TIP3   OH2 2884   3.604   3.026   1.532 -0.2162 -0.2816  0.0521
  976TIP3    H1 2885   3.673   2.975   1.575  0.9395  0.3119 -1.0396
  976TIP3    H2 2886   3.642   3.050   1.447 -0.4560  2.9347  0.7807
  977TIP3   OH2 2887   4.184   5.840   2.254 -0.7943  0.3944 -0.1681
  977TIP3    H1 2888   4.145   5.794   2.328  0.3838 -0.6669 -0.1859
  977TIP3    H2 2889   4.221   5.770   2.199 -0.1357  1.2827 -0.8729
  978TIP3   OH2 2890   3.354   3.556   1.506  0.0883  0.0903 -0.3156
  978TIP3    H1 2891   3.438   3.598   1.485 -0.4751  1.2793 -0.2090
  978TIP3    H2 2892   3.292   3.629   1.515 -0.3081 -0.5517  2.5718
  979TIP3   OH2 2893   6.331   1.875   0.603 -0.1325  0.3903 -0.3742
  979TIP3    H1 2894   6.393   1.804   0.619 -0.4328  0.4991  1.4627
  979TIP3    H2 2895   6.267   1.837   0.542  1.3349  0.0623 -1.7325
  980TIP3   OH2 2896   3.280   3.429   1.767 -0.3996  0.2946 -0.1222
  980TIP3    H1 2897   3.302   3.449   1.676  0.9377 -1.1133 -0.1241
  980TIP3    H2 2898   3.243   3.340   1.764 -1.3120  0.6372  0.5807
  981TIP3   OH2 2899   2.166   3.866   3.489  0.8740 -0.1455 -0.4820
  981TIP3    H1 2900   2.166   3.788   3.433  0.4614 -0.6718  0.2489
  981TIP3    H2 2901   2.258   3.893   3.491  1.1304 -1.0232 -0.1690
  982TIP3   OH2 2902   4.873   0.865   1.283 -0.0556 -0.5418  0.0763
  982TIP3    H1 2903   4.811   0.871   1.210 -1.0313 -2.2979  0.7381
  982TIP3    H2 2904   4.936   0.934   1.266 -0.7658 -0.3667 -1.9811
  983TIP3   OH2 2905   2.579   2.031   1.375  0.2885  0.1734  0.0306
  983TIP3    H1 2906   2.613   1.942   1.385  0.2374  0.2368  0.8081
  983TIP3    H2 2907   2.500   2.020   1.321  0.3422 -0.2382  0.0305
  984TIP3   OH2 2908   2.991   2.014   0.611  0.3584  0.1929 -0.3552
  984TIP3    H1 2909   2.966   2.057   0.693  1.0179 -3.2052  1.7122
  984TIP3    H2 2910   2.914   1.964   0.585  1.1427 -1.1515 -0.1492
  985TIP3   OH2 2911   3.029   3.568   2.278 -0.0665  0.1961 -0.1206
  985TIP3    H1 2912   3.060   3.496   2.223  2.4239 -0.4841  2.0741
  985TIP3    H2 2913   3.097   3.635   2.271 -0.3044  0.5952  1.1720
  986TIP3   OH2 2914   4.106   1.813   0.081 -0.6339  0.2219 -0.2543
  986TIP3    H1 2915   4.096   1.748   0.012  0.1719 -0.1462 -0.0390
  986TIP3    H2 2916   4.143   1.764   0.154 -1.2901  0.6517  0.3705
  987TIP3   OH2 2917   0.409   0.863   6.788 -0.3596  0.4904 -0.1263
  987TIP3    H1 2918   0.493   0.864   6.742  0.4126 -0.6388  1.2294
  987TIP3    H2 2919   0.350   0.816   6.729  0.0371  0.9708 -0.9219
  988TIP3   OH2 2920   4.803   7.104   6.659  0.1463  0.3174 -0.1529
  988TIP3    H1 2921   4.812   7.019   6.703 -0.5632 -0.5983 -1.7018
  988TIP3    H2 2922   4.740   7.153   6.713  1.2930  0.2325  1.2783
  989TIP3   OH2 2923   3.407   3.198   1.655  0.6576 -0.1018  0.1981
  989TIP3    H1 2924   3.398   3.145   1.734 -1.2742 -1.6455 -0.9941
  989TIP3    H2 2925   3.486   3.166   1.612  0.3536 -0.9488  0.2697
  990TIP3   OH2 2926   2.331   0.979   6.772  0.0362  0.4309  0.1471
  990TIP3    H1 2927   2.259   0.927   6.807  0.6401 -1.6578 -1.5742
  990TIP3    H2 2928   2.302   1.070   6.780 -2.7488 -0.3648 -0.4363
  991TIP3   OH2 2929   3.495   5.425   1.245  0.0492 -0.2508 -0.3787
  991TIP3    H1 2930   3.475   5.341   1.286 -1.4967 -0.4915 -1.5783
  991TIP3    H2 2931   3.492   5.407   1.151  3.8567  0.1996 -0.6928
  992TIP3   OH2 2932   4.494   4.888   1.906  0.4297 -1.1100  0.1224
  992TIP3    H1 2933   4.452   4.974   1.902 -1.3193 -1.8937  0.8828
  992TIP3    H2 2934   4.471   4.846   1.823 -0.6399 -1.6774  0.6898
  993TIP3   OH2 2935   3.711   4.204   1.548 -0.3906  0.2446 -0.5226
  993TIP3    H1 2936   3.680   4.289   1.580 -0.2849  0.0597  0.0739
  993TIP3    H2 2937   3.806   4.208   1.559 -0.3388  0.2331 -0.9479
  994TIP3   OH2 2938   7.613   4.202   0.710  0.5697  0.4872  0.3299
  994TIP3    H1 2939   7.585   4.196   0.801 -0.9981 -0.6686 -0.2003
  994TIP3    H2 2940   7.607   4.112   0.678  0.0588  1.0685 -1.2225
  995TIP3   OH2 2941   4.374   3.885   0.052 -0.2310  0.2765  0.1354
  995TIP3    H1 2942   4.444   3.949   0.053 -0.0628  0.1422 -1.3967
  995TIP3    H2 2943   4.412   3.809   0.008 -1.3292  0.2004 -0.6966
  996TIP3   OH2 2944   3.317   3.221   0.597  0.1459  0.4123  0.3173
  996TIP3    H1 2945   3.273   3.146   0.635 -1.5769  1.3291  0.1610
  996TIP3    H2 2946   3.353   3.269   0.672 -0.2446  0.3641  0.5323
  997TIP3   OH2 2947   5.145   4.154   0.873 -0.5520 -0.0433  0.0784
  997TIP3    H1 2948   5.228   4.195   0.849 -0.8764 -0.1188 -1.1630
  997TIP3    H2 2949   5.165   4.061   0.883 -0.3537  0.0350  0.4365
  998TIP3   OH2 2950   4.737   3.928   1.368  0.3336  0.2241  0.5054
  998TIP3    H1 2951   4.822   3.972   1.360 -0.4161  1.9455  1.5399
  998TIP3    H2 2952   4.711   3.943   1.459  0.1884 -2.7150  0.9838
  999TIP3   OH2 2953   2.049   1.273   6.511  0.1071  0.2920 -0.1156
  999TIP3    H1 2954   1.970   1.220   6.519  0.0675  0.6139  1.6381
  999TIP3    H2 2955   2.087   1.274   6.598  1.3047  1.3126 -0.6328
 1000TIP3   OH2 2956   3.495   3.062   0.806  0.9912 -0.5811 -0.4065
 1000TIP3    H1 2957   3.506   3.114   0.886 -0.8771 -0.5109 -0.1793
 1000TIP3    H2 2958   3.552   3.105   0.742  1.7167 -0.0207  0.6044
 1001TIP3   OH2 2959   3.794   3.842   1.484 -0.2811  0.1341 -0.5791
 1001TIP3    H1 2960   3.879   3.827   1.524 -0.7068 -0.3376  0.1634
 1001TIP3    H2 2961   3.813   3.859   1.392  0.5961 -0.1436 -0.4505
 1002TIP3   OH2 2962   6.203   3.622   0.553  0.1570  0.3112  0.2671
 1002TIP3    H1 2963   6.168   3.690   0.495 -0.5408  1.2348  1.7443
 1002TIP3    H2 2964   6.282   3.662   0.590 -0.5112  0.4988  1.5004
 1003TIP3   OH2 2965   3.345   2.582   1.183  0.0740  0.7458  0.2125
 1003TIP3    H1 2966   3.340   2.499   1.135 -2.4060  0.0351  1.5578
 1003TIP3    H2 2967   3.268   2.631   1.153 -0.7181  0.8638  2.3443
 1004TIP3   OH2 2968   2.603   3.474   1.517  0.1788 -0.1969  0.4032
 1004TIP3    H1 2969   2.690   3.498   1.548  0.9313  1.4319 -2.7326
 1004TIP3    H2 2970   2.565   3.556   1.487 -1.8648 -1.1296  0.3656
 1005TIP3   OH2 2971   7.862   6.909   6.273 -0.3520  0.0477 -0.1390
 1005TIP3    H1 2972   7.899   6.870   6.193 -1.1068  0.3587 -0.6368
 1005TIP3    H2 2973   7.928   6.973   6.300 -0.1420  0.0183 -0.5701
 1006TIP3   OH2 2974   4.406   3.861   0.435  0.9662 -0.0595  0.0721
 1006TIP3    H1 2975   4.410   3.951   0.403  0.4516 -0.4638 -1.1759
 1006TIP3    H2 2976   4.471   3.814   0.382  1.0393 -0.4793  0.5318
 1007TIP3   OH2 2977   1.408   4.703   1.533 -0.0071 -0.2691 -0.5774
 1007TIP3    H1 2978   1.451   4.787   1.551  0.9686 -0.6965 -0.8927
 1007TIP3    H2 2979   1.393   4.704   1.439 -0.2486 -0.3286 -0.5390
 1008TIP3   OH2 2980   3.097   6.653   0.191  1.1174 -0.3766 -0.6575
 1008TIP3    H1 2981   3.055   6.600   0.123  1.6529 -0.6344 -0.7945
 1008TIP3    H2 2982   3.112   6.738   0.150 -0.7765  0.2497 -0.0715
 1009TIP3   OH2 2983   5.555   2.603   0.571 -0.0401 -0.1824 -0.0126
 1009TIP3    H1 2984   5.610   2.564   0.503 -0.7888 -1.7580  0.2538
 1009TIP3    H2 2985   5.527   2.528   0.624 -2.6537  0.5398 -0.3011
 1010TIP3   OH2 2986   2.820   0.897   1.473 -0.3134 -0.1280 -0.9215
 1010TIP3    H1 2987   2.870   0.890   1.555  1.0509 -1.5202 -1.8473
 1010TIP3    H2 2988   2.872   0.956   1.419 -1.5148  1.2630 -0.5974
 1011TIP3   OH2 2989   1.045   2.765   1.182  0.5916  0.0507 -0.2216
 1011TIP3    H1 2990   1.109   2.818   1.230  1.9888 -1.3480 -0.4857
 1011TIP3    H2 2991   0.977   2.827   1.156  0.9623  1.2602  1.5621
 1012TIP3   OH2 2992   8.315   7.005   5.498 -0.1808 -0.1932 -0.6740
 1012TIP3    H1 2993   8.244   6.953   5.534  0.2399 -2.1490 -2.5593
 1012TIP3    H2 2994   8.308   7.090   5.542 -0.0341 -2.2203  3.4471
 1013TIP3   OH2 2995   7.467   6.824   5.136 -0.0836 -0.3248 -0.6718
 1013TIP3    H1 2996   7.493   6.763   5.067 -0.1386  0.7892 -1.6927
 1013TIP3    H2 2997   7.376   6.802   5.155 -0.6235  0.5187 -2.2189
 1014TIP3   OH2 2998   2.620   2.965   1.430 -0.3311  0.5653  0.1135
 1014TIP3    H1 2999   2.606   2.875   1.398 -0.3640  1.5036 -2.6936
 1014TIP3    H2 3000   2.709   2.987   1.402 -0.3053  1.3943  0.8281
 1015TIP3   OH2 3001   3.744   3.472   2.551  0.5368  0.4809 -0.4560
 1015TIP3    H1 3002   3.650   3.492   2.548  0.5461  0.3988 -1.9845
 1015TIP3    H2 3003   3.786   3.556   2.567  0.2215  0.6226 -0.3665
 1016TIP3   OH2 3004   0.733   2.370   0.491 -0.4235 -0.5074 -0.0316
 1016TIP3    H1 3005   0.701   2.281   0.472 -3.3034  0.1568  1.4348
 1016TIP3    H2 3006   0.806   2.357   0.551  0.3052 -1.9605 -1.1984
 1017TIP3   OH2 3007   3.862   5.164   2.234 -0.5740  0.1667  0.3938
 1017TIP3    H1 3008   3.879   5.231   2.301 -0.2213 -0.0215  0.4930
 1017TIP3    H2 3009   3.768   5.169   2.218 -0.7605 -0.2022  1.3444
 1018TIP3   OH2 3010   3.844   3.282   0.039 -0.4555  0.0626 -0.1234
 1018TIP3    H1 3011   3.908   3.340  -0.002  1.1949 -1.7360 -0.1829
 1018TIP3    H2 3012   3.790   3.340   0.093  0.4545  1.7815 -1.0314
 1019TIP3   OH2 3013   0.644   0.037   6.171  0.0349  0.9302  0.5916
 1019TIP3    H1 3014   0.614  -0.048   6.139  0.2114  1.2073 -0.3246
 1019TIP3    H2 3015   0.739   0.037   6.157  0.3897  0.3849  2.7205
 1020TIP3   OH2 3016   3.564   5.196   2.240  0.4165  0.2155 -0.0960
 1020TIP3    H1 3017   3.578   5.106   2.213  0.3558  0.3038 -0.4247
 1020TIP3    H2 3018   3.505   5.233   2.174  0.0354  0.3486  0.3222
 1021TIP3   OH2 3019   4.776   5.171   0.625 -0.0829 -0.4355  0.6139
 1021TIP3    H1 3020   4.845   5.106   0.638 -0.5952 -1.1237  0.0103
 1021TIP3    H2 3021   4.706   5.122   0.581 -1.0361  0.1954  1.4085
 1022TIP3   OH2 3022   3.390   4.151   1.710 -0.5506 -0.3115  0.4618
 1022TIP3    H1 3023   3.437   4.125   1.789  0.1494 -0.5329 -0.0256
 1022TIP3    H2 3024   3.434   4.230   1.681 -0.4626 -0.5313 -0.0080
 1023TIP3   OH2 3025   2.338   6.550   0.510 -0.0057 -0.3711  0.3361
 1023TIP3    H1 3026   2.331   6.502   0.592  2.5513  0.6105  1.2093
 1023TIP3    H2 3027   2.419   6.518   0.470 -0.9971 -0.5196 -1.5822
 1024TIP3   OH2 3028   3.200   2.801   1.120  0.3958 -0.1009  0.7019
 1024TIP3    H1 3029   3.262   2.829   1.052 -0.8994  1.0206 -0.0444
 1024TIP3    H2 3030   3.115   2.834   1.090 -0.7391 -2.4579  1.2100
 1025TIP3   OH2 3031   2.365   5.097   1.468 -0.1172  0.2801  0.5550
 1025TIP3    H1 3032   2.311   5.084   1.546  0.0820 -0.1707  0.6202
 1025TIP3    H2 3033   2.430   5.162   1.494 -1.9028  2.4154 -0.1531
 1026TIP3   OH2 3034   2.914   3.846   0.565 -0.2874  0.3389  0.0938
 1026TIP3    H1 3035   2.874   3.900   0.496 -0.7966  1.6068  1.3613
 1026TIP3    H2 3036   2.953   3.772   0.518 -0.8752  1.0390 -1.5276
 1027TIP3   OH2 3037   2.324   3.608   0.611  0.1638 -0.2760 -0.1942
 1027TIP3    H1 3038   2.394   3.554   0.575  1.9225  0.0798  2.5083
 1027TIP3    H2 3039   2.245   3.554   0.604  1.3390 -2.0134 -0.2515
 1028TIP3   OH2 3040   1.074   5.910   1.404  0.7834  0.0451 -0.0773
 1028TIP3    H1 3041   1.080   5.979   1.338  0.3262  0.6494  0.5139
 1028TIP3    H2 3042   1.053   5.831   1.354 -2.1958  0.9806 -0.3909
 1029TIP3   OH2 3043   0.769   6.844   6.716 -0.5627  0.6975 -0.4532
 1029TIP3    H1 3044   0.834   6.891   6.664 -0.1400 -1.0178 -1.5373
 1029TIP3    H2 3045   0.755   6.762   6.668 -0.9239 -0.4882  1.6066
 1030TIP3   OH2 3046   3.845   1.785   0.150  0.4650  0.7884 -0.2418
 1030TIP3    H1 3047   3.935   1.782   0.118  0.5011  1.5516 -0.2149
 1030TIP3    H2 3048   3.800   1.844   0.090  0.0396  0.6073 -0.1061
 1031TIP3   OH2 3049   4.725   3.149   1.447 -0.1593  0.5844  0.6573
 1031TIP3    H1 3050   4.787   3.142   1.520 -0.0570  0.1169  0.5278
 1031TIP3    H2 3051   4.681   3.064   1.444  0.0731  0.4859 -0.0336
 1032TIP3   OH2 3052   3.768   1.768   1.745 -0.3176  0.0271 -0.0308
 1032TIP3    H1 3053   3.758   1.847   1.797 -0.3500  0.4763 -0.7111
 1032TIP3    H2 3054   3.792   1.700   1.808 -0.9651  0.4307  0.6453
 1033TIP3   OH2 3055   8.262   7.953   0.310 -0.2571  0.0440 -0.2060
 1033TIP3    H1 3056   8.330   7.976   0.245  0.7453  0.0819  0.8434
 1033TIP3    H2 3057   8.310   7.943   0.392 -1.4833 -0.3274  0.4717
 1034TIP3   OH2 3058   1.139   4.053   0.829  0.3243 -0.2388  0.0384
 1034TIP3    H1 3059   1.218   4.090   0.868 -0.4721  0.0074  1.4546
 1034TIP3    H2 3060   1.078   4.045   0.902 -0.8576 -0.7170 -0.9852
 1035TIP3   OH2 3061   3.558   3.143   2.744 -0.2416  0.5268 -0.0671
 1035TIP3    H1 3062   3.465   3.121   2.747 -0.5516  1.7249 -0.4436
 1035TIP3    H2 3063   3.573   3.194   2.824  0.4676 -1.0208  0.8103
 1036TIP3   OH2 3064   6.140   2.466   0.761  0.4110 -0.3437  0.3657
 1036TIP3    H1 3065   6.061   2.454   0.813 -1.3375  2.5435 -1.4117
 1036TIP3    H2 3066   6.129   2.406   0.687  0.4967 -0.8461  0.7576
 1037TIP3   OH2 3067   4.515   2.503   1.978  0.2577 -0.5872  0.0280
 1037TIP3    H1 3068   4.532   2.529   2.069  0.7793 -0.9165  0.0212
 1037TIP3    H2 3069   4.435   2.551   1.955  0.6721  0.2594  0.3375
 1038TIP3   OH2 3070   4.091   4.222   0.796 -0.1490 -0.3954 -0.0866
 1038TIP3    H1 3071   4.156   4.261   0.855  0.2528 -1.7771  0.3880
 1038TIP3    H2 3072   4.142   4.163   0.741 -0.7606 -0.2341 -0.8244
 1039TIP3   OH2 3073   5.201   4.551   6.874 -0.8628  0.3262  0.6444
 1039TIP3    H1 3074   5.234   4.464   6.896 -0.7231  0.0942 -0.4541
 1039TIP3    H2 3075   5.136   4.536   6.805  0.0141  1.1940 -0.3834
 1040TIP3   OH2 3076   4.035   4.207   0.306 -0.4535  0.3919  1.0284
 1040TIP3    H1 3077   4.095   4.237   0.238 -0.3449  0.1359  1.0112
 1040TIP3    H2 3078   4.040   4.275   0.374 -0.1300  0.3631  1.0340
 1041TIP3   OH2 3079   4.050   3.462   0.351 -0.1143  0.2974  0.3130
 1041TIP3    H1 3080   4.089   3.391   0.402 -1.0603  1.0317  2.1185
 1041TIP3    H2 3081   4.103   3.539   0.372 -2.0725  1.1732  2.3155
 1042TIP3   OH2 3082   3.365   3.175   5.986  0.3125 -0.6877 -0.1509
 1042TIP3    H1 3083   3.426   3.243   5.958 -1.1903  1.5633  1.8093
 1042TIP3    H2 3084   3.279   3.205   5.955 -0.1710 -2.4771 -0.5990
 1043TIP3   OH2 3085   6.222   6.479   6.253  0.6330 -0.3588  0.0955
 1043TIP3    H1 3086   6.204   6.398   6.300  1.2968 -1.3425 -1.3242
 1043TIP3    H2 3087   6.312   6.502   6.278  0.8120 -0.6184 -0.3104
 1044TIP3   OH2 3088   1.812   2.132   2.760  0.3436  0.5770  0.8268
 1044TIP3    H1 3089   1.882   2.090   2.710  0.4398  0.4805  1.0417
 1044TIP3    H2 3090   1.797   2.215   2.715  2.7733  2.0438  2.6054
 1045TIP3   OH2 3091   8.478   0.134   6.581 -0.5605  0.0427 -0.3374
 1045TIP3    H1 3092   8.512   0.111   6.668 -1.3450  1.0901  0.2674
 1045TIP3    H2 3093   8.414   0.066   6.562 -1.3582  0.5493  0.5048
 1046TIP3   OH2 3094   6.156   2.718   2.022 -0.4134 -0.5330  0.6905
 1046TIP3    H1 3095   6.119   2.663   1.952 -0.6687  1.2296 -0.5772
 1046TIP3    H2 3096   6.160   2.660   2.098 -0.8535 -2.2620 -0.5730
 1047TIP3   OH2 3097   6.422   0.716   5.525  0.4164 -0.0441 -0.3915
 1047TIP3    H1 3098   6.491   0.685   5.583 -0.7814 -2.5092 -0.2210
 1047TIP3    H2 3099   6.455   0.700   5.437 -0.0327 -1.5446 -0.3079
 1048TIP3   OH2 3100   1.853   0.388   6.393 -0.0510  0.0884 -0.2127
 1048TIP3    H1 3101   1.917   0.372   6.323  0.6496  0.0228  0.4421
 1048TIP3    H2 3102   1.812   0.303   6.408  0.1476 -0.0014 -0.1889
 1049TIP3   OH2 3103   4.615   4.414   0.688 -0.4688  0.0276 -0.3604
 1049TIP3    H1 3104   4.551   4.395   0.757  2.3869  0.4995  2.5519
 1049TIP3    H2 3105   4.647   4.327   0.661 -1.1418 -0.1318 -0.6508
 1050TIP3   OH2 3106   4.677   2.308   0.285 -0.1495  0.1058 -0.2283
 1050TIP3    H1 3107   4.631   2.307   0.369  0.8443  2.2115  0.3569
 1050TIP3    H2 3108   4.656   2.393   0.247  1.0417 -0.0167 -1.1886
 1051TIP3   OH2 3109   6.966   3.918   0.397 -0.3112  0.0954  0.1238
 1051TIP3    H1 3110   6.908   3.882   0.330  1.6244  0.7909 -1.9908
 1051TIP3    H2 3111   6.987   3.844   0.454 -0.9048 -0.8307 -0.8527
 1052TIP3   OH2 3112   0.117   6.676   6.657 -0.1661  0.3053  0.5909
 1052TIP3    H1 3113   0.205   6.699   6.685  0.2995 -0.7177 -0.0080
 1052TIP3    H2 3114   0.125   6.586   6.624 -1.3504  0.3455  0.1774
 1053TIP3   OH2 3115   2.907   3.416   1.531  0.1656  0.4206  0.5204
 1053TIP3    H1 3116   2.964   3.462   1.592  0.4260  0.6135  0.1362
 1053TIP3    H2 3117   2.957   3.413   1.449 -0.0564 -0.0963  0.4016
 1054TIP3   OH2 3118   6.040   2.773   1.391  0.3028 -0.1525 -0.3957
 1054TIP3    H1 3119   5.976   2.748   1.457 -1.4580  0.2430 -1.8965
 1054TIP3    H2 3120   6.083   2.850   1.426  1.8378 -1.9209  1.7897
 1055TIP3   OH2 3121   6.734   3.962   1.179 -0.2743 -0.7170  0.0642
 1055TIP3    H1 3122   6.679   4.040   1.169  1.8722  1.1365  2.2922
 1055TIP3    H2 3123   6.707   3.905   1.107 -1.2921  2.4260 -2.1572
 1056TIP3   OH2 3124   5.850   4.709   0.666  0.4010  0.0919  0.1311
 1056TIP3    H1 3125   5.800   4.692   0.746 -1.7310 -0.2263 -1.2103
 1056TIP3    H2 3126   5.808   4.653   0.600  0.7076  1.9779 -1.6992
 1057TIP3   OH2 3127   5.641   3.109   0.508 -0.0062 -0.2766  0.3257
 1057TIP3    H1 3128   5.624   3.025   0.550  0.6390 -0.4465  0.2518
 1057TIP3    H2 3129   5.723   3.096   0.460  0.1166  0.4048  0.3441
 1058TIP3   OH2 3130   2.894   5.214   3.048  0.3810  0.5352 -0.2657
 1058TIP3    H1 3131   2.989   5.221   3.042  0.6316  1.0294  3.1447
 1058TIP3    H2 3132   2.864   5.304   3.059 -0.2614  0.2042  0.8183
 1059TIP3   OH2 3133   6.098   3.026   0.551  0.1273 -0.7298  0.0873
 1059TIP3    H1 3134   6.103   2.945   0.601 -0.0479 -0.5077  0.4658
 1059TIP3    H2 3135   6.131   3.093   0.611  1.9653 -0.7834 -0.8148
 1060TIP3   OH2 3136   6.217   3.300   1.125 -0.0746  0.0631 -0.3541
 1060TIP3    H1 3137   6.303   3.341   1.138 -0.1572 -0.0401  0.6157
 1060TIP3    H2 3138   6.236   3.213   1.092  0.1837  0.1700 -0.4873
 1061TIP3   OH2 3139   4.308   4.539   1.378  0.3995 -0.4161 -1.1764
 1061TIP3    H1 3140   4.345   4.453   1.356  0.7547 -1.4781  3.1086
 1061TIP3    H2 3141   4.283   4.532   1.470 -3.4953  2.7850 -1.8465
 1062TIP3   OH2 3142   5.431   2.861   0.240 -0.0360 -0.7834 -0.3275
 1062TIP3    H1 3143   5.520   2.884   0.214 -0.4036 -0.9063 -1.6858
 1062TIP3    H2 3144   5.392   2.821   0.163 -1.6554  0.3337 -0.1227
 1063TIP3   OH2 3145   2.409   7.694   6.825  0.3021  0.2319  0.1291
 1063TIP3    H1 3146   2.410   7.786   6.799 -0.6852  0.2625  0.1841
 1063TIP3    H2 3147   2.472   7.652   6.765  2.4343  1.2994  1.5676
 1064TIP3   OH2 3148   1.921   5.802   6.640  0.4939  0.0406  0.4521
 1064TIP3    H1 3149   2.007   5.815   6.679  1.0495 -0.5820 -0.5599
 1064TIP3    H2 3150   1.888   5.722   6.682  0.3265  0.3753  0.9677
 1065TIP3   OH2 3151   4.113   2.927   1.772  0.2027 -0.2335 -0.3984
 1065TIP3    H1 3152   4.068   3.011   1.779  1.2400  0.2863  0.2563
 1065TIP3    H2 3153   4.109   2.890   1.861  2.1500  0.4136 -0.0129
 1066TIP3   OH2 3154   5.761   4.137   0.079 -0.3988 -0.0589  0.3920
 1066TIP3    H1 3155   5.675   4.158   0.114 -0.0505 -0.4303  1.4888
 1066TIP3    H2 3156   5.817   4.130   0.156  1.2740  3.0704 -0.4376
 1067TIP3   OH2 3157   1.225   4.970   6.746 -0.6922  0.2557 -0.4995
 1067TIP3    H1 3158   1.308   5.018   6.751 -0.1277 -0.7435 -0.0007
 1067TIP3    H2 3159   1.223   4.918   6.826 -1.8214  0.2960 -0.5012
 1068TIP3   OH2 3160   5.313   5.378   0.483 -0.0477 -0.1737 -0.5997
 1068TIP3    H1 3161   5.233   5.334   0.511  1.0441 -2.5154 -0.9831
 1068TIP3    H2 3162   5.353   5.316   0.421  1.2013  1.6989 -1.7088
 1069TIP3   OH2 3163   6.461   4.172   0.867 -0.2926  0.3933  0.5189
 1069TIP3    H1 3164   6.384   4.206   0.821 -0.7849 -2.0677 -0.5730
 1069TIP3    H2 3165   6.535   4.195   0.811 -0.7634 -1.4771 -0.9438
 1070TIP3   OH2 3166   7.046   3.450   3.103  0.1349  0.5831  0.2212
 1070TIP3    H1 3167   7.099   3.521   3.138 -1.0475  1.8542 -0.5310
 1070TIP3    H2 3168   7.044   3.465   3.009 -0.5354 -0.1514  0.1145
 1071TIP3   OH2 3169   5.539   3.550   1.813  0.0155 -0.5434 -0.1384
 1071TIP3    H1 3170   5.570   3.622   1.868  0.8298 -1.6092  0.8251
 1071TIP3    H2 3171   5.618   3.502   1.788 -0.3455 -0.1085 -2.2386
 1072TIP3   OH2 3172   8.468   6.801   6.196 -0.0449  0.0711  0.0087
 1072TIP3    H1 3173   8.474   6.791   6.101  1.8216 -0.0684  0.1090
 1072TIP3    H2 3174   8.431   6.888   6.209  2.8160  1.4849 -0.8775
 1073TIP3   OH2 3175   3.710   1.293   5.855 -0.1036  0.1004  0.5778
 1073TIP3    H1 3176   3.621   1.287   5.890  0.2816  0.4078  1.6364
 1073TIP3    H2 3177   3.706   1.366   5.792 -0.4189  0.6140  1.1870
 1074TIP3   OH2 3178   5.181   2.374   1.681 -0.0132 -0.2467  0.2806
 1074TIP3    H1 3179   5.264   2.421   1.692 -0.4273  0.4703  0.4186
 1074TIP3    H2 3180   5.149   2.364   1.771 -1.8056  2.6805  0.0413
 1075TIP3   OH2 3181   3.532   0.817   5.620 -0.1333  0.6289  0.1792
 1075TIP3    H1 3182   3.493   0.776   5.697  0.3632 -0.2242 -0.0250
 1075TIP3    H2 3183   3.591   0.884   5.655 -0.8551  1.1005  0.5117
 1076TIP3   OH2 3184   4.222   3.524   1.936 -0.3903 -0.2775 -0.5144
 1076TIP3    H1 3185   4.131   3.501   1.923 -0.3824 -1.6526  1.5739
 1076TIP3    H2 3186   4.222   3.580   2.014  0.5014  0.0663 -0.7440
 1077TIP3   OH2 3187   5.704   4.383   1.490  0.0151 -0.1982  0.2462
 1077TIP3    H1 3188   5.742   4.470   1.478  1.2519 -0.5209  1.5763
 1077TIP3    H2 3189   5.754   4.346   1.563 -1.8853 -1.2222  1.0604
 1078TIP3   OH2 3190   5.760   3.746   1.330  0.1628 -0.4537  0.2176
 1078TIP3    H1 3191   5.698   3.734   1.403  1.7361 -0.1156  1.6542
 1078TIP3    H2 3192   5.795   3.659   1.313 -0.7094 -0.6457 -0.5970
 1079TIP3   OH2 3193   3.058   3.081   2.112  0.2886  0.4825  0.8024
 1079TIP3    H1 3194   3.014   2.997   2.107  1.1672 -0.0291  1.4903
 1079TIP3    H2 3195   3.030   3.118   2.196  0.3001  0.6434  0.7355
 1080TIP3   OH2 3196   4.559   2.808   1.960 -0.2575  0.2964  0.0245
 1080TIP3    H1 3197   4.476   2.789   2.003 -0.9021  1.0262 -0.8677
 1080TIP3    H2 3198   4.535   2.862   1.885  1.1704  1.8224  0.6297
 1081TIP3   OH2 3199   3.595   2.474   0.157  0.3923 -0.0707  0.1987
 1081TIP3    H1 3200   3.520   2.528   0.183  0.4938 -0.2853  0.9475
 1081TIP3    H2 3201   3.668   2.535   0.149  0.4304 -0.0413  0.7230
 1082TIP3   OH2 3202   0.481   7.960   6.317  0.1435 -0.1994 -0.2016
 1082TIP3    H1 3203   0.430   8.037   6.295 -1.5492 -1.6903 -1.5726
 1082TIP3    H2 3204   0.565   7.973   6.272 -0.7966 -0.0120 -1.9355
 1083TIP3   OH2 3205   6.651   3.997   0.094  0.1325  0.4235 -0.3453
 1083TIP3    H1 3206   6.703   3.924   0.129  2.6770  1.3857 -1.9690
 1083TIP3    H2 3207   6.581   4.009   0.158 -0.1938 -3.2497  0.0968
 1084TIP3   OH2 3208   1.766   7.307   5.903 -0.4556  0.7377  0.0266
 1084TIP3    H1 3209   1.792   7.346   5.819  2.3406 -2.3107 -0.5922
 1084TIP3    H2 3210   1.844   7.262   5.935 -1.6276  1.3823  4.0703
 1085TIP3   OH2 3211   6.674   4.155   0.660  0.0557 -0.2408  0.3282
 1085TIP3    H1 3212   6.643   4.218   0.595  0.1627  0.5129  1.0088
 1085TIP3    H2 3213   6.763   4.134   0.632 -0.1124 -0.3873 -0.1112
 1086TIP3   OH2 3214   5.199   3.114   1.053 -0.4018  0.0055 -0.2352
 1086TIP3    H1 3215   5.198   3.050   1.124  1.8880  2.4611  2.1262
 1086TIP3    H2 3216   5.148   3.188   1.087 -1.0981  0.3614 -2.0157
 1087TIP3   OH2 3217   5.706   2.477   0.344 -0.2001  0.0810  0.3799
 1087TIP3    H1 3218   5.776   2.438   0.397  0.7471 -0.0350 -0.9347
 1087TIP3    H2 3219   5.749   2.500   0.262 -1.4685  1.0412 -0.0195
 1088TIP3   OH2 3220   6.460   2.614   0.504  0.5193  0.4274  0.1597
 1088TIP3    H1 3221   6.475   2.572   0.589  1.8950  0.5215 -0.0212
 1088TIP3    H2 3222   6.426   2.701   0.526  1.6943  0.7701  0.6486
 1089TIP3   OH2 3223   7.145   2.919   0.756  0.0072  0.2476  0.5932
 1089TIP3    H1 3224   7.073   2.886   0.810  0.5106  0.0780  1.1609
 1089TIP3    H2 3225   7.224   2.880   0.794  0.3406 -0.0779 -0.4211
 1090TIP3   OH2 3226   4.953   3.699   0.877 -0.3754 -0.1704  0.2894
 1090TIP3    H1 3227   4.908   3.775   0.840  1.6618  0.1916 -1.5848
 1090TIP3    H2 3228   4.891   3.627   0.867 -2.0309  1.0824  1.3790
 1091TIP3   OH2 3229   6.083   1.642   0.464  0.1273  0.0330 -0.3949
 1091TIP3    H1 3230   6.062   1.649   0.557 -1.9206 -0.4974 -0.7952
 1091TIP3    H2 3231   6.147   1.571   0.459  0.8052  0.5481  0.6662
 1092TIP3   OH2 3232   6.701   3.246   3.349 -0.2924  0.7619  0.1130
 1092TIP3    H1 3233   6.793   3.243   3.323 -0.4469  0.8890 -0.4545
 1092TIP3    H2 3234   6.701   3.216   3.440  0.3734  1.2492  0.2803
 1093TIP3   OH2 3235   3.131   1.149   1.836  0.3108  0.3288  0.1086
 1093TIP3    H1 3236   3.162   1.222   1.782  0.0446  1.4607  1.4523
 1093TIP3    H2 3237   3.063   1.188   1.892  0.8346 -0.7230  1.5022
 1094TIP3   OH2 3238   5.174   6.748   1.868  0.3265 -0.2336 -0.4165
 1094TIP3    H1 3239   5.144   6.658   1.855  0.9910 -0.6863  1.0620
 1094TIP3    H2 3240   5.094   6.797   1.886  0.0433 -0.6925 -0.4021
 1095TIP3   OH2 3241   4.995   3.080   0.895  0.1565  0.1538  0.1256
 1095TIP3    H1 3242   5.069   3.082   0.955  0.0308 -1.1609  0.3175
 1095TIP3    H2 3243   4.941   3.007   0.924 -0.3965  0.1016 -0.9924
 1096TIP3   OH2 3244   3.821   4.858   0.217  0.1285  0.2798 -0.0473
 1096TIP3    H1 3245   3.749   4.813   0.261  0.4542 -1.4265 -1.2241
 1096TIP3    H2 3246   3.804   4.951   0.233 -0.7713 -0.2156  2.0847
 1097TIP3   OH2 3247   7.138   3.229   2.680 -0.6536  0.2700 -0.0632
 1097TIP3    H1 3248   7.134   3.247   2.774 -0.2026  0.1467 -0.0209
 1097TIP3    H2 3249   7.122   3.135   2.673  2.0267 -0.2361  0.1086
 1098TIP3   OH2 3250   5.211   3.066   1.830 -0.2146 -0.7313  0.2338
 1098TIP3    H1 3251   5.168   3.011   1.895 -1.8421 -1.0812 -1.1075
 1098TIP3    H2 3252   5.251   3.004   1.769 -0.7279 -0.4194 -0.4212
 1099TIP3   OH2 3253   6.855   2.532   1.618 -0.3314  0.1714  0.0749
 1099TIP3    H1 3254   6.787   2.594   1.590 -1.0957 -0.5049  0.4144
 1099TIP3    H2 3255   6.883   2.489   1.537 -0.5391  0.2264 -0.0284
 1100TIP3   OH2 3256   2.730   0.140   6.617 -0.1917 -0.2707 -0.1107
 1100TIP3    H1 3257   2.812   0.091   6.616  0.0078  0.0473 -1.9539
 1100TIP3    H2 3258   2.758   0.232   6.615 -0.5871 -0.1649 -0.8609
 1101TIP3   OH2 3259   4.630   5.168   2.371  0.5395  0.0421  0.0256
 1101TIP3    H1 3260   4.561   5.231   2.352 -0.2370 -0.3896  1.3546
 1101TIP3    H2 3261   4.631   5.110   2.295 -0.3155  0.2508 -0.1529
 1102TIP3   OH2 3262   2.980   0.738   5.628 -0.1905 -0.0302  0.0353
 1102TIP3    H1 3263   3.024   0.670   5.678 -1.8367 -0.7134  0.6045
 1102TIP3    H2 3264   3.050   0.782   5.579  1.0627 -1.2000  0.7532
 1103TIP3   OH2 3265   5.834   4.974   0.545 -0.1024  0.0743 -0.1652
 1103TIP3    H1 3266   5.755   4.938   0.504  0.6411 -0.6802 -0.9472
 1103TIP3    H2 3267   5.845   4.921   0.624 -1.7942  1.8275  1.3016
 1104TIP3   OH2 3268   0.511   6.934   6.447  0.0700  0.7762 -0.3252
 1104TIP3    H1 3269   0.472   6.969   6.527  0.2683 -0.1822  0.2063
 1104TIP3    H2 3270   0.604   6.952   6.456  0.0542  0.9154 -0.4610
 1105TIP3   OH2 3271   5.699   2.933   0.144  0.2305 -0.2929 -0.1327
 1105TIP3    H1 3272   5.720   2.928   0.051 -1.4659 -1.7458 -0.4533
 1105TIP3    H2 3273   5.711   3.026   0.166 -0.4117  0.2662 -2.0521
 1106TIP3   OH2 3274   3.993   4.268   1.539 -0.0438 -0.4385  0.4657
 1106TIP3    H1 3275   4.018   4.286   1.629 -1.0533  0.2863  0.6063
 1106TIP3    H2 3276   4.076   4.253   1.493  0.4917 -0.4035  1.4210
 1107TIP3   OH2 3277   3.611   1.083   4.759 -0.3038  0.0105  0.0376
 1107TIP3    H1 3278   3.515   1.085   4.761 -0.3164  2.3756 -0.5169
 1107TIP3    H2 3279   3.634   0.991   4.765 -2.6057 -0.5418  0.7718
 1108TIP3   OH2 3280   5.351   4.088   1.575 -0.0548  0.1734 -0.1273
 1108TIP3    H1 3281   5.271   4.041   1.554 -0.1611  0.5899 -0.6786
 1108TIP3    H2 3282   5.375   4.133   1.494 -0.7758  2.2654  0.7816
 1109TIP3   OH2 3283   6.863   6.964   6.589  0.3925 -0.5454  0.1078
 1109TIP3    H1 3284   6.797   6.898   6.612 -1.3611  0.1706 -2.5704
 1109TIP3    H2 3285   6.868   6.960   6.493  3.5728  0.1147  0.2042
 1110TIP3   OH2 3286   5.281   2.694   3.420 -0.3780 -0.1442 -0.0691
 1110TIP3    H1 3287   5.376   2.701   3.430 -0.1625  0.8454 -2.3150
 1110TIP3    H2 3288   5.245   2.745   3.492  0.7853 -0.9574  1.0966
 1111TIP3   OH2 3289   5.843   2.092   0.560  0.1064 -0.0886  0.0235
 1111TIP3    H1 3290   5.749   2.103   0.548  0.0478 -1.5784 -1.1336
 1111TIP3    H2 3291   5.852   2.053   0.647 -0.2070  1.6812  0.8613
 1112TIP3   OH2 3292   4.266   0.427   6.699  0.0387  0.3714 -0.0273
 1112TIP3    H1 3293   4.273   0.399   6.790 -0.9037 -1.4322 -0.5036
 1112TIP3    H2 3294   4.197   0.493   6.699  0.5763  0.9416  0.6850
 1113TIP3   OH2 3295   1.166   5.938   6.722  0.1985 -0.0090  0.1421
 1113TIP3    H1 3296   1.084   5.888   6.720 -0.0922  0.4794 -0.3860
 1113TIP3    H2 3297   1.214   5.908   6.645  0.1796  0.2623  0.0241
 1114TIP3   OH2 3298   4.652   4.679   0.630 -0.0946  0.2802 -0.2856
 1114TIP3    H1 3299   4.616   4.681   0.542  0.8878 -0.3371 -0.7074
 1114TIP3    H2 3300   4.662   4.586   0.649  1.5260  0.4514 -0.2786
 1115TIP3   OH2 3301   0.940   7.014   6.570  0.0294  0.4341 -0.0362
 1115TIP3    H1 3302   0.980   6.945   6.517 -1.1481 -0.5592  0.3283
 1115TIP3    H2 3303   1.007   7.038   6.633  1.1926  1.1168 -1.4840
 1116TIP3   OH2 3304   5.357   4.187   1.315 -0.3388 -0.8688  0.0721
 1116TIP3    H1 3305   5.276   4.238   1.326  0.7816  0.7593  0.9698
 1116TIP3    H2 3306   5.398   4.224   1.237 -0.5476 -1.8386 -0.5027
 1117TIP3   OH2 3307   5.522   3.409   1.128 -0.0528  0.2446 -0.5490
 1117TIP3    H1 3308   5.434   3.406   1.167 -1.1008  0.9677 -2.7512
 1117TIP3    H2 3309   5.533   3.500   1.101  1.8723  0.4218  0.7415
 1118TIP3   OH2 3310   1.367   5.914   6.190 -0.0074 -0.2987 -0.0826
 1118TIP3    H1 3311   1.343   5.935   6.100 -1.2806  0.9548  0.5244
 1118TIP3    H2 3312   1.284   5.914   6.238  0.9030  1.5301  1.5764
 1119TIP3   OH2 3313   3.115   0.028   5.526  0.0253  0.2625 -0.2158
 1119TIP3    H1 3314   3.175   0.034   5.600  1.7305  0.8540 -1.5930
 1119TIP3    H2 3315   3.065  -0.051   5.542  0.3013  0.4316  1.6074
 1120TIP3   OH2 3316   3.291   0.515   6.052  0.1786 -0.0645  0.3092
 1120TIP3    H1 3317   3.306   0.559   6.135 -1.2278  0.0560  0.5102
 1120TIP3    H2 3318   3.196   0.504   6.047  0.3549 -1.2693 -0.6622
 1121TIP3   OH2 3319   5.605   2.902   1.915  0.1279 -0.3220  0.4012
 1121TIP3    H1 3320   5.672   2.970   1.908  1.3401 -1.4452  0.7414
 1121TIP3    H2 3321   5.630   2.852   1.992 -0.4679 -1.4398 -0.1191
 1122TIP3   OH2 3322   4.211   4.705   1.866  0.0447 -0.4300  0.6750
 1122TIP3    H1 3323   4.250   4.754   1.939 -0.4922 -0.4737  0.9938
 1122TIP3    H2 3324   4.256   4.738   1.789 -0.0348  0.2875  0.9271
 1123TIP3   OH2 3325   6.019   4.495   1.248  0.7879 -0.1782 -0.3000
 1123TIP3    H1 3326   6.005   4.587   1.271  0.0764 -0.7715  1.7390
 1123TIP3    H2 3327   5.938   4.451   1.274 -0.1472 -0.8919 -4.2324
 1124TIP3   OH2 3328   1.418   5.398   6.416  0.1560  1.0210 -0.4805
 1124TIP3    H1 3329   1.413   5.404   6.512  2.1993 -0.7920 -0.2297
 1124TIP3    H2 3330   1.438   5.487   6.387 -2.4265  1.9878  0.6153
 1125TIP3   OH2 3331   4.967   3.639   2.693 -0.0553 -0.0371  0.0246
 1125TIP3    H1 3332   5.014   3.592   2.762  1.2179  0.5435 -0.4376
 1125TIP3    H2 3333   4.887   3.671   2.736 -0.0259 -1.0095  0.8141
 1126TIP3   OH2 3334   6.348   3.637   1.654  0.2930 -0.0261  0.0684
 1126TIP3    H1 3335   6.391   3.688   1.723  0.8673 -0.0798 -0.2516
 1126TIP3    H2 3336   6.407   3.643   1.579  0.9416 -2.1564  0.3899
 1127TIP3   OH2 3337   4.702   2.894   0.047  0.7407 -0.4137  0.0982
 1127TIP3    H1 3338   4.667   2.805   0.053  0.1737 -0.1522  0.6929
 1127TIP3    H2 3339   4.672   2.938   0.126  1.1997  0.2511 -0.0849
 1128TIP3   OH2 3340   8.208   6.213   6.586  0.0193 -0.7331  0.2912
 1128TIP3    H1 3341   8.294   6.243   6.554 -0.0883 -1.6091 -0.8392
 1128TIP3    H2 3342   8.177   6.285   6.640  1.1452 -0.0920  0.1072
 1129TIP3   OH2 3343   5.022   4.824   0.000 -0.4297 -0.1746 -0.1575
 1129TIP3    H1 3344   4.929   4.810  -0.021 -0.6501 -2.1149  1.8310
 1129TIP3    H2 3345   5.045   4.748   0.054  1.8354  1.2086  0.8722
 1130TIP3   OH2 3346   4.591   5.727   0.105  0.5825 -0.0917  0.2462
 1130TIP3    H1 3347   4.502   5.711   0.137  0.7181 -1.7261 -0.1833
 1130TIP3    H2 3348   4.646   5.723   0.184  0.4305 -0.3134  0.3400
 1131TIP3   OH2 3349   5.177   2.899   1.225  0.2033  0.3257 -0.3050
 1131TIP3    H1 3350   5.244   2.839   1.192  1.3114  0.3636  1.8210
 1131TIP3    H2 3351   5.154   2.864   1.311 -1.8822  0.8190 -0.6440
 1132TIP3   OH2 3352   1.282   1.964   6.331 -0.3136  0.0817 -0.1033
 1132TIP3    H1 3353   1.342   1.955   6.257  0.8888 -0.4276  0.9132
 1132TIP3    H2 3354   1.304   1.891   6.389 -2.3018 -0.4344  0.0202
 1133TIP3   OH2 3355   4.169   3.706   0.699 -0.3956 -0.5435  0.1960
 1133TIP3    H1 3356   4.078   3.733   0.709 -0.7661 -2.4040  2.0559
 1133TIP3    H2 3357   4.183   3.704   0.604 -1.3145  2.8442 -0.0765
 1134TIP3   OH2 3358   7.127   7.931   6.732  0.2766  0.2041 -0.2899
 1134TIP3    H1 3359   7.131   7.931   6.827  1.7147  0.5862 -0.3454
 1134TIP3    H2 3360   7.071   8.006   6.710  1.1351  0.9843  0.2032
 1135TIP3   OH2 3361   4.043   5.081   2.026 -0.6362  0.2043 -0.3632
 1135TIP3    H1 3362   4.135   5.100   2.042 -1.0154  1.9016 -0.0869
 1135TIP3    H2 3363   3.997   5.116   2.102 -1.4001 -1.8777  0.1780
 1136TIP3   OH2 3364   5.257   3.900   0.284  0.3507  0.0239 -0.1853
 1136TIP3    H1 3365   5.343   3.886   0.245 -0.0774  0.4794 -1.3146
 1136TIP3    H2 3366   5.195   3.884   0.213 -0.4753  0.1822  0.4884
 1137TIP3   OH2 3367   6.199   5.116   1.051 -0.2386  0.6657  0.0217
 1137TIP3    H1 3368   6.258   5.095   1.123  0.9947 -0.6438 -1.3413
 1137TIP3    H2 3369   6.194   5.036   0.999 -1.1098  1.5781 -1.3457
 1138TIP3   OH2 3370   5.430   4.287   1.085 -0.0498 -0.1073  0.3749
 1138TIP3    H1 3371   5.505   4.330   1.043 -0.8361  0.0279 -0.9172
 1138TIP3    H2 3372   5.370   4.268   1.013 -1.1953 -0.3568  1.3765
 1139TIP3   OH2 3373   3.142   1.864   6.554 -0.2241  0.5868  0.2634
 1139TIP3    H1 3374   3.132   1.958   6.563  0.3350  0.7316 -0.5619
 1139TIP3    H2 3375   3.061   1.836   6.510 -1.0256  0.4746  1.7855
 1140TIP3   OH2 3376   6.175   5.651  -0.013  0.2296 -0.1145 -0.0215
 1140TIP3    H1 3377   6.153   5.725   0.044 -1.3867  1.3143 -2.4019
 1140TIP3    H2 3378   6.270   5.641  -0.005  0.1894  0.8861  1.9023
 1141TIP3   OH2 3379   7.709   6.351   5.427  0.0380 -0.0404 -0.2103
 1141TIP3    H1 3380   7.657   6.273   5.443  1.0107 -0.9704 -1.4472
 1141TIP3    H2 3381   7.645   6.419   5.407 -0.8166 -0.5123  0.8861
 1142TIP3   OH2 3382   4.676   3.029   0.314  0.7808  0.3421  0.4005
 1142TIP3    H1 3383   4.695   3.092   0.245 -1.3704 -0.4555 -0.9466
 1142TIP3    H2 3384   4.756   2.977   0.321  0.8206  0.0369 -1.9273
 1143TIP3   OH2 3385   2.429   3.432   2.386  0.7042  0.0622 -0.1003
 1143TIP3    H1 3386   2.349   3.384   2.408  1.3519  0.6613  3.8891
 1143TIP3    H2 3387   2.500   3.374   2.413  1.5911  0.7441 -0.9555
 1144TIP3   OH2 3388   7.822   3.410   3.716  0.0933 -0.0226  0.2926
 1144TIP3    H1 3389   7.745   3.369   3.755 -0.8723  1.0652 -0.4301
 1144TIP3    H2 3390   7.797   3.502   3.705  1.5111  0.3524  0.0820
 1145TIP3   OH2 3391   4.927   4.319   0.880 -0.5513 -0.1903  0.0250
 1145TIP3    H1 3392   4.866   4.263   0.832 -1.4140  1.3853 -0.7519
 1145TIP3    H2 3393   5.005   4.265   0.892 -0.5888 -0.8715 -2.5222
 1146TIP3   OH2 3394   5.354   2.585   1.704  0.3593 -0.1008 -0.2799
 1146TIP3    H1 3395   5.407   2.663   1.691  0.3764 -0.0458  0.0987
 1146TIP3    H2 3396   5.268   2.619   1.730  0.5629 -0.2157  0.5766
 1147TIP3   OH2 3397   5.899   3.503   1.369  0.0891  0.2415 -0.4742
 1147TIP3    H1 3398   5.939   3.520   1.454 -0.7995  1.0948 -0.2158
 1147TIP3    H2 3399   5.880   3.410   1.369  0.2151  0.2165  0.2098
 1148TIP3   OH2 3400   3.741   5.680   2.454  0.1317  0.1113  0.2483
 1148TIP3    H1 3401   3.695   5.735   2.391  3.0293  2.0144 -0.3235
 1148TIP3    H2 3402   3.725   5.723   2.539  0.0923  0.2307  0.1808
 1149TIP3   OH2 3403   6.161   1.602   1.726 -0.0184 -0.5647 -0.0463
 1149TIP3    H1 3404   6.127   1.685   1.692 -0.6400 -0.6248  0.4249
 1149TIP3    H2 3405   6.251   1.597   1.692  0.4471  0.8833  0.9221
 1150TIP3   OH2 3406   8.285   0.476   1.004  0.0448 -0.1138  0.3081
 1150TIP3    H1 3407   8.266   0.404   0.943 -0.0731  0.0715  0.1267
 1150TIP3    H2 3408   8.333   0.434   1.075 -0.2091 -0.4131  0.3068
 1151TIP3   OH2 3409   2.072   4.474   2.665 -0.3112 -0.2090  0.2811
 1151TIP3    H1 3410   2.086   4.381   2.684 -0.5098 -0.4110 -0.5170
 1151TIP3    H2 3411   1.984   4.492   2.697 -1.4459 -1.0526 -2.1587
 1152TIP3   OH2 3412   5.612   3.946   0.978 -0.0656 -0.1581  0.6503
 1152TIP3    H1 3413   5.606   3.850   0.976  1.1804 -0.2246 -0.5839
 1152TIP3    H2 3414   5.656   3.965   1.061 -0.4421 -0.6406  0.9656
 1153TIP3   OH2 3415   6.056   2.888   1.746 -0.0200 -0.3692  0.2896
 1153TIP3    H1 3416   6.041   2.981   1.765  3.5605  0.4787 -0.5280
 1153TIP3    H2 3417   5.994   2.867   1.677 -0.2848  1.6749 -0.1347
 1154TIP3   OH2 3418   3.602   4.369   0.467  0.0835  0.3481  0.2779
 1154TIP3    H1 3419   3.618   4.275   0.455 -1.2375  0.1519 -0.0673
 1154TIP3    H2 3420   3.680   4.411   0.431 -0.4602 -0.5416 -2.0536
 1155TIP3   OH2 3421   6.156   7.018   5.705 -0.4411  0.3736 -0.1474
 1155TIP3    H1 3422   6.242   6.980   5.726 -0.5759 -0.2378 -0.6876
 1155TIP3    H2 3423   6.123   7.050   5.789  0.2282  0.4335  0.0998
 1156TIP3   OH2 3424   6.705   4.348   0.168 -0.0933 -0.3515  0.4816
 1156TIP3    H1 3425   6.789   4.303   0.161 -0.0290 -0.0879 -0.6095
 1156TIP3    H2 3426   6.727   4.441   0.167 -0.2075 -0.2643  3.0118
 1157TIP3   OH2 3427   4.607   4.548   0.984 -0.5086  1.0872  0.7078
 1157TIP3    H1 3428   4.609   4.619   1.049 -1.0061  0.7780  1.0754
 1157TIP3    H2 3429   4.696   4.542   0.951  0.3568 -0.3958  3.1736
 1158TIP3   OH2 3430   7.037   2.897   0.208 -0.3989  0.1236  0.4117
 1158TIP3    H1 3431   7.056   2.933   0.295 -1.3618  3.2722 -0.5915
 1158TIP3    H2 3432   6.944   2.917   0.195 -0.2338 -0.2335 -1.3516
 1159TIP3   OH2 3433   8.180   7.284   6.277 -0.0116 -0.1100  0.0939
 1159TIP3    H1 3434   8.212   7.311   6.191  0.3107  3.9758  1.3645
 1159TIP3    H2 3435   8.255   7.300   6.335 -0.9541 -0.6452  1.4622
 1160TIP3   OH2 3436   4.651   0.851   6.919 -0.2005  0.6717  0.6327
 1160TIP3    H1 3437   4.656   0.760   6.889  0.3020  1.0755 -0.5624
 1160TIP3    H2 3438   4.557   0.871   6.917 -0.3483  0.0750  1.2509
 1161TIP3   OH2 3439   6.762   5.326   0.439  0.6851  0.4207 -0.2458
 1161TIP3    H1 3440   6.808   5.350   0.358  0.2592  0.5997 -0.4378
 1161TIP3    H2 3441   6.809   5.249   0.471 -0.5315 -1.0516 -1.8904
 1162TIP3   OH2 3442   7.375   4.387   0.731 -0.1919 -0.2357 -0.0675
 1162TIP3    H1 3443   7.335   4.374   0.817 -0.0016 -0.2100  0.0238
 1162TIP3    H2 3444   7.392   4.298   0.700  0.3917 -0.2288  0.2252
 1163TIP3   OH2 3445   5.459   4.905   0.871  0.2822 -0.1891 -0.3271
 1163TIP3    H1 3446   5.457   4.853   0.952  1.4266  0.8785  0.3903
 1163TIP3    H2 3447   5.487   4.992   0.899 -0.7361  0.5842 -1.6622
 1164TIP3   OH2 3448   7.396   7.162   6.527  0.1170  0.2060 -0.0582
 1164TIP3    H1 3449   7.430   7.154   6.617  1.8197 -3.1131 -0.9187
 1164TIP3    H2 3450   7.400   7.256   6.509  1.2468  0.7683  2.7967
 1165TIP3   OH2 3451   7.073   2.527   2.731 -0.6411  0.5719  0.5865
 1165TIP3    H1 3452   7.065   2.510   2.825  0.1479 -1.9352  0.2363
 1165TIP3    H2 3453   7.157   2.571   2.721 -0.7569  0.8979  1.0771
 1166TIP3   OH2 3454   5.339   4.103   2.081  0.3484  0.5016  0.0014
 1166TIP3    H1 3455   5.420   4.075   2.039  0.6418 -1.7135  1.9827
 1166TIP3    H2 3456   5.284   4.134   2.009  1.3225 -2.0144 -1.8685
 1167TIP3   OH2 3457   3.294   4.712   0.106  0.2039  0.0126  0.0568
 1167TIP3    H1 3458   3.250   4.767   0.041 -0.8718 -1.9564 -0.9097
 1167TIP3    H2 3459   3.381   4.752   0.116  0.3570  0.4261 -2.4974
 1168TIP3   OH2 3460   0.098   6.925   4.749  0.4885 -0.2218  0.0988
 1168TIP3    H1 3461   0.127   6.869   4.821 -0.6062  0.6238  1.2058
 1168TIP3    H2 3462   0.113   6.872   4.670 -1.7086 -2.5981  1.1994
 1169TIP3   OH2 3463   7.350   5.971   6.350 -0.0464  0.2444  0.0068
 1169TIP3    H1 3464   7.441   5.945   6.340  0.3046  1.7018 -0.7069
 1169TIP3    H2 3465   7.303   5.922   6.283  0.1133 -0.9459  0.7537
 1170TIP3   OH2 3466   5.874   1.697   1.290  0.2485  0.3452 -0.2967
 1170TIP3    H1 3467   5.920   1.779   1.274 -0.1789  0.5434 -0.5335
 1170TIP3    H2 3468   5.836   1.707   1.377 -0.4510  0.7162 -0.6337
 1171TIP3   OH2 3469   4.366   3.530   3.121  0.1178  0.4809 -0.0605
 1171TIP3    H1 3470   4.399   3.523   3.031  0.0860 -2.6481  0.1074
 1171TIP3    H2 3471   4.429   3.480   3.173 -1.5782 -0.4174  1.1631
 1172TIP3   OH2 3472   3.473   4.436   0.930 -0.6012  0.5886 -0.6278
 1172TIP3    H1 3473   3.481   4.413   0.838 -0.6699 -1.6799 -0.1008
 1172TIP3    H2 3474   3.400   4.497   0.933 -2.3940 -1.4064 -1.7823
 1173TIP3   OH2 3475   4.529   0.523   5.840 -0.2400 -0.0701  0.3434
 1173TIP3    H1 3476   4.511   0.541   5.748  2.9001 -0.1299 -0.3209
 1173TIP3    H2 3477   4.443   0.501   5.877 -2.0499  3.0035 -1.8346
 1174TIP3   OH2 3478   1.478   0.552   6.442 -0.2788  0.5211  0.0346
 1174TIP3    H1 3479   1.478   0.458   6.456  3.0230  0.5420  0.7011
 1174TIP3    H2 3480   1.425   0.565   6.364 -0.1836 -1.9835 -0.4782
 1175TIP3   OH2 3481   8.185   2.809   1.722  0.2302  0.1563 -0.2875
 1175TIP3    H1 3482   8.146   2.890   1.690 -0.2416 -0.1625 -0.5324
 1175TIP3    H2 3483   8.219   2.766   1.644 -1.6194 -0.9952 -0.4747
 1176TIP3   OH2 3484   5.387   5.498   0.932  0.0136 -0.5279 -0.2753
 1176TIP3    H1 3485   5.331   5.570   0.960 -0.2646 -1.0863  0.6243
 1176TIP3    H2 3486   5.471   5.539   0.912 -0.3184  0.1273 -0.3208
 1177TIP3   OH2 3487   4.036   4.031   1.002 -0.1817 -0.1687  0.0446
 1177TIP3    H1 3488   4.047   4.083   0.922  1.1344 -0.9816 -0.3170
 1177TIP3    H2 3489   4.100   3.961   0.994 -0.4033 -0.5659  1.5797
 1178TIP3   OH2 3490   7.138   5.702   1.394  0.1792  0.3467  0.3119
 1178TIP3    H1 3491   7.217   5.653   1.368 -0.3618  0.1459 -1.0206
 1178TIP3    H2 3492   7.089   5.640   1.448  1.1201  0.6114  1.4828
 1179TIP3   OH2 3493   0.527   7.054   6.825  0.4862 -0.1005  0.2270
 1179TIP3    H1 3494   0.511   6.965   6.857  2.2729 -0.3445  0.5036
 1179TIP3    H2 3495   0.440   7.088   6.803 -0.2949 -1.6052  0.9295
 1180TIP3   OH2 3496   3.142   5.189   0.789  1.0321  0.0866  0.3538
 1180TIP3    H1 3497   3.228   5.170   0.826  0.8245 -0.8673  0.3473
 1180TIP3    H2 3498   3.161   5.220   0.700  1.2855 -1.5888 -0.1910
 1181TIP3   OH2 3499   4.184   6.392   1.091  0.7500  0.1245  0.9587
 1181TIP3    H1 3500   4.236   6.328   1.140  1.7815  0.5055  0.3801
 1181TIP3    H2 3501   4.107   6.407   1.146  0.5667 -1.4941  1.1702
 1182TIP3   OH2 3502   2.569   1.107   6.187  0.1980 -0.0782  0.4446
 1182TIP3    H1 3503   2.554   1.021   6.147  0.2807  0.7459 -1.4418
 1182TIP3    H2 3504   2.657   1.100   6.225  0.1057 -0.9045  0.5262
 1183TIP3   OH2 3505   8.116   7.614   6.229  0.0944  0.2795 -0.4016
 1183TIP3    H1 3506   8.202   7.628   6.268 -0.4506  0.7677  0.6417
 1183TIP3    H2 3507   8.068   7.695   6.247 -0.5958  0.0020 -0.9604
 1184TIP3   OH2 3508   2.158   7.635   6.654 -0.6683  0.3058  0.0584
 1184TIP3    H1 3509   2.240   7.632   6.704 -0.0991  2.2341 -0.7187
 1184TIP3    H2 3510   2.136   7.543   6.639  0.7520 -0.2557  1.2382
 1185TIP3   OH2 3511   8.004   6.479   6.917  0.2824  0.0895  0.0728
 1185TIP3    H1 3512   8.057   6.559   6.919  0.9033 -0.3320  0.7120
 1185TIP3    H2 3513   7.979   6.470   6.825 -1.7913  2.3131  0.3495
 1186TIP3   OH2 3514   6.626   2.047   0.491  0.3070  0.0832  0.5598
 1186TIP3    H1 3515   6.710   2.051   0.447 -0.1235  0.1856 -0.2645
 1186TIP3    H2 3516   6.633   1.971   0.549  0.0229 -1.5734 -1.4986
 1187TIP3   OH2 3517   1.429   6.055   6.830  0.1089 -0.1544 -0.1556
 1187TIP3    H1 3518   1.487   6.110   6.776 -0.0326  0.2742  0.1338
 1187TIP3    H2 3519   1.351   6.042   6.775  0.1960 -0.1775 -0.2756
 1188TIP3   OH2 3520   0.158   6.264   6.884  0.3219 -0.0338 -0.5749
 1188TIP3    H1 3521   0.198   6.298   6.965 -0.3019  1.0715 -0.7250
 1188TIP3    H2 3522   0.135   6.174   6.905  1.0380 -0.0462  0.1799
 1189TIP3   OH2 3523   5.864   3.337   0.531 -0.1433 -0.5492  0.0883
 1189TIP3    H1 3524   5.939   3.358   0.587  0.2321  0.2286 -0.6935
 1189TIP3    H2 3525   5.875   3.245   0.508  1.9725  0.2116 -2.1085
 1190TIP3   OH2 3526   5.106   2.941   0.083  0.0616 -0.4062  1.0191
 1190TIP3    H1 3527   5.175   2.877   0.095 -0.8683 -1.5106  0.6195
 1190TIP3    H2 3528   5.026   2.895   0.109 -0.6009  0.6231  0.8392
 1191TIP3   OH2 3529   0.238   4.437   6.877 -0.5142 -0.0515  0.6124
 1191TIP3    H1 3530   0.272   4.493   6.947 -0.2506  0.5782 -0.0015
 1191TIP3    H2 3531   0.266   4.481   6.797 -0.4185 -1.0030  0.1144
 1192TIP3   OH2 3532   6.581   3.338   0.920 -0.4241 -0.2042 -0.4069
 1192TIP3    H1 3533   6.538   3.379   0.994 -0.1000 -2.4776  1.0871
 1192TIP3    H2 3534   6.531   3.367   0.844  0.5056  3.8691  0.3865
 1193TIP3   OH2 3535   3.454   3.981   1.216 -0.2766  0.3963 -0.2992
 1193TIP3    H1 3536   3.486   4.071   1.223 -1.3604  0.5594  3.3178
 1193TIP3    H2 3537   3.364   3.990   1.186 -0.2558  0.4729 -0.3394
 1194TIP3   OH2 3538   2.283   2.265   6.604 -0.1281 -0.0908 -1.0270
 1194TIP3    H1 3539   2.188   2.273   6.592 -0.7462 -3.5137  0.8902
 1194TIP3    H2 3540   2.317   2.244   6.517 -1.3118 -0.2767 -1.4550
 1195TIP3   OH2 3541   2.405   6.776   6.887  0.3929  0.4544  0.0193
 1195TIP3    H1 3542   2.333   6.828   6.850  0.1731 -0.0883 -0.3161
 1195TIP3    H2 3543   2.478   6.839   6.895  1.0884  0.1414 -3.2282
 1196TIP3   OH2 3544   7.314   4.099   0.680  0.4195  0.2373  0.1794
 1196TIP3    H1 3545   7.394   4.049   0.663 -0.9260 -1.6580 -0.7650
 1196TIP3    H2 3546   7.306   4.100   0.775  1.3554  0.0915  0.2600
 1197TIP3   OH2 3547   7.624   4.801   0.939  0.3256  0.4165  0.5337
 1197TIP3    H1 3548   7.649   4.732   1.001 -1.1171 -1.2782 -0.7095
 1197TIP3    H2 3549   7.529   4.805   0.945  0.2575  1.0042 -0.7686
 1198TIP3   OH2 3550   8.273   6.420   2.011  0.4921 -0.2566  0.2875
 1198TIP3    H1 3551   8.266   6.401   1.917  1.1806  2.0588 -0.2654
 1198TIP3    H2 3552   8.305   6.338   2.049  2.8898 -0.4194 -1.9131
 1199TIP3   OH2 3553   7.881   3.538   0.034  0.1009 -0.4332 -0.4215
 1199TIP3    H1 3554   7.878   3.454  -0.012  2.9711 -1.4080  1.0576
 1199TIP3    H2 3555   7.937   3.593  -0.021  1.8761 -0.9553  0.8123
 1200TIP3   OH2 3556   7.823   4.735   0.074  0.1319  0.0947 -0.2701
 1200TIP3    H1 3557   7.746   4.745   0.130 -0.3702  1.5471 -1.1915
 1200TIP3    H2 3558   7.894   4.714   0.135 -0.9445 -1.0924  0.6036
 1201TIP3   OH2 3559   6.533   4.208   1.143  0.4040 -0.1066  0.2576
 1201TIP3    H1 3560   6.551   4.297   1.175  1.3220 -1.2746  3.1824
 1201TIP3    H2 3561   6.530   4.217   1.048  2.0283  2.7939  0.4138
 1202TIP3   OH2 3562   5.622   2.602   1.320 -0.0552  0.0069  0.6087
 1202TIP3    H1 3563   5.652   2.693   1.324 -0.4645  0.1143  1.2834
 1202TIP3    H2 3564   5.532   2.608   1.288  0.0907 -0.2038  0.1476
 1203TIP3   OH2 3565   6.154   2.595   2.276  0.1308  0.0981 -0.6942
 1203TIP3    H1 3566   6.232   2.553   2.312  0.4257  0.7329 -0.5707
 1203TIP3    H2 3567   6.094   2.602   2.351 -0.5494 -1.5372 -1.0794
 1204TIP3   OH2 3568   5.781   1.287   6.771 -0.0570  0.0600  0.4923
 1204TIP3    H1 3569   5.690   1.313   6.786  0.2903  1.9217 -0.4876
 1204TIP3    H2 3570   5.832   1.350   6.822  0.7913  1.2010 -1.7247
 1205TIP3   OH2 3571   3.066   2.488   4.880 -0.7812  0.5037 -0.3001
 1205TIP3    H1 3572   3.008   2.514   4.951  3.2681  0.6981  3.1981
 1205TIP3    H2 3573   3.091   2.398   4.902  0.8348  0.7040 -1.2059
 1206TIP3   OH2 3574   2.794   1.902   6.806 -0.2521 -0.1150  0.2089
 1206TIP3    H1 3575   2.837   1.983   6.779  2.8679 -1.4312  1.0897
 1206TIP3    H2 3576   2.800   1.845   6.730 -1.3115  0.0246  0.0157
 1207TIP3   OH2 3577   1.610   7.635   6.694  0.3270  0.1636  0.3280
 1207TIP3    H1 3578   1.547   7.698   6.658 -0.3327 -2.0666 -2.6111
 1207TIP3    H2 3579   1.584   7.625   6.786 -3.2689 -0.2437 -0.6705
 1208TIP3   OH2 3580   7.698   3.790   2.487  0.0186 -0.1307  0.2203
 1208TIP3    H1 3581   7.770   3.730   2.470  0.3229  0.2473  0.1599
 1208TIP3    H2 3582   7.710   3.860   2.422 -0.2562  0.0575  0.3736
 1209TIP3   OH2 3583   7.101   4.263   1.774 -0.0696  0.0356  0.1191
 1209TIP3    H1 3584   7.106   4.255   1.870 -0.2827 -1.2788  0.0247
 1209TIP3    H2 3585   7.051   4.186   1.746 -2.7023  1.9775 -0.7897
 1210TIP3   OH2 3586   2.880   0.924   6.489  0.0361 -0.0109 -0.0997
 1210TIP3    H1 3587   2.963   0.878   6.503 -0.4044 -0.2574  1.9160
 1210TIP3    H2 3588   2.813   0.859   6.510 -0.6348  0.8387  0.4245
 1211TIP3   OH2 3589   1.874   7.573   6.597  0.3913  0.3565  0.1426
 1211TIP3    H1 3590   1.879   7.569   6.502  0.7933 -2.6696  0.2365
 1211TIP3    H2 3591   1.787   7.608   6.616  0.2660  0.8557 -1.3209
 1212TIP3   OH2 3592   0.804   4.663   2.225  0.0563 -0.4637  0.6450
 1212TIP3    H1 3593   0.831   4.697   2.140 -1.3377 -0.6945  0.1091
 1212TIP3    H2 3594   0.711   4.685   2.233 -0.4608 -2.5816  1.0329
 1213TIP3   OH2 3595   5.888   5.348   0.303 -0.1162 -0.1072 -0.2107
 1213TIP3    H1 3596   5.875   5.280   0.369 -3.6044  1.9092  1.3487
 1213TIP3    H2 3597   5.922   5.422   0.352  0.7869  0.2397 -1.3540
 1214TIP3   OH2 3598   2.466   6.860   6.440 -0.0864 -0.2030 -0.0504
 1214TIP3    H1 3599   2.423   6.776   6.427 -0.5243  0.0911 -0.5911
 1214TIP3    H2 3600   2.546   6.855   6.389  1.2887 -1.3013  2.1754
 1215TIP3   OH2 3601   6.470   0.949   5.748 -0.7271  0.2505  0.0831
 1215TIP3    H1 3602   6.435   0.870   5.707 -0.3200 -1.0070  2.0751
 1215TIP3    H2 3603   6.522   0.916   5.821  1.5167  2.2490 -0.5545
 1216TIP3   OH2 3604   5.799   3.107   1.909 -0.6524  0.4731 -0.1024
 1216TIP3    H1 3605   5.766   3.195   1.890 -0.1923  0.6141 -0.2632
 1216TIP3    H2 3606   5.855   3.086   1.835  0.2595  0.5609  0.5612
 1217TIP3   OH2 3607   0.168   7.344   6.577 -0.2767 -0.3149  0.8810
 1217TIP3    H1 3608   0.187   7.385   6.661 -1.3103  0.7049  0.6185
 1217TIP3    H2 3609   0.183   7.413   6.513 -1.7095 -0.4319  0.4158
 1218TIP3   OH2 3610   0.912   4.216   3.522  0.3847 -0.1242  0.0869
 1218TIP3    H1 3611   0.844   4.240   3.459  0.4620  4.1825  1.4694
 1218TIP3    H2 3612   0.994   4.235   3.477  0.5146 -0.0917  0.3396
 1219TIP3   OH2 3613   3.680   6.784   6.905 -0.7083  0.3362 -0.3304
 1219TIP3    H1 3614   3.594   6.806   6.941  0.4354  0.8611  2.1912
 1219TIP3    H2 3615   3.673   6.692   6.880 -2.5543  0.8687 -1.8609
 1220TIP3   OH2 3616   4.062   7.018   6.649  0.9364 -0.1883 -0.0192
 1220TIP3    H1 3617   4.085   7.097   6.599  1.2404 -0.2112  0.0869
 1220TIP3    H2 3618   4.001   7.050   6.716 -3.4150 -0.8946 -3.3729
 1221TIP3   OH2 3619   5.895   4.881   0.913  0.2040  0.0624 -0.6050
 1221TIP3    H1 3620   5.962   4.918   0.855 -1.4784 -0.7147 -3.0857
 1221TIP3    H2 3621   5.847   4.957   0.946  1.2384  0.5110 -0.0887
 1222TIP3   OH2 3622   6.705   2.746   1.509  0.7714 -0.6681 -0.1167
 1222TIP3    H1 3623   6.666   2.834   1.504 -0.3903 -1.1140  0.8144
 1222TIP3    H2 3624   6.776   2.755   1.573 -0.1597 -0.6920  0.9345
 1223TIP3   OH2 3625   7.990   4.622   0.267 -0.0730 -0.4390  0.5556
 1223TIP3    H1 3626   8.028   4.545   0.308 -0.8689 -0.3083  1.5738
 1223TIP3    H2 3627   7.898   4.619   0.292 -0.1660  0.6865  0.3802
 1224TIP3   OH2 3628   6.216   4.381   2.621  0.2491  0.1160 -0.0869
 1224TIP3    H1 3629   6.243   4.298   2.660 -0.8138  0.3930  1.2552
 1224TIP3    H2 3630   6.124   4.390   2.643  0.0412  1.0627 -1.2858
 1225TIP3   OH2 3631   7.012   3.628   0.629  0.1054 -0.0948 -0.4930
 1225TIP3    H1 3632   7.072   3.553   0.632 -1.4158 -1.2935  1.2597
 1225TIP3    H2 3633   7.069   3.705   0.623  1.7800 -1.2574  0.2218
 1226TIP3   OH2 3634   5.984   3.703   0.176  0.0479 -0.0233 -0.5765
 1226TIP3    H1 3635   5.889   3.698   0.192  0.1198  0.0794 -0.0915
 1226TIP3    H2 3636   6.021   3.634   0.231  0.3099  0.3665 -0.2557
 1227TIP3   OH2 3637   7.157   3.232   2.162 -0.0293  0.1432 -0.6417
 1227TIP3    H1 3638   7.143   3.196   2.249  5.5604 -2.1212 -0.4736
 1227TIP3    H2 3639   7.191   3.320   2.177 -1.3831  0.6770 -0.6496
 1228TIP3   OH2 3640   6.528   3.905   0.661 -0.1774 -0.3367  0.2039
 1228TIP3    H1 3641   6.586   3.981   0.658 -0.1691 -0.3657 -0.3736
 1228TIP3    H2 3642   6.444   3.939   0.629  0.2181 -0.9244 -1.5054
 1229TIP3   OH2 3643   1.736   3.726   1.539 -0.4505  0.3527  0.0494
 1229TIP3    H1 3644   1.732   3.814   1.501  2.7054  0.1748 -0.7535
 1229TIP3    H2 3645   1.700   3.669   1.471  1.6375  0.5036 -1.2133
 1230TIP3   OH2 3646   8.486   4.172   0.506  0.2533  0.3994  0.0363
 1230TIP3    H1 3647   8.491   4.127   0.421  1.9880 -0.5019  0.6014
 1230TIP3    H2 3648   8.433   4.250   0.488 -1.1002 -0.8067 -1.4144
 1231TIP3   OH2 3649   0.854   5.347   4.475 -0.0982 -0.2743 -0.1704
 1231TIP3    H1 3650   0.853   5.330   4.569 -1.6444  0.8889  0.0576
 1231TIP3    H2 3651   0.785   5.292   4.439  0.5503 -0.7865 -0.6415
 1232TIP3   OH2 3652   7.283   3.671   2.995 -0.0793  0.0977  0.0707
 1232TIP3    H1 3653   7.291   3.673   3.090 -0.0100 -1.4891  0.1097
 1232TIP3    H2 3654   7.371   3.654   2.963 -0.4908 -1.7852 -0.1512
 1233TIP3   OH2 3655   2.062   5.515   3.239  0.4994 -0.1102  0.3633
 1233TIP3    H1 3656   2.140   5.487   3.287  0.0376  0.2444  1.3244
 1233TIP3    H2 3657   1.990   5.468   3.279  0.1300  0.0575 -0.0924
 1234TIP3   OH2 3658   1.007   5.173   1.279  0.2560 -0.3938  0.0973
 1234TIP3    H1 3659   0.946   5.174   1.352 -0.8925 -1.9962 -0.8208
 1234TIP3    H2 3660   1.035   5.082   1.272  1.8805  0.1114 -0.2170
 1235TIP3   OH2 3661   0.522   5.180   1.172  0.6630 -0.0384  0.0219
 1235TIP3    H1 3662   0.487   5.224   1.094  0.0780  0.8288  0.7554
 1235TIP3    H2 3663   0.479   5.095   1.173  2.8345 -1.1997 -2.1705
 1236TIP3   OH2 3664   6.219   4.903   4.148 -0.9533  0.0387  0.5957
 1236TIP3    H1 3665   6.283   4.938   4.210 -1.9334  0.6166  1.2879
 1236TIP3    H2 3666   6.144   4.879   4.202 -0.9681 -1.5108 -0.0984
 1237TIP3   OH2 3667   2.559   5.477   2.984 -0.0997 -0.4184  0.2997
 1237TIP3    H1 3668   2.506   5.419   2.931 -0.5269  0.3740 -0.1537
 1237TIP3    H2 3669   2.571   5.430   3.067 -0.7453 -0.9871  0.0756
 1238TIP3   OH2 3670   7.732   3.323   1.311  0.0266  0.1928 -0.0249
 1238TIP3    H1 3671   7.704   3.255   1.250 -0.2107 -0.7911  1.1598
 1238TIP3    H2 3672   7.807   3.365   1.269 -0.4685 -0.1242 -1.2172
 1239TIP3   OH2 3673   0.151   3.861   1.999 -0.0975 -0.0319  0.6216
 1239TIP3    H1 3674   0.184   3.951   2.005  2.1789 -0.9020  1.4405
 1239TIP3    H2 3675   0.124   3.852   1.907  0.7705  1.0963  0.2508
 1240TIP3   OH2 3676   8.121   4.751   1.877  0.0843 -0.2592 -0.2880
 1240TIP3    H1 3677   8.215   4.770   1.878 -0.2586  1.5679 -0.8522
 1240TIP3    H2 3678   8.080   4.834   1.854 -1.6040 -1.4095 -1.5200
 1241TIP3   OH2 3679   7.813   5.467   3.918  0.4206 -0.1401 -0.1859
 1241TIP3    H1 3680   7.768   5.388   3.949  0.7949  0.7632  2.8143
 1241TIP3    H2 3681   7.896   5.434   3.881  0.8143 -1.1270  1.5323
 1242TIP3   OH2 3682   7.739   4.355   4.201  0.1406 -0.5034 -0.8307
 1242TIP3    H1 3683   7.821   4.359   4.252 -0.3346  1.6191 -0.1532
 1242TIP3    H2 3684   7.689   4.284   4.241  1.2524 -1.1822 -0.6206
 1243TIP3   OH2 3685   7.529   3.986   2.372 -0.3171 -0.4210  0.0367
 1243TIP3    H1 3686   7.486   3.961   2.454  1.6982  0.0001  1.2387
 1243TIP3    H2 3687   7.553   4.078   2.384 -0.2829 -0.2673 -1.1493
 1244TIP3   OH2 3688   7.406   2.589   1.440 -0.2097  0.2044 -0.0540
 1244TIP3    H1 3689   7.321   2.612   1.402 -0.6754 -2.1086 -0.4828
 1244TIP3    H2 3690   7.416   2.649   1.514 -2.4165  0.2176  0.2683
 1245TIP3   OH2 3691   0.263   5.909   0.408  0.1602 -0.1053  0.4998
 1245TIP3    H1 3692   0.178   5.930   0.447  0.4459  0.4321  0.8250
 1245TIP3    H2 3693   0.251   5.820   0.373 -0.2186 -0.4289  1.4366
 1246TIP3   OH2 3694   7.369   4.375   3.097  0.5086  0.2036 -0.3124
 1246TIP3    H1 3695   7.317   4.410   3.025 -1.0792 -0.6361  0.3932
 1246TIP3    H2 3696   7.320   4.399   3.176 -0.2921 -2.9455  0.2269
 1247TIP3   OH2 3697   0.553   6.129   2.556  0.2986  0.5810  0.2130
 1247TIP3    H1 3698   0.644   6.156   2.549  0.0832  0.9756 -1.2987
 1247TIP3    H2 3699   0.510   6.201   2.603  0.9822 -0.1746  2.0453
 1248TIP3   OH2 3700   0.126   3.460   2.792  0.0417  0.3782 -0.4266
 1248TIP3    H1 3701   0.165   3.546   2.810  0.0983 -0.1282  2.0488
 1248TIP3    H2 3702   0.174   3.428   2.715  3.6782  0.3821  1.6875
 1249TIP3   OH2 3703   7.008   5.086   3.058  0.7043  0.4551  0.0789
 1249TIP3    H1 3704   7.096   5.102   3.091 -0.1169  0.8807  2.1742
 1249TIP3    H2 3705   6.987   5.165   3.008  1.2811  0.6225  0.0959
 1250TIP3   OH2 3706   0.362   4.654   2.642  0.2045  0.0872  0.2001
 1250TIP3    H1 3707   0.343   4.738   2.683 -1.3842 -0.1919  0.0519
 1250TIP3    H2 3708   0.337   4.665   2.551  0.0819 -0.5165  0.1568
 1251TIP3   OH2 3709   7.122   5.459   3.551 -0.0942  0.0688  0.1968
 1251TIP3    H1 3710   7.097   5.413   3.630  2.7866  0.9191  1.6721
 1251TIP3    H2 3711   7.079   5.545   3.558  1.2109  0.6405  1.5444
 1252TIP3   OH2 3712   0.853   2.395   3.842 -0.2695 -0.3706  0.1594
 1252TIP3    H1 3713   0.807   2.478   3.829 -1.0554 -0.4565  2.1082
 1252TIP3    H2 3714   0.788   2.338   3.884  0.4280 -1.8056 -0.6559
 1253TIP3   OH2 3715   0.059   2.552   1.979 -0.7347 -0.1096 -0.0551
 1253TIP3    H1 3716   0.136   2.548   2.036 -0.4211 -0.9123 -0.5297
 1253TIP3    H2 3717   0.048   2.462   1.947 -2.2713 -0.1468  0.5402
 1254TIP3   OH2 3718   0.533   4.755   2.231  0.1609 -0.6388  0.2736
 1254TIP3    H1 3719   0.540   4.803   2.148  1.9036  1.3324  1.5233
 1254TIP3    H2 3720   0.502   4.819   2.294 -0.1247 -1.8630  1.4018
 1255TIP3   OH2 3721   8.234   6.901   2.996  0.0314 -0.2082  0.3464
 1255TIP3    H1 3722   8.182   6.953   2.935 -1.4305 -0.5669  1.2892
 1255TIP3    H2 3723   8.258   6.962   3.065  0.1406 -0.2646  0.3593
 1256TIP3   OH2 3724   0.485   3.911   2.322 -0.2578  1.0393  0.2533
 1256TIP3    H1 3725   0.414   3.848   2.321  0.7671 -0.2627  3.3222
 1256TIP3    H2 3726   0.489   3.945   2.232 -3.6365 -0.0356 -0.3496
 1257TIP3   OH2 3727   0.472   2.337   1.606  0.1137  0.1749 -0.9372
 1257TIP3    H1 3728   0.555   2.337   1.559  0.2659 -1.2489 -0.6698
 1257TIP3    H2 3729   0.419   2.403   1.560  1.1730  0.6687 -1.4653
 1258TIP3   OH2 3730   8.137   5.927   1.739  0.1016 -0.1335  0.1451
 1258TIP3    H1 3731   8.191   5.848   1.743  2.2988  1.3297  0.2906
 1258TIP3    H2 3732   8.103   5.928   1.649  0.0832 -1.2154  0.1365
 1259TIP3   OH2 3733   6.995   4.799   3.578  0.0191 -0.1679  0.1278
 1259TIP3    H1 3734   7.019   4.751   3.658 -1.1258 -1.4762 -0.2983
 1259TIP3    H2 3735   7.071   4.788   3.520  0.8310  0.7346  1.0007
 1260TIP3   OH2 3736   0.674   5.335   3.795  0.1056 -0.5209 -0.4001
 1260TIP3    H1 3737   0.738   5.313   3.862 -0.3061 -0.7911 -0.0936
 1260TIP3    H2 3738   0.714   5.307   3.713  0.6539 -0.0996 -0.2820
 1261TIP3   OH2 3739   8.084   5.066   2.263  0.5702 -0.1715  0.1625
 1261TIP3    H1 3740   8.174   5.069   2.295  1.2308  1.2400 -1.7299
 1261TIP3    H2 3741   8.045   4.992   2.309  2.0540  0.5188  2.6332
 1262TIP3   OH2 3742   7.459   4.863   4.894  0.2088 -0.3359  0.1809
 1262TIP3    H1 3743   7.489   4.820   4.974 -0.9923  0.6008  1.1758
 1262TIP3    H2 3744   7.476   4.956   4.910 -0.7562 -0.0696 -0.3203
 1263TIP3   OH2 3745   0.246   3.831   1.400 -0.4870 -0.1748 -0.8674
 1263TIP3    H1 3746   0.160   3.835   1.442 -0.3832 -0.8732 -0.5773
 1263TIP3    H2 3747   0.292   3.760   1.446  1.0398  1.6352  0.4678
 1264TIP3   OH2 3748   7.025   6.941   1.601 -0.3694  0.1929  0.1621
 1264TIP3    H1 3749   7.071   6.897   1.673 -0.2699 -2.0044 -1.1751
 1264TIP3    H2 3750   6.968   6.874   1.565  0.0856  1.0349 -2.2246
 1265TIP3   OH2 3751   0.122   3.525   1.313 -0.1884 -0.2476  0.5639
 1265TIP3    H1 3752   0.112   3.457   1.380  0.5628 -1.1563 -0.2101
 1265TIP3    H2 3753   0.217   3.532   1.302 -0.3145 -0.1647 -0.4585
 1266TIP3   OH2 3754   1.240   3.841   1.649  0.6802 -0.6967 -0.0110
 1266TIP3    H1 3755   1.160   3.891   1.661  1.3016 -0.0343  1.4994
 1266TIP3    H2 3756   1.211   3.756   1.614 -0.6837 -0.5455  0.7247
 1267TIP3   OH2 3757   8.105   5.171   1.123  0.1737  0.3513 -0.2575
 1267TIP3    H1 3758   8.109   5.080   1.094 -1.1011  0.3535 -0.4772
 1267TIP3    H2 3759   8.083   5.165   1.216 -0.2330  0.4275 -0.3442
 1268TIP3   OH2 3760   0.221   4.129   1.977 -0.2427  0.1449  0.5770
 1268TIP3    H1 3761   0.183   4.190   1.915 -0.5960  0.6524  1.2871
 1268TIP3    H2 3762   0.316   4.144   1.971 -0.2375 -0.1921 -0.2286
 1269TIP3   OH2 3763   0.806   5.211   2.748 -0.0200  0.2740  0.5012
 1269TIP3    H1 3764   0.879   5.272   2.760 -0.7846  1.2284  0.3556
 1269TIP3    H2 3765   0.750   5.227   2.824  0.4926 -1.2851  1.2321
 1270TIP3   OH2 3766   0.248   3.656   1.611  0.0255  0.1313 -0.3996
 1270TIP3    H1 3767   0.340   3.655   1.586 -0.3140  0.0676 -1.6873
 1270TIP3    H2 3768   0.243   3.601   1.689  0.9812 -0.3394 -0.6695
 1271TIP3   OH2 3769   0.286   4.552   0.088 -0.3703 -0.0179 -0.1930
 1271TIP3    H1 3770   0.322   4.613   0.153 -2.4288 -0.1968  1.1460
 1271TIP3    H2 3771   0.218   4.602   0.043 -1.4988 -1.0358  0.3509
 1272TIP3   OH2 3772   7.790   4.803   1.687 -0.2497  0.1070  0.0083
 1272TIP3    H1 3773   7.774   4.759   1.771  0.7104 -0.4636 -0.1055
 1272TIP3    H2 3774   7.704   4.806   1.646 -0.3507 -1.6179  0.0522
 1273TIP3   OH2 3775   0.456   3.387   2.811 -0.0644 -0.5704 -0.6052
 1273TIP3    H1 3776   0.515   3.449   2.856 -1.3519  0.7979 -0.7508
 1273TIP3    H2 3777   0.423   3.437   2.736 -1.6835 -1.1873 -0.3173
 1274TIP3   OH2 3778   7.894   5.582   2.597 -0.1582  0.1186  0.2824
 1274TIP3    H1 3779   7.818   5.573   2.655  0.8329 -0.1206  1.5727
 1274TIP3    H2 3780   7.950   5.508   2.620  0.4618  0.2960 -0.6603
 1275TIP3   OH2 3781   1.435   6.233   1.484 -0.0768 -0.3472  0.3858
 1275TIP3    H1 3782   1.426   6.210   1.391  1.0103  1.1009 -0.1001
 1275TIP3    H2 3783   1.380   6.169   1.530  1.6595 -2.9274 -1.0067
 1276TIP3   OH2 3784   8.407   3.450   0.803 -0.0185 -0.2085  0.0064
 1276TIP3    H1 3785   8.389   3.422   0.892 -0.8670  0.0456 -0.0779
 1276TIP3    H2 3786   8.325   3.435   0.756  0.0172  0.8463 -0.4232
 1277TIP3   OH2 3787   0.069   3.490   2.075  0.2377  0.1726  0.5479
 1277TIP3    H1 3788   0.013   3.566   2.090 -0.3566 -0.0014 -0.6760
 1277TIP3    H2 3789   0.008   3.418   2.058  0.8051 -0.4299  1.0457
 1278TIP3   OH2 3790   6.505   0.094   6.647  0.1155  0.4052 -0.0993
 1278TIP3    H1 3791   6.600   0.092   6.650  0.0914  1.0138  2.0867
 1278TIP3    H2 3792   6.480   0.163   6.709 -1.7409  0.3710 -0.7580
 1279TIP3   OH2 3793   1.739   4.325   1.390 -0.3528 -0.7238  0.1080
 1279TIP3    H1 3794   1.687   4.266   1.444 -1.9088 -0.1345 -0.7049
 1279TIP3    H2 3795   1.758   4.275   1.311 -1.1126 -0.3728 -0.3016
 1280TIP3   OH2 3796   8.350   4.630   1.558  0.3910  0.4039  0.1193
 1280TIP3    H1 3797   8.417   4.566   1.581  0.4750  0.2117 -0.6608
 1280TIP3    H2 3798   8.356   4.697   1.627  0.1206 -0.5517  1.0795
 1281TIP3   OH2 3799   0.714   4.997   1.373  0.1536 -0.7846 -0.2114
 1281TIP3    H1 3800   0.764   5.068   1.413 -0.2344 -0.8833  0.4538
 1281TIP3    H2 3801   0.660   5.040   1.306 -0.4079 -0.3802  0.4898
 1282TIP3   OH2 3802   2.039   4.803   2.050 -0.2708  0.2937 -0.5389
 1282TIP3    H1 3803   1.965   4.864   2.054 -0.8218 -0.4479  1.6165
 1282TIP3    H2 3804   2.080   4.820   1.965 -0.1007  4.0199  0.1803
 1283TIP3   OH2 3805   2.687   5.566   2.373 -0.3934  0.3373  0.2303
 1283TIP3    H1 3806   2.747   5.608   2.311 -1.4552  0.5730 -0.6433
 1283TIP3    H2 3807   2.706   5.608   2.457  2.1996 -1.1237  0.4457
 1284TIP3   OH2 3808   1.343   6.790   1.462  0.3923 -0.3076  0.5674
 1284TIP3    H1 3809   1.321   6.754   1.549  0.2869 -0.6544  0.3997
 1284TIP3    H2 3810   1.439   6.797   1.464  0.2957  1.0128  1.2224
 1285TIP3   OH2 3811   3.954   1.765   5.877 -0.5507 -0.2608  0.2242
 1285TIP3    H1 3812   3.895   1.779   5.803 -0.8201  0.9093  0.6522
 1285TIP3    H2 3813   4.010   1.692   5.850  0.1411  0.9241 -1.6068
 1286TIP3   OH2 3814   7.170   1.455   4.824  0.3485  0.0374  0.1822
 1286TIP3    H1 3815   7.215   1.443   4.740 -0.4220  1.3765 -0.4448
 1286TIP3    H2 3816   7.166   1.550   4.835  1.1260 -0.1316  2.1206
 1287TIP3   OH2 3817   7.056   2.706   3.049  0.4708  0.1682 -0.4384
 1287TIP3    H1 3818   7.116   2.633   3.066 -0.4036 -0.1528  1.3624
 1287TIP3    H2 3819   7.114   2.780   3.031  1.3757 -0.6736 -1.0902
 1288TIP3   OH2 3820   0.601   3.027   2.428 -0.3415 -0.1794  0.1110
 1288TIP3    H1 3821   0.565   3.100   2.478 -0.6622  0.4036 -0.9711
 1288TIP3    H2 3822   0.685   3.007   2.471 -1.8966 -1.5448  2.6241
 1289TIP3   OH2 3823   0.401   6.405   2.584  0.0507 -0.0355  0.1061
 1289TIP3    H1 3824   0.348   6.469   2.632 -0.0691 -1.4038  1.8789
 1289TIP3    H2 3825   0.472   6.456   2.545  0.0234  1.1617  1.5744
 1290TIP3   OH2 3826   2.248   4.619   3.518  0.4114 -0.4234  0.0987
 1290TIP3    H1 3827   2.265   4.702   3.473 -2.4819 -0.0878 -0.4868
 1290TIP3    H2 3828   2.261   4.639   3.611 -0.7132  0.8295  0.0065
 1291TIP3   OH2 3829   0.672   0.529   5.334 -0.6853 -0.1198 -0.3703
 1291TIP3    H1 3830   0.636   0.527   5.422 -0.1059 -0.7310 -0.1426
 1291TIP3    H2 3831   0.629   0.604   5.292  0.6085  1.4647  1.0878
 1292TIP3   OH2 3832   8.161   0.041   5.878 -0.2839  0.4953 -0.4667
 1292TIP3    H1 3833   8.103   0.057   5.804  1.6763 -1.2779 -2.4559
 1292TIP3    H2 3834   8.219  -0.029   5.848  2.6886  1.9933  1.5733
 1293TIP3   OH2 3835   2.264   5.415   0.352  0.6588  0.2075 -0.3971
 1293TIP3    H1 3836   2.196   5.410   0.419  0.7941 -0.3017 -0.2904
 1293TIP3    H2 3837   2.345   5.393   0.399  0.8354  0.4151 -0.6047
 1294TIP3   OH2 3838   8.360   3.763   1.596 -0.0789 -0.0644 -0.3903
 1294TIP3    H1 3839   8.439   3.815   1.604 -0.5989  0.8464 -1.1010
 1294TIP3    H2 3840   8.344   3.730   1.685  0.6361  0.4014 -0.0809
 1295TIP3   OH2 3841   8.084   6.540   4.809 -0.2377 -0.8120  0.1876
 1295TIP3    H1 3842   8.170   6.561   4.846 -1.1012 -0.2991  1.9303
 1295TIP3    H2 3843   8.085   6.445   4.798  0.8656 -0.7174 -0.6178
 1296TIP3   OH2 3844   8.416   4.025   1.374 -0.3706 -0.5603 -0.6169
 1296TIP3    H1 3845   8.407   4.074   1.292 -3.2409 -1.3693 -0.8125
 1296TIP3    H2 3846   8.459   3.943   1.349  3.1419  1.1312 -0.5055
 1297TIP3   OH2 3847   1.834   4.943   1.929 -0.2383 -0.3068  0.4920
 1297TIP3    H1 3848   1.784   4.865   1.953 -2.4083  0.3937 -1.6982
 1297TIP3    H2 3849   1.862   4.927   1.839  0.2055  0.9882  0.3916
 1298TIP3   OH2 3850   3.666   5.436   0.783 -0.0634  0.4590 -0.3681
 1298TIP3    H1 3851   3.701   5.352   0.813 -0.9667  0.0245 -0.5111
 1298TIP3    H2 3852   3.573   5.419   0.766 -0.2187  1.4453 -0.5561
 1299TIP3   OH2 3853   6.682   7.459   6.485 -0.6824  0.1394 -0.0772
 1299TIP3    H1 3854   6.609   7.515   6.511 -0.3625  0.5098  0.0329
 1299TIP3    H2 3855   6.757   7.518   6.482 -0.4758 -0.1538 -0.6227
 1300TIP3   OH2 3856   3.522   5.015   1.488 -0.6017 -0.0845 -0.1921
 1300TIP3    H1 3857   3.524   4.946   1.421 -1.3316 -0.3848  0.0898
 1300TIP3    H2 3858   3.507   4.968   1.570 -0.5103  0.3590  0.0804
 1301TIP3   OH2 3859   1.170   4.557   4.422  0.6661  0.0860 -0.0585
 1301TIP3    H1 3860   1.149   4.471   4.385 -1.1102 -0.6707  2.5361
 1301TIP3    H2 3861   1.109   4.617   4.379 -0.3131 -0.5269  0.4422
 1302TIP3   OH2 3862   0.479   5.845   0.572 -0.3880 -0.1239 -0.6485
 1302TIP3    H1 3863   0.418   5.894   0.516  0.4456  0.2731 -1.2084
 1302TIP3    H2 3864   0.476   5.892   0.656  0.7368  1.1585 -1.3117
 1303TIP3   OH2 3865   1.849   6.348   1.219 -0.0954 -0.1138 -0.3028
 1303TIP3    H1 3866   1.842   6.436   1.257 -1.0707 -0.2917 -0.0393
 1303TIP3    H2 3867   1.764   6.335   1.175 -0.0131 -0.9846 -0.2017
 1304TIP3   OH2 3868   6.470   0.986   5.287  0.1358 -0.3974  0.3678
 1304TIP3    H1 3869   6.445   0.894   5.297  0.0338 -0.6115 -1.7101
 1304TIP3    H2 3870   6.489   0.996   5.194  0.9786  1.4881  0.7197
 1305TIP3   OH2 3871   2.569   5.031   0.043 -0.0372  0.3754  0.3528
 1305TIP3    H1 3872   2.532   5.110   0.081  0.1252  0.1825  0.9223
 1305TIP3    H2 3873   2.632   5.062  -0.022 -0.7084  0.7041 -0.1364
 1306TIP3   OH2 3874   1.401   6.273   2.291  0.0385 -0.7383 -0.3954
 1306TIP3    H1 3875   1.455   6.226   2.355 -3.1763 -1.8471  1.6536
 1306TIP3    H2 3876   1.424   6.365   2.304  1.0670 -1.1384  0.7900
 1307TIP3   OH2 3877   1.260   4.477   1.371 -0.3805  0.2024  0.1222
 1307TIP3    H1 3878   1.244   4.400   1.316  0.0156 -0.8159  1.4248
 1307TIP3    H2 3879   1.310   4.444   1.446 -0.6580  1.6342  0.9588
 1308TIP3   OH2 3880   0.380   4.908   2.724  0.1398 -0.6773  0.1606
 1308TIP3    H1 3881   0.328   4.989   2.720  0.3993 -0.5878 -2.1665
 1308TIP3    H2 3882   0.426   4.913   2.807  1.8950  2.6786 -0.9194
 1309TIP3   OH2 3883   8.201   1.571   6.469  0.9704 -0.5892 -0.0649
 1309TIP3    H1 3884   8.261   1.529   6.407 -0.1830 -2.2929 -0.0540
 1309TIP3    H2 3885   8.121   1.518   6.465 -0.6276  1.7284 -0.2272
 1310TIP3   OH2 3886   1.404   4.547   0.726  0.2943 -0.3841 -0.8270
 1310TIP3    H1 3887   1.345   4.543   0.801  1.1231 -0.5493 -0.1714
 1310TIP3    H2 3888   1.480   4.596   0.758  1.2085 -1.5496 -1.1672
 1311TIP3   OH2 3889   2.033   5.148   0.266 -0.1120  0.1321 -0.0009
 1311TIP3    H1 3890   1.984   5.082   0.217  1.7741 -0.3389 -1.3140
 1311TIP3    H2 3891   2.021   5.229   0.216 -1.1390  0.4330  0.7407
 1312TIP3   OH2 3892   2.763   4.147   1.676  0.2594 -0.2158 -0.9746
 1312TIP3    H1 3893   2.831   4.080   1.674 -0.9273 -1.4350 -1.2571
 1312TIP3    H2 3894   2.747   4.168   1.584  0.2942  0.1218 -0.9047
 1313TIP3   OH2 3895   0.481   6.567   1.925 -0.5070 -0.1254  0.8771
 1313TIP3    H1 3896   0.388   6.560   1.904 -0.4277 -1.0683  0.8180
 1313TIP3    H2 3897   0.491   6.515   2.005  0.1559 -0.8563  0.3240
 1314TIP3   OH2 3898   6.071   1.688   6.020 -0.3478 -0.0172  0.4201
 1314TIP3    H1 3899   6.041   1.614   6.072 -3.3011 -0.9687 -2.4496
 1314TIP3    H2 3900   6.160   1.664   5.992 -0.9689 -2.1466  0.1896
 1315TIP3   OH2 3901   1.496   4.777   0.525  0.3832  0.4739  0.1965
 1315TIP3    H1 3902   1.549   4.701   0.501  1.2726  0.5413  1.8808
 1315TIP3    H2 3903   1.405   4.748   0.515  0.7190 -0.3175 -0.6314
 1316TIP3   OH2 3904   1.215   6.349   2.092 -0.5792  0.2039 -0.0570
 1316TIP3    H1 3905   1.256   6.420   2.043  1.2449  0.0440  1.2084
 1316TIP3    H2 3906   1.285   6.312   2.145 -1.8005 -1.7159  0.2646
 1317TIP3   OH2 3907   0.939   5.569   0.588  0.3242 -0.1491 -0.7386
 1317TIP3    H1 3908   0.994   5.579   0.510  1.7136 -1.7509  0.0141
 1317TIP3    H2 3909   0.855   5.539   0.553  0.5322  0.3527 -1.7118
 1318TIP3   OH2 3910   0.389   4.891   1.144 -0.1037  0.5136  0.2572
 1318TIP3    H1 3911   0.392   4.907   1.050 -0.7652  0.3043  0.1982
 1318TIP3    H2 3912   0.296   4.891   1.166 -0.1154 -2.4019  0.3837
 1319TIP3   OH2 3913   4.486   0.378   1.568  0.2554  0.1616 -0.6850
 1319TIP3    H1 3914   4.536   0.342   1.494  1.0337 -0.1841 -0.0009
 1319TIP3    H2 3915   4.462   0.302   1.620  0.8340  0.5169  0.1096
 1320TIP3   OH2 3916   0.670   2.683   1.417  0.9492 -0.0552  0.4230
 1320TIP3    H1 3917   0.740   2.651   1.361 -0.4277 -1.8384 -0.3334
 1320TIP3    H2 3918   0.654   2.611   1.478 -0.4149  0.2018  0.3815
 1321TIP3   OH2 3919   7.149   0.479   6.838  0.0569 -0.1515 -0.4375
 1321TIP3    H1 3920   7.178   0.393   6.869 -1.4720 -0.1942  0.9039
 1321TIP3    H2 3921   7.066   0.462   6.795 -0.9682  0.8573  1.1106
 1322TIP3   OH2 3922   2.483   2.899   1.679 -0.0837 -0.2345 -0.0514
 1322TIP3    H1 3923   2.531   2.895   1.596  0.2882  0.1514  0.1441
 1322TIP3    H2 3924   2.546   2.868   1.744 -0.1354  0.1825  0.1925
 1323TIP3   OH2 3925   0.817   4.865   3.776  0.2766  0.0450  0.4311
 1323TIP3    H1 3926   0.750   4.814   3.819 -0.7489 -0.6179 -1.8892
 1323TIP3    H2 3927   0.769   4.925   3.719  1.6074 -0.0493 -0.8317
 1324TIP3   OH2 3928   0.534   6.591   5.550 -0.0400  0.1536  0.2025
 1324TIP3    H1 3929   0.526   6.560   5.640 -0.3231 -1.4299 -0.3399
 1324TIP3    H2 3930   0.453   6.639   5.534  0.4457  1.2861  1.0996
 1325TIP3   OH2 3931   1.867   6.776   0.160  0.8223  0.2371 -0.5984
 1325TIP3    H1 3932   1.835   6.837   0.226  0.1635 -0.3251 -0.4055
 1325TIP3    H2 3933   1.932   6.723   0.205  1.9757  1.3024 -0.9624
 1326TIP3   OH2 3934   0.547   5.287   2.886 -0.2702  0.2882 -0.0184
 1326TIP3    H1 3935   0.466   5.238   2.872  1.0553 -1.8054 -0.6045
 1326TIP3    H2 3936   0.596   5.236   2.950  0.3469  1.8393  0.7676
 1327TIP3   OH2 3937   7.755   5.217   2.369 -0.4498 -0.2082  0.7513
 1327TIP3    H1 3938   7.731   5.291   2.314 -0.6591 -1.0015 -0.2415
 1327TIP3    H2 3939   7.769   5.145   2.307  1.0805 -0.6506  1.5852
 1328TIP3   OH2 3940   7.698   5.495   0.490 -0.2255  0.2163 -0.1410
 1328TIP3    H1 3941   7.621   5.456   0.449 -0.3617  0.9043 -0.5490
 1328TIP3    H2 3942   7.749   5.530   0.416  0.6469 -0.5491  0.0952
 1329TIP3   OH2 3943   0.806   4.142   2.913 -0.5605 -0.3518 -0.4305
 1329TIP3    H1 3944   0.786   4.056   2.949 -0.9327 -0.2438 -0.3749
 1329TIP3    H2 3945   0.761   4.145   2.829 -1.1814  0.0619 -0.0988
 1330TIP3   OH2 3946   2.071   5.370   0.102  0.3466 -0.0497  0.0489
 1330TIP3    H1 3947   2.126   5.412   0.167  0.6331  0.8704 -0.7658
 1330TIP3    H2 3948   2.029   5.442   0.056  0.6917 -0.6552 -1.2459
 1331TIP3   OH2 3949   1.283   5.268   2.255 -0.5686  0.1390  0.2031
 1331TIP3    H1 3950   1.310   5.329   2.186 -0.0243  2.6723  2.5650
 1331TIP3    H2 3951   1.202   5.306   2.291 -0.5299 -0.8137  1.3307
 1332TIP3   OH2 3952   0.922   5.161   3.104  0.1871 -0.7578  0.3991
 1332TIP3    H1 3953   0.980   5.207   3.043  1.2164 -3.5845 -0.8645
 1332TIP3    H2 3954   0.962   5.175   3.190  0.3458  0.8454  0.0827
 1333TIP3   OH2 3955   3.231   6.876   6.478 -0.6915  0.0566  0.2931
 1333TIP3    H1 3956   3.183   6.826   6.545  0.5739 -0.1644  1.0498
 1333TIP3    H2 3957   3.270   6.949   6.526  0.9188 -0.5663 -0.0353
 1334TIP3   OH2 3958   7.054   0.537   5.288 -0.2002  0.1118  0.4215
 1334TIP3    H1 3959   7.057   0.621   5.241 -2.5882 -0.4847 -0.9264
 1334TIP3    H2 3960   7.015   0.558   5.373 -4.9750 -0.1518 -1.5042
 1335TIP3   OH2 3961   8.175   6.464   3.180 -0.8512 -0.6201  0.2665
 1335TIP3    H1 3962   8.237   6.401   3.215  0.3789  1.3828  1.7258
 1335TIP3    H2 3963   8.116   6.484   3.253 -1.2331 -0.0593 -0.1839
 1336TIP3   OH2 3964   0.125   4.180   2.804 -0.0570 -0.2919  0.8008
 1336TIP3    H1 3965   0.163   4.267   2.789 -2.7212  0.5943 -1.1077
 1336TIP3    H2 3966   0.117   4.173   2.899 -0.3028  1.7605  0.9418
 1337TIP3   OH2 3967   1.821   4.489   2.150 -0.1553  0.1704 -0.2987
 1337TIP3    H1 3968   1.897   4.474   2.093  0.6403  1.2668  0.4382
 1337TIP3    H2 3969   1.826   4.582   2.172 -2.3194  0.4933 -1.0704
 1338TIP3   OH2 3970   7.471   4.984   1.956  0.3300  0.0958 -0.2701
 1338TIP3    H1 3971   7.540   4.922   1.931 -0.5492 -0.7602 -0.5655
 1338TIP3    H2 3972   7.423   4.941   2.026 -0.8935  0.0358 -1.1455
 1339TIP3   OH2 3973   2.282   5.467   2.062 -0.0293 -0.1876  0.2890
 1339TIP3    H1 3974   2.366   5.487   2.103  1.4650  0.1539 -2.7431
 1339TIP3    H2 3975   2.222   5.533   2.096  0.7188 -0.8922  3.0819
 1340TIP3   OH2 3976   1.568   6.882   1.975 -0.5031  0.4333  0.9111
 1340TIP3    H1 3977   1.624   6.855   2.048  0.7778 -1.4506 -0.7496
 1340TIP3    H2 3978   1.592   6.973   1.959  1.8336 -0.2295  0.4828
 1341TIP3   OH2 3979   7.157   1.133   5.572 -0.3767 -0.4680 -0.6691
 1341TIP3    H1 3980   7.071   1.129   5.615  0.2753 -2.2899  0.5476
 1341TIP3    H2 3981   7.145   1.086   5.490  0.1976 -3.6029  0.9471
 1342TIP3   OH2 3982   0.295   5.004   0.222  0.0498  0.0468  0.2502
 1342TIP3    H1 3983   0.335   4.933   0.273 -2.4566 -0.6707  1.2960
 1342TIP3    H2 3984   0.227   4.961   0.170 -0.1831  1.4140 -0.6025
 1343TIP3   OH2 3985   0.847   4.445   2.595  0.3857  0.0557  0.1562
 1343TIP3    H1 3986   0.917   4.436   2.660  0.3638 -0.5744  0.0922
 1343TIP3    H2 3987   0.797   4.364   2.602  0.6798 -0.2319 -1.0024
 1344TIP3   OH2 3988   0.048   4.328   1.100 -0.6558 -0.3469 -0.4794
 1344TIP3    H1 3989   0.056   4.247   1.050 -2.1085 -1.3561  0.8888
 1344TIP3    H2 3990   0.136   4.345   1.132 -0.0970 -0.7128 -1.7927
 1345TIP3   OH2 3991   1.002   3.634   3.002  0.0791 -0.1988 -0.1644
 1345TIP3    H1 3992   1.087   3.641   3.046 -0.2331 -1.9514  0.7754
 1345TIP3    H2 3993   0.938   3.639   3.073 -0.6486  1.3993 -0.8913
 1346TIP3   OH2 3994   0.618   6.569   0.968 -0.6769 -0.0692 -0.4324
 1346TIP3    H1 3995   0.586   6.490   0.926 -0.2114  0.5858 -2.0517
 1346TIP3    H2 3996   0.563   6.579   1.046 -2.2257 -0.7314 -1.4339
 1347TIP3   OH2 3997   2.552   7.109   2.008 -0.1189  0.4630 -0.0069
 1347TIP3    H1 3998   2.609   7.142   2.078  0.9050 -0.0073 -0.5990
 1347TIP3    H2 3999   2.535   7.018   2.032  1.6358 -0.2142 -1.2181
 1348TIP3   OH2 4000   6.881   2.158   6.436  0.5385 -0.3344 -0.6926
 1348TIP3    H1 4001   6.883   2.064   6.452 -1.6427 -0.2186  0.6059
 1348TIP3    H2 4002   6.796   2.173   6.394  0.2449  1.2018  0.3871
 1349TIP3   OH2 4003   8.199   4.213   1.689  0.0591  0.1314  0.5232
 1349TIP3    H1 4004   8.206   4.292   1.743 -1.9022  1.9385 -1.7782
 1349TIP3    H2 4005   8.269   4.221   1.625 -0.1464  0.0504  0.2842
 1350TIP3   OH2 4006   4.974   7.117   6.423 -0.2619 -0.7679  0.0458
 1350TIP3    H1 4007   5.056   7.075   6.448 -0.2241 -1.7256 -1.6254
 1350TIP3    H2 4008   4.914   7.098   6.495  1.0331  0.1136  1.3656
 1351TIP3   OH2 4009   2.386   3.114   1.461  0.2247  0.0327  0.2124
 1351TIP3    H1 4010   2.467   3.063   1.463  0.0573 -0.2678 -0.3273
 1351TIP3    H2 4011   2.410   3.199   1.497  0.2729 -0.7460  2.0326
 1352TIP3   OH2 4012   5.182   6.678   6.879 -0.2584 -0.2836 -0.6804
 1352TIP3    H1 4013   5.221   6.766   6.874 -0.7369  0.1239  1.9223
 1352TIP3    H2 4014   5.236   6.632   6.943 -2.1701 -0.7343  0.6221
 1353TIP3   OH2 4015   4.200   7.689   5.940  0.4321  0.0341 -0.2049
 1353TIP3    H1 4016   4.148   7.624   5.987 -1.0861  1.6267  0.4070
 1353TIP3    H2 4017   4.291   7.664   5.956 -0.1104 -1.3442  0.8352
 1354TIP3   OH2 4018   1.254   5.315   3.468  0.8659 -0.1780 -0.1171
 1354TIP3    H1 4019   1.343   5.287   3.446  1.0203  0.8612 -0.8590
 1354TIP3    H2 4020   1.265   5.400   3.510  0.2736 -0.3905  0.4772
 1355TIP3   OH2 4021   0.410   5.214   0.047 -0.4249  0.1365  0.0204
 1355TIP3    H1 4022   0.432   5.178  -0.039  0.4590  1.1081 -0.1710
 1355TIP3    H2 4023   0.393   5.137   0.101  0.0206 -0.5205 -0.7554
 1356TIP3   OH2 4024   1.079   5.414   1.167 -0.4491 -0.0538  0.2419
 1356TIP3    H1 4025   1.049   5.332   1.207  2.0142 -2.2722 -2.2631
 1356TIP3    H2 4026   1.102   5.390   1.077  2.6197  2.8275  0.1532
 1357TIP3   OH2 4027   2.285   2.993   0.603  0.0261  0.8073  0.6085
 1357TIP3    H1 4028   2.198   2.997   0.642 -0.6507  0.9904 -0.8907
 1357TIP3    H2 4029   2.269   3.000   0.509  1.8427  3.5333  0.4558
 1358TIP3   OH2 4030   2.985   6.149   5.460  0.4454  0.1273  0.0112
 1358TIP3    H1 4031   2.944   6.065   5.483 -1.7076  1.2712  0.4780
 1358TIP3    H2 4032   3.061   6.125   5.407  0.8649 -2.2013  1.5759
 1359TIP3   OH2 4033   1.585   3.739   0.986  0.3333  0.5766 -0.5258
 1359TIP3    H1 4034   1.516   3.675   1.002 -0.5487  2.1629  2.4234
 1359TIP3    H2 4035   1.664   3.698   1.021 -0.2535  1.0666  1.4769
 1360TIP3   OH2 4036   1.085   4.654   1.690 -0.2067  0.3681 -0.1832
 1360TIP3    H1 4037   1.040   4.571   1.676  0.1849  0.2430 -0.7272
 1360TIP3    H2 4038   1.177   4.631   1.701 -0.0070  0.7750 -0.9523
 1361TIP3   OH2 4039   1.753   5.927   0.382  0.4528  0.2021 -0.5360
 1361TIP3    H1 4040   1.763   5.845   0.334  0.2708 -0.2601  0.2187
 1361TIP3    H2 4041   1.833   5.934   0.434 -0.1553 -0.1995  0.4636
 1362TIP3   OH2 4042   0.187   6.566   2.721  0.0862  0.3124  0.2336
 1362TIP3    H1 4043   0.164   6.615   2.799 -0.5251  0.7703 -0.2307
 1362TIP3    H2 4044   0.113   6.507   2.707  0.2131  0.2021  0.0222
 1363TIP3   OH2 4045   3.040   4.122   1.490 -0.1724  0.2423 -0.5588
 1363TIP3    H1 4046   3.081   4.185   1.431 -1.3119  0.5363 -1.0490
 1363TIP3    H2 4047   2.992   4.063   1.432 -0.1177 -0.3344 -0.0194
 1364TIP3   OH2 4048   4.076   5.109   0.433 -0.5690  0.3515  0.1738
 1364TIP3    H1 4049   3.983   5.088   0.433 -1.0145  2.0901 -2.6299
 1364TIP3    H2 4050   4.096   5.130   0.525 -2.3283 -2.4282  1.2391
 1365TIP3   OH2 4051   1.607   7.133   1.052 -0.1336 -0.5712 -0.5829
 1365TIP3    H1 4052   1.593   7.145   0.959 -0.6244 -0.5766 -0.5132
 1365TIP3    H2 4053   1.628   7.040   1.061  1.1933 -0.3020 -0.8328
 1366TIP3   OH2 4054   6.724   3.713   2.497  0.5498 -0.3462  0.2472
 1366TIP3    H1 4055   6.783   3.671   2.559 -0.5930  0.9609  2.3111
 1366TIP3    H2 4056   6.736   3.807   2.512 -0.0696 -0.0205 -1.2027
 1367TIP3   OH2 4057   0.273   5.190   2.652 -0.2780  0.0230 -0.4504
 1367TIP3    H1 4058   0.295   5.172   2.743 -2.0414 -0.3822 -0.0935
 1367TIP3    H2 4059   0.178   5.198   2.651 -0.1259  2.2434 -1.8637
 1368TIP3   OH2 4060   8.428   5.267   4.360 -0.2327  0.3324  0.5864
 1368TIP3    H1 4061   8.378   5.345   4.334 -1.1422 -1.2107 -2.5289
 1368TIP3    H2 4062   8.362   5.207   4.395 -0.1498 -0.5103 -0.6605
 1369TIP3   OH2 4063   1.717   7.598   0.972  0.3804  0.2407 -0.5515
 1369TIP3    H1 4064   1.703   7.662   0.902 -2.0835  0.3713 -0.0040
 1369TIP3    H2 4065   1.629   7.584   1.009  1.3124 -1.4139  1.1142
 1370TIP3   OH2 4066   0.541   5.454   1.575  0.3279 -0.1356  0.3788
 1370TIP3    H1 4067   0.457   5.409   1.573  0.7174 -0.8968  1.2678
 1370TIP3    H2 4068   0.572   5.450   1.484 -0.5403  0.0784  0.0603
 1371TIP3   OH2 4069   8.077   4.345   2.352 -0.2010 -0.0261 -0.0068
 1371TIP3    H1 4070   8.041   4.398   2.423 -0.1087  2.4974 -1.7668
 1371TIP3    H2 4071   8.000   4.309   2.307 -0.3445  0.6098 -0.2706
 1372TIP3   OH2 4072   8.314   3.935   2.174 -0.5691 -0.5422  0.0146
 1372TIP3    H1 4073   8.241   3.957   2.232 -0.1900  0.7555  0.0161
 1372TIP3    H2 4074   8.340   4.018   2.136  1.0123 -0.9757  0.1235
 1373TIP3   OH2 4075   2.505   5.420   4.372  0.3129  0.2046  0.4370
 1373TIP3    H1 4076   2.541   5.454   4.290 -0.3544  1.0832  0.4985
 1373TIP3    H2 4077   2.414   5.398   4.350  0.8953 -2.1618  0.2320
 1374TIP3   OH2 4078   0.871   4.616   3.474 -0.1426  0.6139  0.0562
 1374TIP3    H1 4079   0.928   4.685   3.440 -0.8057  1.6734  1.0517
 1374TIP3    H2 4080   0.783   4.641   3.444 -0.1720 -0.6856 -0.9686
 1375TIP3   OH2 4081   3.287   5.515   3.974  0.0308  0.0840  0.2980
 1375TIP3    H1 4082   3.308   5.449   4.040  0.2054 -0.6168 -0.4406
 1375TIP3    H2 4083   3.242   5.584   4.022 -0.9928 -1.0028  0.9356
 1376TIP3   OH2 4084   2.713   6.085   3.284  0.2196  0.0432 -0.6191
 1376TIP3    H1 4085   2.744   6.132   3.361 -0.1957 -0.2794 -0.2476
 1376TIP3    H2 4086   2.764   6.004   3.283 -0.9706 -0.7443  0.3112
 1377TIP3   OH2 4087   0.227   3.100   2.185 -0.2735  0.2289 -0.2948
 1377TIP3    H1 4088   0.308   3.051   2.201  0.0055 -0.4247 -3.4536
 1377TIP3    H2 4089   0.159   3.034   2.180 -1.0691  0.7814  2.3487
 1378TIP3   OH2 4090   1.836   4.123   2.880  0.1706  0.2728 -0.2525
 1378TIP3    H1 4091   1.758   4.103   2.829 -0.0938 -0.3435  0.3863
 1378TIP3    H2 4092   1.805   4.128   2.970  0.3266  3.0117 -0.3101
 1379TIP3   OH2 4093   1.243   5.984   1.023  0.4001 -0.0519  0.2877
 1379TIP3    H1 4094   1.199   5.899   1.019 -0.1563  0.2798 -0.8939
 1379TIP3    H2 4095   1.297   5.986   0.944 -2.2517  2.1212 -1.5574
 1380TIP3   OH2 4096   0.159   6.196   3.460 -0.7430  0.1152 -0.4434
 1380TIP3    H1 4097   0.168   6.177   3.366 -1.8571  0.9023 -0.7242
 1380TIP3    H2 4098   0.201   6.123   3.504 -0.6821 -0.5273 -1.5609
 1381TIP3   OH2 4099   0.189   4.972   2.234 -0.1017 -0.3601  0.3257
 1381TIP3    H1 4100   0.275   5.010   2.253 -0.1580 -0.1629  0.1918
 1381TIP3    H2 4101   0.127   5.043   2.252 -0.2781 -0.6730  0.9514
 1382TIP3   OH2 4102   0.433   3.096   2.841  0.3353 -0.0408 -0.5225
 1382TIP3    H1 4103   0.340   3.088   2.820  0.1906  0.0686  0.0679
 1382TIP3    H2 4104   0.454   3.187   2.824 -0.3403  0.6133  2.0099
 1383TIP3   OH2 4105   3.531   3.294   2.122  0.1866 -0.1413 -0.1613
 1383TIP3    H1 4106   3.622   3.307   2.149 -0.2480  0.5211  1.0663
 1383TIP3    H2 4107   3.535   3.282   2.027  1.6326 -0.9587 -0.0088
 1384TIP3   OH2 4108   2.457   3.912   3.462  0.4317  0.0355 -0.6905
 1384TIP3    H1 4109   2.497   3.898   3.548  3.3790 -3.8398 -2.5769
 1384TIP3    H2 4110   2.499   3.992   3.429 -1.1354  1.8844  1.5870
 1385TIP3   OH2 4111   1.515   5.435   2.048 -0.5225  0.5786 -0.4512
 1385TIP3    H1 4112   1.556   5.384   2.118 -0.1226  1.0535 -0.3415
 1385TIP3    H2 4113   1.544   5.525   2.063 -2.2670  1.0631  0.1054
 1386TIP3   OH2 4114   0.789   5.012   2.162  0.2305  0.2775  0.6581
 1386TIP3    H1 4115   0.747   5.088   2.204 -0.2349  1.0656 -1.1884
 1386TIP3    H2 4116   0.874   5.004   2.206 -0.0593  1.3431  1.4432
 1387TIP3   OH2 4117   1.221   5.046   1.913 -0.1414 -0.5948 -0.3027
 1387TIP3    H1 4118   1.170   5.100   1.973  1.3222  0.0939  0.3388
 1387TIP3    H2 4119   1.276   5.108   1.866 -0.1037 -1.3021 -1.2089
 1388TIP3   OH2 4120   3.074   4.956   1.937  0.5080  0.5570 -0.2511
 1388TIP3    H1 4121   3.000   4.910   1.897 -0.1453  0.7823  0.6685
 1388TIP3    H2 4122   3.085   5.035   1.885  0.3739  0.3117 -0.6546
 1389TIP3   OH2 4123   0.366   6.854   2.089  0.3142  0.5668 -0.2975
 1389TIP3    H1 4124   0.285   6.877   2.044 -0.7963  1.9148  2.3560
 1389TIP3    H2 4125   0.432   6.911   2.049 -0.6193  1.6044 -0.3787
 1390TIP3   OH2 4126   0.925   7.008   2.432  0.3453 -0.3235  0.1754
 1390TIP3    H1 4127   0.847   6.953   2.427  0.2819 -0.1906 -0.2945
 1390TIP3    H2 4128   0.990   6.953   2.475 -0.5305  0.1622  2.2093
 1391TIP3   OH2 4129   2.020   7.643   3.099  0.5850 -0.5272  0.1000
 1391TIP3    H1 4130   1.955   7.595   3.150 -1.8238  2.7707  0.2987
 1391TIP3    H2 4131   2.085   7.672   3.163  0.9042 -1.6884  0.3055
 1392TIP3   OH2 4132   2.667   6.956   0.219  0.1494  0.1436 -0.2147
 1392TIP3    H1 4133   2.681   7.050   0.222 -1.7751  0.5006 -1.3579
 1392TIP3    H2 4134   2.699   6.929   0.133  0.0653 -0.1262 -0.1620
 1393TIP3   OH2 4135   8.007   1.156   6.238  0.5946 -0.2183  0.7858
 1393TIP3    H1 4136   8.003   1.069   6.277 -2.2080 -0.4190  0.1388
 1393TIP3    H2 4137   7.987   1.215   6.311 -1.6014 -0.4059  0.3701
 1394TIP3   OH2 4138   3.237   7.611   6.849  0.6446 -0.2879 -0.0130
 1394TIP3    H1 4139   3.314   7.647   6.805  0.3392  0.7543  0.2723
 1394TIP3    H2 4140   3.227   7.523   6.814  3.1777 -1.2037  1.4426
 1395TIP3   OH2 4141   0.617   3.005   0.655  0.3253 -0.3518  0.5663
 1395TIP3    H1 4142   0.632   3.028   0.564  1.0687 -1.8675  0.2865
 1395TIP3    H2 4143   0.529   3.038   0.675  0.3825  0.4741 -0.5178
 1396TIP3   OH2 4144   0.916   0.360   5.774 -0.0191 -0.0133  0.1768
 1396TIP3    H1 4145   0.921   0.370   5.869  0.1242 -0.6583  0.2407
 1396TIP3    H2 4146   0.849   0.294   5.760  1.9191 -2.0143 -0.0308
 1397TIP3   OH2 4147   2.031   6.232   1.431 -0.0448  0.1323  0.1473
 1397TIP3    H1 4148   1.985   6.164   1.381 -1.3946  1.4357 -0.3825
 1397TIP3    H2 4149   2.103   6.184   1.474 -0.6245 -1.5310 -0.6736
 1398TIP3   OH2 4150   0.753   1.000   6.208 -0.1114 -0.5387 -0.0859
 1398TIP3    H1 4151   0.683   1.045   6.162 -0.6266  0.5027  1.6802
 1398TIP3    H2 4152   0.709   0.934   6.261  0.1671  0.4948  1.4676
 1399TIP3   OH2 4153   1.221   4.397   0.276  0.4206  0.3496  0.7091
 1399TIP3    H1 4154   1.175   4.313   0.282 -0.1904  0.3139 -3.1556
 1399TIP3    H2 4155   1.307   4.380   0.316 -0.3292 -1.6142  1.5558
 1400TIP3   OH2 4156   0.245   4.414   2.797 -0.6702  0.0431 -0.1918
 1400TIP3    H1 4157   0.307   4.388   2.866 -1.6446  0.2284  0.7519
 1400TIP3    H2 4158   0.296   4.473   2.741  0.2124 -0.3310  0.1925
 1401TIP3   OH2 4159   2.825   6.425   2.069 -0.3597  0.0069  0.2457
 1401TIP3    H1 4160   2.888   6.360   2.039  1.9802  1.3101  2.1165
 1401TIP3    H2 4161   2.877   6.504   2.084 -2.8018  1.7512 -0.1091
 1402TIP3   OH2 4162   3.849   4.494   0.048  0.2792  0.2706  0.3751
 1402TIP3    H1 4163   3.787   4.485  -0.024 -0.5640  1.3106  0.9681
 1402TIP3    H2 4164   3.925   4.537   0.009  0.6560 -1.0196 -0.3538
 1403TIP3   OH2 4165   5.658   7.602   5.946  0.2778 -0.1529 -0.6373
 1403TIP3    H1 4166   5.721   7.595   5.875  1.1462  0.3825  0.0714
 1403TIP3    H2 4167   5.659   7.695   5.970 -0.3471 -0.2450 -0.2387
 1404TIP3   OH2 4168   1.870   6.351   1.886 -0.4517  0.2216  0.1118
 1404TIP3    H1 4169   1.957   6.332   1.920 -0.9325 -0.0846  1.1816
 1404TIP3    H2 4170   1.884   6.373   1.794  0.8633  1.0742  0.5030
 1405TIP3   OH2 4171   2.047   5.308   2.531  0.1674 -0.1493  0.0033
 1405TIP3    H1 4172   2.041   5.281   2.623  0.8721 -0.6682 -0.1016
 1405TIP3    H2 4173   2.023   5.230   2.481 -1.2192  0.4154 -0.2537
 1406TIP3   OH2 4174   1.320   6.117   1.256  0.0229 -0.0151  0.1933
 1406TIP3    H1 4175   1.240   6.168   1.272 -0.5085 -0.0550 -2.2541
 1406TIP3    H2 4176   1.300   6.063   1.180  1.1615 -2.7116  1.7168
 1407TIP3   OH2 4177   2.233   4.676   3.090  0.5495 -0.1037  0.3328
 1407TIP3    H1 4178   2.170   4.736   3.052 -1.8390 -1.2088  2.3638
 1407TIP3    H2 4179   2.301   4.732   3.127 -0.0244  1.1727 -0.5157
 1408TIP3   OH2 4180   2.165   4.767   0.488 -0.1937  0.2544  0.4347
 1408TIP3    H1 4181   2.071   4.757   0.477  0.0734  0.0132 -1.9873
 1408TIP3    H2 4182   2.175   4.840   0.548 -1.9122  0.8837 -0.0301
 1409TIP3   OH2 4183   1.740   6.213   2.689  0.1270 -0.5459  0.4027
 1409TIP3    H1 4184   1.777   6.299   2.709 -2.4068  1.2182 -1.9613
 1409TIP3    H2 4185   1.711   6.178   2.773  1.9765  0.5273  1.5013
 1410TIP3   OH2 4186   3.294   4.536   1.815  0.4508 -0.0480  0.5437
 1410TIP3    H1 4187   3.226   4.572   1.758  0.8893 -0.3876 -0.2120
 1410TIP3    H2 4188   3.249   4.468   1.865  0.2307 -0.2969  0.0216
 1411TIP3   OH2 4189   0.996   4.375   1.714  0.3604  0.1187  0.0772
 1411TIP3    H1 4190   1.011   4.296   1.766  1.4586  1.0418  1.2031
 1411TIP3    H2 4191   0.951   4.344   1.636 -0.4991 -1.4182  1.1570
 1412TIP3   OH2 4192   3.569   5.137   2.495 -0.3591 -0.0410 -0.4661
 1412TIP3    H1 4193   3.559   5.148   2.400  1.1088 -0.0145 -0.6369
 1412TIP3    H2 4194   3.491   5.088   2.522 -0.3267 -0.8901 -1.8398
 1413TIP3   OH2 4195   1.155   2.542   2.537  0.4483 -0.3740 -0.1082
 1413TIP3    H1 4196   1.116   2.472   2.589 -0.0774  0.2038  0.2799
 1413TIP3    H2 4197   1.167   2.614   2.599 -0.3771  0.3923 -0.8353
 1414TIP3   OH2 4198   1.007   2.338   2.668  0.0543 -0.0270 -0.1508
 1414TIP3    H1 4199   0.980   2.265   2.613  0.2461  0.6337 -1.1208
 1414TIP3    H2 4200   0.930   2.355   2.724 -0.4827 -0.0743 -0.8712
 1415TIP3   OH2 4201   2.279   4.957   2.798  0.2328  0.4676 -0.2212
 1415TIP3    H1 4202   2.200   4.919   2.838 -0.2918  0.7583 -0.9660
 1415TIP3    H2 4203   2.317   5.010   2.868  1.8573 -2.6427  1.3347
 1416TIP3   OH2 4204   2.481   4.503   1.706  0.3449 -0.2871 -0.1888
 1416TIP3    H1 4205   2.467   4.564   1.633 -1.3491 -1.8522 -1.2055
 1416TIP3    H2 4206   2.574   4.483   1.703  0.2209 -0.6698 -2.2198
 1417TIP3   OH2 4207   1.216   7.269   1.941  0.1308  0.1614 -0.0364
 1417TIP3    H1 4208   1.218   7.269   1.846  1.6398 -1.7766 -0.0251
 1417TIP3    H2 4209   1.301   7.303   1.968  0.1044 -0.2775  0.6261
 1418TIP3   OH2 4210   4.859   7.222   5.921  1.2518  0.7263 -0.0208
 1418TIP3    H1 4211   4.945   7.256   5.896  0.7551  3.0698  1.2992
 1418TIP3    H2 4212   4.815   7.203   5.838  2.5427  0.7914 -0.7284
 1419TIP3   OH2 4213   0.062   3.660   5.519 -0.4555 -0.0093  0.3084
 1419TIP3    H1 4214   0.078   3.744   5.478  0.5087  0.0032  0.6903
 1419TIP3    H2 4215  -0.031   3.641   5.502 -1.2247  2.0917  2.0158
 1420TIP3   OH2 4216   7.598   5.522   0.009 -0.5689  0.0713  0.8289
 1420TIP3    H1 4217   7.525   5.507  -0.051 -0.8357  0.0025  1.1685
 1420TIP3    H2 4218   7.565   5.587   0.071  0.1828  1.1748  0.0723
 1421TIP3   OH2 4219   7.641   2.000   5.393 -0.3590  0.4038 -0.2936
 1421TIP3    H1 4220   7.568   1.944   5.420 -0.3156  0.1632 -0.6582
 1421TIP3    H2 4221   7.685   1.949   5.325 -0.0422  0.6879 -0.2988
 1422TIP3   OH2 4222   8.162   2.480   3.920  0.5752 -0.3473 -0.0641
 1422TIP3    H1 4223   8.184   2.425   3.845 -1.2627 -0.9070 -0.2287
 1422TIP3    H2 4224   8.084   2.528   3.892  0.4285  0.1490  1.1540
 1423TIP3   OH2 4225   1.112   5.577   0.320 -0.7696 -0.2747 -0.4071
 1423TIP3    H1 4226   1.068   5.622   0.248 -0.0613 -0.0425 -0.7014
 1423TIP3    H2 4227   1.195   5.549   0.282 -0.2382  0.1709  0.4331
 1424TIP3   OH2 4228   1.647   5.670   1.615  0.0296 -0.7011 -0.3047
 1424TIP3    H1 4229   1.730   5.648   1.657 -0.2716  0.1595  0.7726
 1424TIP3    H2 4230   1.662   5.654   1.522  1.6014  0.0327 -0.1949
 1425TIP3   OH2 4231   7.498   0.288   2.175 -0.1690  0.3672  0.4056
 1425TIP3    H1 4232   7.521   0.381   2.181 -0.5407  0.5094 -0.3601
 1425TIP3    H2 4233   7.538   0.259   2.093  1.2830 -0.5399  1.4045
 1426TIP3   OH2 4234   1.417   1.796   5.650  0.4940 -0.1853  0.2876
 1426TIP3    H1 4235   1.382   1.774   5.563  0.1698 -0.3908  0.4710
 1426TIP3    H2 4236   1.503   1.835   5.632  0.4466 -0.2692 -0.1231
 1427TIP3   OH2 4237   0.306   3.719   2.373  0.2913  0.4159 -0.1236
 1427TIP3    H1 4238   0.221   3.762   2.363 -0.3644 -0.9963 -0.7263
 1427TIP3    H2 4239   0.284   3.628   2.393  1.6751  0.0418 -0.2937
 1428TIP3   OH2 4240   2.292   5.688   1.621  0.0659 -0.2699  0.5233
 1428TIP3    H1 4241   2.336   5.766   1.653  0.3187  0.0494 -0.5797
 1428TIP3    H2 4242   2.301   5.624   1.692  1.4279  0.1182  0.7072
 1429TIP3   OH2 4243   1.807   4.151   1.162 -0.1110 -0.1851 -0.5262
 1429TIP3    H1 4244   1.773   4.222   1.109  0.5175  0.2003 -0.4148
 1429TIP3    H2 4245   1.853   4.094   1.100  0.4705  0.1722 -0.4273
 1430TIP3   OH2 4246   1.582   3.340   4.510 -0.1647 -0.6786 -0.2408
 1430TIP3    H1 4247   1.671   3.361   4.540 -0.4045  2.1601 -1.4309
 1430TIP3    H2 4248   1.595   3.299   4.425  0.0042 -0.6512 -0.2283
 1431TIP3   OH2 4249   0.589   5.476   2.700 -0.3098  0.2153  0.3292
 1431TIP3    H1 4250   0.581   5.421   2.778  0.0258  0.8784  0.8409
 1431TIP3    H2 4251   0.500   5.485   2.668 -0.2494 -1.5551 -0.4214
 1432TIP3   OH2 4252   1.350   2.772   0.254 -0.1840 -0.0936 -0.7164
 1432TIP3    H1 4253   1.405   2.789   0.331 -0.7762  0.3123 -0.3797
 1432TIP3    H2 4254   1.358   2.852   0.201 -1.3527  0.4328 -0.1139
 1433TIP3   OH2 4255   1.629   7.213   0.793  0.1701 -0.1795  0.7664
 1433TIP3    H1 4256   1.562   7.257   0.741  0.0820 -0.9948  0.1839
 1433TIP3    H2 4257   1.712   7.252   0.764  0.0253  0.2361  0.8992
 1434TIP3   OH2 4258   2.102   4.818   1.757 -0.0486 -0.1406 -0.2857
 1434TIP3    H1 4259   2.128   4.729   1.778  2.1735  0.3643 -0.7889
 1434TIP3    H2 4260   2.037   4.808   1.687  1.3595 -1.3268 -1.4586
 1435TIP3   OH2 4261   3.429   3.576   1.095  0.2875  0.3076  0.6549
 1435TIP3    H1 4262   3.460   3.547   1.181  0.9388  2.6399  1.2328
 1435TIP3    H2 4263   3.507   3.614   1.053 -0.0181 -0.8573 -0.9859
 1436TIP3   OH2 4264   0.615   5.432   1.313 -0.4130  0.4165  0.1003
 1436TIP3    H1 4265   0.541   5.400   1.260  0.4502  1.8775 -2.0836
 1436TIP3    H2 4266   0.692   5.391   1.273  0.1205  0.3345  1.2181
 1437TIP3   OH2 4267   3.338   5.583   1.410 -0.6420  0.2431  0.0452
 1437TIP3    H1 4268   3.315   5.537   1.491  2.5004 -0.2484  0.7228
 1437TIP3    H2 4269   3.372   5.514   1.352 -3.2333  0.5247 -1.8725
 1438TIP3   OH2 4270   2.846   4.994   0.289  0.3721  0.2509 -0.3718
 1438TIP3    H1 4271   2.787   4.973   0.361  0.6409  2.4461  0.5026
 1438TIP3    H2 4272   2.914   4.927   0.294  0.9605  1.0176  2.0609
 1439TIP3   OH2 4273   0.646   1.943   6.884  0.3566 -0.1006  0.2388
 1439TIP3    H1 4274   0.714   1.880   6.911  1.2837 -0.2735 -2.3014
 1439TIP3    H2 4275   0.680   2.028   6.912  1.4946 -0.2304 -0.6696
 1440TIP3   OH2 4276   2.766   6.407   1.055  0.2285  0.5472  0.3650
 1440TIP3    H1 4277   2.807   6.377   0.974  0.9623  0.6717  0.6921
 1440TIP3    H2 4278   2.740   6.327   1.100 -1.0962  0.4992 -0.4641
 1441TIP3   OH2 4279   0.505   1.455   5.793 -0.5467 -0.1499  0.0502
 1441TIP3    H1 4280   0.585   1.497   5.823 -1.1222 -0.8132  2.6230
 1441TIP3    H2 4281   0.476   1.509   5.719  2.3292 -0.0109 -1.0365
 1442TIP3   OH2 4282   3.470   3.772   0.828  0.6750 -0.2720 -0.5266
 1442TIP3    H1 4283   3.453   3.821   0.748 -1.6334 -1.2744 -0.6835
 1442TIP3    H2 4284   3.554   3.807   0.860  0.6417  1.5228 -2.2900
 1443TIP3   OH2 4285   4.754   7.048   0.665  0.1996 -0.4032 -0.0504
 1443TIP3    H1 4286   4.831   7.055   0.609  0.2759 -1.1758 -0.0472
 1443TIP3    H2 4287   4.699   6.982   0.623 -1.7031  2.0169 -1.4818
 1444TIP3   OH2 4288   2.087   4.305   0.692 -0.1875 -1.0320  0.4231
 1444TIP3    H1 4289   2.045   4.275   0.773 -1.8610 -1.2701 -0.5209
 1444TIP3    H2 4290   2.108   4.225   0.644 -2.0569 -0.8286 -0.7875
 1445TIP3   OH2 4291   3.159   5.418   1.160  0.7861 -0.2311 -0.1158
 1445TIP3    H1 4292   3.253   5.406   1.166  0.8823  0.8453  0.9099
 1445TIP3    H2 4293   3.125   5.385   1.244  0.3201 -0.1120 -0.2538
 1446TIP3   OH2 4294   5.016   7.021   5.746  0.1899 -0.1348  0.4464
 1446TIP3    H1 4295   4.923   7.006   5.734  0.5015 -3.1155  1.3087
 1446TIP3    H2 4296   5.031   7.004   5.839  1.6464 -0.0580  0.2356
 1447TIP3   OH2 4297   2.744   4.194   0.886  0.3200  0.1468 -0.0267
 1447TIP3    H1 4298   2.686   4.243   0.944  1.1781 -0.0396  1.0021
 1447TIP3    H2 4299   2.819   4.252   0.871 -0.1178  0.3835 -1.3440
 1448TIP3   OH2 4300   3.154   5.998   0.980 -0.2195 -0.1593 -0.0948
 1448TIP3    H1 4301   3.201   6.059   0.923 -1.0747  1.5098  0.9237
 1448TIP3    H2 4302   3.158   5.914   0.935  0.9337  0.6655 -1.5723
 1449TIP3   OH2 4303   1.941   1.849   5.697 -0.0632 -0.4259  0.2243
 1449TIP3    H1 4304   1.894   1.841   5.779 -1.4439 -0.6027 -0.5746
 1449TIP3    H2 4305   1.976   1.761   5.680  0.4107 -0.3338  0.7352
 1450TIP3   OH2 4306   7.911   0.177   5.263 -0.0126 -0.1950 -0.1999
 1450TIP3    H1 4307   7.937   0.142   5.178 -0.6508  0.2022 -0.5611
 1450TIP3    H2 4308   7.848   0.113   5.297 -1.2540  0.6307 -0.9034
 1451TIP3   OH2 4309   0.755   1.821   6.587  0.3219  0.0909 -0.4385
 1451TIP3    H1 4310   0.849   1.826   6.569  0.0571 -0.6106 -2.1366
 1451TIP3    H2 4311   0.745   1.743   6.641  0.7349  0.2759 -0.0898
 1452TIP3   OH2 4312   2.663   7.069   1.237  0.0551  0.2357 -0.0065
 1452TIP3    H1 4313   2.688   7.021   1.158 -0.0210 -0.9679  0.6807
 1452TIP3    H2 4314   2.703   7.155   1.227 -0.4594  0.3000 -1.6334
 1453TIP3   OH2 4315   2.063   0.254   6.930 -0.0797  0.8523 -0.0096
 1453TIP3    H1 4316   2.147   0.284   6.966 -0.1549 -0.5344  1.3430
 1453TIP3    H2 4317   2.088   0.187   6.866 -0.1515  0.1986  0.6350
 1454TIP3   OH2 4318   5.051   5.542   1.078  0.1550 -0.6398 -0.6746
 1454TIP3    H1 4319   5.074   5.567   1.167  0.1043  0.1518 -0.8718
 1454TIP3    H2 4320   5.000   5.462   1.087 -0.8364  0.0566  0.1083
 1455TIP3   OH2 4321   1.100   6.793   2.097 -0.5945 -0.0537 -0.1502
 1455TIP3    H1 4322   1.115   6.838   2.013 -0.8041  0.7335  0.2316
 1455TIP3    H2 4323   1.181   6.744   2.112 -0.4700 -0.0247 -0.7140
 1456TIP3   OH2 4324   4.408   7.360   4.613 -0.3962  0.8692 -0.2104
 1456TIP3    H1 4325   4.414   7.421   4.539 -2.3375  1.0718 -0.2095
 1456TIP3    H2 4326   4.462   7.400   4.681  0.7122  1.1078 -1.2101
 1457TIP3   OH2 4327   7.720   0.473   5.805 -0.2467 -0.3474  0.3550
 1457TIP3    H1 4328   7.706   0.380   5.823 -2.3090 -0.1746 -0.1283
 1457TIP3    H2 4329   7.807   0.492   5.839  2.0359 -3.4614 -3.3847
 1458TIP3   OH2 4330   3.821   5.690   0.470 -0.0593 -0.0775  0.1638
 1458TIP3    H1 4331   3.758   5.619   0.459 -1.5973  1.1492  0.8941
 1458TIP3    H2 4332   3.820   5.710   0.564 -0.4175  1.5598 -0.1571
 1459TIP3   OH2 4333   5.340   6.848   6.599  0.1422  0.0714 -0.0308
 1459TIP3    H1 4334   5.362   6.757   6.621  1.2980  0.3845  0.1347
 1459TIP3    H2 4335   5.380   6.900   6.669  2.0704  0.9210 -1.7100
 1460TIP3   OH2 4336   4.834   5.009   1.094 -0.5034  0.1528  0.0226
 1460TIP3    H1 4337   4.869   4.920   1.084  1.3106  0.9774 -1.0881
 1460TIP3    H2 4338   4.767   5.015   1.026  1.0749  0.4466 -1.5411
 1461TIP3   OH2 4339   0.588   1.572   6.370  0.1109  0.3950  0.1183
 1461TIP3    H1 4340   0.587   1.527   6.285 -1.5818  0.3667  0.1243
 1461TIP3    H2 4341   0.667   1.540   6.413 -0.0675 -1.1378 -0.6435
 1462TIP3   OH2 4342   2.962   4.065   1.176 -0.4270 -0.1605  0.4608
 1462TIP3    H1 4343   2.949   3.987   1.229 -2.9178  1.4541  2.3208
 1462TIP3    H2 4344   2.896   4.059   1.107 -0.4152  0.1341  0.4220
 1463TIP3   OH2 4345   8.297   2.853   6.655 -0.0523  0.0601  0.1651
 1463TIP3    H1 4346   8.227   2.788   6.657 -1.0829  1.0697 -1.7570
 1463TIP3    H2 4347   8.253   2.936   6.638  1.5117  0.8710 -0.0643
 1464TIP3   OH2 4348   4.419   5.389   2.141 -0.1018 -0.5861 -0.3044
 1464TIP3    H1 4349   4.502   5.370   2.098  0.7792  0.4986  0.9058
 1464TIP3    H2 4350   4.441   5.402   2.233 -1.2521  1.8846 -0.3206
 1465TIP3   OH2 4351   4.567   3.246   0.099  0.5496  0.1447 -0.3688
 1465TIP3    H1 4352   4.659   3.233   0.078  0.4789  1.9259 -1.9683
 1465TIP3    H2 4353   4.520   3.220   0.020 -0.4592 -2.2550  0.9791
 1466TIP3   OH2 4354   2.688   6.068   0.288  0.2237 -0.1352  0.2535
 1466TIP3    H1 4355   2.644   6.143   0.248 -1.0562 -1.9955 -1.9226
 1466TIP3    H2 4356   2.640   6.053   0.369 -1.6575 -0.6784 -0.9465
 1467TIP3   OH2 4357   2.523   7.578   3.304 -0.1524 -0.4812  0.4204
 1467TIP3    H1 4358   2.560   7.601   3.389  0.3330 -0.6064  0.2403
 1467TIP3    H2 4359   2.527   7.659   3.253 -0.4101 -0.4154  0.5021
 1468TIP3   OH2 4360   3.653   5.858   1.196 -0.3142 -0.7555 -0.1257
 1468TIP3    H1 4361   3.573   5.836   1.148 -0.7078 -1.2243  0.7271
 1468TIP3    H2 4362   3.669   5.951   1.175 -2.1176 -0.1305  1.1410
 1469TIP3   OH2 4363   2.183   6.686   1.462 -0.4561 -0.0795  0.1244
 1469TIP3    H1 4364   2.165   6.678   1.556  2.1975 -0.0342  0.6667
 1469TIP3    H2 4365   2.199   6.596   1.433  1.6577  0.1972  0.3623
 1470TIP3   OH2 4366   1.029   1.525   5.833 -0.0463 -0.1774 -0.1855
 1470TIP3    H1 4367   1.122   1.532   5.854  0.4141 -2.0580 -1.5591
 1470TIP3    H2 4368   1.013   1.597   5.771 -0.3868  2.4693  2.8129
 1471TIP3   OH2 4369   1.373   1.747   6.439  0.4346  0.0530 -0.4054
 1471TIP3    H1 4370   1.467   1.753   6.421  0.4763 -1.1497 -0.6562
 1471TIP3    H2 4371   1.367   1.703   6.523  0.1000  0.1096 -0.3995
 1472TIP3   OH2 4372   3.088   5.356   0.046 -0.1636 -0.0076  0.6852
 1472TIP3    H1 4373   3.115   5.293  -0.020  0.8608  2.0640 -0.9161
 1472TIP3    H2 4374   2.998   5.331   0.068 -0.2400 -1.1975 -0.9027
 1473TIP3   OH2 4375   0.609   0.043   4.949  0.2460 -0.4598  0.0674
 1473TIP3    H1 4376   0.648   0.019   5.033  0.4217 -0.0909  0.0902
 1473TIP3    H2 4377   0.647  -0.019   4.887  0.5512 -0.3683  0.1607
 1474TIP3   OH2 4378   2.942   7.093   0.829 -0.3824 -0.1263  0.3712
 1474TIP3    H1 4379   2.927   7.157   0.898 -0.9111  0.4725 -0.2869
 1474TIP3    H2 4380   2.864   7.099   0.773 -0.4300 -1.3239  0.2805
 1475TIP3   OH2 4381   2.753   4.807   3.006 -0.0878 -0.0428 -0.0507
 1475TIP3    H1 4382   2.700   4.850   3.073  0.6754  0.0696  0.4866
 1475TIP3    H2 4383   2.690   4.771   2.944 -0.7563  1.2600 -0.1375
 1476TIP3   OH2 4384   2.594   5.820   0.726 -0.2902  0.0133 -0.2760
 1476TIP3    H1 4385   2.531   5.750   0.745  0.4848 -0.4762  0.5554
 1476TIP3    H2 4386   2.553   5.899   0.760  0.6327 -0.6896  2.6287
 1477TIP3   OH2 4387   4.571   7.267   0.206  0.4609 -0.0357  0.0491
 1477TIP3    H1 4388   4.487   7.221   0.212 -1.6399  3.5414 -0.6310
 1477TIP3    H2 4389   4.591   7.292   0.296  0.0094  0.4513  0.0146
 1478TIP3   OH2 4390   3.252   4.992   0.537  0.1033 -0.0145 -0.3607
 1478TIP3    H1 4391   3.341   5.027   0.547 -0.3680  1.3189 -0.8451
 1478TIP3    H2 4392   3.199   5.066   0.508 -1.3769 -0.5715  0.8488
 1479TIP3   OH2 4393   1.572   6.510   2.647 -0.1948 -0.1344  0.5873
 1479TIP3    H1 4394   1.578   6.605   2.640  1.2054 -0.2925 -0.5499
 1479TIP3    H2 4395   1.483   6.490   2.618 -0.1497  0.7536 -0.2022
 1480TIP3   OH2 4396   2.024   3.040   2.293 -0.9150 -0.2883  0.5101
 1480TIP3    H1 4397   2.102   3.086   2.264 -1.5520  0.1546 -0.5237
 1480TIP3    H2 4398   2.056   2.971   2.351  0.1441  0.6259  1.0140
 1481TIP3   OH2 4399   7.410   0.344   6.516 -0.3783 -0.0351  0.4854
 1481TIP3    H1 4400   7.350   0.288   6.466 -1.0180 -0.9295  2.2210
 1481TIP3    H2 4401   7.439   0.289   6.589  0.0859  1.4515  1.4427
 1482TIP3   OH2 4402   4.583   6.003   1.310  0.4318 -0.3935  0.0017
 1482TIP3    H1 4403   4.676   6.001   1.331  0.3871 -1.0234  0.1513
 1482TIP3    H2 4404   4.539   5.999   1.396  0.2505 -2.2096 -0.1668
 1483TIP3   OH2 4405   1.197   5.630   1.525  0.8890 -0.1660 -0.4597
 1483TIP3    H1 4406   1.276   5.621   1.579  0.9448 -0.4800 -0.5914
 1483TIP3    H2 4407   1.139   5.687   1.576  1.2888  0.2436 -0.4593
 1484TIP3   OH2 4408   1.160   6.324   1.323  0.1720  0.3709  0.1557
 1484TIP3    H1 4409   1.121   6.410   1.306  0.6936  0.3289 -1.2829
 1484TIP3    H2 4410   1.197   6.331   1.411 -0.0632  1.5165  0.1676
 1485TIP3   OH2 4411   2.688   6.137   1.081 -0.4108  0.1646  0.1896
 1485TIP3    H1 4412   2.696   6.133   0.986 -1.1834  2.1500  0.0021
 1485TIP3    H2 4413   2.730   6.057   1.113  1.3217  0.2706 -1.7232
 1486TIP3   OH2 4414   0.485   2.019   4.859 -0.0099  0.1342  0.0783
 1486TIP3    H1 4415   0.569   1.979   4.835 -1.4498 -2.3316 -1.0304
 1486TIP3    H2 4416   0.466   2.079   4.788  0.0498 -0.5212 -0.5030
 1487TIP3   OH2 4417   1.476   5.028   3.645 -0.8387  0.0082 -0.5257
 1487TIP3    H1 4418   1.471   4.935   3.667 -0.5778 -0.1664 -1.2022
 1487TIP3    H2 4419   1.457   5.073   3.728 -0.4584 -0.6396 -0.0816
 1488TIP3   OH2 4420   2.891   3.198   0.807  0.3542 -0.3177  0.3169
 1488TIP3    H1 4421   2.865   3.139   0.736  0.4549  0.0430 -0.0224
 1488TIP3    H2 4422   2.821   3.263   0.812  0.3763 -0.3074  0.5096
 1489TIP3   OH2 4423   5.929   7.432   6.030  0.3166  0.1770 -0.5730
 1489TIP3    H1 4424   5.867   7.418   6.101  0.2755 -0.0867 -0.6621
 1489TIP3    H2 4425   5.906   7.367   5.964 -0.3349  1.1152 -1.2981
 1490TIP3   OH2 4426   0.762   0.597   6.053 -0.0263  0.4833 -0.1689
 1490TIP3    H1 4427   0.853   0.623   6.069  0.1343 -0.2803  0.1635
 1490TIP3    H2 4428   0.737   0.646   5.974  0.9761 -0.0370 -0.8224
 1491TIP3   OH2 4429   2.928   3.345   0.485  0.1146  0.2585  0.5868
 1491TIP3    H1 4430   2.885   3.275   0.436  2.0288  1.0764 -2.3971
 1491TIP3    H2 4431   2.966   3.300   0.561  0.0918 -1.7259 -0.5254
 1492TIP3   OH2 4432   4.327   4.319   0.577  0.1041 -0.1227  0.5788
 1492TIP3    H1 4433   4.374   4.402   0.566  0.8872 -0.6842 -0.4633
 1492TIP3    H2 4434   4.389   4.264   0.625 -0.4065 -0.1148  1.2439
 1493TIP3   OH2 4435   8.085   7.969   6.102 -0.6243 -0.1346  0.6123
 1493TIP3    H1 4436   8.097   8.044   6.160 -0.9122  1.4999 -1.3975
 1493TIP3    H2 4437   8.043   7.903   6.157  1.5377  0.3822  2.9695
 1494TIP3   OH2 4438   0.960   3.882   0.023 -0.5017  0.7556 -1.1332
 1494TIP3    H1 4439   1.014   3.804   0.019  2.2431  2.6013 -1.4120
 1494TIP3    H2 4440   0.937   3.891   0.116  0.9353  0.7518 -0.7663
 1495TIP3   OH2 4441   1.502   4.122   1.124 -0.2951 -0.0303 -0.1179
 1495TIP3    H1 4442   1.535   4.160   1.043 -1.0197 -0.3093 -0.5541
 1495TIP3    H2 4443   1.578   4.078   1.162  0.2976  0.9825 -0.1169
 1496TIP3   OH2 4444   7.492   0.501   6.930 -0.0556  0.7660  0.1305
 1496TIP3    H1 4445   7.434   0.433   6.966  0.3888 -0.9786 -2.3287
 1496TIP3    H2 4446   7.432   0.570   6.901 -0.7241  0.0923 -0.1016
 1497TIP3   OH2 4447   2.701   5.014   2.017 -0.5300  0.5793 -0.1715
 1497TIP3    H1 4448   2.759   5.070   2.069 -1.4885  0.8080  0.6592
 1497TIP3    H2 4449   2.613   5.050   2.032 -0.8997  0.1999 -1.3756
 1498TIP3   OH2 4450   2.808   3.781   0.136  0.0055  0.0996 -0.3910
 1498TIP3    H1 4451   2.852   3.798   0.219 -1.9659 -1.2470  0.9851
 1498TIP3    H2 4452   2.718   3.811   0.150 -0.7749 -1.6413 -1.4561
 1499TIP3   OH2 4453   2.572   6.513   2.279  1.1265 -0.1176 -0.0911
 1499TIP3    H1 4454   2.592   6.607   2.275  1.0976 -0.1491 -0.9704
 1499TIP3    H2 4455   2.481   6.509   2.307  1.0129  0.1232 -0.4262
 1500TIP3   OH2 4456   3.418   5.842   1.078  0.4610 -0.4091  0.3570
 1500TIP3    H1 4457   3.423   5.908   1.009  0.0572 -0.6859  0.0665
 1500TIP3    H2 4458   3.353   5.780   1.048  0.1015 -0.3990  1.0998
 1501TIP3   OH2 4459   4.569   4.331   1.567 -0.7860  0.3220  0.2246
 1501TIP3    H1 4460   4.609   4.351   1.652 -0.6680 -1.0669  0.5126
 1501TIP3    H2 4461   4.638   4.347   1.503  0.1555 -1.7027  0.6881
 1502TIP3   OH2 4462   7.616   0.873   6.403 -0.4229 -0.1109  0.4583
 1502TIP3    H1 4463   7.550   0.820   6.448  0.2645 -1.1843  0.2280
 1502TIP3    H2 4464   7.623   0.833   6.316 -1.2319  1.5088 -0.3777
 1503TIP3   OH2 4465   0.104   0.981   5.865 -0.4016  0.3600 -0.1054
 1503TIP3    H1 4466   0.071   0.903   5.909 -0.5593  0.8970  0.7336
 1503TIP3    H2 4467   0.091   1.052   5.928  1.2937  0.7908 -0.2111
 1504TIP3   OH2 4468   7.327   0.613   6.409  0.0326  0.7016 -0.0427
 1504TIP3    H1 4469   7.291   0.701   6.418 -1.9938 -0.2184  1.1576
 1504TIP3    H2 4470   7.280   0.575   6.335 -0.5641 -0.0557  0.7136
 1505TIP3   OH2 4471   5.420   7.407   6.276  0.2758 -0.3616 -0.0452
 1505TIP3    H1 4472   5.362   7.462   6.224 -1.1568 -2.1426 -0.3883
 1505TIP3    H2 4473   5.366   7.379   6.350  2.2680  2.1248  2.4887
 1506TIP3   OH2 4474   0.694   2.200   4.236 -0.4625  0.3044  0.4571
 1506TIP3    H1 4475   0.672   2.287   4.270  0.6764  0.6046  0.4135
 1506TIP3    H2 4476   0.736   2.156   4.309  2.4206  1.1092 -0.6484
 1507TIP3   OH2 4477   4.651   7.959   5.407 -0.0030 -0.0461  0.0615
 1507TIP3    H1 4478   4.590   7.896   5.447  1.3006 -1.0136  0.5955
 1507TIP3    H2 4479   4.633   8.042   5.451  0.3749 -0.7641  1.6046
 1508TIP3   OH2 4480   7.817   1.609   6.720 -0.3081  0.1863 -0.1660
 1508TIP3    H1 4481   7.729   1.595   6.756 -0.8991 -0.5113 -1.8741
 1508TIP3    H2 4482   7.820   1.702   6.700 -1.4900 -0.1868 -2.2197
 1509TIP3   OH2 4483   3.415   5.410   0.995 -0.1505  0.3123 -0.2640
 1509TIP3    H1 4484   3.359   5.486   0.977 -0.9225 -0.1596  0.1451
 1509TIP3    H2 4485   3.416   5.360   0.914 -1.3236 -0.3265  0.1160
 1510TIP3   OH2 4486   4.382   7.467   1.023  0.1569  0.5560 -0.2279
 1510TIP3    H1 4487   4.390   7.550   1.070  1.6864  0.4137 -0.2180
 1510TIP3    H2 4488   4.361   7.493   0.933  1.0513  0.9670 -0.3204
 1511TIP3   OH2 4489   1.678   6.919   1.489 -0.4741 -0.0901  0.5266
 1511TIP3    H1 4490   1.619   6.932   1.562  0.6602 -1.0512  1.6399
 1511TIP3    H2 4491   1.754   6.974   1.509  0.3761 -1.2931  0.7210
 1512TIP3   OH2 4492   4.446   7.562   6.302  0.4142  0.0997  0.2863
 1512TIP3    H1 4493   4.447   7.642   6.355  0.7098 -2.6177  4.5891
 1512TIP3    H2 4494   4.535   7.528   6.309  0.3542 -0.5403 -1.7148
 1513TIP3   OH2 4495   0.479   0.911   4.857  0.2148 -0.3227  0.4648
 1513TIP3    H1 4496   0.548   0.888   4.920 -1.0208 -1.6783  1.3541
 1513TIP3    H2 4497   0.397   0.892   4.903 -0.7442  0.4252 -0.9012
 1514TIP3   OH2 4498   5.036   7.227   4.912 -0.0618  0.0125  0.4830
 1514TIP3    H1 4499   5.039   7.254   5.003  0.3591 -0.9531  0.7707
 1514TIP3    H2 4500   5.021   7.307   4.863 -1.3799  0.3842  1.4710
 1515TIP3   OH2 4501   6.479   7.878   4.879 -0.1196  0.1195 -0.1334
 1515TIP3    H1 4502   6.503   7.826   4.803  0.0233 -0.1226  0.0776
 1515TIP3    H2 4503   6.473   7.815   4.951 -2.2118  0.0226 -0.3435
 1516TIP3   OH2 4504   2.051   6.069   3.174  0.2198  0.2917  0.2097
 1516TIP3    H1 4505   2.123   6.039   3.118 -0.9548 -2.0493 -0.1395
 1516TIP3    H2 4506   1.997   6.123   3.116  0.3941  0.0347 -0.1941
 1517TIP3   OH2 4507   4.825   5.185   0.132  0.4030  0.6749  0.0796
 1517TIP3    H1 4508   4.896   5.174   0.195  1.7411  1.9515 -1.1672
 1517TIP3    H2 4509   4.867   5.221   0.054 -1.6919  1.9058 -0.5339
 1518TIP3   OH2 4510   2.351   6.008   1.408 -0.3998 -0.2197  0.7279
 1518TIP3    H1 4511   2.261   5.985   1.384 -0.6496  1.0320  0.4588
 1518TIP3    H2 4512   2.380   6.065   1.337  0.6171 -0.6308  0.8100
 1519TIP3   OH2 4513   6.948   7.894   6.466  0.1580 -0.1447  0.4329
 1519TIP3    H1 4514   6.893   7.919   6.540  1.8782 -0.4737  1.8579
 1519TIP3    H2 4515   6.910   7.812   6.434 -0.3069 -0.2431  1.2334
 1520TIP3   OH2 4516   1.607   4.108   2.703 -0.0479 -0.3189 -0.6053
 1520TIP3    H1 4517   1.607   4.152   2.618  0.4767 -0.8983 -0.9088
 1520TIP3    H2 4518   1.524   4.133   2.743 -0.2244  0.0910 -1.2223
 1521TIP3   OH2 4519   1.562   1.389   6.463 -0.2991 -0.2148  0.4282
 1521TIP3    H1 4520   1.642   1.340   6.444  0.3721  1.2251 -0.5237
 1521TIP3    H2 4521   1.533   1.422   6.378 -1.7088 -0.4089  0.8171
 1522TIP3   OH2 4522   3.582   4.298   3.034 -0.8180 -0.2494 -0.5479
 1522TIP3    H1 4523   3.568   4.335   3.121  0.0471  0.0189 -0.5228
 1522TIP3    H2 4524   3.670   4.327   3.009 -0.8910 -0.6878 -1.3286
 1523TIP3   OH2 4525   0.200   0.095   6.353 -0.5698  0.0464 -0.0321
 1523TIP3    H1 4526   0.135   0.164   6.335 -1.9362 -0.5554  2.3946
 1523TIP3    H2 4527   0.239   0.121   6.436 -1.0498 -2.0546  0.8799
 1524TIP3   OH2 4528   6.379   5.623   6.141 -0.0945  0.1365  0.4940
 1524TIP3    H1 4529   6.405   5.539   6.180  0.8270  0.2542  0.1461
 1524TIP3    H2 4530   6.301   5.649   6.190 -0.3536 -0.9009  0.6377
 1525TIP3   OH2 4531   3.940   3.975   0.380 -0.0996 -0.4348  0.1475
 1525TIP3    H1 4532   3.894   4.024   0.448  1.9450 -0.0205  1.2809
 1525TIP3    H2 4533   3.976   4.043   0.323 -1.2957 -0.7672 -1.0398
 1526TIP3   OH2 4534   8.403   1.150   6.782  0.3180 -0.3266 -0.1547
 1526TIP3    H1 4535   8.481   1.099   6.758  0.4778  0.3031 -1.0045
 1526TIP3    H2 4536   8.348   1.148   6.703  0.5064  1.1337 -0.3427
 1527TIP3   OH2 4537   2.052   2.980   0.734 -0.3160  0.1712 -0.2651
 1527TIP3    H1 4538   2.073   2.919   0.804 -0.9297  0.7566  0.4468
 1527TIP3    H2 4539   2.003   2.928   0.671 -1.5654  0.1000  0.7357
 1528TIP3   OH2 4540   6.915   7.607   6.460 -0.0880 -0.0444  0.3219
 1528TIP3    H1 4541   6.954   7.594   6.546  1.0185 -0.5279 -0.2402
 1528TIP3    H2 4542   6.990   7.614   6.401 -0.8532 -0.7011 -0.7407
 1529TIP3   OH2 4543   2.501   3.245   0.265 -0.6571  0.0723  0.0522
 1529TIP3    H1 4544   2.492   3.150   0.277 -0.6874  0.2209  1.2529
 1529TIP3    H2 4545   2.413   3.276   0.244 -0.6730 -0.1410 -0.2008
 1530TIP3   OH2 4546   0.061   1.282   6.507 -0.1680 -0.4095  0.4942
 1530TIP3    H1 4547   0.146   1.269   6.465 -0.2481 -2.2157  0.8530
 1530TIP3    H2 4548   0.082   1.294   6.600 -0.1365  1.5359  0.2396
 1531TIP3   OH2 4549   7.788   2.967   6.429  0.2011 -0.3122  0.2341
 1531TIP3    H1 4550   7.730   2.979   6.505 -1.6499  0.3641 -1.2406
 1531TIP3    H2 4551   7.745   2.898   6.378  1.4173 -0.7294 -0.2229
 1532TIP3   OH2 4552   8.015   0.175   6.461  0.4351  0.1513  0.5073
 1532TIP3    H1 4553   7.937   0.180   6.516  0.1723 -0.9005  0.2529
 1532TIP3    H2 4554   8.088   0.190   6.521  0.0387  1.1638  0.7396
 1533TIP3   OH2 4555   7.648   1.862   6.961 -0.0935 -0.4286  0.1347
 1533TIP3    H1 4556   7.584   1.895   6.898 -0.9528 -0.8024  0.7973
 1533TIP3    H2 4557   7.727   1.846   6.909 -1.2337 -2.1254 -1.1421
 1534TIP3   OH2 4558   0.304   5.164   1.831 -0.0278  0.2149 -0.1696
 1534TIP3    H1 4559   0.340   5.160   1.919  0.7865 -1.7892 -0.5674
 1534TIP3    H2 4560   0.219   5.120   1.838  1.2694 -2.5469 -0.9225
 1535TIP3   OH2 4561   0.085   6.186   1.241  0.0832 -0.2889  0.6908
 1535TIP3    H1 4562   0.051   6.098   1.229  0.8801 -0.6299  0.9530
 1535TIP3    H2 4563   0.011   6.243   1.218 -0.0226 -0.9988 -0.8109
 1536TIP3   OH2 4564   3.352   6.107   2.395  0.1685 -0.0302  0.2502
 1536TIP3    H1 4565   3.421   6.157   2.438  1.1671 -0.7997 -0.4188
 1536TIP3    H2 4566   3.331   6.037   2.457  0.4240 -0.1621  0.1853
 1537TIP3   OH2 4567   1.786   5.575   3.790  0.5955 -0.8678  0.3347
 1537TIP3    H1 4568   1.755   5.531   3.869  1.4924 -2.9785 -0.4436
 1537TIP3    H2 4569   1.874   5.604   3.811  0.8362 -1.4341  0.1303
 1538TIP3   OH2 4570   7.339   1.656   6.369 -0.0197  0.0918 -0.1563
 1538TIP3    H1 4571   7.416   1.699   6.331 -1.5414  2.2134 -0.9242
 1538TIP3    H2 4572   7.346   1.673   6.463  0.5851  0.0648 -0.1944
 1539TIP3   OH2 4573   4.169   5.310   1.447 -0.2808  0.2789 -0.2489
 1539TIP3    H1 4574   4.209   5.374   1.506  1.0786 -2.0223  1.4157
 1539TIP3    H2 4575   4.226   5.310   1.370  1.5987 -1.2367  1.1078
 1540TIP3   OH2 4576   4.605   6.374   2.176 -0.0542  0.3926  0.2972
 1540TIP3    H1 4577   4.526   6.416   2.211 -0.5966 -0.3015 -0.0736
 1540TIP3    H2 4578   4.594   6.281   2.198 -0.4145 -0.0628 -1.7456
 1541TIP3   OH2 4579   4.667   7.767   6.194 -0.0776 -0.2938 -0.0703
 1541TIP3    H1 4580   4.732   7.734   6.133  1.3941  0.2028  1.2126
 1541TIP3    H2 4581   4.686   7.722   6.276 -1.0557  0.2057  0.4388
 1542TIP3   OH2 4582   2.570   6.224   2.129 -0.2976 -0.6375 -0.0127
 1542TIP3    H1 4583   2.617   6.147   2.161  0.0121 -0.9555 -1.2307
 1542TIP3    H2 4584   2.514   6.192   2.060 -1.2447  0.0008  0.4512
 1543TIP3   OH2 4585   3.578   3.313   1.844  0.5293 -0.0107  0.5738
 1543TIP3    H1 4586   3.496   3.345   1.806 -0.1005  1.3039  2.9128
 1543TIP3    H2 4587   3.644   3.376   1.815  0.5494 -0.5295 -0.5240
 1544TIP3   OH2 4588   3.115   6.070   0.456  0.3052  0.1001 -0.1359
 1544TIP3    H1 4589   3.035   6.085   0.406 -0.1570  2.3996  1.2422
 1544TIP3    H2 4590   3.186   6.096   0.397 -0.0490 -0.3400 -0.7599
 1545TIP3   OH2 4591   7.945   0.101   6.221 -0.3788 -0.3124  0.1534
 1545TIP3    H1 4592   7.966   0.139   6.306 -0.4843  0.5395 -0.1902
 1545TIP3    H2 4593   7.939   0.007   6.236 -2.0494 -0.0192  1.4251
 1546TIP3   OH2 4594   4.718   5.145   1.721  0.5074  0.1591  0.2560
 1546TIP3    H1 4595   4.731   5.200   1.798  1.1916 -0.9318  0.9365
 1546TIP3    H2 4596   4.743   5.057   1.750 -1.0338 -0.6057 -0.6622
 1547TIP3   OH2 4597   4.307   5.654   2.106  0.1963  0.8266  0.0640
 1547TIP3    H1 4598   4.376   5.663   2.041  1.6265 -0.8306  1.3286
 1547TIP3    H2 4599   4.307   5.562   2.129 -2.0003  0.9246  0.5755
 1548TIP3   OH2 4600   3.212   3.992   1.045 -0.2817  0.0753 -0.4030
 1548TIP3    H1 4601   3.136   3.997   1.103 -0.0899  1.1173 -0.2339
 1548TIP3    H2 4602   3.174   3.997   0.957 -0.3852  1.0208 -0.3112
 1549TIP3   OH2 4603   1.649   3.350   2.545 -0.1032  0.0149 -0.0466
 1549TIP3    H1 4604   1.587   3.419   2.521 -0.3870 -0.6308 -1.1848
 1549TIP3    H2 4605   1.632   3.279   2.483  1.4982 -0.3256 -0.1275
 1550TIP3   OH2 4606   3.484   4.784   3.482  0.1799  0.3901  0.1997
 1550TIP3    H1 4607   3.397   4.824   3.485  0.0743  0.4058 -2.0942
 1550TIP3    H2 4608   3.476   4.705   3.536 -1.3878  0.1655 -0.3346
 1551TIP3   OH2 4609   3.804   4.063   0.595 -1.0420  0.3053  0.0340
 1551TIP3    H1 4610   3.813   4.135   0.657 -1.8712  0.6597 -0.2491
 1551TIP3    H2 4611   3.726   4.085   0.544  0.2470  0.5301 -1.8546
 1552TIP3   OH2 4612   5.091   7.913   6.425  0.0663 -0.2528 -0.1410
 1552TIP3    H1 4613   5.162   7.926   6.488  0.1841 -0.5537 -0.2140
 1552TIP3    H2 4614   5.036   7.991   6.436 -0.4859 -0.8013  1.1004
 1553TIP3   OH2 4615   1.985   5.418   0.820 -0.1423  0.1088 -0.2848
 1553TIP3    H1 4616   2.020   5.449   0.903  0.3341  2.2344 -1.2674
 1553TIP3    H2 4617   1.928   5.345   0.844 -0.2902  0.9287  1.9319
 1554TIP3   OH2 4618   0.767   4.867   1.629  0.1380 -0.1750 -0.1155
 1554TIP3    H1 4619   0.781   4.903   1.541 -0.6606 -2.0751 -1.0443
 1554TIP3    H2 4620   0.825   4.918   1.685  2.5117 -0.6045 -2.1191
 1555TIP3   OH2 4621   2.026   5.540   1.877 -0.7460  0.0069  0.7803
 1555TIP3    H1 4622   2.037   5.447   1.894  0.5720  0.0806  0.4022
 1555TIP3    H2 4623   2.065   5.584   1.953 -0.4912  0.2581  0.5078
 1556TIP3   OH2 4624   1.904   5.873   2.236  0.7735 -0.3326 -0.5654
 1556TIP3    H1 4625   1.846   5.870   2.312  0.0593 -0.7571 -1.1193
 1556TIP3    H2 4626   1.986   5.909   2.270  0.4563 -0.4951  0.3994
 1557TIP3   OH2 4627   1.495   1.712   4.150 -0.1420 -0.1011 -0.5969
 1557TIP3    H1 4628   1.538   1.669   4.224  1.4074  0.3633 -1.2021
 1557TIP3    H2 4629   1.435   1.646   4.116 -1.4425 -0.0554  1.5280
 1558TIP3   OH2 4630   1.924   7.088   1.728 -0.5210  0.0357 -0.2361
 1558TIP3    H1 4631   1.894   6.998   1.743 -1.8047  0.5980  0.7395
 1558TIP3    H2 4632   1.981   7.107   1.803  0.9409 -0.4567 -1.2112
 1559TIP3   OH2 4633   7.212   0.521   4.979 -0.4853  0.8726  0.1812
 1559TIP3    H1 4634   7.279   0.517   4.911 -0.1405  0.7842  0.5279
 1559TIP3    H2 4635   7.254   0.566   5.052 -0.5362  0.0746  0.7033
 1560TIP3   OH2 4636   1.181   2.302   4.853  0.3022  0.5670 -0.3126
 1560TIP3    H1 4637   1.106   2.340   4.809 -0.0316  0.4475  0.1475
 1560TIP3    H2 4638   1.215   2.237   4.792  0.8405  1.5549 -1.0769
 1561TIP3   OH2 4639   0.605   7.766   1.998  0.1770 -0.1624  0.0371
 1561TIP3    H1 4640   0.617   7.861   2.005 -0.2259 -0.1660  0.8622
 1561TIP3    H2 4641   0.599   7.736   2.089 -1.8277 -0.6969 -0.2505
 1562TIP3   OH2 4642   1.619   3.089   6.541  0.3721  0.3672  0.3700
 1562TIP3    H1 4643   1.533   3.113   6.576 -0.1224 -0.7412 -0.0622
 1562TIP3    H2 4644   1.651   3.021   6.600  0.6237  0.2504  0.1006
 1563TIP3   OH2 4645   0.879   2.571   6.497  0.0970  0.2920  0.3048
 1563TIP3    H1 4646   0.836   2.656   6.495 -0.2444  0.1227  0.3504
 1563TIP3    H2 4647   0.965   2.588   6.536  0.0281  0.6144  0.3138
 1564TIP3   OH2 4648   2.845   1.188   5.405 -0.3640  0.3121  0.0832
 1564TIP3    H1 4649   2.896   1.241   5.344 -1.3860  1.6338  0.3658
 1564TIP3    H2 4650   2.798   1.126   5.350 -0.1409  0.5330 -0.3590
 1565TIP3   OH2 4651   2.750   4.414   1.732 -0.5116 -0.2878 -0.1878
 1565TIP3    H1 4652   2.735   4.320   1.734  1.0657 -0.5869 -1.8098
 1565TIP3    H2 4653   2.814   4.427   1.663 -0.5156  1.9579  0.1961
 1566TIP3   OH2 4654   1.411   1.231   5.037 -0.2589  0.0033 -0.1952
 1566TIP3    H1 4655   1.323   1.196   5.018 -0.2564 -0.7398  1.0455
 1566TIP3    H2 4656   1.396   1.324   5.053 -0.8057 -0.0814 -0.1723
 1567TIP3   OH2 4657   1.450   3.624   1.625 -0.1312 -0.1945  0.7666
 1567TIP3    H1 4658   1.537   3.590   1.644 -0.7747 -1.7903  0.9257
 1567TIP3    H2 4659   1.451   3.640   1.530  0.5905  0.5695  0.8993
 1568TIP3   OH2 4660   2.478   5.213   1.801  0.0194 -0.7080 -0.1574
 1568TIP3    H1 4661   2.396   5.178   1.765 -0.8630  1.9711 -0.8862
 1568TIP3    H2 4662   2.514   5.266   1.731  1.5304 -0.5077  0.7525
 1569TIP3   OH2 4663   8.041   0.761   6.312 -0.0994  0.0021 -0.4601
 1569TIP3    H1 4664   7.978   0.807   6.368 -0.7448 -0.1103 -1.0912
 1569TIP3    H2 4665   8.088   0.702   6.372 -1.6701 -1.0639 -0.2535
 1570TIP3   OH2 4666   4.255   5.494   1.631 -0.1256  0.6881  0.4191
 1570TIP3    H1 4667   4.347   5.464   1.633  0.1442  1.2841 -1.8583
 1570TIP3    H2 4668   4.261   5.588   1.616 -1.1230  0.8284  0.8889
 1571TIP3   OH2 4669   0.979   4.798   3.279  0.0670 -1.0008  0.6833
 1571TIP3    H1 4670   0.963   4.836   3.193 -1.8026 -1.2551  0.8948
 1571TIP3    H2 4671   0.975   4.873   3.339  0.8851 -0.8949  0.6131
 1572TIP3   OH2 4672   4.428   6.306   2.456  1.2458  0.1363 -0.3339
 1572TIP3    H1 4673   4.390   6.229   2.413 -1.0707  0.8020  0.4610
 1572TIP3    H2 4674   4.451   6.274   2.544  0.5604  0.2715 -0.1041
 1573TIP3   OH2 4675   3.802   2.043   1.420  0.2914  0.1359 -0.1611
 1573TIP3    H1 4676   3.817   1.961   1.374  0.2446  1.0471 -1.8428
 1573TIP3    H2 4677   3.770   2.103   1.353 -0.3964  1.3213  1.1901
 1574TIP3   OH2 4678   1.726   5.358   2.249  0.1400 -0.1970  0.1318
 1574TIP3    H1 4679   1.798   5.417   2.274  1.0718 -0.2892 -2.2460
 1574TIP3    H2 4680   1.766   5.271   2.248 -0.8083 -0.6761  1.9192
 1575TIP3   OH2 4681   0.300   0.314   6.125  0.0130 -0.3247 -0.0244
 1575TIP3    H1 4682   0.265   0.314   6.036 -2.2528  0.3574  0.8140
 1575TIP3    H2 4683   0.255   0.242   6.169  0.6205 -0.2536  0.7328
 1576TIP3   OH2 4684   3.756   3.608   0.066 -0.0491  0.5273 -0.3214
 1576TIP3    H1 4685   3.819   3.650   0.124 -0.1525  0.0750  0.1200
 1576TIP3    H2 4686   3.781   3.637  -0.022  0.4656  0.7491 -0.1003
 1577TIP3   OH2 4687   6.498   1.652   6.857 -0.2828 -0.0649 -0.0791
 1577TIP3    H1 4688   6.410   1.682   6.832 -1.2867 -1.0554  2.2008
 1577TIP3    H2 4689   6.491   1.557   6.857  0.9598 -0.1598 -0.3745
 1578TIP3   OH2 4690   1.856   5.048   2.830 -0.0143 -0.1805  0.1099
 1578TIP3    H1 4691   1.761   5.055   2.835 -0.1703  0.1552 -2.5974
 1578TIP3    H2 4692   1.887   5.138   2.833  0.1673 -0.2489  0.2899
 1579TIP3   OH2 4693   1.526   5.838   1.104  0.0823 -0.2649  0.2280
 1579TIP3    H1 4694   1.523   5.747   1.075 -0.4705 -0.6472  1.4547
 1579TIP3    H2 4695   1.451   5.848   1.162  1.4054  0.3449  1.9021
 1580TIP3   OH2 4696   2.004   7.005   3.152  0.0098  0.3159 -0.3490
 1580TIP3    H1 4697   1.935   7.023   3.088 -0.3068  0.3961  0.0110
 1580TIP3    H2 4698   2.070   7.072   3.136  0.5571 -0.4817 -1.4838
 1581TIP3   OH2 4699   4.278   7.167   2.355  0.1853  0.5608 -0.4691
 1581TIP3    H1 4700   4.235   7.126   2.431 -0.3540 -1.1005 -1.6495
 1581TIP3    H2 4701   4.355   7.113   2.340  1.0720  1.7337 -0.2609
 1582TIP3   OH2 4702   4.527   6.035   1.579 -0.4022  0.3046  0.4405
 1582TIP3    H1 4703   4.431   6.035   1.577 -0.4421 -2.9084  0.0686
 1582TIP3    H2 4704   4.550   6.000   1.665  0.4667  1.4841  0.7058
 1583TIP3   OH2 4705   3.601   4.205   3.368 -0.1147 -0.4506  0.4349
 1583TIP3    H1 4706   3.506   4.210   3.368  0.0068  2.3335  0.2920
 1583TIP3    H2 4707   3.620   4.112   3.386 -2.8207 -1.1343 -0.0210
 1584TIP3   OH2 4708   1.362   4.582   1.777 -0.3628 -0.2901  0.5617
 1584TIP3    H1 4709   1.371   4.606   1.685  1.5088  2.3972  1.3822
 1584TIP3    H2 4710   1.435   4.522   1.794  0.5973  0.9300  0.8041
 1585TIP3   OH2 4711   4.135   6.426   0.079  0.0329  0.4484  0.1587
 1585TIP3    H1 4712   4.120   6.455  -0.011  0.0494  1.6207  0.5230
 1585TIP3    H2 4713   4.067   6.470   0.130  0.8497  0.8668  0.9126
 1586TIP3   OH2 4714   4.093   5.426   0.684  0.3571  0.6823  0.5744
 1586TIP3    H1 4715   4.076   5.492   0.753 -0.0801  0.5353  0.6124
 1586TIP3    H2 4716   4.094   5.477   0.603  1.4164  0.9337  0.7451
 1587TIP3   OH2 4717   2.869   5.937   0.819 -0.6220  0.3011 -0.3719
 1587TIP3    H1 4718   2.826   6.021   0.831  0.3929  0.7939 -0.1561
 1587TIP3    H2 4719   2.805   5.884   0.772 -1.6696  0.8493  0.4204
 1588TIP3   OH2 4720   2.894   5.613   0.041  0.4054 -0.1419 -0.0165
 1588TIP3    H1 4721   2.835   5.539   0.058  0.8366 -0.8136 -1.3398
 1588TIP3    H2 4722   2.919   5.644   0.128  1.7140 -2.7669  0.5887
 1589TIP3   OH2 4723   0.694   5.429   0.804  0.3461 -0.3637 -0.3662
 1589TIP3    H1 4724   0.702   5.497   0.870  4.3182  1.1278 -2.1900
 1589TIP3    H2 4725   0.641   5.468   0.735 -2.2573 -1.2814  1.0272
 1590TIP3   OH2 4726   2.894   5.048   0.895  0.0525 -0.0306  0.0820
 1590TIP3    H1 4727   2.959   5.072   0.829  2.1505 -1.7824  1.4846
 1590TIP3    H2 4728   2.910   5.106   0.969 -0.0714 -0.3727  0.3814
 1591TIP3   OH2 4729   5.215   1.546   6.506 -0.0196 -0.3741 -0.4481
 1591TIP3    H1 4730   5.242   1.472   6.560  1.6186  0.8757  0.5044
 1591TIP3    H2 4731   5.283   1.552   6.438  1.6351  2.1326  1.3280
 1592TIP3   OH2 4732   6.645   0.814   4.406 -0.1536 -0.1546 -0.3130
 1592TIP3    H1 4733   6.560   0.841   4.372  1.1423  1.0362 -2.7914
 1592TIP3    H2 4734   6.679   0.893   4.450 -0.7340 -0.9216  1.5345
 1593TIP3   OH2 4735   8.231   1.930   5.356 -0.0698  0.0178 -0.1529
 1593TIP3    H1 4736   8.188   1.846   5.363  1.3498 -0.7523 -0.4552
 1593TIP3    H2 4737   8.323   1.909   5.338  0.4560  1.5995  0.5343
 1594TIP3   OH2 4738   4.507   3.723   1.422 -0.6999 -0.3392  0.2301
 1594TIP3    H1 4739   4.584   3.727   1.366 -0.1933 -1.4074  0.8315
 1594TIP3    H2 4740   4.542   3.725   1.511 -1.6015  3.6975  0.6028
 1595TIP3   OH2 4741   5.481   7.712   6.457 -0.2306  0.0607 -0.3505
 1595TIP3    H1 4742   5.560   7.657   6.452  1.1194  1.8445  0.8783
 1595TIP3    H2 4743   5.414   7.653   6.492  0.8148 -1.2256 -0.4638
 1596TIP3   OH2 4744   1.583   5.388   0.925  0.2405  0.2657  0.2597
 1596TIP3    H1 4745   1.579   5.316   0.862 -0.5238  0.4494  0.0873
 1596TIP3    H2 4746   1.673   5.387   0.958 -0.1668 -1.6619  1.3357
 1597TIP3   OH2 4747   4.291   3.350   1.547  0.3900  0.6866  0.5001
 1597TIP3    H1 4748   4.242   3.274   1.514  0.7899  0.6499 -0.0099
 1597TIP3    H2 4749   4.380   3.338   1.513  0.4673  1.3556  0.4699
 1598TIP3   OH2 4750   2.124   3.572   0.150 -0.8093  0.3018  0.7804
 1598TIP3    H1 4751   2.049   3.551   0.095 -1.2825 -0.1618  1.6074
 1598TIP3    H2 4752   2.178   3.630   0.095 -0.4203 -1.5046 -0.8378
 1599TIP3   OH2 4753   3.478   5.140   0.831  0.0962  0.3682 -0.3108
 1599TIP3    H1 4754   3.572   5.152   0.841  0.9238 -5.0155 -0.1656
 1599TIP3    H2 4755   3.452   5.092   0.909 -1.5592 -3.5115 -3.0829
 1600TIP3   OH2 4756   6.838   7.455   6.810  0.5780  0.7290 -0.1158
 1600TIP3    H1 4757   6.926   7.463   6.847  0.3787  1.3155  0.2281
 1600TIP3    H2 4758   6.848   7.389   6.741  0.9728 -0.2994  0.8988
 1601TIP3   OH2 4759   1.367   5.072   2.645 -0.0303 -0.0386 -0.4028
 1601TIP3    H1 4760   1.459   5.048   2.659 -0.6319 -1.7706  0.7326
 1601TIP3    H2 4761   1.357   5.075   2.550  0.6710 -2.0027 -0.5618
 1602TIP3   OH2 4762   1.151   5.656   3.196 -0.3256  0.4240  0.0807
 1602TIP3    H1 4763   1.098   5.724   3.154 -0.8909 -0.3695 -0.5078
 1602TIP3    H2 4764   1.193   5.700   3.270 -0.8677  1.3528 -0.1615
 1603TIP3   OH2 4765   3.321   4.999   2.543 -0.3448 -0.0638  0.5388
 1603TIP3    H1 4766   3.286   4.946   2.614 -0.2975 -0.7476  0.0600
 1603TIP3    H2 4767   3.270   4.972   2.466  0.6754 -0.4752  0.0038
 1604TIP3   OH2 4768   2.890   4.576   2.374  0.0698 -0.0447 -0.1827
 1604TIP3    H1 4769   2.869   4.500   2.319 -2.2721 -1.6273  2.7687
 1604TIP3    H2 4770   2.838   4.647   2.337  0.3061 -0.4961 -1.4093
 1605TIP3   OH2 4771   3.649   6.581   0.156 -0.5398 -0.0389  0.1132
 1605TIP3    H1 4772   3.623   6.621   0.074 -1.4369 -2.1385 -0.6697
 1605TIP3    H2 4773   3.597   6.626   0.223 -1.6980 -0.0625 -0.7593
 1606TIP3   OH2 4774   4.391   6.176   0.004 -0.1939 -0.3111  0.2146
 1606TIP3    H1 4775   4.307   6.131   0.016 -0.3321  0.6127  2.9588
 1606TIP3    H2 4776   4.388   6.250   0.065  2.5211 -0.1429  0.1946
 1607TIP3   OH2 4777   8.286   2.294   6.006 -0.4773  0.0985  0.4758
 1607TIP3    H1 4778   8.242   2.276   6.089 -1.3683 -0.0504 -0.0140
 1607TIP3    H2 4779   8.280   2.211   5.958  0.2011  0.1278  0.3440
 1608TIP3   OH2 4780   4.510   5.607   1.356 -0.4382 -0.0876 -0.1747
 1608TIP3    H1 4781   4.566   5.662   1.301  1.1167 -0.6233  0.8307
 1608TIP3    H2 4782   4.564   5.531   1.377 -1.2139 -0.1773  1.5826
 1609TIP3   OH2 4783   3.602   5.697   1.436  0.0656 -0.0972  0.6195
 1609TIP3    H1 4784   3.610   5.750   1.357  1.6471  0.1714  0.9479
 1609TIP3    H2 4785   3.520   5.649   1.424  0.5702 -0.4853 -1.4196
 1610TIP3   OH2 4786   7.698   7.513   5.773 -0.3161  0.1882  0.3322
 1610TIP3    H1 4787   7.689   7.499   5.867 -1.7218 -0.5194  0.1015
 1610TIP3    H2 4788   7.636   7.584   5.753 -0.2469  0.1283 -0.1032
 1611TIP3   OH2 4789   4.263   4.862   0.501  0.3158 -0.4866 -0.2772
 1611TIP3    H1 4790   4.206   4.865   0.424 -0.1926 -0.1737  0.1162
 1611TIP3    H2 4791   4.242   4.779   0.543  0.7689 -0.7722 -0.6030
 1612TIP3   OH2 4792   4.186   5.185   2.396 -0.1616 -0.3310 -0.1423
 1612TIP3    H1 4793   4.146   5.102   2.423  1.0583 -0.6160  0.8501
 1612TIP3    H2 4794   4.116   5.249   2.405 -0.8696 -1.1062 -0.0477
 1613TIP3   OH2 4795   3.781   6.034   2.904  0.1050 -0.3723  0.1271
 1613TIP3    H1 4796   3.817   6.090   2.972  1.0359 -2.9649  1.8279
 1613TIP3    H2 4797   3.704   5.994   2.944 -0.2344 -0.7559 -0.8796
 1614TIP3   OH2 4798   0.740   3.173   5.824  0.4340  0.0974 -0.0473
 1614TIP3    H1 4799   0.662   3.198   5.874  0.4742  0.0178  0.0533
 1614TIP3    H2 4800   0.803   3.244   5.841  0.6290 -0.1862  0.4166
 1615TIP3   OH2 4801   4.299   6.339   0.389 -0.6815  0.2328 -0.2535
 1615TIP3    H1 4802   4.217   6.331   0.339  0.6770 -2.8626 -2.1377
 1615TIP3    H2 4803   4.361   6.377   0.327 -0.2959  1.3209  0.7702
 1616TIP3   OH2 4804   6.206   2.949   2.161  0.1549  0.1177  0.1096
 1616TIP3    H1 4805   6.173   2.886   2.097  0.9825 -1.3852  1.1464
 1616TIP3    H2 4806   6.133   2.963   2.221  0.1624 -0.3077  0.2193
 1617TIP3   OH2 4807   0.843   0.397   6.773  0.8076 -0.1504 -0.1509
 1617TIP3    H1 4808   0.857   0.302   6.768  0.7080 -0.2126  0.8068
 1617TIP3    H2 4809   0.749   0.408   6.760  0.4728 -0.3515  2.0531
 1618TIP3   OH2 4810   2.131   1.659   6.282  0.0834  0.0780  0.0794
 1618TIP3    H1 4811   2.062   1.666   6.216  0.4407  0.6315 -0.2394
 1618TIP3    H2 4812   2.212   1.654   6.232  0.3612  0.5848  0.4783
 1619TIP3   OH2 4813   5.232   4.885   0.579  1.0438  0.2904  0.2369
 1619TIP3    H1 4814   5.180   4.880   0.659 -0.9329 -0.5209 -1.0482
 1619TIP3    H2 4815   5.306   4.827   0.595 -0.1010 -1.0092  0.9519
 1620TIP3   OH2 4816   2.054   5.939   1.413 -0.0668  0.1753 -0.0279
 1620TIP3    H1 4817   2.047   5.928   1.508 -0.0612 -1.6721 -0.2194
 1620TIP3    H2 4818   1.969   5.910   1.379  0.6576 -1.1959 -0.7240
 1621TIP3   OH2 4819   7.963   0.590   5.540  0.0368 -0.2308  0.0179
 1621TIP3    H1 4820   7.962   0.498   5.567  0.8768 -0.0943  0.5244
 1621TIP3    H2 4821   7.873   0.608   5.512 -0.8519 -0.4272  2.5771
 1622TIP3   OH2 4822   7.416   0.120   5.592 -0.5732 -0.0783  0.0554
 1622TIP3    H1 4823   7.356   0.194   5.590  0.2896  0.6106 -0.4275
 1622TIP3    H2 4824   7.460   0.128   5.677 -1.0151 -0.4713  0.3251
 1623TIP3   OH2 4825   8.398   1.553   4.911  0.4057 -0.1659  0.4616
 1623TIP3    H1 4826   8.457   1.622   4.881 -0.7265  1.0623  1.0432
 1623TIP3    H2 4827   8.366   1.511   4.831 -0.2842  1.1521  0.0436
 1624TIP3   OH2 4828   4.690   1.791   6.917  0.4573 -0.2251 -0.0722
 1624TIP3    H1 4829   4.750   1.862   6.895  0.6030 -0.6652 -1.1287
 1624TIP3    H2 4830   4.667   1.752   6.833 -0.6155 -0.6317  0.4029
 1625TIP3   OH2 4831   3.784   5.005   0.530 -0.5494 -0.4824  0.1092
 1625TIP3    H1 4832   3.839   5.055   0.590  0.0403 -2.6465  1.4230
 1625TIP3    H2 4833   3.821   4.917   0.531 -1.3587 -0.9102 -2.4069
 1626TIP3   OH2 4834   3.666   5.885   2.255 -0.1432 -0.1380 -0.6796
 1626TIP3    H1 4835   3.741   5.893   2.196 -0.1094  0.8551 -0.4997
 1626TIP3    H2 4836   3.596   5.934   2.213 -0.6127 -0.8321 -0.7111
 1627TIP3   OH2 4837   4.799   3.486   1.537  0.3240 -0.7763 -0.1458
 1627TIP3    H1 4838   4.735   3.423   1.568 -0.0058 -0.1300  0.5025
 1627TIP3    H2 4839   4.763   3.520   1.455  0.5207 -1.4556 -0.5108
 1628TIP3   OH2 4840   7.862   1.580   6.288  0.5020 -0.5327 -0.1664
 1628TIP3    H1 4841   7.912   1.659   6.264  0.3971 -0.2360  0.5970
 1628TIP3    H2 4842   7.846   1.536   6.204  1.0998 -0.0644 -0.5301
 1629TIP3   OH2 4843   4.505   2.496   0.148 -0.3679 -0.6055  0.2596
 1629TIP3    H1 4844   4.514   2.591   0.159 -1.2829 -0.5228  0.2828
 1629TIP3    H2 4845   4.412   2.481   0.137 -0.1921 -1.4743 -0.1059
 1630TIP3   OH2 4846   5.098   5.044   0.398  0.0924  0.0205  0.2840
 1630TIP3    H1 4847   5.166   5.092   0.350 -1.2660  1.3044 -0.4115
 1630TIP3    H2 4848   5.146   4.997   0.467  1.7577  0.3362 -0.6213
 1631TIP3   OH2 4849   2.454   3.954   0.297 -0.2038  0.0255 -0.2001
 1631TIP3    H1 4850   2.423   4.018   0.233 -1.4280  1.4413  1.7468
 1631TIP3    H2 4851   2.549   3.963   0.295 -0.2463  0.3061 -1.5553
 1632TIP3   OH2 4852   0.557   1.332   6.188  0.0930 -0.4150 -0.1878
 1632TIP3    H1 4853   0.520   1.250   6.155 -0.8091 -0.3545  0.6461
 1632TIP3    H2 4854   0.560   1.320   6.283 -2.1782  1.3563  0.1627
 1633TIP3   OH2 4855   3.417   5.107   0.138  0.2058 -0.1382 -0.1197
 1633TIP3    H1 4856   3.411   5.014   0.113 -1.3672 -0.0936  0.0321
 1633TIP3    H2 4857   3.461   5.149   0.064  0.7758 -0.9748 -0.2669
 1634TIP3   OH2 4858   1.601   1.481   6.914 -0.4623  0.0383 -0.3695
 1634TIP3    H1 4859   1.543   1.447   6.981 -0.0526  1.0351  0.5042
 1634TIP3    H2 4860   1.674   1.420   6.911  0.1287  0.6532  0.9825
 1635TIP3   OH2 4861   8.348   3.124   5.410 -0.2467 -0.4844 -0.0047
 1635TIP3    H1 4862   8.419   3.160   5.462 -1.1687  1.1097  0.1677
 1635TIP3    H2 4863   8.279   3.190   5.413 -1.1003 -1.2676 -1.5704
 1636TIP3   OH2 4864   2.157   2.432   4.067 -0.3104  0.3395  0.4296
 1636TIP3    H1 4865   2.103   2.507   4.091  0.5678  0.6152  1.5940
 1636TIP3    H2 4866   2.095   2.360   4.059 -0.7023  0.2678  3.3842
 1637TIP3   OH2 4867   4.586   5.663   2.203  0.5197 -0.3590 -0.6843
 1637TIP3    H1 4868   4.553   5.595   2.262 -2.2550  0.6387 -1.0124
 1637TIP3    H2 4869   4.673   5.632   2.178  2.5728 -0.0097  5.1606
 1638TIP3   OH2 4870   5.326   2.429   0.467  0.0313 -0.0126  0.2635
 1638TIP3    H1 4871   5.330   2.391   0.380 -0.4381  0.7564 -0.1064
 1638TIP3    H2 4872   5.390   2.500   0.466  0.1746 -0.1370  0.6064
 1639TIP3   OH2 4873   4.620   4.314   1.149 -0.3191  0.2683 -0.1573
 1639TIP3    H1 4874   4.613   4.386   1.087 -2.2586 -0.8518 -1.2777
 1639TIP3    H2 4875   4.531   4.300   1.181  0.5265  0.3828  2.4012
 1640TIP3   OH2 4876   3.448   4.449   0.665  0.2109  0.5979 -0.0285
 1640TIP3    H1 4877   3.480   4.413   0.582 -3.0896 -0.0454 -1.0943
 1640TIP3    H2 4878   3.405   4.531   0.641 -1.5017 -0.0041  0.8985
 1641TIP3   OH2 4879   3.752   6.083   0.175  0.0713  0.1778 -0.0001
 1641TIP3    H1 4880   3.766   6.064   0.268  3.0051  0.8046 -0.2743
 1641TIP3    H2 4881   3.714   6.171   0.173 -0.3063  0.0265  0.6294
 1642TIP3   OH2 4882   4.949   5.689   3.153 -0.2165 -0.4222  0.1694
 1642TIP3    H1 4883   4.890   5.658   3.084 -0.1929  2.7837 -1.3484
 1642TIP3    H2 4884   5.036   5.682   3.116 -0.2031  1.3160 -0.1303
 1643TIP3   OH2 4885   4.161   3.784   0.172 -0.2847  0.3851 -0.1623
 1643TIP3    H1 4886   4.135   3.742   0.090 -0.5458  1.1440 -0.4741
 1643TIP3    H2 4887   4.235   3.840   0.149  0.7372 -0.6869  0.4540
 1644TIP3   OH2 4888   3.932   6.336   0.416 -0.4908  0.4741  0.5868
 1644TIP3    H1 4889   3.993   6.358   0.487  0.4524 -2.2419  0.6682
 1644TIP3    H2 4890   3.854   6.304   0.461 -1.9029  3.5141  0.4693
 1645TIP3   OH2 4891   3.146   4.009   0.482  0.0725 -0.4231 -0.4439
 1645TIP3    H1 4892   3.163   3.984   0.573  1.2986  0.1262 -0.5097
 1645TIP3    H2 4893   3.140   3.927   0.434 -0.4708 -0.7103  0.1155
 1646TIP3   OH2 4894   3.732   0.511   6.246 -0.0770 -0.4552 -0.0591
 1646TIP3    H1 4895   3.765   0.571   6.313 -2.4912  0.2574  0.5175
 1646TIP3    H2 4896   3.775   0.427   6.267 -1.4490 -0.4709  2.9691
 1647TIP3   OH2 4897   0.676   7.484   6.849  0.5018  0.2247 -0.1550
 1647TIP3    H1 4898   0.659   7.441   6.933 -1.6069 -1.2710 -1.3139
 1647TIP3    H2 4899   0.671   7.414   6.785 -0.2156  1.7453 -1.7871
 1648TIP3   OH2 4900   1.678   1.593   5.468 -0.4078  0.7207 -0.4321
 1648TIP3    H1 4901   1.626   1.586   5.549 -2.3001  1.2903 -1.5659
 1648TIP3    H2 4902   1.761   1.632   5.497 -1.4608  1.9347  1.0923
 1649TIP3   OH2 4903   6.677   4.727   3.140  0.2141  0.3600  0.0617
 1649TIP3    H1 4904   6.686   4.748   3.047  0.2155  0.8477  0.1752
 1649TIP3    H2 4905   6.583   4.718   3.153  0.0816  2.2599  0.4572
 1650TIP3   OH2 4906   3.517   4.353   2.048 -0.3161  0.1167 -0.2385
 1650TIP3    H1 4907   3.604   4.374   2.014  0.3516  0.9644  1.8632
 1650TIP3    H2 4908   3.525   4.367   2.143 -2.2965 -1.3601  0.1771
 1651TIP3   OH2 4909   3.222   5.238   2.247 -0.5025  0.2916 -0.0675
 1651TIP3    H1 4910   3.144   5.219   2.195  0.0879 -1.1796 -0.4420
 1651TIP3    H2 4911   3.294   5.202   2.196  0.3674  1.1389  0.5477
 1652TIP3   OH2 4912   5.973   8.004   6.108 -0.2378  0.2666 -0.1355
 1652TIP3    H1 4913   5.952   8.019   6.200  0.0669  1.5506 -0.2780
 1652TIP3    H2 4914   6.024   7.922   6.109  0.0374  0.4376  0.8690
 1653TIP3   OH2 4915   5.110   3.879   1.578  0.2944  0.2354  0.2347
 1653TIP3    H1 4916   5.061   3.798   1.593 -0.3646  0.5618 -0.1434
 1653TIP3    H2 4917   5.043   3.943   1.553  0.7247  1.0564  1.1372
 1654TIP3   OH2 4918   6.936   4.953   0.017 -0.0840  0.1768  0.7937
 1654TIP3    H1 4919   6.907   4.988   0.101 -0.9733 -1.1454  1.0528
 1654TIP3    H2 4920   6.870   4.983  -0.046 -0.3809 -0.2876  0.8750
 1655TIP3   OH2 4921   4.585   4.382   0.218  0.6645  0.3846 -0.1228
 1655TIP3    H1 4922   4.632   4.305   0.187  1.8081  1.1837 -0.4285
 1655TIP3    H2 4923   4.526   4.405   0.146 -0.5875 -0.9344  0.4752
 1656TIP3   OH2 4924   5.789   3.322   0.179 -1.1031  0.2532  0.4807
 1656TIP3    H1 4925   5.824   3.402   0.219  0.2510  0.2945 -0.7716
 1656TIP3    H2 4926   5.781   3.261   0.252  1.0629  0.4365  0.9158
 1657TIP3   OH2 4927   4.707   4.149   0.178 -0.1759 -0.3121 -0.4888
 1657TIP3    H1 4928   4.672   4.086   0.115 -0.0788 -1.1970  0.3375
 1657TIP3    H2 4929   4.787   4.182   0.138  0.4425 -1.6533 -0.3608
 1658TIP3   OH2 4930   8.493   2.147   6.807 -0.3646  0.3579  0.3049
 1658TIP3    H1 4931   8.521   2.056   6.820  1.5591  0.6446 -1.4649
 1658TIP3    H2 4932   8.415   2.141   6.752  0.0357 -0.2226 -0.2057
 1659TIP3   OH2 4933   7.093   2.881   1.376  0.2239 -0.1625 -0.0419
 1659TIP3    H1 4934   7.135   2.907   1.458  1.0219 -2.4405  0.3081
 1659TIP3    H2 4935   7.004   2.915   1.383 -0.5667 -2.6148  2.9907
 1660TIP3   OH2 4936   3.836   4.487   0.333  0.2375  0.1171  0.1767
 1660TIP3    H1 4937   3.893   4.450   0.399  2.9701  2.2804 -0.8803
 1660TIP3    H2 4938   3.877   4.464   0.250 -0.6471  1.3389 -0.6216
 1661TIP3   OH2 4939   4.061   3.612   1.189  0.1046  0.3163 -0.2762
 1661TIP3    H1 4940   4.091   3.521   1.195  1.7997  0.9008  0.4763
 1661TIP3    H2 4941   3.986   3.616   1.248 -0.1405 -0.6529 -0.5056
 1662TIP3   OH2 4942   3.118   4.275   1.281  0.1000 -0.0875 -0.1494
 1662TIP3    H1 4943   3.053   4.343   1.260 -0.8578 -0.6099  1.0322
 1662TIP3    H2 4944   3.078   4.194   1.248  1.7103  0.0338 -2.5086
 1663TIP3   OH2 4945   5.920   3.266   1.099 -0.5339  0.6906  0.8401
 1663TIP3    H1 4946   6.006   3.298   1.073  0.4855 -2.0048  0.6789
 1663TIP3    H2 4947   5.929   3.246   1.193 -0.8652  0.1319  0.7580
 1664TIP3   OH2 4948   4.511   3.036   1.792  0.0001  0.4239 -0.1333
 1664TIP3    H1 4949   4.442   3.036   1.726  0.0901  0.4026 -0.2286
 1664TIP3    H2 4950   4.592   3.023   1.742  0.1997  1.6629 -0.1705
 1665TIP3   OH2 4951   1.118   3.624   2.195 -0.3192  0.9716  0.7533
 1665TIP3    H1 4952   1.200   3.582   2.170 -0.6236 -0.0481  1.4131
 1665TIP3    H2 4953   1.136   3.667   2.278  0.2422  2.9567 -0.3728
 1666TIP3   OH2 4954   1.383   5.933   1.459 -0.3451 -0.3997  0.3385
 1666TIP3    H1 4955   1.390   6.014   1.410 -1.0942 -1.2933 -1.2652
 1666TIP3    H2 4956   1.295   5.900   1.440 -0.1484 -1.4517  1.1850
 1667TIP3   OH2 4957   1.607   7.532   2.188 -0.0753  0.2789  0.4462
 1667TIP3    H1 4958   1.587   7.616   2.147 -1.2335  0.1557  0.7421
 1667TIP3    H2 4959   1.567   7.538   2.275 -2.2330 -1.4327 -0.3671
 1668TIP3   OH2 4960   5.955   2.001   5.801 -0.7965  0.6632 -0.1649
 1668TIP3    H1 4961   5.960   1.922   5.856 -1.7128  0.9807  0.3912
 1668TIP3    H2 4962   5.894   1.978   5.731 -1.6834  1.1468  0.4497
 1669TIP3   OH2 4963   0.509   6.072   0.730 -0.1762  0.0200  0.3313
 1669TIP3    H1 4964   0.482   6.160   0.757 -1.0130 -0.6365  1.6820
 1669TIP3    H2 4965   0.602   6.069   0.748 -0.4214  0.1359  1.6856
 1670TIP3   OH2 4966   2.945   4.738   1.366  0.0328  0.3683  0.1559
 1670TIP3    H1 4967   2.863   4.691   1.379  0.7976 -0.5130  1.9698
 1670TIP3    H2 4968   2.946   4.759   1.272 -1.8288 -0.3917 -0.0588
 1671TIP3   OH2 4969   1.204   7.037   0.737  0.0306  0.4235  0.2197
 1671TIP3    H1 4970   1.110   7.041   0.721  0.1292  1.7100 -0.0888
 1671TIP3    H2 4971   1.241   7.001   0.656 -0.0186  1.7032 -0.3844
 1672TIP3   OH2 4972   1.517   6.951   3.144 -0.0935  0.3900 -0.2667
 1672TIP3    H1 4973   1.579   6.993   3.084  0.7115  0.1405  0.3956
 1672TIP3    H2 4974   1.436   6.946   3.093  0.9132 -0.9836 -1.8184
 1673TIP3   OH2 4975   0.965   4.973   2.585 -0.4149  0.5076  0.3024
 1673TIP3    H1 4976   0.880   5.014   2.602 -0.8345 -0.7386  1.2582
 1673TIP3    H2 4977   0.947   4.879   2.582  1.1070  0.1366  1.7786
 1674TIP3   OH2 4978   2.276   6.644   0.914 -0.4016  0.3651 -0.0417
 1674TIP3    H1 4979   2.277   6.671   0.823  1.2567  1.4376  0.2738
 1674TIP3    H2 4980   2.365   6.660   0.946 -0.9244 -0.0619  1.7419
 1675TIP3   OH2 4981   7.614   6.642   2.627 -0.0458 -0.1098  0.6163
 1675TIP3    H1 4982   7.607   6.546   2.624 -1.4087  0.0207 -1.1837
 1675TIP3    H2 4983   7.530   6.671   2.663  0.4013  0.4374  1.2556
 1676TIP3   OH2 4984   2.237   7.009   0.528  0.5210  0.1435 -0.0656
 1676TIP3    H1 4985   2.267   6.925   0.492  0.6798  0.7506 -1.3907
 1676TIP3    H2 4986   2.256   7.072   0.459 -0.7569  1.0730  0.4152
 1677TIP3   OH2 4987   6.493   0.876   6.920  0.2507 -0.0463  0.1920
 1677TIP3    H1 4988   6.583   0.869   6.953  1.0726  0.8985 -1.7576
 1677TIP3    H2 4989   6.475   0.791   6.880 -0.9527 -1.3949  3.4447
 1678TIP3   OH2 4990   6.475   1.370   6.857 -0.4652  0.6753 -0.3255
 1678TIP3    H1 4991   6.458   1.321   6.937  3.7090 -0.0041  0.2463
 1678TIP3    H2 4992   6.458   1.307   6.787 -0.0824 -0.0443  0.2130
 1679TIP3   OH2 4993   0.210   6.506   3.288 -0.0383  0.3827 -0.4315
 1679TIP3    H1 4994   0.160   6.527   3.367 -0.3849 -1.1003 -0.2312
 1679TIP3    H2 4995   0.216   6.589   3.240 -1.2469  0.9352  0.3526
 1680TIP3   OH2 4996   0.959   6.141   1.201  0.0970 -1.3288  0.0427
 1680TIP3    H1 4997   0.887   6.123   1.261  1.2618 -1.6112  1.3605
 1680TIP3    H2 4998   1.008   6.211   1.243 -0.4277  0.1295 -1.7232
 1681TIP3   OH2 4999   1.454   7.906   4.245 -0.8943 -0.1857  0.2481
 1681TIP3    H1 5000   1.380   7.861   4.286 -1.9077  1.0325 -0.1983
 1681TIP3    H2 5001   1.494   7.840   4.188 -1.9259 -0.7268  0.1409
 1682TIP3   OH2 5002   7.509   5.642   0.271 -0.3935 -0.4219  0.3371
 1682TIP3    H1 5003   7.514   5.551   0.300  1.3537 -0.6211 -0.5036
 1682TIP3    H2 5004   7.515   5.693   0.352  1.2646 -1.0188  0.6125
 1683TIP3   OH2 5005   8.484   5.745   2.494  1.0203 -1.0090 -0.3886
 1683TIP3    H1 5006   8.485   5.825   2.442 -2.9312 -0.7512 -0.2195
 1683TIP3    H2 5007   8.497   5.775   2.584 -3.3953 -0.1024  0.0492
 1684TIP3   OH2 5008   3.245   0.298   1.431  0.0359  0.2570  0.4248
 1684TIP3    H1 5009   3.340   0.283   1.430  0.0772  0.3340  2.1132
 1684TIP3    H2 5010   3.207   0.211   1.419  0.3125 -0.0044  1.4363
 1685TIP3   OH2 5011   7.283   2.330   6.098 -0.3135  0.4000  0.0966
 1685TIP3    H1 5012   7.280   2.416   6.055 -0.3959 -0.7858 -2.3618
 1685TIP3    H2 5013   7.218   2.336   6.168 -2.2924  1.4824 -1.7546
 1686TIP3   OH2 5014   8.446   2.881   5.509 -0.6793  0.0457  0.0501
 1686TIP3    H1 5015   8.389   2.940   5.459  0.9838  0.6593 -1.1752
 1686TIP3    H2 5016   8.450   2.920   5.597 -1.1090  0.7205 -0.2245
 1687TIP3   OH2 5017   3.671   5.448   0.483  0.0122  0.2201 -0.1114
 1687TIP3    H1 5018   3.677   5.443   0.578 -0.6140 -0.7445 -0.1121
 1687TIP3    H2 5019   3.641   5.361   0.456 -2.0992  1.2013 -1.0154
 1688TIP3   OH2 5020   3.072   4.770   0.640  0.0611 -0.4462  0.0294
 1688TIP3    H1 5021   2.978   4.786   0.644 -0.1575 -1.5811 -0.3827
 1688TIP3    H2 5022   3.110   4.855   0.616 -1.1707 -0.7922 -3.4170
 1689TIP3   OH2 5023   1.747   6.225   0.633  0.0516 -0.0587  0.3372
 1689TIP3    H1 5024   1.772   6.228   0.725 -2.8027 -1.1190  1.2105
 1689TIP3    H2 5025   1.703   6.141   0.622  0.7136 -0.1331 -2.1037
 1690TIP3   OH2 5026   2.545   5.562   1.547  0.3650  0.3529  0.7795
 1690TIP3    H1 5027   2.496   5.631   1.591  0.4457  0.5269  0.5978
 1690TIP3    H2 5028   2.604   5.608   1.487  0.1440  0.1147  0.3757
 1691TIP3   OH2 5029   4.098   1.058   0.099  0.0058  0.2874 -0.1056
 1691TIP3    H1 5030   4.061   1.023   0.180  0.5705 -1.2645 -0.5023
 1691TIP3    H2 5031   4.193   1.052   0.110  0.1430  2.5423  0.1656
 1692TIP3   OH2 5032   0.371   7.729   3.625  0.2238 -0.6532 -0.3758
 1692TIP3    H1 5033   0.341   7.675   3.552 -2.1487  0.4929 -0.2930
 1692TIP3    H2 5034   0.457   7.759   3.599  0.2822 -1.9636 -1.7746
 1693TIP3   OH2 5035   0.955   6.267   2.103 -0.3274  0.0426 -0.0008
 1693TIP3    H1 5036   1.049   6.280   2.109 -0.5924  1.3235  1.7856
 1693TIP3    H2 5037   0.918   6.355   2.114 -1.7601 -0.5862  0.2826
 1694TIP3   OH2 5038   8.380   0.666   5.662 -0.4300  0.2411  0.3092
 1694TIP3    H1 5039   8.327   0.736   5.625  0.6996  0.8224 -0.2468
 1694TIP3    H2 5040   8.325   0.588   5.654 -1.1655  0.8162 -0.3422
 1695TIP3   OH2 5041   5.253   0.042   1.820 -1.0256  0.2335  0.3828
 1695TIP3    H1 5042   5.332   0.009   1.776  0.3171  2.5047  1.0388
 1695TIP3    H2 5043   5.195   0.066   1.748 -0.6449 -0.3030 -0.1153
 1696TIP3   OH2 5044   0.499   1.097   6.051  0.0469 -0.1042  0.6019
 1696TIP3    H1 5045   0.480   1.132   5.964 -1.1483  0.4621  1.0745
 1696TIP3    H2 5046   0.413   1.081   6.090  0.5636 -1.6564  1.1695
 1697TIP3   OH2 5047   7.024   2.026   6.818  0.2711  0.3823 -0.5118
 1697TIP3    H1 5048   6.996   2.090   6.884  0.5854  0.2479 -0.2486
 1697TIP3    H2 5049   7.083   1.968   6.865 -0.7299 -0.6598 -0.5195
 1698TIP3   OH2 5050   2.694   7.134   0.717  0.5942 -0.0524 -0.4120
 1698TIP3    H1 5051   2.599   7.131   0.730  0.7141 -0.6913  0.4465
 1698TIP3    H2 5052   2.707   7.192   0.642 -0.5400 -0.8280 -1.2230
 1699TIP3   OH2 5053   8.363   5.104   2.798  0.4713 -0.5906  0.2906
 1699TIP3    H1 5054   8.315   5.058   2.730 -1.9386  0.2687  1.3633
 1699TIP3    H2 5055   8.392   5.185   2.756 -0.8772 -0.1293  0.2155
 1700TIP3   OH2 5056   7.664   2.080   5.070  0.2526 -0.5957  0.1277
 1700TIP3    H1 5057   7.700   2.144   5.132  1.5478 -0.1446 -1.0811
 1700TIP3    H2 5058   7.572   2.070   5.097  0.0938  1.6058  0.4742
 1701TIP3   OH2 5059   0.033   0.509   6.074  0.5573  0.3156 -0.1086
 1701TIP3    H1 5060  -0.012   0.428   6.052  1.1601  0.6063 -2.5847
 1701TIP3    H2 5061   0.079   0.490   6.156  0.1062 -1.5929 -0.2902
 1702TIP3   OH2 5062   3.752   6.303   1.062 -0.0466  0.0238  0.7589
 1702TIP3    H1 5063   3.712   6.386   1.035 -0.9373 -0.7188 -0.2381
 1702TIP3    H2 5064   3.846   6.317   1.050 -0.2876  0.4286 -0.7346
 1703TIP3   OH2 5065   0.809   2.052   6.333  0.1282 -0.3536  0.0010
 1703TIP3    H1 5066   0.901   2.055   6.307  0.1144  0.0632 -0.0078
 1703TIP3    H2 5067   0.794   1.961   6.357  0.1808 -0.7240 -1.3181
 1704TIP3   OH2 5068   6.475   0.348   1.982  0.2712  0.1059 -0.2966
 1704TIP3    H1 5069   6.536   0.391   2.041  1.5265  0.6326 -1.9685
 1704TIP3    H2 5070   6.396   0.401   1.986  0.6814  0.6788  0.1710
 1705TIP3   OH2 5071   4.303   1.569   1.782  0.4476  0.3728 -0.1215
 1705TIP3    H1 5072   4.387   1.533   1.810  0.8624 -0.6956 -2.5609
 1705TIP3    H2 5073   4.242   1.495   1.790 -0.1655  1.0142  1.1984
 1706TIP3   OH2 5074   1.034   1.856   6.503  0.0021 -0.0624  0.8397
 1706TIP3    H1 5075   0.990   1.799   6.440 -0.9250 -0.6352  1.9873
 1706TIP3    H2 5076   1.112   1.887   6.457 -1.6571  1.0943 -1.2828
 1707TIP3   OH2 5077   2.515   7.814   1.371 -0.1988 -0.0043  0.4304
 1707TIP3    H1 5078   2.501   7.765   1.290 -0.2346  0.5651  0.0857
 1707TIP3    H2 5079   2.429   7.814   1.414 -0.3448  0.2617  0.1426
 1708TIP3   OH2 5080   3.420   5.373   0.675  0.4187  0.5670 -0.7308
 1708TIP3    H1 5081   3.374   5.307   0.623 -0.3873 -1.4348  2.4092
 1708TIP3    H2 5082   3.401   5.456   0.631 -2.7379 -0.7029 -1.8843
 1709TIP3   OH2 5083   7.863   1.807   6.077 -0.4063 -0.4091  0.2125
 1709TIP3    H1 5084   7.947   1.815   6.122 -1.3996  0.4643  1.9327
 1709TIP3    H2 5085   7.881   1.747   6.004  2.1576  1.2146 -0.5721
 1710TIP3   OH2 5086   2.206   5.182   1.242 -0.4300  0.4901  0.0629
 1710TIP3    H1 5087   2.265   5.157   1.313  0.2016 -0.2310 -0.7004
 1710TIP3    H2 5088   2.124   5.138   1.262 -0.5105  0.9714  0.7923
 1711TIP3   OH2 5089   0.171   4.999   6.616 -0.4672 -0.3855  0.1762
 1711TIP3    H1 5090   0.147   4.936   6.548 -1.3269 -0.6042  0.6772
 1711TIP3    H2 5091   0.091   5.049   6.631  0.1138  0.5964  0.0373
 1712TIP3   OH2 5092   0.701   3.217   4.304  0.4503  0.2228 -0.0090
 1712TIP3    H1 5093   0.701   3.148   4.371  2.1999  0.9497  0.7628
 1712TIP3    H2 5094   0.619   3.264   4.319  0.5923  0.0710  1.3039
 1713TIP3   OH2 5095   1.925   5.350   2.811 -0.2439 -0.0326 -0.3942
 1713TIP3    H1 5096   1.975   5.430   2.796  0.7929 -0.5638  0.1067
 1713TIP3    H2 5097   1.835   5.373   2.790 -0.2409  1.7310  1.3639
 1714TIP3   OH2 5098   3.114   7.130   0.447  0.3882 -0.0097  0.0811
 1714TIP3    H1 5099   3.123   7.225   0.460 -0.5762 -0.0447  1.0952
 1714TIP3    H2 5100   3.062   7.121   0.368 -1.0748  0.3463  0.9837
 1715TIP3   OH2 5101   6.843   1.894   5.163  0.1548  0.4360  0.5610
 1715TIP3    H1 5102   6.850   1.949   5.241  0.5882  0.7102  0.3310
 1715TIP3    H2 5103   6.883   1.946   5.093  3.1028 -1.2488  0.9076
 1716TIP3   OH2 5104   6.468   1.473   5.022 -0.7573 -0.0949 -0.0868
 1716TIP3    H1 5105   6.503   1.384   5.027 -0.4740  0.0692  0.9700
 1716TIP3    H2 5106   6.473   1.496   4.929 -0.2722 -0.9526 -0.2766
 1717TIP3   OH2 5107   5.589   1.275   0.109 -0.3277  0.2451  0.2023
 1717TIP3    H1 5108   5.587   1.192   0.062  0.4140  0.2229  0.2108
 1717TIP3    H2 5109   5.633   1.335   0.049  1.3255  0.0263  1.1875
 1718TIP3   OH2 5110   8.395   1.401   6.321 -0.2016  0.3373  0.0893
 1718TIP3    H1 5111   8.360   1.324   6.276 -0.9857  0.6458  0.1674
 1718TIP3    H2 5112   8.458   1.366   6.383 -0.6316 -0.2535  0.1966
 1719TIP3   OH2 5113   7.033   7.806   5.792  0.2358 -0.0121 -0.2686
 1719TIP3    H1 5114   6.963   7.856   5.750  2.7945  1.6016 -2.8184
 1719TIP3    H2 5115   7.098   7.872   5.816  0.8438 -1.4603  2.2004
 1720TIP3   OH2 5116   8.440   4.048   5.540  0.4589  0.3621 -0.5779
 1720TIP3    H1 5117   8.427   4.071   5.632 -0.9574  0.0001 -0.6640
 1720TIP3    H2 5118   8.353   4.018   5.511  1.7286 -3.0850 -1.0171
 1721TIP3   OH2 5119   7.662   2.320   1.475 -0.4158  0.5365 -0.6018
 1721TIP3    H1 5120   7.576   2.343   1.510 -0.7557  1.2084 -1.8553
 1721TIP3    H2 5121   7.648   2.310   1.381  1.2361  2.3918 -1.0709
 1722TIP3   OH2 5122   2.533   6.556   0.981  0.1133  0.0268 -0.1460
 1722TIP3    H1 5123   2.618   6.514   0.995 -0.2245 -0.8599 -0.7828
 1722TIP3    H2 5124   2.530   6.574   0.887  0.7173  2.4729  0.2737
 1723TIP3   OH2 5125   2.534   7.689   0.242  0.1192  0.6143  0.3348
 1723TIP3    H1 5126   2.512   7.768   0.291 -0.0303  1.7087 -1.4515
 1723TIP3    H2 5127   2.458   7.631   0.255 -0.6457  1.5437  0.0491
 1724TIP3   OH2 5128   8.182   1.169   6.565 -0.3906 -0.1457  0.3480
 1724TIP3    H1 5129   8.111   1.176   6.629  0.6351  0.5958  1.4223
 1724TIP3    H2 5130   8.149   1.216   6.488 -0.0026  2.6698  1.8141
 1725TIP3   OH2 5131   6.861   3.251   6.671  0.9664 -0.5242 -0.7322
 1725TIP3    H1 5132   6.821   3.268   6.756  1.8862  0.6286 -0.5270
 1725TIP3    H2 5133   6.792   3.272   6.608  0.1109 -1.8796 -0.2639
 1726TIP3   OH2 5134   1.059   2.626   6.250  0.5373 -0.1416 -0.1287
 1726TIP3    H1 5135   1.095   2.597   6.166 -0.6211  0.4840 -0.8631
 1726TIP3    H2 5136   1.130   2.613   6.313  0.8720 -2.1568 -0.8927
 1727TIP3   OH2 5137   2.038   3.175   4.584  0.3815 -0.4879  0.7520
 1727TIP3    H1 5138   2.072   3.086   4.593  0.2528 -0.6274 -0.1039
 1727TIP3    H2 5139   2.115   3.232   4.593  0.7129 -0.7621 -0.3914
 1728TIP3   OH2 5140   1.265   6.668   2.568 -0.3940  0.5186 -0.3030
 1728TIP3    H1 5141   1.256   6.616   2.488  1.3857  0.2494 -0.3582
 1728TIP3    H2 5142   1.324   6.739   2.543  0.6570  0.0887  0.9381
 1729TIP3   OH2 5143   7.152   1.849   6.565  0.2301 -0.1507  0.6637
 1729TIP3    H1 5144   7.106   1.926   6.597  1.1764 -0.4409  2.7736
 1729TIP3    H2 5145   7.186   1.876   6.479 -0.3259  1.4213  0.9198
 1730TIP3   OH2 5146   3.132   6.507   0.726  0.5369 -0.2058  0.4246
 1730TIP3    H1 5147   3.169   6.570   0.788  0.5581  2.8043 -2.4924
 1730TIP3    H2 5148   3.207   6.454   0.698  0.7506 -0.7461  1.9419
 1731TIP3   OH2 5149   0.151   2.834   5.337 -0.3179 -0.1099  0.2332
 1731TIP3    H1 5150   0.082   2.858   5.399  0.5117  0.1634  1.0657
 1731TIP3    H2 5151   0.173   2.744   5.359  1.2413  0.5646  1.5662
 1732TIP3   OH2 5152   3.320   6.169   0.828  0.8743  0.3456  0.5689
 1732TIP3    H1 5153   3.306   6.252   0.782 -0.5967 -0.4764 -0.5023
 1732TIP3    H2 5154   3.363   6.113   0.764 -1.4291 -0.8955  0.0408
 1733TIP3   OH2 5155   4.612   1.352   1.604  0.2160 -0.0029  0.2649
 1733TIP3    H1 5156   4.583   1.330   1.693 -1.3624  0.0077 -0.2225
 1733TIP3    H2 5157   4.625   1.447   1.606  2.5792 -0.3116  1.1300
 1734TIP3   OH2 5158   2.528   7.310   1.833 -0.0989 -0.0805  0.2303
 1734TIP3    H1 5159   2.539   7.241   1.898 -0.2617 -0.2621  0.0649
 1734TIP3    H2 5160   2.501   7.264   1.754  1.0462  0.0383 -0.2393
 1735TIP3   OH2 5161   2.720   6.156   0.801  0.0917 -0.0458  0.1454
 1735TIP3    H1 5162   2.647   6.153   0.740 -0.2434 -0.5309  0.5681
 1735TIP3    H2 5163   2.763   6.240   0.783 -1.7173  1.1435  1.2171
 1736TIP3   OH2 5164   1.634   7.740   0.728  0.0891  0.1267  0.4012
 1736TIP3    H1 5165   1.623   7.650   0.699  1.1360  0.2946 -0.5581
 1736TIP3    H2 5166   1.636   7.791   0.648 -1.8561  1.1800  0.9881
 1737TIP3   OH2 5167   4.272   7.234   3.045  0.5574  0.2644  0.1513
 1737TIP3    H1 5168   4.277   7.267   3.134  1.7868 -1.8772  0.9186
 1737TIP3    H2 5169   4.219   7.298   2.998  0.9312  2.0502  2.1112
 1738TIP3   OH2 5170   0.417   3.615   4.008 -0.1694 -0.3269  0.2398
 1738TIP3    H1 5171   0.340   3.653   3.966  1.1328  0.8813 -1.0639
 1738TIP3    H2 5172   0.384   3.534   4.049 -2.0481  0.0016 -0.5891
 1739TIP3   OH2 5173   1.193   5.394   0.912  0.0944 -0.4108 -0.2985
 1739TIP3    H1 5174   1.268   5.443   0.945  0.2326 -0.5517 -0.4017
 1739TIP3    H2 5175   1.209   5.386   0.818  1.5390 -3.1716  0.1196
 1740TIP3   OH2 5176   1.839   7.646   2.821 -0.1018  0.0766 -0.1459
 1740TIP3    H1 5177   1.906   7.694   2.868 -0.0532 -0.6454  0.5411
 1740TIP3    H2 5178   1.778   7.617   2.889 -0.2241 -0.6751 -0.5668
 1741TIP3   OH2 5179   5.044   0.372   1.852  0.2141 -0.1822  0.6649
 1741TIP3    H1 5180   5.003   0.453   1.883 -0.4842 -0.5772  0.7863
 1741TIP3    H2 5181   5.099   0.400   1.779 -1.0623  0.2129 -0.1583
 1742TIP3   OH2 5182   1.380   5.740   2.552 -0.6585  0.7995 -0.2915
 1742TIP3    H1 5183   1.311   5.715   2.492 -0.2647 -1.2392  0.0682
 1742TIP3    H2 5184   1.334   5.770   2.631 -1.1399 -0.1814 -0.1941
 1743TIP3   OH2 5185   1.323   5.144   1.553 -0.3148 -0.5034  0.5178
 1743TIP3    H1 5186   1.309   5.173   1.643  0.0020 -2.3575  1.1885
 1743TIP3    H2 5187   1.297   5.052   1.553  4.1141 -1.8784 -0.0802
 1744TIP3   OH2 5188   4.205   7.066   0.454  0.0298  0.0503 -0.7105
 1744TIP3    H1 5189   4.215   7.042   0.547  0.2984  0.8143 -0.5386
 1744TIP3    H2 5190   4.153   6.995   0.417  1.1882 -1.0249 -0.3160
 1745TIP3   OH2 5191   1.463   6.861   4.263  0.0177 -0.0806  0.0452
 1745TIP3    H1 5192   1.512   6.780   4.281 -0.5899 -0.4138  0.2355
 1745TIP3    H2 5193   1.530   6.924   4.235  0.8944  0.1649  2.5293
 1746TIP3   OH2 5194   2.477   7.987   0.276  0.7047 -0.6993  0.1092
 1746TIP3    H1 5195   2.489   8.058   0.213  1.2683  0.1827  1.1975
 1746TIP3    H2 5196   2.391   7.951   0.256  0.4722  0.2030 -0.5413
 1747TIP3   OH2 5197   3.676   7.017   4.044 -0.7257  0.0041 -0.1838
 1747TIP3    H1 5198   3.644   7.107   4.048 -0.5568  0.0341  0.5180
 1747TIP3    H2 5199   3.713   7.000   4.131 -0.6491 -0.7030 -0.3466
 1748TIP3   OH2 5200   8.095   2.610   6.551  0.2835 -0.4288 -0.3854
 1748TIP3    H1 5201   8.006   2.616   6.584  0.3874 -1.7837  0.1506
 1748TIP3    H2 5202   8.115   2.516   6.552  1.8253 -0.1092 -0.1846
 1749TIP3   OH2 5203   0.660   6.103   2.278  0.1266 -0.2723 -0.0871
 1749TIP3    H1 5204   0.728   6.052   2.322  0.6168 -0.3222 -0.8879
 1749TIP3    H2 5205   0.587   6.104   2.339 -0.6403 -3.6734 -0.8586
 1750TIP3   OH2 5206   1.366   2.856   4.740 -0.4268 -0.2403  0.9940
 1750TIP3    H1 5207   1.349   2.803   4.818 -1.1440  1.9683  2.3752
 1750TIP3    H2 5208   1.401   2.938   4.774  1.9742 -0.3032 -1.1869
 1751TIP3   OH2 5209   2.522   6.487   0.014 -0.1045  0.6759  0.0334
 1751TIP3    H1 5210   2.441   6.528   0.042 -0.2056  0.7933 -0.4292
 1751TIP3    H2 5211   2.588   6.557   0.020 -0.1081  0.6764  0.0717
 1752TIP3   OH2 5212   2.254   6.618   2.052 -0.1105  0.0253 -0.8275
 1752TIP3    H1 5213   2.172   6.662   2.027 -0.5441  0.3727  1.1670
 1752TIP3    H2 5214   2.320   6.687   2.046 -0.6790  0.8339  1.6350
 1753TIP3   OH2 5215   1.948   5.726   0.242  0.2505 -0.3134 -0.4128
 1753TIP3    H1 5216   1.964   5.778   0.163 -2.7610 -1.3211 -1.7586
 1753TIP3    H2 5217   1.869   5.677   0.223 -1.3738  0.4376  3.7637
 1754TIP3   OH2 5218   3.785   5.993   0.444 -0.6478  0.5048 -0.0132
 1754TIP3    H1 5219   3.758   5.901   0.448 -0.5083  0.5066  0.9137
 1754TIP3    H2 5220   3.862   5.999   0.500 -0.2370  1.0467 -0.6211
 1755TIP3   OH2 5221   7.573   2.366   5.939  0.1710 -0.1001 -0.2070
 1755TIP3    H1 5222   7.481   2.353   5.960  0.2080 -0.6960 -0.4068
 1755TIP3    H2 5223   7.581   2.341   5.847  1.0321 -2.5819  0.5004
 1756TIP3   OH2 5224   7.832   2.153   5.555  0.1128 -0.4091  0.2772
 1756TIP3    H1 5225   7.765   2.096   5.517  1.6204 -1.7728 -0.3870
 1756TIP3    H2 5226   7.883   2.183   5.480 -0.6120  1.7603  0.6379
 1757TIP3   OH2 5227   0.356   4.973   1.542 -0.4602 -0.2738 -0.3942
 1757TIP3    H1 5228   0.425   4.996   1.605 -0.3101 -3.5967  0.7368
 1757TIP3    H2 5229   0.398   4.910   1.483 -1.6523  0.0635 -1.6141
 1758TIP3   OH2 5230   7.981   3.076   6.265 -0.2534  0.1059 -0.0748
 1758TIP3    H1 5231   7.916   3.019   6.307 -0.2886 -0.0133 -0.2921
 1758TIP3    H2 5232   8.033   3.016   6.210 -0.1863  0.2583 -0.1771
 1759TIP3   OH2 5233   2.557   5.065   0.428  0.6238 -1.0450 -0.5342
 1759TIP3    H1 5234   2.610   5.045   0.505 -0.4825 -0.2749  0.4505
 1759TIP3    H2 5235   2.534   4.980   0.392 -0.1634 -1.4699  0.9110
 1760TIP3   OH2 5236   0.065   5.839   2.758  0.4472  0.2085 -0.2870
 1760TIP3    H1 5237  -0.000   5.905   2.781 -1.2693 -1.6348  0.2286
 1760TIP3    H2 5238   0.130   5.844   2.829  0.8448  1.9754 -0.7574
 1761TIP3   OH2 5239   3.210   6.944   3.902 -0.0534 -0.0652 -0.5345
 1761TIP3    H1 5240   3.292   6.899   3.923  0.5886  1.1522 -0.3630
 1761TIP3    H2 5241   3.238   7.025   3.859 -1.2128 -0.2318 -1.5985
 1762TIP3   OH2 5242   1.564   7.717   1.561  0.0333  0.4933  0.5247
 1762TIP3    H1 5243   1.549   7.676   1.476 -0.5605  0.3906  0.6765
 1762TIP3    H2 5244   1.514   7.663   1.623  0.9863  0.1851  1.0362
 1763TIP3   OH2 5245   1.218   0.961   6.720 -0.0198 -0.0211 -0.1519
 1763TIP3    H1 5246   1.259   0.887   6.676 -0.2259 -0.2733  0.0772
 1763TIP3    H2 5247   1.242   0.951   6.812  1.5804  1.2769 -0.3970
 1764TIP3   OH2 5248   7.106   0.419   0.098  0.3055 -0.0554  0.4337
 1764TIP3    H1 5249   7.108   0.484   0.168 -0.0753  1.2800 -0.7768
 1764TIP3    H2 5250   7.179   0.443   0.040  0.1116 -0.6400 -0.0644
 1765TIP3   OH2 5251   0.194   2.289   4.198 -0.0300  0.0584  0.6050
 1765TIP3    H1 5252   0.192   2.195   4.214  0.4615  0.0430  0.5944
 1765TIP3    H2 5253   0.114   2.307   4.149 -0.5473 -0.2122  1.3587
 1766TIP3   OH2 5254   3.369   6.315   2.825 -0.0417 -0.1788 -0.0058
 1766TIP3    H1 5255   3.365   6.356   2.739  0.6556  0.0628  0.0697
 1766TIP3    H2 5256   3.382   6.388   2.886 -0.8301 -0.3197  0.3302
 1767TIP3   OH2 5257   5.158   5.917   1.449  0.0684  0.1161 -0.2449
 1767TIP3    H1 5258   5.077   5.920   1.499  0.6121 -1.5521  0.7726
 1767TIP3    H2 5259   5.162   6.002   1.405 -1.7849  0.5470  0.3671
 1768TIP3   OH2 5260   2.392   1.284   5.090  0.7295  0.0989  0.2382
 1768TIP3    H1 5261   2.438   1.215   5.139 -0.1165 -0.9654 -0.4500
 1768TIP3    H2 5262   2.417   1.270   4.999  0.4007  0.5870  0.0711
 1769TIP3   OH2 5263   1.169   3.071   6.415 -0.3779 -0.0000 -0.0420
 1769TIP3    H1 5264   1.119   2.997   6.380  0.2891 -0.8416  0.7568
 1769TIP3    H2 5265   1.186   3.127   6.339 -0.6466 -0.8202 -0.7053
 1770TIP3   OH2 5266   0.322   3.320   5.291 -0.5434  0.0215 -0.4244
 1770TIP3    H1 5267   0.290   3.234   5.319 -2.3014  0.5771 -0.6070
 1770TIP3    H2 5268   0.273   3.382   5.346 -0.8852  0.9665 -1.7637
 1771TIP3   OH2 5269   4.737   6.213   3.830  0.1264  1.3152  0.3611
 1771TIP3    H1 5270   4.813   6.156   3.839 -0.0981  1.0497  0.6057
 1771TIP3    H2 5271   4.712   6.235   3.920  0.1680  1.7390  0.2689
 1772TIP3   OH2 5272   4.501   7.298   1.210  0.3573  0.0207  1.0368
 1772TIP3    H1 5273   4.427   7.255   1.252 -1.1708  0.9740 -0.5965
 1772TIP3    H2 5274   4.461   7.358   1.147  2.4776  1.7324  1.2469
 1773TIP3   OH2 5275   3.730   5.083   4.744 -0.5627  0.1342 -0.2981
 1773TIP3    H1 5276   3.725   5.000   4.792  0.3795  1.2762  1.8292
 1773TIP3    H2 5277   3.803   5.071   4.683  0.5288 -0.0890  1.0409
 1774TIP3   OH2 5278   2.690   0.748   6.578 -0.2227 -0.1598  0.0183
 1774TIP3    H1 5279   2.659   0.692   6.649 -2.8586  1.0403 -0.1526
 1774TIP3    H2 5280   2.680   0.694   6.499  0.5047 -0.6429  0.2410
 1775TIP3   OH2 5281   2.927   2.692   4.333 -0.1308 -0.6574 -0.4625
 1775TIP3    H1 5282   2.836   2.723   4.337  1.0038  2.7805 -0.0912
 1775TIP3    H2 5283   2.941   2.670   4.241 -1.1600 -0.7446 -0.6068
 1776TIP3   OH2 5284   7.486   7.685   2.967 -0.3988  0.4306 -0.7291
 1776TIP3    H1 5285   7.403   7.642   2.987  0.0485  0.1546  0.5607
 1776TIP3    H2 5286   7.511   7.651   2.881  0.5298 -2.8253  0.7660
 1777TIP3   OH2 5287   7.107   7.089   2.138  0.0733 -0.4508 -0.0179
 1777TIP3    H1 5288   7.130   7.181   2.122  3.2051 -1.1347  0.1347
 1777TIP3    H2 5289   7.084   7.085   2.231 -0.3921  0.2186 -0.1007
 1778TIP3   OH2 5290   6.239   7.052   5.092 -0.1223 -0.2788  0.3689
 1778TIP3    H1 5291   6.168   7.075   5.152 -1.0715 -1.9932 -0.0960
 1778TIP3    H2 5292   6.197   7.007   5.020  1.1491  0.8766 -1.1355
 1779TIP3   OH2 5293   1.513   0.283   4.608 -0.0548  0.0667 -0.1293
 1779TIP3    H1 5294   1.607   0.296   4.595  0.4681 -2.4838  0.7898
 1779TIP3    H2 5295   1.498   0.310   4.699 -0.1539  0.1238 -0.1619
 1780TIP3   OH2 5296   6.875   6.488   5.011  0.0472 -0.0738  0.2328
 1780TIP3    H1 5297   6.812   6.465   5.079 -0.3860 -2.2518 -0.8434
 1780TIP3    H2 5298   6.825   6.537   4.947 -0.1868 -0.3833  0.1756
 1781TIP3   OH2 5299   0.913   7.856   1.893 -0.4343 -0.1305 -0.0441
 1781TIP3    H1 5300   0.967   7.799   1.948  0.4484  0.5770 -0.1652
 1781TIP3    H2 5301   0.913   7.940   1.938  1.9735  1.0439 -2.0883
 1782TIP3   OH2 5302   7.336   7.381   5.947 -0.2459 -0.5852 -0.3118
 1782TIP3    H1 5303   7.287   7.447   5.898 -1.2065 -1.0367  0.0125
 1782TIP3    H2 5304   7.324   7.301   5.897 -2.6101 -1.4091  1.4762
 1783TIP3   OH2 5305   6.172   6.660   6.487 -0.6195 -0.0040  0.0434
 1783TIP3    H1 5306   6.097   6.667   6.428 -1.1162 -1.3315  0.5119
 1783TIP3    H2 5307   6.237   6.611   6.438 -0.2462  0.6792 -0.1584
 1784TIP3   OH2 5308   2.348   0.456   2.999 -0.5941  0.5285 -0.4450
 1784TIP3    H1 5309   2.301   0.373   3.009 -2.0604  1.6279  2.3499
 1784TIP3    H2 5310   2.369   0.461   2.906 -2.1213 -2.0839 -0.9770
 1785TIP3   OH2 5311   1.428   0.505   5.080  0.5958 -0.0586  0.0187
 1785TIP3    H1 5312   1.431   0.512   5.175  2.1986 -1.3121  0.0831
 1785TIP3    H2 5313   1.345   0.462   5.061  1.4815 -2.2457  1.0331
 1786TIP3   OH2 5314   5.789   7.824   3.048 -0.8417  0.6703  0.3654
 1786TIP3    H1 5315   5.759   7.748   3.097 -0.3101 -0.3798 -0.9039
 1786TIP3    H2 5316   5.717   7.843   2.987 -1.0005  1.2234  0.7240
 1787TIP3   OH2 5317   5.122   7.019   5.182 -0.1400  0.5967  0.0105
 1787TIP3    H1 5318   5.169   7.070   5.116 -0.2906 -1.2672 -1.5579
 1787TIP3    H2 5319   5.064   7.082   5.225  0.3306  1.9179 -1.2789
 1788TIP3   OH2 5320   6.128   7.550   2.922  0.0167 -0.0183  0.1673
 1788TIP3    H1 5321   6.087   7.635   2.909 -2.1181 -0.7967  1.5559
 1788TIP3    H2 5322   6.192   7.564   2.991 -1.2105  0.2242  1.2779
 1789TIP3   OH2 5323   2.792   2.319   3.119  0.2902 -0.0563  0.3499
 1789TIP3    H1 5324   2.706   2.290   3.148 -0.4663  0.6683 -1.1446
 1789TIP3    H2 5325   2.780   2.410   3.093  1.1974 -0.3364 -1.1354
 1790TIP3   OH2 5326   0.800   1.374   3.396  0.3758 -0.2427  0.4260
 1790TIP3    H1 5327   0.876   1.379   3.339  0.1503 -1.0689  0.0459
 1790TIP3    H2 5328   0.766   1.463   3.399  1.3823  0.1390  0.6414
 1791TIP3   OH2 5329   2.331   0.877   5.654 -0.7906  0.7615 -0.0503
 1791TIP3    H1 5330   2.364   0.931   5.583  1.3064 -0.7096 -0.2464
 1791TIP3    H2 5331   2.257   0.926   5.690 -0.2886  2.6961 -1.5978
 1792TIP3   OH2 5332   0.062   1.110   5.239  0.0148  0.3143  0.0708
 1792TIP3    H1 5333   0.010   1.074   5.311 -0.2900 -0.8530 -0.7112
 1792TIP3    H2 5334  -0.002   1.149   5.180 -0.2432 -2.8490 -1.8759
 1793TIP3   OH2 5335   6.896   7.510   4.458 -0.0181 -0.0165  0.1428
 1793TIP3    H1 5336   6.930   7.549   4.539  0.2945  2.6993 -1.2599
 1793TIP3    H2 5337   6.968   7.515   4.396 -0.9093 -0.1242 -0.9265
 1794TIP3   OH2 5338   3.098   2.977   2.569  0.2685 -0.1749 -0.4068
 1794TIP3    H1 5339   3.171   2.968   2.508 -1.1380 -1.9577 -1.8999
 1794TIP3    H2 5340   3.021   2.987   2.513 -0.8050  0.2750  1.1228
 1795TIP3   OH2 5341   3.719   0.025   5.248 -0.2074 -0.4913  0.3831
 1795TIP3    H1 5342   3.766  -0.044   5.202 -0.8811 -0.4054 -0.4297
 1795TIP3    H2 5343   3.714   0.097   5.185  1.2168  0.6336  1.4887
 1796TIP3   OH2 5344   0.825   1.923   3.381 -0.6479  0.4655  0.2663
 1796TIP3    H1 5345   0.774   1.876   3.315  0.1229 -1.8615  1.2728
 1796TIP3    H2 5346   0.775   2.002   3.399 -1.3331  0.7026 -2.4329
 1797TIP3   OH2 5347   7.640   7.909   4.909  0.3606  0.8197  0.4363
 1797TIP3    H1 5348   7.640   7.962   4.989 -2.2763  0.1693  0.8980
 1797TIP3    H2 5349   7.559   7.932   4.865  0.2367 -1.2254 -0.4439
 1798TIP3   OH2 5350   5.280   4.332   5.608 -0.2298  0.3908 -0.1636
 1798TIP3    H1 5351   5.363   4.284   5.612 -0.4895  0.0031  0.6901
 1798TIP3    H2 5352   5.228   4.296   5.681 -0.9584  0.9758 -0.3908
 1799TIP3   OH2 5353   3.194   0.408   4.689  0.1367  0.7510 -0.2803
 1799TIP3    H1 5354   3.223   0.498   4.701 -2.6433  1.4008  2.4529
 1799TIP3    H2 5355   3.144   0.409   4.607 -2.4296  2.4560  1.2579
 1800TIP3   OH2 5356   3.906   0.204   4.693  0.6437  0.1809 -0.1366
 1800TIP3    H1 5357   3.979   0.240   4.743 -0.2928  0.5409  1.0049
 1800TIP3    H2 5358   3.832   0.260   4.715 -0.3732 -1.2187  0.0816
 1801TIP3   OH2 5359   8.428   7.519   2.277  0.0108  0.1484 -0.4079
 1801TIP3    H1 5360   8.471   7.560   2.202  0.2559 -1.0962 -0.9512
 1801TIP3    H2 5361   8.366   7.458   2.239  0.7960 -1.1792  0.3942
 1802TIP3   OH2 5362   0.968   7.421   1.044 -0.3701  0.3460 -0.0446
 1802TIP3    H1 5363   0.937   7.509   1.064 -0.0248  0.3239  0.6014
 1802TIP3    H2 5364   0.912   7.391   0.973 -0.0624  1.3401 -0.7185
 1803TIP3   OH2 5365   4.306   1.681   3.128 -0.2212  0.0448 -0.4398
 1803TIP3    H1 5366   4.361   1.606   3.105 -1.0349 -1.1073  1.2471
 1803TIP3    H2 5367   4.217   1.648   3.119 -0.5860  0.9799 -0.2355
 1804TIP3   OH2 5368   1.751   2.892   4.526 -0.1069  0.4868  0.1364
 1804TIP3    H1 5369   1.744   2.946   4.605 -0.5549  1.1903 -0.3880
 1804TIP3    H2 5370   1.772   2.805   4.559  1.8349  1.2237  0.9225
 1805TIP3   OH2 5371   4.602   7.482   6.771  0.0760 -0.0532 -0.1169
 1805TIP3    H1 5372   4.604   7.505   6.864 -0.5860 -0.1682 -0.0682
 1805TIP3    H2 5373   4.576   7.563   6.727 -0.4891 -0.2289 -0.1145
 1806TIP3   OH2 5374   1.144   3.021   4.130  0.2115 -0.5460 -0.2919
 1806TIP3    H1 5375   1.122   2.929   4.118  0.4098 -0.6513  0.1528
 1806TIP3    H2 5376   1.092   3.048   4.206  0.8759 -0.5381  0.1592
 1807TIP3   OH2 5377   1.009   0.604   4.461  0.1987  0.6085  0.0387
 1807TIP3    H1 5378   0.985   0.668   4.394  1.4076  0.6406 -0.3911
 1807TIP3    H2 5379   0.964   0.524   4.434  0.6499  0.6268 -0.8186
 1808TIP3   OH2 5380   0.694   1.715   4.490 -0.0014  0.5983  0.2703
 1808TIP3    H1 5381   0.693   1.763   4.407  0.0974  1.4783  0.7638
 1808TIP3    H2 5382   0.672   1.625   4.466  0.5790  0.7219 -0.7827
 1809TIP3   OH2 5383   2.691   0.790   4.164  0.7131  0.1394 -0.4171
 1809TIP3    H1 5384   2.659   0.826   4.081  0.4219  0.5818 -0.1160
 1809TIP3    H2 5385   2.764   0.847   4.188  0.8639 -0.0524 -0.4208
 1810TIP3   OH2 5386   3.712   0.249   3.261  0.0228 -0.1341 -0.6319
 1810TIP3    H1 5387   3.739   0.165   3.224 -0.3051  0.5363 -2.4570
 1810TIP3    H2 5388   3.640   0.227   3.321  0.9960 -1.3113  0.1103
 1811TIP3   OH2 5389   8.145   7.883   2.606  0.4173  0.0837 -0.2083
 1811TIP3    H1 5390   8.123   7.913   2.694  0.7485  0.3429 -0.2124
 1811TIP3    H2 5391   8.086   7.931   2.548  0.2592 -0.0232 -0.1325
 1812TIP3   OH2 5392   7.427   7.223   4.319  0.4270  0.3592 -0.0788
 1812TIP3    H1 5393   7.467   7.303   4.353  0.0371  1.1033 -1.3030
 1812TIP3    H2 5394   7.363   7.197   4.385  0.4513  1.1601  0.2626
 1813TIP3   OH2 5395   3.343   0.226   4.504  0.3022 -0.2395  0.9524
 1813TIP3    H1 5396   3.252   0.256   4.513  0.3913  0.3137  0.0629
 1813TIP3    H2 5397   3.388   0.300   4.464  0.9728 -0.8241  0.6280
 1814TIP3   OH2 5398   4.181   1.295   4.940 -0.3177  0.4053 -0.1914
 1814TIP3    H1 5399   4.152   1.214   4.897 -0.8956  0.2722  0.4423
 1814TIP3    H2 5400   4.244   1.333   4.878  1.8092 -1.7333  0.5620
 1815TIP3   OH2 5401   0.904   0.782   4.237 -0.8344  0.5424  0.2419
 1815TIP3    H1 5402   0.964   0.838   4.189  1.4757 -0.0623  2.3104
 1815TIP3    H2 5403   0.867   0.838   4.305 -2.4520  0.8530 -0.8821
 1816TIP3   OH2 5404   3.341   1.662   4.046  0.0046 -0.4475 -0.3809
 1816TIP3    H1 5405   3.436   1.659   4.041  0.0485 -0.1786  0.2354
 1816TIP3    H2 5406   3.321   1.749   4.081 -0.5390  0.1371 -2.1071
 1817TIP3   OH2 5407   1.691   0.457   5.427  0.4215  0.5094  0.3853
 1817TIP3    H1 5408   1.669   0.390   5.362  0.2335  0.2100  0.7578
 1817TIP3    H2 5409   1.704   0.409   5.509 -2.4801  1.2076  1.2996
 1818TIP3   OH2 5410   2.592   0.298   5.799 -0.8707 -0.6346 -0.9549
 1818TIP3    H1 5411   2.526   0.233   5.822  0.3245 -2.4469 -2.5428
 1818TIP3    H2 5412   2.675   0.260   5.828 -0.2894  0.7644 -0.7294
 1819TIP3   OH2 5413   7.909   7.558   5.435  0.8072 -0.0892  0.7418
 1819TIP3    H1 5414   7.928   7.528   5.346 -1.9392  0.9042 -0.2176
 1819TIP3    H2 5415   7.907   7.478   5.488 -0.2027 -0.9548 -0.5972
 1820TIP3   OH2 5416   7.684   6.782   2.858 -0.0460  0.1762 -0.2146
 1820TIP3    H1 5417   7.741   6.732   2.800  0.6507  0.0384  0.5822
 1820TIP3    H2 5418   7.644   6.848   2.802  0.8291  0.2145 -0.7902
 1821TIP3   OH2 5419   2.181   1.812   2.940  0.0073  0.4924  0.5621
 1821TIP3    H1 5420   2.133   1.778   2.865 -0.9009 -1.0545  1.8045
 1821TIP3    H2 5421   2.260   1.851   2.903 -0.5422 -0.0326 -1.1968
 1822TIP3   OH2 5422   6.329   6.450   3.005  0.4139 -0.6641  0.2491
 1822TIP3    H1 5423   6.261   6.457   3.071  1.6126 -0.1784  1.4460
 1822TIP3    H2 5424   6.289   6.398   2.935 -1.1152 -0.5343  1.0036
 1823TIP3   OH2 5425   8.258   7.109   3.987 -0.8774  0.2145  0.1095
 1823TIP3    H1 5426   8.238   7.020   3.957 -1.6106  0.1509  0.7506
 1823TIP3    H2 5427   8.217   7.114   4.074  1.6691  0.1944  1.3550
 1824TIP3   OH2 5428   2.934   0.919   2.795  0.0549 -0.4522  0.3359
 1824TIP3    H1 5429   3.006   0.886   2.849  1.3881 -1.7877 -2.2000
 1824TIP3    H2 5430   2.975   0.981   2.735 -1.0424 -0.6325 -0.6206
 1825TIP3   OH2 5431   2.183   0.497   5.000 -0.1324 -0.0195  0.2053
 1825TIP3    H1 5432   2.204   0.524   4.911  2.3731  0.0326  0.7772
 1825TIP3    H2 5433   2.089   0.479   4.998  0.0854 -1.0535 -2.7012
 1826TIP3   OH2 5434   8.275   7.797   5.858  0.2279  0.0655  0.4383
 1826TIP3    H1 5435   8.248   7.884   5.889  0.8498  0.4232 -0.0203
 1826TIP3    H2 5436   8.329   7.762   5.929  0.6973  0.4112  0.2523
 1827TIP3   OH2 5437   3.645   0.608   3.549  0.4895  0.3986 -0.1302
 1827TIP3    H1 5438   3.688   0.541   3.602  0.1032  2.2122  2.5645
 1827TIP3    H2 5439   3.560   0.571   3.527  0.0715  0.1793  1.7827
 1828TIP3   OH2 5440   3.527   2.089   3.488  0.3960  0.4875  0.6018
 1828TIP3    H1 5441   3.571   2.004   3.490 -0.2702  0.1023 -0.4763
 1828TIP3    H2 5442   3.506   2.107   3.579  1.3814 -0.0618  0.9443
 1829TIP3   OH2 5443   4.162   2.209   3.878  0.8586 -0.2675  0.6018
 1829TIP3    H1 5444   4.185   2.231   3.787 -1.3785  0.8876  0.2746
 1829TIP3    H2 5445   4.228   2.254   3.930  1.0188  0.7078 -0.4002
 1830TIP3   OH2 5446   3.608   1.633   4.038  0.2842 -0.2262 -0.2008
 1830TIP3    H1 5447   3.619   1.584   4.120  2.6852  0.5258 -0.0244
 1830TIP3    H2 5448   3.640   1.721   4.058 -0.0984  0.2638 -1.6563
 1831TIP3   OH2 5449   3.917   1.508   3.982  0.1739  0.1867 -0.0861
 1831TIP3    H1 5450   3.953   1.586   3.938  2.3039  0.1864  1.5738
 1831TIP3    H2 5451   3.867   1.543   4.056  0.1151  0.0279 -0.0504
 1832TIP3   OH2 5452   0.712   1.198   4.678 -0.1711  0.1131  0.3544
 1832TIP3    H1 5453   0.650   1.156   4.619  0.0288  1.8837 -1.1823
 1832TIP3    H2 5454   0.763   1.126   4.716 -0.1079 -1.0575 -1.8640
 1833TIP3   OH2 5455   4.758   1.115   2.494  0.2685 -0.0418  0.4743
 1833TIP3    H1 5456   4.834   1.138   2.440  1.4963 -4.2537  0.2037
 1833TIP3    H2 5457   4.689   1.099   2.430 -0.4211  2.0865  0.6348
 1834TIP3   OH2 5458   3.838   1.621   1.957  0.5235 -0.3040  0.1410
 1834TIP3    H1 5459   3.758   1.568   1.956 -1.1355  2.0043  2.4663
 1834TIP3    H2 5460   3.895   1.577   2.021 -0.2058 -0.1784  0.8862
 1835TIP3   OH2 5461   2.633   0.061   4.139 -0.6546 -0.4270  0.4568
 1835TIP3    H1 5462   2.604   0.001   4.207 -0.0375 -1.3367 -0.0786
 1835TIP3    H2 5463   2.708   0.107   4.179  0.2057 -1.5204  0.1244
 1836TIP3   OH2 5464   7.877   6.670   3.621 -0.2665  0.0048  0.0597
 1836TIP3    H1 5465   7.891   6.737   3.688  1.1779 -0.0940 -0.1428
 1836TIP3    H2 5466   7.789   6.689   3.587 -0.1944  1.2965  0.5647
 1837TIP3   OH2 5467   2.973   0.554   2.460 -0.3573  0.1793 -0.2860
 1837TIP3    H1 5468   2.980   0.488   2.529 -2.4836  1.1622  0.9291
 1837TIP3    H2 5469   3.052   0.542   2.407  0.7793 -1.3229  1.6782
 1838TIP3   OH2 5470   2.486   0.685   3.785  0.0548 -0.3250  0.4859
 1838TIP3    H1 5471   2.548   0.632   3.834  0.5221 -0.4760 -0.2530
 1838TIP3    H2 5472   2.404   0.636   3.788 -0.4692  0.6099  2.7747
 1839TIP3   OH2 5473   3.516   1.106   4.119  0.0903  0.2241 -0.4305
 1839TIP3    H1 5474   3.522   1.188   4.071 -0.0456  0.2202 -0.4562
 1839TIP3    H2 5475   3.529   1.038   4.053  1.2446  0.2448 -0.2304
 1840TIP3   OH2 5476   0.590   0.734   5.562 -0.3615 -0.3908  0.1506
 1840TIP3    H1 5477   0.631   0.759   5.479  0.0300  0.5287  0.6134
 1840TIP3    H2 5478   0.625   0.797   5.625  0.5483 -2.0465  1.3165
 1841TIP3   OH2 5479   5.506   3.875   6.931 -0.4258  0.0254 -0.6449
 1841TIP3    H1 5480   5.519   3.807   6.866 -0.7520 -0.7273  0.0677
 1841TIP3    H2 5481   5.586   3.927   6.928  0.6933 -1.5986  0.2230
 1842TIP3   OH2 5482   2.453   1.458   3.692  0.2314  0.3993  0.2280
 1842TIP3    H1 5483   2.479   1.547   3.716  1.3292  0.4326 -1.0206
 1842TIP3    H2 5484   2.528   1.424   3.643 -0.9590 -0.5067 -0.9933
 1843TIP3   OH2 5485   3.019   0.435   1.554  0.3578 -0.2003  0.0164
 1843TIP3    H1 5486   2.944   0.416   1.498 -0.2101 -1.6137  1.2000
 1843TIP3    H2 5487   3.093   0.391   1.512 -0.2743 -2.1793  0.8928
 1844TIP3   OH2 5488   2.619   0.277   4.727  0.7289  0.0485 -0.4301
 1844TIP3    H1 5489   2.525   0.268   4.740  0.8043  1.1261  0.8793
 1844TIP3    H2 5490   2.630   0.366   4.692  1.1641 -0.4789 -1.6779
 1845TIP3   OH2 5491   2.806   0.852   3.189 -0.1113  0.5582 -0.1051
 1845TIP3    H1 5492   2.720   0.877   3.155  1.1155  2.4634 -1.8877
 1845TIP3    H2 5493   2.808   0.886   3.278 -1.7516 -0.8230  0.5009
 1846TIP3   OH2 5494   0.789   7.917   3.845  0.2619 -0.4912  0.2124
 1846TIP3    H1 5495   0.799   8.009   3.869  0.2947  0.0281 -1.7384
 1846TIP3    H2 5496   0.808   7.869   3.926 -0.9795  1.2441  1.5621
 1847TIP3   OH2 5497   2.543   0.892   3.638 -0.2614 -0.1507  0.2155
 1847TIP3    H1 5498   2.455   0.919   3.611  0.2996  2.1317  0.5656
 1847TIP3    H2 5499   2.528   0.818   3.697 -2.0704  1.1493  1.4671
 1848TIP3   OH2 5500   4.463   0.468   5.299  0.1438  0.0312 -0.1090
 1848TIP3    H1 5501   4.458   0.536   5.365  0.6516 -0.1213  0.0858
 1848TIP3    H2 5502   4.554   0.439   5.300  0.1943  0.1503 -0.9986
 1849TIP3   OH2 5503   2.760   0.163   1.382  0.2331  0.1649 -0.1131
 1849TIP3    H1 5504   2.774   0.258   1.378 -0.6645  0.3073  0.0119
 1849TIP3    H2 5505   2.669   0.154   1.409  0.5170 -0.7425  0.5608
 1850TIP3   OH2 5506   3.629   2.359   3.710  0.8532 -0.1671  0.4495
 1850TIP3    H1 5507   3.622   2.274   3.754  0.4532  0.3199  1.3555
 1850TIP3    H2 5508   3.543   2.372   3.669  0.5121  0.3229  1.3038
 1851TIP3   OH2 5509   3.700   1.363   4.528  0.2102  0.3561  0.2988
 1851TIP3    H1 5510   3.751   1.305   4.584 -0.3277 -1.5829 -1.1856
 1851TIP3    H2 5511   3.643   1.305   4.477  2.4691  1.7822 -4.1196
 1852TIP3   OH2 5512   3.811   1.344   1.750  0.0274  0.0239 -0.1164
 1852TIP3    H1 5513   3.891   1.369   1.704 -0.6632  2.3057 -0.1229
 1852TIP3    H2 5514   3.776   1.426   1.785 -2.1859 -0.9635  0.0887
 1853TIP3   OH2 5515   3.128   1.465   2.289 -0.2709  0.4487  0.4827
 1853TIP3    H1 5516   3.134   1.482   2.383 -1.2045  0.2447  0.5912
 1853TIP3    H2 5517   3.139   1.371   2.280  1.7168  0.6858  0.1908
 1854TIP3   OH2 5518   1.960   7.260   6.197 -0.1102 -0.3296 -0.0845
 1854TIP3    H1 5519   1.883   7.232   6.248  1.4012 -1.8137  1.4242
 1854TIP3    H2 5520   2.016   7.304   6.262 -0.0835  1.6131 -1.3726
 1855TIP3   OH2 5521   4.298   0.586   3.960 -0.0697  0.8754  0.5302
 1855TIP3    H1 5522   4.243   0.615   4.033 -0.5721  0.8189  0.1780
 1855TIP3    H2 5523   4.379   0.557   4.001  0.3187  2.4823  0.9057
 1856TIP3   OH2 5524   3.786   0.002   4.875 -0.0801 -0.2443 -0.4698
 1856TIP3    H1 5525   3.717   0.067   4.863 -0.3349 -0.3513  0.4171
 1856TIP3    H2 5526   3.866   0.046   4.847 -0.6953 -0.5966 -2.9329
 1857TIP3   OH2 5527   0.004   7.087   3.470 -0.3127  0.1317 -0.3206
 1857TIP3    H1 5528  -0.001   7.092   3.565  1.0329 -1.0117 -0.1822
 1857TIP3    H2 5529   0.097   7.078   3.451 -0.3894  2.1040 -1.8379
 1858TIP3   OH2 5530   7.922   7.953   5.127  0.3949 -0.1988  0.0065
 1858TIP3    H1 5531   7.991   8.016   5.148  0.0368  0.3937 -0.5690
 1858TIP3    H2 5532   7.841   7.998   5.151  0.1796 -0.7515  0.3353
 1859TIP3   OH2 5533   3.279   0.339   2.527 -0.1457 -0.2969 -0.2524
 1859TIP3    H1 5534   3.322   0.356   2.443 -1.0702  0.2699 -0.6209
 1859TIP3    H2 5535   3.346   0.360   2.592  0.8443 -1.5241 -0.8604
 1860TIP3   OH2 5536   7.094   6.332   1.960  0.4705  0.2663 -0.1367
 1860TIP3    H1 5537   7.175   6.378   1.979  0.4594 -0.5158  2.0243
 1860TIP3    H2 5538   7.032   6.400   1.936  1.7850  0.8558 -1.9357
 1861TIP3   OH2 5539   3.344   1.682   6.514 -0.2178  0.1395  0.1409
 1861TIP3    H1 5540   3.373   1.714   6.429 -1.6166  0.5351 -0.2011
 1861TIP3    H2 5541   3.275   1.744   6.541  0.9216  0.6273  2.0275
 1862TIP3   OH2 5542   7.565   7.800   2.477  1.0073 -0.2505  1.1935
 1862TIP3    H1 5543   7.615   7.879   2.459  0.2733 -0.3177 -1.4733
 1862TIP3    H2 5544   7.476   7.830   2.494  1.1147 -0.3782  1.9779
 1863TIP3   OH2 5545   8.372   7.798   5.588 -0.0534  0.4233  0.3088
 1863TIP3    H1 5546   8.342   7.786   5.678  1.0350 -0.7745  0.5161
 1863TIP3    H2 5547   8.336   7.722   5.541 -0.4539  0.9416 -0.2413
 1864TIP3   OH2 5548   8.290   7.434   6.695 -0.0531 -0.4768 -0.3019
 1864TIP3    H1 5549   8.344   7.360   6.724 -0.6431 -2.4094 -3.8666
 1864TIP3    H2 5550   8.200   7.401   6.698 -0.5639  0.9450  0.4462
 1865TIP3   OH2 5551   3.402   0.229   5.207  0.5250  0.7985 -0.0958
 1865TIP3    H1 5552   3.329   0.222   5.268  0.9885  1.0109  0.4891
 1865TIP3    H2 5553   3.370   0.285   5.137  0.0827  0.7873  0.0971
 1866TIP3   OH2 5554   2.955   0.359   5.643  0.3572 -0.2037  0.2649
 1866TIP3    H1 5555   2.987   0.281   5.689  0.9674 -1.2647 -1.8989
 1866TIP3    H2 5556   2.884   0.326   5.588 -1.7525  1.4210  1.9657
 1867TIP3   OH2 5557   3.953   0.251   4.968 -0.1019 -0.3720  0.2791
 1867TIP3    H1 5558   3.962   0.336   5.010 -0.7177 -0.0268 -0.2724
 1867TIP3    H2 5559   3.869   0.217   4.999 -0.6499 -0.0284 -0.8108
 1868TIP3   OH2 5560   0.860   7.486   2.075 -0.2523  0.0170 -0.5347
 1868TIP3    H1 5561   0.931   7.531   2.030 -1.0978  1.3420 -0.5705
 1868TIP3    H2 5562   0.865   7.516   2.166 -2.6437  2.5603 -1.1741
 1869TIP3   OH2 5563   3.347   1.681   2.488  0.3621 -0.5271  0.5412
 1869TIP3    H1 5564   3.328   1.749   2.554  1.1644 -1.0771  1.3546
 1869TIP3    H2 5565   3.289   1.609   2.511 -0.5232 -0.1052 -0.3519
 1870TIP3   OH2 5566   5.893   0.667   0.666 -0.6373  0.4063  0.0334
 1870TIP3    H1 5567   5.890   0.736   0.600 -0.7537  0.3039 -0.0679
 1870TIP3    H2 5568   5.929   0.591   0.620  2.8826  1.4064  1.0370
 1871TIP3   OH2 5569   4.880   0.496   4.006 -0.0657 -0.0003 -0.2910
 1871TIP3    H1 5570   4.923   0.575   4.039  0.2068 -0.0008 -0.6413
 1871TIP3    H2 5571   4.941   0.425   4.027 -0.0374 -0.0413 -0.5114
 1872TIP3   OH2 5572   7.925   7.084   1.602  0.1555 -0.2726 -0.1162
 1872TIP3    H1 5573   7.941   7.001   1.647  0.8123  0.6611  1.4114
 1872TIP3    H2 5574   8.007   7.103   1.556 -0.0133 -0.4923 -0.5104
 1873TIP3   OH2 5575   2.653   0.332   4.400 -0.5346  0.0265  0.0728
 1873TIP3    H1 5576   2.578   0.345   4.342 -1.3457  0.2519  1.1399
 1873TIP3    H2 5577   2.637   0.393   4.473  0.7973  0.2319  0.2095
 1874TIP3   OH2 5578   2.735   0.222   2.115 -0.2672  0.2227 -0.4202
 1874TIP3    H1 5579   2.676   0.239   2.189  0.1455 -0.3534  0.0519
 1874TIP3    H2 5580   2.721   0.129   2.094 -0.9948  0.6061 -1.6161
 1875TIP3   OH2 5581   3.178   1.310   3.422 -0.0915 -0.4244  0.4808
 1875TIP3    H1 5582   3.219   1.362   3.491  0.7181 -3.1310  2.1186
 1875TIP3    H2 5583   3.106   1.265   3.466  0.1519 -1.8535 -0.5470
 1876TIP3   OH2 5584   3.747   0.385   4.355  0.0418  0.1923 -0.4206
 1876TIP3    H1 5585   3.772   0.417   4.268 -1.4128 -1.0256 -1.3098
 1876TIP3    H2 5586   3.806   0.312   4.371 -0.9985 -0.8489 -1.2660
 1877TIP3   OH2 5587   4.953   0.054   5.427 -0.0229  0.3260 -0.3660
 1877TIP3    H1 5588   4.869   0.092   5.451 -0.2796 -0.4308 -0.0417
 1877TIP3    H2 5589   4.959   0.065   5.332 -0.8580 -0.3472 -0.5021
 1878TIP3   OH2 5590   4.096   0.558   4.269 -0.5186  0.2420 -0.1482
 1878TIP3    H1 5591   4.074   0.649   4.292 -0.2424  0.7811 -1.9292
 1878TIP3    H2 5592   4.018   0.525   4.226 -0.0838  0.1239 -0.8494
 1879TIP3   OH2 5593   0.427   6.940   4.039  0.2888  0.1918  0.1296
 1879TIP3    H1 5594   0.410   6.946   3.945  2.0067  0.3559 -0.2049
 1879TIP3    H2 5595   0.461   7.027   4.062 -1.3975  0.5905  1.2004
 1880TIP3   OH2 5596   2.628   1.716   0.979 -0.0016  0.1831 -0.2944
 1880TIP3    H1 5597   2.667   1.636   0.945 -0.1049  0.3989 -0.9358
 1880TIP3    H2 5598   2.698   1.781   0.973  0.7441 -0.3435  2.1940
 1881TIP3   OH2 5599   1.336   0.138   4.953  0.2328 -0.3498  0.0098
 1881TIP3    H1 5600   1.300   0.194   5.022  1.9257 -1.3562  1.7526
 1881TIP3    H2 5601   1.258   0.107   4.905 -1.0631 -0.4949  2.1382
 1882TIP3   OH2 5602   3.167   1.548   2.027  0.7569 -0.3743  0.0948
 1882TIP3    H1 5603   3.210   1.479   1.975  0.4684 -1.5233  1.3564
 1882TIP3    H2 5604   3.169   1.515   2.117 -0.6934  0.6053  0.5044
 1883TIP3   OH2 5605   3.817   2.985   5.045  0.2482  0.7262 -0.6533
 1883TIP3    H1 5606   3.771   3.059   5.086  1.5398  1.2855 -0.1756
 1883TIP3    H2 5607   3.754   2.949   4.983 -0.9868  1.2047  0.2882
 1884TIP3   OH2 5608   1.967   1.419   4.137 -0.2623 -0.5486  0.5016
 1884TIP3    H1 5609   1.968   1.405   4.042  0.6226 -0.3607  0.4748
 1884TIP3    H2 5610   1.968   1.514   4.147  1.0871 -0.5710  0.6948
 1885TIP3   OH2 5611   1.385   3.940   3.296 -0.3897 -0.4814  0.1140
 1885TIP3    H1 5612   1.444   4.010   3.322  0.7794 -1.6408  0.6407
 1885TIP3    H2 5613   1.321   3.935   3.368 -0.1371 -0.3452  0.3488
 1886TIP3   OH2 5614   0.095   7.518   2.511  0.0884  0.0624  0.2067
 1886TIP3    H1 5615   0.085   7.601   2.467 -0.2166 -0.9553 -1.6801
 1886TIP3    H2 5616   0.005   7.484   2.521  0.0081  0.9188  2.9260
 1887TIP3   OH2 5617   2.187   1.049   4.102 -0.0727 -0.4244  0.5942
 1887TIP3    H1 5618   2.116   1.014   4.048 -0.8581  2.2587 -0.1388
 1887TIP3    H2 5619   2.249   0.976   4.110 -2.3422 -2.4330  0.2822
 1888TIP3   OH2 5620   3.328   2.971   2.425 -0.0758  0.3804 -0.2433
 1888TIP3    H1 5621   3.318   2.958   2.331 -1.0310  1.0862 -0.2422
 1888TIP3    H2 5622   3.420   2.997   2.436  0.1528 -0.1142 -0.9229
 1889TIP3   OH2 5623   2.993   1.192   2.104  0.3057  0.6320 -0.8060
 1889TIP3    H1 5624   2.996   1.177   2.198 -1.2565 -0.9639 -0.9619
 1889TIP3    H2 5625   3.026   1.111   2.065 -0.5700  0.6469 -1.6302
 1890TIP3   OH2 5626   2.204   1.607   5.153  0.2364  0.2765  0.2231
 1890TIP3    H1 5627   2.165   1.522   5.133 -1.0176  0.5687  1.4230
 1890TIP3    H2 5628   2.285   1.608   5.101 -0.7109 -0.8319 -1.3079
 1891TIP3   OH2 5629   0.522   7.181   3.042 -0.0397 -0.2474  0.0562
 1891TIP3    H1 5630   0.502   7.265   3.083  0.8658  0.3486 -0.7027
 1891TIP3    H2 5631   0.502   7.194   2.950 -1.5167 -1.4055  0.1839
 1892TIP3   OH2 5632   2.626   1.057   4.383  0.5780  0.2946  0.7561
 1892TIP3    H1 5633   2.568   1.096   4.318  0.3531  1.3952  1.5981
 1892TIP3    H2 5634   2.708   1.041   4.336  0.4740  1.2346  0.2478
 1893TIP3   OH2 5635   8.229   0.171   3.634  0.1360 -0.5779  0.1352
 1893TIP3    H1 5636   8.229   0.077   3.650  0.0276 -0.3936  1.2606
 1893TIP3    H2 5637   8.154   0.204   3.683 -0.4559 -0.0423 -1.1169
 1894TIP3   OH2 5638   4.097   0.517   6.172  0.0483 -0.0085  0.1744
 1894TIP3    H1 5639   4.062   0.490   6.257  1.0466 -0.0124  0.5895
 1894TIP3    H2 5640   4.034   0.481   6.108 -0.3194 -0.6235  0.8688
 1895TIP3   OH2 5641   7.956   7.606   6.825 -0.3742  0.2838 -0.0287
 1895TIP3    H1 5642   8.006   7.530   6.797  1.0858  1.1602  0.1379
 1895TIP3    H2 5643   8.023   7.671   6.848 -1.5673  0.7120  2.3429
 1896TIP3   OH2 5644   7.159   7.370   2.480  0.0852  0.2392  0.2420
 1896TIP3    H1 5645   7.141   7.284   2.519  0.0249 -0.6624 -1.7197
 1896TIP3    H2 5646   7.085   7.385   2.421  1.5665  0.2730 -1.6622
 1897TIP3   OH2 5647   1.600   4.099   3.007 -0.3757 -0.1999 -0.3980
 1897TIP3    H1 5648   1.534   4.155   2.967 -0.5686 -1.2374 -1.5547
 1897TIP3    H2 5649   1.640   4.154   3.075 -0.3822  1.4061 -1.6767
 1898TIP3   OH2 5650   1.976   0.313   4.981 -0.4075 -0.1909 -0.2474
 1898TIP3    H1 5651   1.955   0.279   4.894  0.7793  0.3003 -0.7322
 1898TIP3    H2 5652   1.970   0.236   5.039  1.0471 -0.9942 -1.1355
 1899TIP3   OH2 5653   1.297   0.686   4.539 -0.5178  0.4827 -0.1367
 1899TIP3    H1 5654   1.205   0.664   4.532  0.1100 -2.2863 -0.2839
 1899TIP3    H2 5655   1.308   0.720   4.628 -1.4840 -0.0127  0.1705
 1900TIP3   OH2 5656   3.240   1.672   4.513 -0.4284  0.0619  0.5146
 1900TIP3    H1 5657   3.301   1.711   4.575 -0.4671 -0.5869  0.9758
 1900TIP3    H2 5658   3.281   1.588   4.489 -1.7047 -0.9572  1.7883
 1901TIP3   OH2 5659   2.438   0.086   3.956  0.1825 -0.7639 -0.3887
 1901TIP3    H1 5660   2.461   0.027   3.884  0.3382  1.2113 -2.0057
 1901TIP3    H2 5661   2.520   0.101   4.002  0.7804  0.6047 -1.8458
 1902TIP3   OH2 5662   4.631   0.111   6.147  0.3140  0.6055  0.7298
 1902TIP3    H1 5663   4.653   0.148   6.233  0.2234  0.8713  0.6373
 1902TIP3    H2 5664   4.543   0.143   6.129  0.3968  0.6771  0.4619
 1903TIP3   OH2 5665   7.846   6.801   2.562 -0.3048  0.1257  0.2322
 1903TIP3    H1 5666   7.757   6.785   2.593  0.9231  0.0981  3.9541
 1903TIP3    H2 5667   7.851   6.896   2.551 -0.5407  0.2182  0.8955
 1904TIP3   OH2 5668   2.232   2.904   5.758 -0.8122 -0.6482 -0.0688
 1904TIP3    H1 5669   2.297   2.957   5.712  0.8548 -2.4401  0.1354
 1904TIP3    H2 5670   2.228   2.822   5.708 -1.1124 -1.4915  1.3157
 1905TIP3   OH2 5671   4.590   1.309   5.217 -0.1066 -0.0316  0.2308
 1905TIP3    H1 5672   4.682   1.288   5.203 -0.4891 -1.5394 -0.1394
 1905TIP3    H2 5673   4.589   1.371   5.290  1.3002  1.1327 -0.7074
 1906TIP3   OH2 5674   7.870   7.466   3.808 -0.4245  0.7467  0.9758
 1906TIP3    H1 5675   7.908   7.518   3.878 -1.0723  2.9609 -0.2569
 1906TIP3    H2 5676   7.775   7.479   3.817 -0.5422  0.5152  0.1163
 1907TIP3   OH2 5677   6.802   6.611   3.205  0.4436 -0.3804  0.7465
 1907TIP3    H1 5678   6.843   6.547   3.148 -0.0437  0.8181 -0.9900
 1907TIP3    H2 5679   6.875   6.663   3.240  0.7192 -0.9110  0.9523
 1908TIP3   OH2 5680   3.381   0.687   4.062 -0.4180 -0.2310 -0.1020
 1908TIP3    H1 5681   3.446   0.619   4.042 -1.4037 -1.0239 -0.6312
 1908TIP3    H2 5682   3.300   0.639   4.077 -0.5890  0.6541  1.9134
 1909TIP3   OH2 5683   4.463   1.696   5.244  0.2029 -0.8820 -0.4488
 1909TIP3    H1 5684   4.550   1.673   5.279  1.8826  3.3422 -1.5225
 1909TIP3    H2 5685   4.420   1.742   5.317 -0.1454 -0.8035 -0.7054
 1910TIP3   OH2 5686   3.954   2.231   3.591 -0.5214 -0.2824  0.2083
 1910TIP3    H1 5687   4.035   2.270   3.623 -0.9243  0.6799  0.0587
 1910TIP3    H2 5688   3.893   2.304   3.583 -1.6368 -1.1048  1.0188
 1911TIP3   OH2 5689   5.025   1.343   1.090  0.4938  0.0852 -0.0680
 1911TIP3    H1 5690   4.994   1.389   1.013  1.3593 -0.4912 -0.7699
 1911TIP3    H2 5691   4.956   1.279   1.110  0.7941 -0.5496 -1.0553
 1912TIP3   OH2 5692   0.609   6.830   5.922  0.6386 -0.0150  0.0534
 1912TIP3    H1 5693   0.620   6.735   5.923  3.2367  0.2537  0.4356
 1912TIP3    H2 5694   0.629   6.857   6.012 -2.2793  0.7010  0.5407
 1913TIP3   OH2 5695   7.676   6.921   2.269  0.2035  0.1000 -0.5225
 1913TIP3    H1 5696   7.734   6.858   2.227  0.1305 -0.1962 -0.1738
 1913TIP3    H2 5697   7.638   6.874   2.343 -2.1562 -0.3810 -2.0081
 1914TIP3   OH2 5698   6.715   7.969   5.008  0.1550  0.1351 -0.1264
 1914TIP3    H1 5699   6.635   7.925   4.978  0.7086 -1.8937  1.2920
 1914TIP3    H2 5700   6.699   8.062   4.989 -1.9788 -0.3906 -1.1002
 1915TIP3   OH2 5701   3.439   1.368   6.322 -0.0789 -0.6276  0.8133
 1915TIP3    H1 5702   3.430   1.448   6.269  1.6069 -0.4395  0.7879
 1915TIP3    H2 5703   3.382   1.383   6.397  1.8080  1.5177  1.8598
 1916TIP3   OH2 5704   7.014   6.291   3.536  0.3467  0.1707  0.3228
 1916TIP3    H1 5705   6.998   6.382   3.560 -0.6242  0.5605 -1.6743
 1916TIP3    H2 5706   7.109   6.281   3.542  0.8959  2.4203 -3.0592
 1917TIP3   OH2 5707   0.977   7.011   4.825  0.0954 -0.1647  0.7910
 1917TIP3    H1 5708   0.901   7.034   4.880 -0.2442  1.3081 -0.2737
 1917TIP3    H2 5709   0.983   6.916   4.832  0.0833 -0.0259  3.4259
 1918TIP3   OH2 5710   3.715   1.037   2.450  0.0278 -0.1488  0.3261
 1918TIP3    H1 5711   3.778   1.109   2.451 -0.4033  0.2285  0.5149
 1918TIP3    H2 5712   3.751   0.974   2.388 -0.6739  1.1951 -1.4867
 1919TIP3   OH2 5713   6.821   7.103   5.911 -0.0039  0.0081 -0.0808
 1919TIP3    H1 5714   6.901   7.156   5.915 -0.3389  0.5492 -0.5082
 1919TIP3    H2 5715   6.843   7.023   5.960  0.9805 -0.0751 -0.6319
 1920TIP3   OH2 5716   6.279   7.984   5.578  0.5564 -0.0490  0.2851
 1920TIP3    H1 5717   6.226   8.058   5.608  0.5504  0.1877 -0.2906
 1920TIP3    H2 5718   6.224   7.942   5.511 -0.3845 -1.8992  2.1592
 1921TIP3   OH2 5719   2.947   1.238   2.568 -0.4106 -0.3749 -0.0576
 1921TIP3    H1 5720   3.002   1.194   2.503 -2.4147 -2.1575 -0.6279
 1921TIP3    H2 5721   3.007   1.265   2.637  1.1980 -2.0309 -0.7769
 1922TIP3   OH2 5722   0.179   8.008   2.601  0.1558 -0.1418 -0.6553
 1922TIP3    H1 5723   0.185   8.012   2.696 -0.0636 -0.7448 -0.6086
 1922TIP3    H2 5724   0.263   7.973   2.572  0.2565  0.1292 -0.6884
 1923TIP3   OH2 5725   1.620   7.243   4.340 -0.4472 -0.5363 -0.2575
 1923TIP3    H1 5726   1.568   7.225   4.261  0.2832  1.4502 -1.2417
 1923TIP3    H2 5727   1.556   7.243   4.411 -1.7546  1.3817 -1.3816
 1924TIP3   OH2 5728   2.646   1.376   3.511 -0.4522  0.2326  0.1074
 1924TIP3    H1 5729   2.726   1.326   3.526  0.5637  1.8856  0.3994
 1924TIP3    H2 5730   2.610   1.342   3.429  0.2210 -0.9506  0.3065
 1925TIP3   OH2 5731   3.885   1.061   4.363 -0.3223 -0.0088 -0.2916
 1925TIP3    H1 5732   3.830   1.006   4.307  1.1104 -0.6599 -1.0892
 1925TIP3    H2 5733   3.895   1.142   4.313  1.2799 -0.7377 -1.1731
 1926TIP3   OH2 5734   3.408   1.691   2.006 -0.1902 -0.1912  0.3421
 1926TIP3    H1 5735   3.318   1.657   2.015  0.0251 -0.2887  2.3937
 1926TIP3    H2 5736   3.444   1.686   2.095  2.0881 -0.7899 -0.5769
 1927TIP3   OH2 5737   4.465   0.903   3.388  0.4678 -0.1517 -0.2807
 1927TIP3    H1 5738   4.404   0.974   3.370 -0.0665 -0.5898 -0.2319
 1927TIP3    H2 5739   4.409   0.825   3.392  1.1082 -0.6437 -0.8758
 1928TIP3   OH2 5740   2.905   0.399   2.893 -0.6301  0.0165 -0.8143
 1928TIP3    H1 5741   2.882   0.474   2.949  0.3250  0.0768 -0.4857
 1928TIP3    H2 5742   2.936   0.332   2.955 -0.1533 -0.1399 -1.2224
 1929TIP3   OH2 5743   8.079   7.937   2.895  0.3174  0.6876  0.1040
 1929TIP3    H1 5744   8.063   7.883   2.973  1.1132 -1.1813 -0.9790
 1929TIP3    H2 5745   7.993   7.967   2.867 -0.0974  0.2775  0.9403
 1930TIP3   OH2 5746   0.562   7.270   4.067  0.0962 -0.2992 -0.2268
 1930TIP3    H1 5747   0.511   7.351   4.069  1.2176  0.4148  0.2357
 1930TIP3    H2 5748   0.544   7.228   4.151  0.5788  0.1694  0.1220
 1931TIP3   OH2 5749   8.113   7.886   3.732 -0.7135 -0.0976  0.4484
 1931TIP3    H1 5750   8.027   7.847   3.714  0.2669 -1.5856 -1.1866
 1931TIP3    H2 5751   8.167   7.813   3.761  0.6694  0.3557 -0.9032
 1932TIP3   OH2 5752   4.330   2.467   5.863 -0.4162  0.4289 -0.4891
 1932TIP3    H1 5753   4.236   2.484   5.874 -0.5874 -1.1237  0.6713
 1932TIP3    H2 5754   4.335   2.415   5.783 -0.5582  0.4496 -0.5128
 1933TIP3   OH2 5755   1.767   6.845   6.584  0.4447 -0.2540  0.2319
 1933TIP3    H1 5756   1.722   6.922   6.620  0.6658  0.4386 -0.9330
 1933TIP3    H2 5757   1.796   6.796   6.661  0.0381  0.6721  0.9919
 1934TIP3   OH2 5758   1.089   7.905   4.622 -0.4480  0.6928 -0.3187
 1934TIP3    H1 5759   1.170   7.921   4.671 -0.5551 -1.0134  0.4795
 1934TIP3    H2 5760   1.020   7.941   4.678 -0.3921  0.4599 -0.0944
 1935TIP3   OH2 5761   1.402   1.316   6.764 -0.1645  0.4568 -0.3421
 1935TIP3    H1 5762   1.448   1.366   6.696  2.2464 -0.0324  0.8601
 1935TIP3    H2 5763   1.439   1.228   6.757  0.2781  0.4623  1.7152
 1936TIP3   OH2 5764   1.697   0.777   4.408  0.5486  0.0100  0.1696
 1936TIP3    H1 5765   1.634   0.848   4.424  2.2553  1.4737  0.5683
 1936TIP3    H2 5766   1.697   0.726   4.488  1.0630  0.9732  0.7971
 1937TIP3   OH2 5767   4.141   0.822   3.912 -0.2744 -0.0925 -0.5448
 1937TIP3    H1 5768   4.157   0.837   3.818 -0.3498 -3.1140 -1.1062
 1937TIP3    H2 5769   4.228   0.824   3.951 -0.0495 -0.5893 -0.9984
 1938TIP3   OH2 5770   7.348   7.159   5.806 -0.4051 -0.0038  0.5894
 1938TIP3    H1 5771   7.390   7.205   5.733 -1.1584  1.3346  0.9797
 1938TIP3    H2 5772   7.366   7.066   5.790 -0.3900  0.2948 -1.1794
 1939TIP3   OH2 5773   2.565   0.489   1.071 -0.6061  0.5306 -0.3146
 1939TIP3    H1 5774   2.476   0.523   1.081 -0.6655  0.4113 -0.4362
 1939TIP3    H2 5775   2.621   0.556   1.111 -0.8628 -0.0389  1.0483
 1940TIP3   OH2 5776   1.768   7.432   5.639  0.0014 -0.3240  0.1605
 1940TIP3    H1 5777   1.724   7.430   5.553 -1.4987 -0.8151  0.9206
 1940TIP3    H2 5778   1.751   7.520   5.672 -0.1427 -0.4138  0.3217
 1941TIP3   OH2 5779   3.843   3.148   4.480  0.8492 -0.0894  0.1749
 1941TIP3    H1 5780   3.808   3.233   4.453  1.0004  0.1187  0.6202
 1941TIP3    H2 5781   3.853   3.156   4.575  2.0491 -0.1573  0.0674
 1942TIP3   OH2 5782   3.808   1.955   3.734  0.3284 -0.5662 -0.0441
 1942TIP3    H1 5783   3.843   1.867   3.720  1.7954 -0.2932  1.7120
 1942TIP3    H2 5784   3.883   2.013   3.723  0.0534  0.1937  1.8305
 1943TIP3   OH2 5785   4.307   2.123   5.888  0.0911  0.3864  0.5600
 1943TIP3    H1 5786   4.311   2.114   5.984 -1.4301  0.7779  0.6786
 1943TIP3    H2 5787   4.296   2.033   5.856  1.8215  0.1204  0.6623
 1944TIP3   OH2 5788   1.971   2.511   3.841  0.5469  0.1678  0.4960
 1944TIP3    H1 5789   1.882   2.535   3.865  0.8404  0.6739  1.1077
 1944TIP3    H2 5790   1.971   2.415   3.841  0.1332  0.1664  1.0058
 1945TIP3   OH2 5791   0.246   7.316   3.494 -0.5833  0.4109 -0.6009
 1945TIP3    H1 5792   0.321   7.279   3.448 -1.4775 -0.8770 -1.0459
 1945TIP3    H2 5793   0.237   7.262   3.573 -0.7753  0.8275 -0.3366
 1946TIP3   OH2 5794   2.827   1.192   4.140  0.1016  0.1125  0.0413
 1946TIP3    H1 5795   2.841   1.192   4.046 -0.3435 -0.8369 -0.0318
 1946TIP3    H2 5796   2.836   1.284   4.166  1.8107  0.1806 -0.6837
 1947TIP3   OH2 5797   3.444   1.293   1.723 -0.2799 -0.5319 -0.2658
 1947TIP3    H1 5798   3.512   1.233   1.692  0.9603  0.6554  0.0886
 1947TIP3    H2 5799   3.455   1.372   1.670 -0.6511  0.0732  0.5317
 1948TIP3   OH2 5800   4.435   0.645   4.698  0.0470  0.2014  0.2155
 1948TIP3    H1 5801   4.480   0.713   4.648 -0.3837  0.7911  0.6216
 1948TIP3    H2 5802   4.348   0.681   4.713  0.3137  0.2171  1.7688
 1949TIP3   OH2 5803   0.315   0.969   5.295  0.1409  0.0928 -0.5733
 1949TIP3    H1 5804   0.263   0.923   5.362  0.1563 -0.9326 -1.2562
 1949TIP3    H2 5805   0.254   1.032   5.257 -0.8411 -1.5647 -1.8396
 1950TIP3   OH2 5806   3.883   1.454   3.703 -0.1778  0.4546 -0.1278
 1950TIP3    H1 5807   3.798   1.466   3.744  0.1443 -0.9200  0.9633
 1950TIP3    H2 5808   3.916   1.372   3.739  1.6307  0.9951 -0.4911
 1951TIP3   OH2 5809   6.777   7.140   3.465 -0.5383  0.0854  0.5475
 1951TIP3    H1 5810   6.797   7.052   3.495  2.0601  0.5976  0.4045
 1951TIP3    H2 5811   6.798   7.196   3.540 -1.4282  0.6814  0.3680
 1952TIP3   OH2 5812   3.162   1.564   0.384  0.1288  0.1825  0.1263
 1952TIP3    H1 5813   3.235   1.555   0.446  0.8748 -1.9694 -1.0005
 1952TIP3    H2 5814   3.099   1.498   0.411  0.2489 -0.4527 -1.1053
 1953TIP3   OH2 5815   8.076   7.730   5.122 -0.2080 -0.4663  0.1268
 1953TIP3    H1 5816   8.144   7.796   5.133  0.9070 -1.2678 -1.8804
 1953TIP3    H2 5817   7.995   7.780   5.114  0.8218  0.7917 -3.0402
 1954TIP3   OH2 5818   3.223   0.689   2.548 -0.7522 -0.3032 -0.2095
 1954TIP3    H1 5819   3.181   0.625   2.606 -1.3173 -0.3639 -0.6847
 1954TIP3    H2 5820   3.310   0.653   2.533 -1.0558 -0.9507 -0.4480
 1955TIP3   OH2 5821   4.279   7.947   2.950 -0.0582  0.1942  0.2335
 1955TIP3    H1 5822   4.329   8.017   2.992 -0.2217  0.5662 -0.1910
 1955TIP3    H2 5823   4.209   7.993   2.903 -0.8446 -0.3208  0.8833
 1956TIP3   OH2 5824   4.040   0.296   1.705  0.1431  0.3119  0.5082
 1956TIP3    H1 5825   3.981   0.234   1.747  1.5194 -0.7558  0.8888
 1956TIP3    H2 5826   4.045   0.266   1.614 -0.4323  0.8049  0.3132
 1957TIP3   OH2 5827   1.357   0.283   3.731  0.0755  0.3068  0.3445
 1957TIP3    H1 5828   1.364   0.329   3.647 -0.5712 -0.5149 -0.1739
 1957TIP3    H2 5829   1.269   0.304   3.763 -0.1029 -0.2877  0.2594
 1958TIP3   OH2 5830   6.256   0.120   2.730  0.7843  0.0625 -0.1670
 1958TIP3    H1 5831   6.256   0.211   2.760  0.4386 -0.5400  1.7235
 1958TIP3    H2 5832   6.346   0.091   2.741  0.8058  0.0409 -0.3849
 1959TIP3   OH2 5833   0.785   7.577   3.003 -0.1718  0.3004 -0.3642
 1959TIP3    H1 5834   0.716   7.639   3.025 -0.1171  0.8148 -1.6096
 1959TIP3    H2 5835   0.811   7.600   2.913  0.6685 -0.7555 -0.4071
 1960TIP3   OH2 5836   1.646   7.892   0.360  0.2950 -0.3179  0.1570
 1960TIP3    H1 5837   1.583   7.849   0.302  0.5135  0.6221 -0.7898
 1960TIP3    H2 5838   1.595   7.956   0.410  0.4454  0.2367 -0.3982
 1961TIP3   OH2 5839   2.854   0.578   4.695  0.5619 -0.1237  0.2002
 1961TIP3    H1 5840   2.767   0.560   4.658  1.2094 -0.7674 -1.0353
 1961TIP3    H2 5841   2.883   0.493   4.729  0.4484  0.2279  1.1956
 1962TIP3   OH2 5842   4.673   1.411   3.018  0.3391  0.0972  0.2707
 1962TIP3    H1 5843   4.702   1.366   2.939  0.7909  0.0719  0.4483
 1962TIP3    H2 5844   4.733   1.486   3.026  0.0005  0.3650  0.3330
 1963TIP3   OH2 5845   4.966   0.858   2.069  0.1482 -0.1965 -0.2321
 1963TIP3    H1 5846   4.940   0.854   2.161  0.2584  0.8726 -0.1402
 1963TIP3    H2 5847   4.922   0.936   2.036  0.8657 -0.0460 -0.8404
 1964TIP3   OH2 5848   4.469   1.333   1.837  0.4751 -0.3331  0.3092
 1964TIP3    H1 5849   4.404   1.270   1.869  0.7642 -1.0444 -0.4697
 1964TIP3    H2 5850   4.531   1.342   1.909 -0.1108 -0.1779  0.8005
 1965TIP3   OH2 5851   0.261   7.944   1.547  0.8452  0.0313 -0.1536
 1965TIP3    H1 5852   0.301   8.011   1.603 -0.8504  1.7286 -0.9049
 1965TIP3    H2 5853   0.291   7.965   1.459  0.5481 -0.3795 -0.3541
 1966TIP3   OH2 5854   5.770   1.028   1.959 -0.1623  0.2319  0.3824
 1966TIP3    H1 5855   5.682   1.066   1.956 -0.7901 -1.1731  0.3817
 1966TIP3    H2 5856   5.755   0.934   1.968  1.3535  0.1249  2.0092
 1967TIP3   OH2 5857   2.526   0.855   2.490 -0.2559  0.1403 -0.4538
 1967TIP3    H1 5858   2.447   0.880   2.537 -1.4050 -4.0488  0.0336
 1967TIP3    H2 5859   2.585   0.822   2.557 -0.3525 -2.1148 -1.4250
 1968TIP3   OH2 5860   3.841   0.732   2.547  0.1221 -0.3417 -0.4041
 1968TIP3    H1 5861   3.816   0.767   2.462 -0.4039  0.7974  0.2177
 1968TIP3    H2 5862   3.910   0.790   2.578  0.0603 -0.5444  0.1109
 1969TIP3   OH2 5863   5.094   2.544   3.266 -0.2213 -0.2767 -0.1153
 1969TIP3    H1 5864   5.168   2.550   3.326  0.5262 -0.8403 -0.9534
 1969TIP3    H2 5865   5.132   2.562   3.180 -1.4881  1.6906 -0.2988
 1970TIP3   OH2 5866   4.800   2.768   2.746 -0.1246 -0.3192  0.5585
 1970TIP3    H1 5867   4.722   2.823   2.739  0.5555  0.6338  0.3892
 1970TIP3    H2 5868   4.782   2.711   2.821 -0.6772  0.3920  0.9775
 1971TIP3   OH2 5869   0.548   7.458   2.206  0.3048  0.3449 -0.5008
 1971TIP3    H1 5870   0.590   7.543   2.219 -1.6419  1.0567  1.6389
 1971TIP3    H2 5871   0.489   7.471   2.132 -1.4437  1.4787  1.0523
 1972TIP3   OH2 5872   1.153   6.697   3.105  0.5701  0.0385 -0.2615
 1972TIP3    H1 5873   1.099   6.768   3.139 -0.3085  0.0293 -1.5987
 1972TIP3    H2 5874   1.126   6.620   3.155  0.4903  0.3564  0.1848
 1973TIP3   OH2 5875   7.843   7.993   3.899  0.5515  0.3005  0.4897
 1973TIP3    H1 5876   7.935   8.012   3.919  1.2991 -0.6834 -1.7646
 1973TIP3    H2 5877   7.835   7.898   3.912 -0.5622  0.6060  2.1584
 1974TIP3   OH2 5878   4.016  -0.026   3.307  0.7137  0.0446 -0.0745
 1974TIP3    H1 5879   4.010   0.036   3.234  2.8419  0.8034  0.3493
 1974TIP3    H2 5880   4.012   0.029   3.386 -0.5222 -0.6714  0.3750
 1975TIP3   OH2 5881   6.551   1.890   1.939 -0.0364 -0.3929  0.2198
 1975TIP3    H1 5882   6.594   1.931   1.864  0.3812 -1.1017  0.0678
 1975TIP3    H2 5883   6.463   1.870   1.907 -0.0279 -0.2166  0.0830
 1976TIP3   OH2 5884   4.013   1.498   2.144  0.1681 -0.3936 -0.3772
 1976TIP3    H1 5885   4.087   1.528   2.198  1.6073 -2.8009 -0.9238
 1976TIP3    H2 5886   3.936   1.517   2.197  1.3025  0.6219  0.9566
 1977TIP3   OH2 5887   4.515   0.841   0.820  0.7961  0.0664 -0.9217
 1977TIP3    H1 5888   4.584   0.847   0.887  0.3190 -0.3855 -0.3865
 1977TIP3    H2 5889   4.513   0.748   0.797  0.4593  0.1046 -1.0393
 1978TIP3   OH2 5890   5.113   0.731   3.219 -0.5483 -0.8085 -0.5154
 1978TIP3    H1 5891   5.038   0.682   3.253 -0.6866  0.6985  1.4361
 1978TIP3    H2 5892   5.189   0.683   3.252 -0.6753 -0.5598  0.1464
 1979TIP3   OH2 5893   3.415   0.761   0.249  0.1400 -0.3530 -0.9120
 1979TIP3    H1 5894   3.348   0.815   0.291  1.2465  0.4494 -0.1670
 1979TIP3    H2 5895   3.386   0.755   0.157 -1.9266 -1.5684 -0.2187
 1980TIP3   OH2 5896   4.360   0.723   1.049  0.3172  0.4238  0.0764
 1980TIP3    H1 5897   4.285   0.756   1.099 -0.2951 -1.5445  0.5059
 1980TIP3    H2 5898   4.322   0.665   0.983  1.4473 -0.5652  0.2752
 1981TIP3   OH2 5899   5.032   1.034   1.730 -0.3137 -0.2743 -0.3592
 1981TIP3    H1 5900   4.994   1.028   1.817  0.7552  1.0276  0.2196
 1981TIP3    H2 5901   4.957   1.050   1.672 -0.7697  1.1995  0.6172
 1982TIP3   OH2 5902   3.394   0.051   1.573 -0.0916 -0.6428  0.5950
 1982TIP3    H1 5903   3.342   0.033   1.651 -1.3836 -0.1892 -0.1486
 1982TIP3    H2 5904   3.429  -0.034   1.547 -0.8942 -1.0383  0.7967
 1983TIP3   OH2 5905   4.058   1.824   2.454 -0.8131  0.3599 -0.3757
 1983TIP3    H1 5906   4.026   1.759   2.516 -0.0730  1.4723  1.1977
 1983TIP3    H2 5907   3.987   1.888   2.447 -0.6428  0.5733 -0.1739
 1984TIP3   OH2 5908   5.435   2.290   1.068 -0.3863  0.6045 -0.1243
 1984TIP3    H1 5909   5.516   2.300   1.118 -0.2947 -0.2644 -0.0891
 1984TIP3    H2 5910   5.432   2.197   1.045 -1.2006  0.6976 -0.4240
 1985TIP3   OH2 5911   6.016   1.385   1.063  0.1782 -0.0349 -0.3016
 1985TIP3    H1 5912   6.001   1.333   0.984 -0.3828  2.1654 -1.6774
 1985TIP3    H2 5913   6.110   1.380   1.078  0.2044 -0.9477 -0.7752
 1986TIP3   OH2 5914   3.881   0.204   3.785 -0.0526  0.2674  0.4481
 1986TIP3    H1 5915   3.855   0.157   3.864  0.4308 -1.7505 -0.5398
 1986TIP3    H2 5916   3.953   0.260   3.813 -1.8562  1.8769  2.0507
 1987TIP3   OH2 5917   5.035   2.286   3.213  0.0983 -0.5265 -0.2171
 1987TIP3    H1 5918   5.114   2.252   3.256 -2.9056 -3.4846  3.2565
 1987TIP3    H2 5919   5.033   2.378   3.236  2.6431 -0.3515 -0.5602
 1988TIP3   OH2 5920   5.685   1.228   3.505  0.2817 -0.1662  0.3674
 1988TIP3    H1 5921   5.611   1.198   3.453  0.6766 -0.2339 -0.1510
 1988TIP3    H2 5922   5.744   1.269   3.443  0.1605  0.8917  0.9448
 1989TIP3   OH2 5923   2.008   5.576   2.636 -0.2583  0.0984 -0.3487
 1989TIP3    H1 5924   2.093   5.611   2.663 -0.7597  0.5720  0.6229
 1989TIP3    H2 5925   2.028   5.489   2.602  0.6856  0.4058 -0.6018
 1990TIP3   OH2 5926   5.006   0.465   4.345 -0.4981 -0.2346 -0.2531
 1990TIP3    H1 5927   5.061   0.443   4.421 -0.9157 -1.8427 -0.3964
 1990TIP3    H2 5928   5.005   0.561   4.343  0.2621 -0.1784  1.2313
 1991TIP3   OH2 5929   5.260   1.893   1.787  0.7477  0.0680  0.0163
 1991TIP3    H1 5930   5.195   1.907   1.857  0.2477  0.3602 -0.4988
 1991TIP3    H2 5931   5.344   1.902   1.831  0.4481 -0.9144  0.8174
 1992TIP3   OH2 5932   4.073   1.117   4.776  0.3810  0.2758  0.0771
 1992TIP3    H1 5933   4.032   1.048   4.829  0.1575  0.6179  0.3492
 1992TIP3    H2 5934   4.006   1.139   4.711  0.5524  0.0533 -0.1802
 1993TIP3   OH2 5935   5.521   0.268   0.229  0.8649 -0.0322 -0.1041
 1993TIP3    H1 5936   5.612   0.240   0.221  0.7636 -0.6602  0.8407
 1993TIP3    H2 5937   5.497   0.246   0.319 -0.5786 -0.8995 -0.6898
 1994TIP3   OH2 5938   6.652   2.804   3.454  0.7807  0.2834 -0.2864
 1994TIP3    H1 5939   6.612   2.740   3.512  1.3002 -0.0703 -0.3168
 1994TIP3    H2 5940   6.702   2.862   3.512 -0.7794  1.4824 -0.1145
 1995TIP3   OH2 5941   3.074   0.458   4.454  0.1718  0.1926  0.1109
 1995TIP3    H1 5942   3.116   0.431   4.372  0.0647 -0.0367  0.1302
 1995TIP3    H2 5943   3.013   0.526   4.428 -0.4684 -0.4604 -0.1240
 1996TIP3   OH2 5944   2.093   0.279   4.187 -0.1039 -0.0008 -0.4604
 1996TIP3    H1 5945   2.152   0.274   4.112 -0.0683 -1.5669 -0.3528
 1996TIP3    H2 5946   2.009   0.246   4.153 -1.0587  2.5935 -0.7287
 1997TIP3   OH2 5947   5.566   0.855   3.092 -0.1223 -0.2229 -0.0946
 1997TIP3    H1 5948   5.547   0.946   3.112  2.0752  0.6144 -1.7371
 1997TIP3    H2 5949   5.604   0.856   3.005 -2.9011 -3.0707 -1.4620
 1998TIP3   OH2 5950   3.797   0.531   1.991  0.2141  0.2697  0.0983
 1998TIP3    H1 5951   3.740   0.521   2.067 -0.2676  0.0156 -0.2892
 1998TIP3    H2 5952   3.855   0.604   2.013 -1.1567  1.4202 -0.0507
 1999TIP3   OH2 5953   3.422   1.693   2.976  0.4273  0.6690  0.6312
 1999TIP3    H1 5954   3.421   1.671   3.069  2.3297 -1.9382  0.0955
 1999TIP3    H2 5955   3.504   1.655   2.944 -0.4443  1.0999 -2.2157
 2000TIP3   OH2 5956   4.934   1.194   0.721  0.1917  0.2817 -0.0132
 2000TIP3    H1 5957   4.958   1.109   0.759 -1.8431 -0.9451 -1.3720
 2000TIP3    H2 5958   5.005   1.215   0.662  0.1183 -1.1003 -0.6061
 2001TIP3   OH2 5959   4.337   1.995   0.701 -0.0532  0.0596  0.3963
 2001TIP3    H1 5960   4.360   1.904   0.722  0.5632  0.0200 -0.4313
 2001TIP3    H2 5961   4.280   2.022   0.772 -0.4797 -1.0829  0.5003
 2002TIP3   OH2 5962   3.656   0.138   2.401  0.0896  0.9358  0.1241
 2002TIP3    H1 5963   3.648   0.221   2.355  2.7069  0.3281 -1.5220
 2002TIP3    H2 5964   3.698   0.160   2.484  0.4887  1.3082 -0.1769
 2003TIP3   OH2 5965   2.509   7.683   2.627 -0.6903 -0.0084  0.7834
 2003TIP3    H1 5966   2.516   7.778   2.624  0.6794 -0.1499 -0.7500
 2003TIP3    H2 5967   2.422   7.664   2.593 -0.9355  0.6893  1.0197
 2004TIP3   OH2 5968   5.086   0.908   3.420 -0.2501  0.1443  0.7754
 2004TIP3    H1 5969   5.089   0.994   3.378  0.1986  0.2323  0.9879
 2004TIP3    H2 5970   5.102   0.845   3.349 -2.3146  0.1278  0.2867
 2005TIP3   OH2 5971   7.386   0.393   3.922 -0.3852 -0.7323 -0.1493
 2005TIP3    H1 5972   7.318   0.328   3.906  0.6420 -1.6159 -0.9485
 2005TIP3    H2 5973   7.449   0.349   3.978 -1.4494  0.7421  2.2828
 2006TIP3   OH2 5974   4.747   1.341   1.969  0.2822 -0.6141 -0.2732
 2006TIP3    H1 5975   4.708   1.363   2.054  2.1250 -0.4168  0.5453
 2006TIP3    H2 5976   4.795   1.419   1.944 -0.4962 -0.5689 -1.6592
 2007TIP3   OH2 5977   1.537   7.105   4.074 -0.2488  0.0036 -0.2446
 2007TIP3    H1 5978   1.450   7.139   4.094 -0.0077  0.8803 -0.6837
 2007TIP3    H2 5979   1.530   7.072   3.984  0.2746  1.4513 -0.8291
 2008TIP3   OH2 5980   1.228   6.581   1.623  0.6070  0.5615  0.1978
 2008TIP3    H1 5981   1.186   6.534   1.695  0.0955  1.1710  0.3064
 2008TIP3    H2 5982   1.157   6.632   1.584  0.6017 -0.8220 -1.6037
 2009TIP3   OH2 5983   3.836   1.012   2.004 -0.4204 -0.0786  0.5991
 2009TIP3    H1 5984   3.754   0.965   1.992 -0.2326 -0.1426 -0.4176
 2009TIP3    H2 5985   3.869   0.981   2.088 -0.7647 -1.0583  0.3760
 2010TIP3   OH2 5986   8.381   6.899   5.026 -0.8766  0.3265  0.5045
 2010TIP3    H1 5987   8.443   6.842   5.072 -0.6637  1.2014  1.2925
 2010TIP3    H2 5988   8.407   6.988   5.049 -2.3173  0.7127  0.7056
 2011TIP3   OH2 5989   5.570   1.124   2.926 -0.1922 -0.0854  0.2042
 2011TIP3    H1 5990   5.614   1.039   2.919 -1.1764 -0.6346  0.5357
 2011TIP3    H2 5991   5.607   1.163   3.005 -0.1628 -0.4724  0.3852
 2012TIP3   OH2 5992   3.343   1.383   4.545 -0.1632  0.2283  0.0071
 2012TIP3    H1 5993   3.378   1.363   4.458 -0.2681  0.2220 -0.0347
 2012TIP3    H2 5994   3.296   1.304   4.570 -1.2346  0.6948 -0.4905
 2013TIP3   OH2 5995   0.822   6.877   3.770 -0.1065  0.2387  0.3520
 2013TIP3    H1 5996   0.805   6.876   3.864 -1.4548  1.5918  0.1435
 2013TIP3    H2 5997   0.740   6.908   3.731 -0.3531 -2.5221 -1.4671
 2014TIP3   OH2 5998   3.494   7.040   2.952 -0.4612 -0.6104 -0.0050
 2014TIP3    H1 5999   3.453   7.126   2.957 -0.5027 -0.5684 -0.9539
 2014TIP3    H2 6000   3.421   6.979   2.942 -0.3824 -0.6660 -0.2561
 2015TIP3   OH2 6001   1.956   0.085   2.543 -0.0751 -0.2681 -0.1552
 2015TIP3    H1 6002   2.005   0.086   2.625 -0.5325 -0.0943  0.1173
 2015TIP3    H2 6003   1.989   0.161   2.494 -1.0479  0.6602  0.6069
 2016TIP3   OH2 6004   4.062   0.275   2.866 -0.1232 -0.0599 -0.3051
 2016TIP3    H1 6005   4.023   0.334   2.801 -0.9523 -1.1422 -0.7970
 2016TIP3    H2 6006   4.130   0.228   2.818  0.0249 -0.0446 -0.1088
 2017TIP3   OH2 6007   1.145   6.525   3.811  0.8173  0.0264 -0.0425
 2017TIP3    H1 6008   1.098   6.504   3.891 -0.2032 -2.2243 -1.2076
 2017TIP3    H2 6009   1.232   6.487   3.823  0.8396  0.1592  0.2147
 2018TIP3   OH2 6010   5.620   3.231   2.937 -0.4847  0.1088 -0.3760
 2018TIP3    H1 6011   5.524   3.232   2.935 -0.4920 -1.2046 -1.9972
 2018TIP3    H2 6012   5.646   3.279   2.858  0.1751 -1.0991 -0.9029
 2019TIP3   OH2 6013   2.398   6.315   5.381 -0.1918 -0.2617  0.0693
 2019TIP3    H1 6014   2.483   6.284   5.411  0.2067  0.3386 -0.4460
 2019TIP3    H2 6015   2.336   6.284   5.448  0.7121  1.3060  1.6475
 2020TIP3   OH2 6016   0.930   7.823   3.485  0.1741  0.0884 -0.0635
 2020TIP3    H1 6017   0.904   7.790   3.399 -1.3535  0.5340  0.2164
 2020TIP3    H2 6018   1.008   7.877   3.467 -1.2761  1.7971 -1.4588
 2021TIP3   OH2 6019   8.160   7.527   3.544 -0.3023  0.0988 -0.1702
 2021TIP3    H1 6020   8.170   7.606   3.491 -0.8497  0.8199  0.7848
 2021TIP3    H2 6021   8.236   7.474   3.522  1.5451  2.0933  1.2029
 2022TIP3   OH2 6022   8.268   3.142   5.803 -0.3410  0.3145 -0.3339
 2022TIP3    H1 6023   8.299   3.190   5.880 -2.3349  0.6107  0.2995
 2022TIP3    H2 6024   8.334   3.074   5.789 -1.4937 -1.6653  3.4543
 2023TIP3   OH2 6025   5.722   2.696   2.420 -0.1386 -0.2434 -0.4278
 2023TIP3    H1 6026   5.691   2.740   2.499 -0.4789 -1.6331  0.2158
 2023TIP3    H2 6027   5.803   2.652   2.447 -0.1314 -0.5343 -0.9147
 2024TIP3   OH2 6028   3.872   0.032   2.245  0.2827  0.0596 -0.2047
 2024TIP3    H1 6029   3.935   0.027   2.318  1.2189  0.1233 -1.0003
 2024TIP3    H2 6030   3.794   0.070   2.284  0.2698 -1.2917  1.1174
 2025TIP3   OH2 6031   4.227   0.696   3.362 -0.1911  0.5725  0.0748
 2025TIP3    H1 6032   4.185   0.765   3.312 -1.3730 -0.1438  0.0406
 2025TIP3    H2 6033   4.242   0.625   3.299 -0.8699  0.0143  0.5226
 2026TIP3   OH2 6034   3.528   7.749   2.937  0.2971  0.3532 -0.5448
 2026TIP3    H1 6035   3.525   7.836   2.976  0.8805  0.4334 -0.6804
 2026TIP3    H2 6036   3.477   7.694   2.997  0.5625  0.6302 -0.0647
 2027TIP3   OH2 6037   2.204   6.834   1.245 -0.0387 -0.1398  0.2773
 2027TIP3    H1 6038   2.288   6.868   1.276 -1.2617  2.6228  0.7142
 2027TIP3    H2 6039   2.173   6.779   1.316  0.4539  0.5073  1.0053
 2028TIP3   OH2 6040   4.135   0.948   0.541  0.3607  0.0334  0.3179
 2028TIP3    H1 6041   4.172   0.861   0.532 -0.2422 -0.0472 -1.4554
 2028TIP3    H2 6042   4.058   0.948   0.485 -0.8018  1.0710  1.8613
 2029TIP3   OH2 6043   1.056   0.665   3.677 -0.2903 -0.0022 -0.1420
 2029TIP3    H1 6044   1.080   0.584   3.721 -0.2737  0.0335 -0.0856
 2029TIP3    H2 6045   0.960   0.663   3.672 -0.3131  0.1715  0.2318
 2030TIP3   OH2 6046   2.316   5.119   4.457  0.2653  0.2799  0.1995
 2030TIP3    H1 6047   2.329   5.073   4.374 -0.1711  0.3168  0.1087
 2030TIP3    H2 6048   2.280   5.204   4.432 -1.4190 -0.3248  0.5161
 2031TIP3   OH2 6049   3.178   0.928   1.990  0.1113  0.3612 -0.1351
 2031TIP3    H1 6050   3.175   0.986   1.914  0.2725 -0.2029 -0.5831
 2031TIP3    H2 6051   3.100   0.873   1.981  0.0460  0.4027  0.1916
 2032TIP3   OH2 6052   8.162   0.726   2.844 -0.6657 -0.1246 -0.5624
 2032TIP3    H1 6053   8.166   0.750   2.752  1.9299 -0.1577 -0.4807
 2032TIP3    H2 6054   8.246   0.754   2.880 -1.8046  0.3035  1.9060
 2033TIP3   OH2 6055   5.579   0.376   3.871  0.2692  0.2531 -0.2839
 2033TIP3    H1 6056   5.622   0.325   3.802 -0.4725 -0.2248 -0.3895
 2033TIP3    H2 6057   5.570   0.463   3.834  2.4911  0.7664  0.2727
 2034TIP3   OH2 6058   3.613   1.186   3.221  0.1037 -0.2926  0.1891
 2034TIP3    H1 6059   3.653   1.111   3.176 -0.4522 -0.1259 -0.6017
 2034TIP3    H2 6060   3.530   1.151   3.255 -1.6783  0.7038 -2.8732
 2035TIP3   OH2 6061   1.305   6.805   4.990  0.0701 -0.2461  0.2985
 2035TIP3    H1 6062   1.369   6.755   5.041  0.0253  0.0537  0.6481
 2035TIP3    H2 6063   1.236   6.826   5.052 -0.2747 -0.3910 -0.0310
 2036TIP3   OH2 6064   5.043   1.790   1.051 -0.0755  0.0334  0.5192
 2036TIP3    H1 6065   4.999   1.874   1.034 -1.7969 -1.2169 -1.4560
 2036TIP3    H2 6066   4.972   1.732   1.079  0.5066 -1.6694 -1.4159
 2037TIP3   OH2 6067   1.954   7.609   2.235  0.0954 -0.4221  0.0401
 2037TIP3    H1 6068   2.007   7.555   2.293 -0.1257  0.3486  0.9836
 2037TIP3    H2 6069   1.873   7.624   2.284 -0.1018  0.2206 -0.4700
 2038TIP3   OH2 6070   7.275   7.608   3.137 -0.0371  0.3354 -0.9803
 2038TIP3    H1 6071   7.324   7.561   3.205  0.9760 -0.7814 -2.4679
 2038TIP3    H2 6072   7.259   7.694   3.176  0.8096 -0.1648  0.5585
 2039TIP3   OH2 6073   2.344   7.535   0.370 -0.0655  0.1705  0.6086
 2039TIP3    H1 6074   2.304   7.473   0.308  0.9119  0.1836 -0.0560
 2039TIP3    H2 6075   2.284   7.537   0.444  0.6155 -2.7821  1.3482
 2040TIP3   OH2 6076   3.097   0.887   4.456 -0.1061 -0.3570 -0.7856
 2040TIP3    H1 6077   3.013   0.893   4.409 -0.9875 -2.5948  0.4366
 2040TIP3    H2 6078   3.074   0.849   4.541  2.1070 -0.6449 -0.2968
 2041TIP3   OH2 6079   4.583   1.186   3.369 -0.3152  0.0609 -0.1068
 2041TIP3    H1 6080   4.570   1.110   3.426  1.1013 -1.8615 -2.2892
 2041TIP3    H2 6081   4.495   1.204   3.334 -0.5595 -0.8647  0.0234
 2042TIP3   OH2 6082   5.696   0.397   0.527 -0.1655  0.0064  0.4112
 2042TIP3    H1 6083   5.774   0.359   0.567  0.1751  1.7072  1.4125
 2042TIP3    H2 6084   5.628   0.386   0.593 -0.1327  0.8732  0.5910
 2043TIP3   OH2 6085   5.699   0.781   2.069  0.4525 -0.2377 -0.0533
 2043TIP3    H1 6086   5.748   0.776   2.151 -0.3452 -0.0917  0.4411
 2043TIP3    H2 6087   5.745   0.722   2.010  1.7147  0.5449  0.1324
 2044TIP3   OH2 6088   5.581   1.346   2.764  0.1150 -0.0855  0.2504
 2044TIP3    H1 6089   5.508   1.388   2.810  0.3303 -0.3480  0.8401
 2044TIP3    H2 6090   5.599   1.268   2.816  0.2802 -0.4529 -0.3549
 2045TIP3   OH2 6091   4.491   1.207   1.125 -0.4737 -0.3772  0.1613
 2045TIP3    H1 6092   4.539   1.124   1.121  0.0064 -0.0953  0.1419
 2045TIP3    H2 6093   4.519   1.255   1.047  0.8240  0.6814  1.2765
 2046TIP3   OH2 6094   0.794   6.513   1.987  0.2302 -0.2207 -0.3060
 2046TIP3    H1 6095   0.720   6.535   1.930  0.7521  0.3682 -0.7654
 2046TIP3    H2 6096   0.863   6.486   1.926  1.1917  1.5777 -0.0389
 2047TIP3   OH2 6097   1.296   7.389   2.282  0.4915  0.4555 -0.8151
 2047TIP3    H1 6098   1.334   7.362   2.198  0.3805 -1.6377 -0.2144
 2047TIP3    H2 6099   1.313   7.483   2.286  3.6381 -0.0199 -1.5974
 2048TIP3   OH2 6100   2.601   0.817   0.480  0.0142 -0.1502 -0.2652
 2048TIP3    H1 6101   2.608   0.908   0.453  1.8570 -0.2006 -0.0432
 2048TIP3    H2 6102   2.542   0.819   0.556 -1.4177  0.5974 -1.3752
 2049TIP3   OH2 6103   0.981   7.490   2.346 -0.2559 -0.2483  0.3165
 2049TIP3    H1 6104   0.943   7.577   2.338 -1.2769 -0.7367 -0.3272
 2049TIP3    H2 6105   1.067   7.496   2.304  0.0707  0.6725  1.1024
 2050TIP3   OH2 6106   0.976   7.409   1.320 -0.0563 -0.6098  0.2973
 2050TIP3    H1 6107   0.991   7.445   1.233  1.9334 -3.6707 -0.7388
 2050TIP3    H2 6108   0.893   7.361   1.313 -0.5981  0.3059  0.4817
 2051TIP3   OH2 6109   3.362   0.488   3.700  0.2711  0.4065 -0.7756
 2051TIP3    H1 6110   3.284   0.433   3.692 -0.2685  1.3696 -2.2429
 2051TIP3    H2 6111   3.375   0.525   3.613  1.1888  1.8455 -0.0477
 2052TIP3   OH2 6112   0.188   7.364   2.304  0.0418  0.0112 -0.3282
 2052TIP3    H1 6113   0.174   7.273   2.329 -0.1617  0.3926  0.9556
 2052TIP3    H2 6114   0.148   7.415   2.374  1.6703  1.1031 -0.1572
 2053TIP3   OH2 6115   2.675   1.707   3.151 -0.6268  0.2035  0.1308
 2053TIP3    H1 6116   2.607   1.749   3.098 -0.5755 -0.5044 -0.4920
 2053TIP3    H2 6117   2.659   1.739   3.240 -1.9004 -0.1308  0.0260
 2054TIP3   OH2 6118   3.769   0.138   2.658 -0.3404 -0.4502 -0.2118
 2054TIP3    H1 6119   3.854   0.110   2.693  1.3397  2.0044 -2.1041
 2054TIP3    H2 6120   3.717   0.158   2.736  1.8282  0.7335  1.0037
 2055TIP3   OH2 6121   6.561   0.970   2.560 -0.3130  0.1737  0.4570
 2055TIP3    H1 6122   6.620   0.959   2.635 -1.6878  0.0862  1.5494
 2055TIP3    H2 6123   6.503   0.894   2.563 -1.1501  0.7811  0.0279
 2056TIP3   OH2 6124   5.007   3.820   5.634 -0.3588 -0.2653  0.1353
 2056TIP3    H1 6125   5.055   3.737   5.640  1.8219  0.9491  0.0139
 2056TIP3    H2 6126   4.963   3.815   5.549  0.9688 -0.6971 -0.5519
 2057TIP3   OH2 6127   3.312   0.333   3.285  0.0067  0.0786 -0.0669
 2057TIP3    H1 6128   3.225   0.296   3.299 -0.3465  0.8093 -0.3325
 2057TIP3    H2 6129   3.372   0.268   3.323 -0.7445  0.4855  1.8293
 2058TIP3   OH2 6130   5.328   0.140   2.513  0.0922  0.0826 -0.5919
 2058TIP3    H1 6131   5.261   0.121   2.447  0.6743 -0.9865 -0.8844
 2058TIP3    H2 6132   5.411   0.133   2.466  0.4131  1.7209 -0.3036
 2059TIP3   OH2 6133   6.352   0.865   3.040  0.3960  1.0130  0.4335
 2059TIP3    H1 6134   6.445   0.889   3.050 -0.1819  3.3804  0.2835
 2059TIP3    H2 6135   6.313   0.885   3.125 -0.0386  0.2160  0.4289
 2060TIP3   OH2 6136   5.514   0.111   6.120  0.1416  0.3489  0.2681
 2060TIP3    H1 6137   5.438   0.079   6.168 -0.1709 -0.0440 -0.4886
 2060TIP3    H2 6138   5.510   0.068   6.035  0.9364  0.7039  0.0377
 2061TIP3   OH2 6139   5.339   3.342   3.185 -0.3179 -0.7819 -0.1522
 2061TIP3    H1 6140   5.253   3.300   3.180 -1.6842  1.8241  0.5930
 2061TIP3    H2 6141   5.344   3.396   3.106  0.7467 -1.1007 -0.3060
 2062TIP3   OH2 6142   1.174   2.439   4.251  0.0809  0.4837  0.0364
 2062TIP3    H1 6143   1.248   2.382   4.271  1.5594  2.0207 -0.8955
 2062TIP3    H2 6144   1.158   2.425   4.157 -0.2570  0.7667  0.0527
 2063TIP3   OH2 6145   1.202   7.214   1.356 -0.5917  0.0996  0.7739
 2063TIP3    H1 6146   1.195   7.157   1.280  2.1496  1.3385 -0.4795
 2063TIP3    H2 6147   1.130   7.275   1.348  0.1664  0.7549 -1.3370
 2064TIP3   OH2 6148   5.461   0.226   3.614  0.2979  0.6271  0.0447
 2064TIP3    H1 6149   5.410   0.247   3.692 -1.3219  0.7613 -1.0328
 2064TIP3    H2 6150   5.430   0.140   3.588 -0.0939  1.1495 -1.2126
 2065TIP3   OH2 6151   4.922   1.155   4.475  0.2566  0.7868  0.5776
 2065TIP3    H1 6152   4.947   1.246   4.458 -1.3623  1.1914  0.3115
 2065TIP3    H2 6153   4.960   1.136   4.561 -0.2505  2.0439  1.0854
 2066TIP3   OH2 6154   0.829   7.667   5.027  0.1582 -0.1224  0.3036
 2066TIP3    H1 6155   0.806   7.574   5.041  2.5406 -0.7323  0.2544
 2066TIP3    H2 6156   0.762   7.715   5.077 -0.5857 -1.8815  1.0558
 2067TIP3   OH2 6157   5.854   1.561   1.840  0.4009  0.4821 -0.3753
 2067TIP3    H1 6158   5.889   1.480   1.877  2.6859  2.0508  1.0224
 2067TIP3    H2 6159   5.761   1.559   1.863  0.1132 -2.3675 -1.5576
 2068TIP3   OH2 6160   0.806   6.781   5.685  0.6841 -0.1914  0.4170
 2068TIP3    H1 6161   0.811   6.685   5.687  2.2996 -0.0918  3.3361
 2068TIP3    H2 6162   0.749   6.804   5.758  0.5223  1.1231 -0.1068
 2069TIP3   OH2 6163   0.682   7.609   3.696 -0.7186 -0.2110  0.0681
 2069TIP3    H1 6164   0.704   7.615   3.789  1.1191  0.5826 -0.4021
 2069TIP3    H2 6165   0.666   7.699   3.670  1.0138 -0.1678 -0.9008
 2070TIP3   OH2 6166   4.730   0.883   0.281  0.0414 -0.2814  0.6192
 2070TIP3    H1 6167   4.790   0.844   0.217 -0.0018 -0.6485  0.8011
 2070TIP3    H2 6168   4.785   0.940   0.334  0.1163 -0.1387  0.3923
 2071TIP3   OH2 6169   6.065   0.844   1.984 -0.2018 -0.4020 -0.0796
 2071TIP3    H1 6170   6.053   0.761   2.031  0.3106  0.6299  1.9709
 2071TIP3    H2 6171   6.119   0.897   2.043 -0.4465  1.3583 -1.3931
 2072TIP3   OH2 6172   5.383   1.343   5.844  0.0186 -0.5024  0.7377
 2072TIP3    H1 6173   5.403   1.250   5.836  0.8963 -0.2115 -0.6219
 2072TIP3    H2 6174   5.332   1.363   5.765 -2.6199 -0.4269  2.3924
 2073TIP3   OH2 6175   6.726   1.537   4.017 -0.0490 -0.2137  0.5244
 2073TIP3    H1 6176   6.687   1.555   4.103  0.9417  1.3670  0.6580
 2073TIP3    H2 6177   6.743   1.442   4.018 -2.0602 -0.5782  1.2112
 2074TIP3   OH2 6178   7.837   7.316   1.794  0.1791 -0.3292 -0.4538
 2074TIP3    H1 6179   7.825   7.227   1.762  2.8321 -1.3418  1.2463
 2074TIP3    H2 6180   7.780   7.322   1.871  0.6091 -0.8382 -0.0933
 2075TIP3   OH2 6181   2.264   7.722   2.497 -0.4847 -0.1309  0.1098
 2075TIP3    H1 6182   2.300   7.759   2.416 -1.3596 -0.6392 -0.5210
 2075TIP3    H2 6183   2.169   7.723   2.484 -0.6814  0.6972  1.5349
 2076TIP3   OH2 6184   4.525   0.671   6.196  0.1447 -0.4336 -0.0425
 2076TIP3    H1 6185   4.490   0.759   6.205  1.3014  0.3733 -2.8189
 2076TIP3    H2 6186   4.553   0.665   6.105  0.7442 -3.4400  0.2635
 2077TIP3   OH2 6187   5.655   0.496   2.375 -0.7113  0.4408  0.7093
 2077TIP3    H1 6188   5.577   0.536   2.337  0.3205  2.2170  0.4170
 2077TIP3    H2 6189   5.644   0.402   2.361 -1.4322  0.9005 -1.8904
 2078TIP3   OH2 6190   2.625   0.550   3.973 -0.4338  1.0230  0.3812
 2078TIP3    H1 6191   2.649   0.629   4.021 -1.1183 -0.2655  2.9204
 2078TIP3    H2 6192   2.704   0.495   3.975 -0.3780  1.0796 -0.2069
 2079TIP3   OH2 6193   4.855   0.084   1.955  0.0050  0.1339 -0.1712
 2079TIP3    H1 6194   4.865   0.142   2.031  0.8483  0.7947 -0.7768
 2079TIP3    H2 6195   4.864   0.142   1.880 -1.8977 -0.3403 -0.7944
 2080TIP3   OH2 6196   1.299   2.326   1.231  0.0911  0.1339  0.0517
 2080TIP3    H1 6197   1.318   2.420   1.241 -1.4266  0.5188 -0.6642
 2080TIP3    H2 6198   1.232   2.321   1.163  1.7545 -1.6497 -1.5161
 2081TIP3   OH2 6199   6.750   0.707   2.285  0.3323 -0.4454  0.4718
 2081TIP3    H1 6200   6.741   0.725   2.379 -1.3046 -0.8886  0.4320
 2081TIP3    H2 6201   6.837   0.669   2.275  1.7944  2.5396  1.3200
 2082TIP3   OH2 6202   4.411   1.141   2.787  0.1163 -0.1207 -0.6101
 2082TIP3    H1 6203   4.420   1.226   2.743 -1.8341 -0.4183 -1.6537
 2082TIP3    H2 6204   4.360   1.160   2.866  1.6206  0.0274  0.3487
 2083TIP3   OH2 6205   5.368   0.341   4.292 -0.5842  0.4826 -0.7416
 2083TIP3    H1 6206   5.387   0.382   4.377 -1.4624 -0.1926 -0.2073
 2083TIP3    H2 6207   5.339   0.413   4.236 -1.3592  0.7237 -0.0414
 2084TIP3   OH2 6208   2.817   0.358   1.083  0.2955  0.4576 -0.4768
 2084TIP3    H1 6209   2.727   0.390   1.087  0.6446  1.6533 -1.6301
 2084TIP3    H2 6210   2.826   0.322   0.995  0.3708 -1.4675  0.3082
 2085TIP3   OH2 6211   5.560   1.053   3.696  0.2678  0.1188 -0.3201
 2085TIP3    H1 6212   5.471   1.072   3.663  1.3163  0.6353 -3.0312
 2085TIP3    H2 6213   5.615   1.120   3.654  2.1592 -1.1402  0.1146
 2086TIP3   OH2 6214   7.931   0.280   4.504  0.1101  0.2772 -0.0280
 2086TIP3    H1 6215   7.940   0.231   4.586  1.1582 -0.5046 -0.5951
 2086TIP3    H2 6216   7.893   0.218   4.442 -0.4233  0.7824 -0.2103
 2087TIP3   OH2 6217   3.425   1.127   2.391 -0.2788 -1.2416  0.1606
 2087TIP3    H1 6218   3.401   1.084   2.309  0.0543 -1.4494  0.1710
 2087TIP3    H2 6219   3.520   1.140   2.385 -0.8455  2.9020 -1.4524
 2088TIP3   OH2 6220   5.581   2.053   2.719  0.0801  0.4278  0.6472
 2088TIP3    H1 6221   5.627   2.035   2.637 -0.6623  0.7470  0.1454
 2088TIP3    H2 6222   5.526   1.975   2.733  1.2893 -0.2574  1.6136
 2089TIP3   OH2 6223   4.889   0.539   3.338  0.3814  0.3792 -0.1220
 2089TIP3    H1 6224   4.806   0.585   3.341  1.3498  2.1024  0.6526
 2089TIP3    H2 6225   4.873   0.464   3.281 -1.4165  1.2489 -0.7783
 2090TIP3   OH2 6226   2.937   8.002   2.347  0.0508 -0.4905  0.1040
 2090TIP3    H1 6227   2.907   7.929   2.401 -0.7981  0.2319  0.6151
 2090TIP3    H2 6228   2.912   7.977   2.257  1.8530 -1.8920 -0.0521
 2091TIP3   OH2 6229   3.092   0.200   1.742  0.4466 -0.0485 -0.2910
 2091TIP3    H1 6230   3.065   0.230   1.828  2.2453  0.5251  0.1008
 2091TIP3    H2 6231   3.029   0.240   1.681 -0.9569 -0.6417  0.7633
 2092TIP3   OH2 6232   5.562   1.377   2.300  0.1627  0.3374  0.3483
 2092TIP3    H1 6233   5.495   1.344   2.240  1.1965 -0.7937 -0.1919
 2092TIP3    H2 6234   5.600   1.298   2.339  1.1910  0.9733  0.6445
 2093TIP3   OH2 6235   7.983   4.488   1.218  0.4536 -0.1246  0.3976
 2093TIP3    H1 6236   8.030   4.565   1.251 -0.9976  0.1488  1.9297
 2093TIP3    H2 6237   7.978   4.429   1.293 -0.3544 -0.7660 -0.1521
 2094TIP3   OH2 6238   6.603   0.670   1.662  0.2280 -0.2338  0.4575
 2094TIP3    H1 6239   6.617   0.653   1.569 -0.7040 -1.2037  0.4823
 2094TIP3    H2 6240   6.566   0.759   1.665  0.7759  0.0159 -0.0472
 2095TIP3   OH2 6241   3.150   7.376   3.905 -0.4645  0.3150  0.2252
 2095TIP3    H1 6242   3.069   7.412   3.868 -0.5596 -1.2540 -1.1736
 2095TIP3    H2 6243   3.192   7.332   3.831  3.0506  3.3724  0.2881
 2096TIP3   OH2 6244   6.562   0.954   3.414 -0.0468  0.0167 -1.0118
 2096TIP3    H1 6245   6.580   1.039   3.454 -0.7193 -0.5559  0.5144
 2096TIP3    H2 6246   6.480   0.925   3.454 -1.7673  0.2677 -4.1337
 2097TIP3   OH2 6247   1.332   7.797   2.783 -0.1612  0.0363 -0.6501
 2097TIP3    H1 6248   1.249   7.776   2.739 -0.7723  0.0328  0.4935
 2097TIP3    H2 6249   1.347   7.722   2.840 -0.2724  0.8480  0.4521
 2098TIP3   OH2 6250   2.400   1.459   6.186 -0.4118  0.1052 -0.5690
 2098TIP3    H1 6251   2.304   1.465   6.182 -0.3924  1.1062  0.2723
 2098TIP3    H2 6252   2.428   1.475   6.096 -1.0147  0.2654 -0.7349
 2099TIP3   OH2 6253   3.864   1.887   2.099 -0.2895  0.2172  0.0679
 2099TIP3    H1 6254   3.872   1.815   2.035 -0.9871  0.1943 -0.0008
 2099TIP3    H2 6255   3.781   1.930   2.076 -0.5616  0.1912  0.9718
 2100TIP3   OH2 6256   4.827   0.786   4.935  0.4820  0.9111 -0.1276
 2100TIP3    H1 6257   4.823   0.715   4.871 -0.5249  2.0383 -1.3472
 2100TIP3    H2 6258   4.896   0.844   4.902 -2.0277  3.0317 -1.8846
 2101TIP3   OH2 6259   3.429   1.896   4.252  0.4911 -0.0081 -0.1197
 2101TIP3    H1 6260   3.492   1.844   4.302  0.3854 -1.2755 -1.2736
 2101TIP3    H2 6261   3.390   1.955   4.317 -0.2944 -2.2396  1.4971
 2102TIP3   OH2 6262   4.629   1.116   1.475 -0.1948 -0.4569  0.6995
 2102TIP3    H1 6263   4.537   1.094   1.462 -0.2117 -0.8987  1.5473
 2102TIP3    H2 6264   4.627   1.198   1.525 -0.1291 -0.3487  0.5238
 2103TIP3   OH2 6265   6.000   0.360   2.016  0.4607  0.0521 -0.1940
 2103TIP3    H1 6266   6.022   0.295   2.082  0.1035 -1.6227 -1.6734
 2103TIP3    H2 6267   5.913   0.335   1.986  0.8833  0.3783 -1.7579
 2104TIP3   OH2 6268   3.662   0.975   2.849  0.0836  0.2422 -0.4580
 2104TIP3    H1 6269   3.666   1.070   2.837 -0.0027  0.0107 -2.4431
 2104TIP3    H2 6270   3.586   0.946   2.799  0.5472 -0.9736 -0.4940
 2105TIP3   OH2 6271   2.524   7.486   2.080 -0.4920 -0.4344 -0.2049
 2105TIP3    H1 6272   2.501   7.428   2.008 -0.5156 -0.9023  0.1757
 2105TIP3    H2 6273   2.453   7.549   2.084 -1.0006 -1.0128  0.0507
 2106TIP3   OH2 6274   6.386   0.956   1.634 -0.4135 -0.2654 -0.0569
 2106TIP3    H1 6275   6.375   0.960   1.729 -1.5704 -0.1202 -0.1829
 2106TIP3    H2 6276   6.450   1.023   1.614 -0.1279 -0.3271  0.6324
 2107TIP3   OH2 6277   7.786   1.685   4.748 -0.4096  0.8524 -0.1492
 2107TIP3    H1 6278   7.807   1.778   4.755 -1.8553  1.0631  1.7005
 2107TIP3    H2 6279   7.691   1.682   4.744 -0.4309 -0.5971  0.8977
 2108TIP3   OH2 6280   6.028   1.960   2.690 -0.4080 -0.4459 -0.1520
 2108TIP3    H1 6281   5.973   2.038   2.683  0.6926  0.4408  0.8767
 2108TIP3    H2 6282   6.112   1.987   2.653  0.8800 -0.2344  2.8089
 2109TIP3   OH2 6283   1.361   0.274   5.347 -0.2008 -0.1522 -0.1124
 2109TIP3    H1 6284   1.290   0.223   5.307  1.4630 -1.4846 -1.4495
 2109TIP3    H2 6285   1.436   0.215   5.348  1.8140  2.2596 -1.7579
 2110TIP3   OH2 6286   0.359   6.039   4.438 -0.0514 -0.4693 -0.0372
 2110TIP3    H1 6287   0.375   6.125   4.478 -1.3312  0.7882 -2.1232
 2110TIP3    H2 6288   0.429   6.029   4.374 -1.1649  0.0490 -1.3623
 2111TIP3   OH2 6289   5.204   2.057   2.849 -0.0610 -0.7123  0.2097
 2111TIP3    H1 6290   5.164   2.119   2.788  0.2064 -0.3105  0.4422
 2111TIP3    H2 6291   5.258   2.111   2.906  1.4231 -1.3306 -0.5752
 2112TIP3   OH2 6292   4.107   0.775   1.714  0.0684 -0.2725 -0.5061
 2112TIP3    H1 6293   4.164   0.760   1.790  0.2347  0.9513 -0.3733
 2112TIP3    H2 6294   4.040   0.708   1.720  0.0904 -0.1943  0.7209
 2113TIP3   OH2 6295   1.738   7.901   1.674  0.8279  0.3687 -0.1729
 2113TIP3    H1 6296   1.717   7.959   1.601  2.6931 -0.6615 -1.5976
 2113TIP3    H2 6297   1.682   7.824   1.661  0.8472  0.3733 -0.2929
 2114TIP3   OH2 6298   6.419   0.073   1.995  0.3244 -0.2062  0.3110
 2114TIP3    H1 6299   6.426   0.168   1.982  0.2684 -0.1560  0.6665
 2114TIP3    H2 6300   6.362   0.044   1.924 -0.1974  0.1164  0.5960
 2115TIP3   OH2 6301   2.129   7.412   5.004  0.3654  0.0902  0.0905
 2115TIP3    H1 6302   2.118   7.424   4.910 -0.6996 -1.9753 -0.0682
 2115TIP3    H2 6303   2.211   7.457   5.025  0.7807  0.2687 -1.8726
 2116TIP3   OH2 6304   7.608   0.650   2.852  0.2977 -0.6320  0.7388
 2116TIP3    H1 6305   7.683   0.674   2.797  0.2803  0.2949  1.1155
 2116TIP3    H2 6306   7.588   0.560   2.827  0.7812 -0.4777 -0.2225
 2117TIP3   OH2 6307   4.278   6.950   3.725 -0.4069 -0.5843  0.2894
 2117TIP3    H1 6308   4.215   6.998   3.779  0.0136 -0.1258  0.3770
 2117TIP3    H2 6309   4.325   7.018   3.677 -0.1899 -0.9435 -0.0136
 2118TIP3   OH2 6310   4.235   7.420   2.304 -0.6684 -0.5390  0.0921
 2118TIP3    H1 6311   4.183   7.425   2.224 -1.1788 -0.1501  0.4479
 2118TIP3    H2 6312   4.259   7.328   2.312 -1.4333 -0.7463  0.0112
 2119TIP3   OH2 6313   0.404   2.305   2.264  0.4640  0.5039  0.4749
 2119TIP3    H1 6314   0.415   2.264   2.179  1.5647 -0.1097  0.8958
 2119TIP3    H2 6315   0.416   2.233   2.327 -0.2267  0.9661  1.1537
 2120TIP3   OH2 6316   5.318   0.758   1.169  0.6529 -0.0051 -0.1919
 2120TIP3    H1 6317   5.256   0.728   1.235  0.7801  1.1698  0.4879
 2120TIP3    H2 6318   5.367   0.828   1.212  0.4096  1.1097 -1.6779
 2121TIP3   OH2 6319   2.174   7.295   2.180  0.2305  0.3830  0.7028
 2121TIP3    H1 6320   2.185   7.350   2.259  1.2232 -1.1538  1.6739
 2121TIP3    H2 6321   2.261   7.296   2.139  0.2969 -0.5808  0.8151
 2122TIP3   OH2 6322   3.405   7.430   3.404  0.1687  0.0719 -0.1861
 2122TIP3    H1 6323   3.460   7.461   3.333 -0.1550  0.1532 -0.4028
 2122TIP3    H2 6324   3.383   7.340   3.380  0.4608 -0.0633  0.0526
 2123TIP3   OH2 6325   2.950   7.202   3.236  0.3543 -0.1039  0.7800
 2123TIP3    H1 6326   2.882   7.233   3.297 -1.1474 -0.1037 -0.8531
 2123TIP3    H2 6327   2.965   7.277   3.178 -0.9461 -1.3039 -1.1612
 2124TIP3   OH2 6328   7.475   1.344   4.747  0.3047 -0.2526  0.0062
 2124TIP3    H1 6329   7.488   1.287   4.823  0.2277 -0.7816 -0.3810
 2124TIP3    H2 6330   7.500   1.291   4.672  0.3086  0.2482 -0.3496
 2125TIP3   OH2 6331   1.650   6.268   1.037  0.0081  0.0525  0.1890
 2125TIP3    H1 6332   1.683   6.320   0.964 -0.1788  2.0260  1.4848
 2125TIP3    H2 6333   1.559   6.250   1.015  0.0066  0.4858 -0.1624
 2126TIP3   OH2 6334   4.569   5.995   3.012  0.1412 -0.0221 -0.3874
 2126TIP3    H1 6335   4.594   6.038   3.094  1.6960 -0.2452 -0.7245
 2126TIP3    H2 6336   4.493   5.942   3.035  1.9538 -1.9009  1.5121
 2127TIP3   OH2 6337   6.935   2.160   1.666  0.3477 -0.0989  0.4056
 2127TIP3    H1 6338   7.027   2.155   1.640 -0.1807  0.6037 -1.6988
 2127TIP3    H2 6339   6.893   2.208   1.595 -1.5659 -0.0009  1.5796
 2128TIP3   OH2 6340   0.163   1.338   4.671  0.0090 -0.3873 -0.3441
 2128TIP3    H1 6341   0.079   1.332   4.717 -0.3617 -0.6285 -1.0600
 2128TIP3    H2 6342   0.155   1.416   4.617  0.6399  0.1880  0.3861
 2129TIP3   OH2 6343   2.661   7.830   3.094 -0.3005  0.4467  0.2945
 2129TIP3    H1 6344   2.700   7.882   3.164  0.7378  1.0716 -0.7186
 2129TIP3    H2 6345   2.733   7.817   3.031 -0.3784 -2.6795  0.7665
 2130TIP3   OH2 6346   7.555   1.655   2.215  0.3002 -0.0073  0.1512
 2130TIP3    H1 6347   7.512   1.591   2.157 -1.3950  2.2225 -1.1395
 2130TIP3    H2 6348   7.527   1.630   2.303 -1.3592 -0.3136 -0.4439
 2131TIP3   OH2 6349   6.163   0.499   3.949  0.5321 -0.0449 -0.1859
 2131TIP3    H1 6350   6.176   0.593   3.941 -0.2460  0.0577 -0.2722
 2131TIP3    H2 6351   6.068   0.487   3.945  0.5912 -0.7720  0.4672
 2132TIP3   OH2 6352   7.154   1.895   2.670 -0.1209  0.5306  0.1709
 2132TIP3    H1 6353   7.199   1.823   2.713 -0.4841  0.3426  0.2384
 2132TIP3    H2 6354   7.080   1.915   2.727 -0.3941  0.5255 -0.1792
 2133TIP3   OH2 6355   2.190   7.686   3.703  0.1269 -0.3958  0.3415
 2133TIP3    H1 6356   2.193   7.763   3.646  1.7451 -0.5140  0.2359
 2133TIP3    H2 6357   2.197   7.722   3.792 -0.1854 -0.3526  0.3487
 2134TIP3   OH2 6358   7.788   1.556   4.496 -0.0804  0.8015  0.5237
 2134TIP3    H1 6359   7.883   1.554   4.495 -0.1007 -0.8369 -0.4067
 2134TIP3    H2 6360   7.765   1.581   4.586  1.2249  2.2335  0.4636
 2135TIP3   OH2 6361   1.890   7.964   0.256  0.2059 -0.5807  0.5044
 2135TIP3    H1 6362   1.836   7.924   0.324 -0.0746 -0.4262  0.3745
 2135TIP3    H2 6363   1.832   7.968   0.180  0.2902 -0.0792  0.4696
 2136TIP3   OH2 6364   5.837   3.637   2.610 -0.0073 -0.3315  0.6217
 2136TIP3    H1 6365   5.796   3.574   2.668 -0.1283  0.7687  1.7533
 2136TIP3    H2 6366   5.914   3.668   2.658  0.3489 -0.0009 -0.1377
 2137TIP3   OH2 6367   8.003   0.045   3.147 -0.4085  0.6103 -0.1355
 2137TIP3    H1 6368   8.076   0.023   3.089  0.2673  2.8265 -0.1541
 2137TIP3    H2 6369   8.043   0.090   3.221 -1.6587  1.0587  0.2891
 2138TIP3   OH2 6370   5.035   7.557   2.368  0.0608  0.0254 -0.5697
 2138TIP3    H1 6371   5.049   7.505   2.446 -2.1686  0.4271  0.1512
 2138TIP3    H2 6372   5.102   7.529   2.307  1.9209 -0.2039  1.5260
 2139TIP3   OH2 6373   0.581   0.496   3.916 -0.4023 -0.2608  0.1826
 2139TIP3    H1 6374   0.628   0.486   3.998 -1.6626 -0.1357  0.9338
 2139TIP3    H2 6375   0.515   0.427   3.916  0.7697 -1.4162 -1.5758
 2140TIP3   OH2 6376   3.541   7.567   1.610  0.0061 -0.5442 -0.2224
 2140TIP3    H1 6377   3.548   7.481   1.651 -0.7157 -0.8744 -0.7847
 2140TIP3    H2 6378   3.581   7.556   1.524  0.1195 -0.2534 -0.2085
 2141TIP3   OH2 6379   7.406   0.049   2.709 -0.3069  0.2605 -0.7743
 2141TIP3    H1 6380   7.372  -0.019   2.651  0.1303  0.0827 -0.8223
 2141TIP3    H2 6381   7.347   0.123   2.696 -0.3384  0.1460 -1.2816
 2142TIP3   OH2 6382   3.960   6.980   1.121 -0.1209  0.0756  0.2827
 2142TIP3    H1 6383   3.872   6.976   1.082  0.6881 -0.6913 -1.4718
 2142TIP3    H2 6384   4.004   7.051   1.074  0.3659  0.1531  0.8560
 2143TIP3   OH2 6385   5.742   3.301   1.700  0.0369  0.6224  0.6081
 2143TIP3    H1 6386   5.790   3.360   1.758  0.0755  0.7819  0.4135
 2143TIP3    H2 6387   5.795   3.297   1.621 -0.0647  0.4803  0.5483
 2144TIP3   OH2 6388   0.065   0.399   4.354 -0.6010 -0.4449 -0.4489
 2144TIP3    H1 6389  -0.007   0.450   4.392  1.1041  0.6600  1.3950
 2144TIP3    H2 6390   0.086   0.444   4.272 -0.6146  0.4874  0.0538
 2145TIP3   OH2 6391   7.609   0.804   1.427 -0.1498 -0.3239  1.0703
 2145TIP3    H1 6392   7.554   0.853   1.366  0.9664 -0.8867 -0.4225
 2145TIP3    H2 6393   7.582   0.713   1.415  0.4318 -0.4925  1.0173
 2146TIP3   OH2 6394   5.581   0.822   4.077 -0.0483 -0.7372  0.3972
 2146TIP3    H1 6395   5.499   0.824   4.027 -1.3355 -1.1672  2.4261
 2146TIP3    H2 6396   5.623   0.905   4.057  0.0678 -1.3977 -2.3360
 2147TIP3   OH2 6397   8.316   0.023   2.092 -0.2349 -0.2909 -0.1656
 2147TIP3    H1 6398   8.410   0.043   2.095 -0.0439 -1.1825 -0.1655
 2147TIP3    H2 6399   8.296   0.016   1.999 -0.2529 -0.3289 -0.1587
 2148TIP3   OH2 6400   5.375   6.970   4.460 -0.0645  0.0627 -0.1704
 2148TIP3    H1 6401   5.421   7.026   4.397  1.6746 -2.9228 -1.6523
 2148TIP3    H2 6402   5.435   6.963   4.535  0.4795 -1.1265 -0.6992
 2149TIP3   OH2 6403   4.538   7.873   3.571 -0.2856  0.1663 -0.0597
 2149TIP3    H1 6404   4.620   7.842   3.533 -0.3928  0.9379 -0.9182
 2149TIP3    H2 6405   4.520   7.811   3.642  2.0309  1.0830  1.3953
 2150TIP3   OH2 6406   6.790   0.768   5.722 -0.0534  0.2588 -0.1636
 2150TIP3    H1 6407   6.864   0.776   5.781 -0.6136 -0.4787  0.6493
 2150TIP3    H2 6408   6.713   0.785   5.776 -0.5142  0.4653 -0.8723
 2151TIP3   OH2 6409   6.050   1.962   0.816  0.0956  1.1317  0.6414
 2151TIP3    H1 6410   6.107   2.039   0.809  2.6357 -0.6957  0.4784
 2151TIP3    H2 6411   6.107   1.889   0.793 -2.1025 -0.8802  1.4686
 2152TIP3   OH2 6412   3.055   7.338   1.427  0.9409 -0.0342 -0.5539
 2152TIP3    H1 6413   3.150   7.345   1.439  0.6777  0.9563  1.1292
 2152TIP3    H2 6414   3.029   7.267   1.487  0.4866  0.4276 -0.2037
 2153TIP3   OH2 6415   6.470   2.316   3.486  0.5280  1.0012 -0.2376
 2153TIP3    H1 6416   6.499   2.265   3.410  1.8149 -0.5088  1.2328
 2153TIP3    H2 6417   6.551   2.338   3.533 -0.3871 -0.1227  1.9577
 2154TIP3   OH2 6418   1.501   7.744   5.443 -0.2590  0.0343  0.3497
 2154TIP3    H1 6419   1.534   7.672   5.388 -2.5478 -0.1304 -0.8427
 2154TIP3    H2 6420   1.521   7.716   5.533 -1.5718 -2.3604 -0.0676
 2155TIP3   OH2 6421   7.100   1.051   3.284  0.6485 -0.2012  0.3432
 2155TIP3    H1 6422   7.013   1.088   3.300  0.4682 -0.5233  0.1200
 2155TIP3    H2 6423   7.093   1.010   3.197  0.7070 -1.1642  0.7877
 2156TIP3   OH2 6424   5.044   0.251   2.104 -0.3103 -0.4879 -0.0786
 2156TIP3    H1 6425   5.055   0.344   2.124  1.5893 -0.7559  0.2718
 2156TIP3    H2 6426   5.058   0.244   2.010  1.4880 -0.6514  0.1778
 2157TIP3   OH2 6427   6.622   1.002   3.860  0.2379  0.6228  0.4104
 2157TIP3    H1 6428   6.630   0.950   3.940 -1.4839  0.1915  0.3278
 2157TIP3    H2 6429   6.712   1.014   3.830  0.8825  0.5775  2.2692
 2158TIP3   OH2 6430   7.904   1.265   0.220  0.1411 -0.0076  0.5767
 2158TIP3    H1 6431   7.829   1.324   0.209 -0.2514 -0.1942  2.0324
 2158TIP3    H2 6432   7.897   1.202   0.148 -1.4156 -0.3410  1.0065
 2159TIP3   OH2 6433   6.194   0.939   0.760  0.1945 -0.1110 -0.3934
 2159TIP3    H1 6434   6.152   0.912   0.842 -0.9991  0.7575 -0.6997
 2159TIP3    H2 6435   6.122   0.974   0.707  1.5861  3.0442 -0.2731
 2160TIP3   OH2 6436   7.288   0.194   2.333  0.0000 -0.8963 -0.4559
 2160TIP3    H1 6437   7.295   0.245   2.413 -1.0063  0.7952 -1.4192
 2160TIP3    H2 6438   7.365   0.219   2.282 -0.2395 -0.7110 -0.7261
 2161TIP3   OH2 6439   7.665   1.132   3.437 -0.5801  0.3786  0.8067
 2161TIP3    H1 6440   7.623   1.047   3.425 -1.1302  0.4558  2.1124
 2161TIP3    H2 6441   7.646   1.156   3.528  0.7337  1.2719  0.8637
 2162TIP3   OH2 6442   5.790   0.790   5.301  0.5788  0.1574  0.1143
 2162TIP3    H1 6443   5.704   0.755   5.279  0.7986  0.1976 -0.7980
 2162TIP3    H2 6444   5.786   0.805   5.396 -1.4043  2.8437 -0.3276
 2163TIP3   OH2 6445   2.821   7.799   1.843  0.8820  0.0903  0.0830
 2163TIP3    H1 6446   2.884   7.798   1.772  1.0692 -1.9942  0.2616
 2163TIP3    H2 6447   2.811   7.708   1.868  0.3996  0.7301  2.3667
 2164TIP3   OH2 6448   3.165   7.892   1.268  0.6908  0.2202 -0.2016
 2164TIP3    H1 6449   3.247   7.875   1.221 -0.0606  0.4674 -1.6583
 2164TIP3    H2 6450   3.147   7.812   1.317  1.2651 -0.2165 -0.6994
 2165TIP3   OH2 6451   7.646   1.064   2.628 -0.4587  0.4181  0.4642
 2165TIP3    H1 6452   7.717   1.122   2.600  1.4548 -2.6895 -1.3342
 2165TIP3    H2 6453   7.661   1.052   2.722  2.9034 -2.0475 -0.2883
 2166TIP3   OH2 6454   4.776   2.215   5.316  0.1944 -0.5116 -0.0219
 2166TIP3    H1 6455   4.760   2.122   5.330 -1.2064 -0.3792 -0.5851
 2166TIP3    H2 6456   4.846   2.238   5.377 -2.9662 -0.7923  3.9401
 2167TIP3   OH2 6457   5.815   3.039   2.948 -0.2503 -0.0529  0.0126
 2167TIP3    H1 6458   5.763   3.120   2.947 -1.1971 -0.6552  0.8660
 2167TIP3    H2 6459   5.761   2.975   2.993  2.8610  0.4187  4.8472
 2168TIP3   OH2 6460   3.997   1.008   3.399  0.1155  0.3553 -0.2688
 2168TIP3    H1 6461   3.906   1.027   3.420  0.1796 -0.2082  0.5448
 2168TIP3    H2 6462   4.047   1.059   3.462  0.2936 -2.1727  1.7080
 2169TIP3   OH2 6463   3.529   6.603   2.847  0.9604  0.3024  0.5164
 2169TIP3    H1 6464   3.477   6.582   2.924  0.1115 -1.6686 -0.5530
 2169TIP3    H2 6465   3.618   6.578   2.871  0.5545 -1.1812  0.5746
 2170TIP3   OH2 6466   6.996   0.132   2.783 -0.4532  0.1554  0.2004
 2170TIP3    H1 6467   6.938   0.206   2.768  0.6982  0.6657 -1.9527
 2170TIP3    H2 6468   7.084   0.168   2.774  0.1897 -0.8559  2.1953
 2171TIP3   OH2 6469   6.047   0.787   2.594  0.2070 -0.6769  0.2939
 2171TIP3    H1 6470   6.065   0.707   2.544  0.0518 -0.4623 -0.1090
 2171TIP3    H2 6471   5.983   0.761   2.659  0.8439 -1.0944  0.7571
 2172TIP3   OH2 6472   6.780   0.048   1.519  0.6376 -0.0157  0.2910
 2172TIP3    H1 6473   6.862   0.075   1.560  1.3775  0.7358 -1.6033
 2172TIP3    H2 6474   6.782   0.091   1.433 -2.1071  0.6317  0.5252
 2173TIP3   OH2 6475   2.087   7.120   1.205  0.0501  0.4393 -0.2105
 2173TIP3    H1 6476   2.142   7.181   1.255  0.7225  1.6870 -2.4215
 2173TIP3    H2 6477   2.130   7.035   1.215 -0.3617  0.4711  2.1092
 2174TIP3   OH2 6478   5.419   7.917   4.801 -0.0152  0.3081  0.2053
 2174TIP3    H1 6479   5.512   7.935   4.806 -0.2060  1.3343  0.0903
 2174TIP3    H2 6480   5.389   7.965   4.724 -0.0648 -2.5585 -1.6226
 2175TIP3   OH2 6481   6.022   1.467   1.322 -0.2233  0.2365 -0.1680
 2175TIP3    H1 6482   5.997   1.434   1.236  0.3830  0.6928 -0.5160
 2175TIP3    H2 6483   5.972   1.548   1.333 -0.9823 -0.2817  0.2903
 2176TIP3   OH2 6484   4.542   7.848   4.339  0.4745 -0.1013  0.0389
 2176TIP3    H1 6485   4.614   7.794   4.306  0.2315  0.1475 -0.9215
 2176TIP3    H2 6486   4.544   7.927   4.285 -1.3812 -0.6855 -0.9504
 2177TIP3   OH2 6487   5.129   0.226   5.684  0.1105 -0.0788 -0.4740
 2177TIP3    H1 6488   5.107   0.181   5.602  3.5702 -1.4048 -0.7698
 2177TIP3    H2 6489   5.096   0.167   5.752  1.0965 -1.1705 -0.9100
 2178TIP3   OH2 6490   3.643   8.007   2.804  0.3542 -0.2672 -0.1991
 2178TIP3    H1 6491   3.729   8.044   2.824 -1.1915  1.8748  2.9582
 2178TIP3    H2 6492   3.659   7.914   2.791  3.0601 -0.0496  1.1607
 2179TIP3   OH2 6493   5.317   0.540   1.436  0.5384 -0.5371  0.0133
 2179TIP3    H1 6494   5.406   0.576   1.440  0.5995 -0.7294  0.4080
 2179TIP3    H2 6495   5.261   0.610   1.470  0.5025 -0.2911 -0.5534
 2180TIP3   OH2 6496   8.440   0.906   4.298 -0.6938  0.3831  0.1674
 2180TIP3    H1 6497   8.391   0.931   4.376  0.4451 -0.1564  1.0696
 2180TIP3    H2 6498   8.381   0.925   4.225 -1.9276  0.4798  1.1828
 2181TIP3   OH2 6499   5.801   2.171   4.198  0.4587  0.5828  0.1354
 2181TIP3    H1 6500   5.884   2.194   4.156  0.6515 -0.8814 -0.3240
 2181TIP3    H2 6501   5.737   2.169   4.126  0.3156  0.3490  0.2680
 2182TIP3   OH2 6502   0.795   3.625   5.842  0.3327 -0.5892  0.5771
 2182TIP3    H1 6503   0.818   3.635   5.750  0.8302 -2.0909  0.5149
 2182TIP3    H2 6504   0.717   3.680   5.853  0.9669  0.5392 -0.4399
 2183TIP3   OH2 6505   4.992   1.461   4.543  0.3053  0.4562  0.1310
 2183TIP3    H1 6506   5.050   1.515   4.595 -0.4643  0.2876  1.1971
 2183TIP3    H2 6507   4.908   1.463   4.590  0.6623 -2.8669  1.0690
 2184TIP3   OH2 6508   4.998   1.512   2.855 -0.1375  0.3953 -0.4760
 2184TIP3    H1 6509   4.975   1.507   2.762  1.8874  1.3175 -1.0460
 2184TIP3    H2 6510   5.053   1.435   2.870  0.6066  0.9499 -0.3618
 2185TIP3   OH2 6511   7.491   2.412   2.565  0.4200  0.0192  0.7787
 2185TIP3    H1 6512   7.467   2.470   2.493 -1.5484 -0.0730  1.3367
 2185TIP3    H2 6513   7.485   2.324   2.528  1.5139  0.0624  0.4748
 2186TIP3   OH2 6514   7.538   1.476   4.108  0.5158 -0.5230 -0.0831
 2186TIP3    H1 6515   7.466   1.536   4.121  0.3458 -1.4665  3.9421
 2186TIP3    H2 6516   7.617   1.529   4.120  0.4138 -0.3724 -0.0923
 2187TIP3   OH2 6517   6.252   0.504   1.686 -0.0932 -0.0074  0.3237
 2187TIP3    H1 6518   6.235   0.579   1.629  0.0219  0.5365  0.9916
 2187TIP3    H2 6519   6.347   0.493   1.683 -0.1654 -0.4747 -0.2087
 2188TIP3   OH2 6520   3.561   7.222   3.246 -0.0172 -0.1846  0.3825
 2188TIP3    H1 6521   3.540   7.149   3.305 -1.0460 -0.2980 -0.1218
 2188TIP3    H2 6522   3.657   7.221   3.241  0.1453  0.2361  2.5804
 2189TIP3   OH2 6523   8.295   3.378   3.180 -0.1159  0.6939  0.1899
 2189TIP3    H1 6524   8.311   3.295   3.226  1.7585  1.1495  0.4067
 2189TIP3    H2 6525   8.324   3.362   3.090  0.7136  1.2450  0.3494
 2190TIP3   OH2 6526   2.035   7.458   2.437 -0.3016 -0.7229 -0.3384
 2190TIP3    H1 6527   2.103   7.460   2.504  0.2020  0.2273 -0.8768
 2190TIP3    H2 6528   1.953   7.469   2.485  0.2489  2.9223 -0.1431
 2191TIP3   OH2 6529   2.787   7.971   2.081  0.0595  0.3179  0.8132
 2191TIP3    H1 6530   2.802   8.045   2.023  0.5219 -0.9555 -0.7357
 2191TIP3    H2 6531   2.793   7.894   2.024 -1.7249 -0.8422  2.1271
 2192TIP3   OH2 6532   5.675   7.680   2.587 -0.8255 -0.0569 -0.1082
 2192TIP3    H1 6533   5.671   7.624   2.665  1.6721  1.0632  0.8788
 2192TIP3    H2 6534   5.719   7.625   2.521 -0.7802 -0.1841  0.0269
 2193TIP3   OH2 6535   6.523   1.528   3.492  0.3034 -0.2718 -0.4029
 2193TIP3    H1 6536   6.612   1.500   3.471  0.2921 -0.8821  0.3512
 2193TIP3    H2 6537   6.531   1.621   3.511  0.5678 -0.0402 -1.5711
 2194TIP3   OH2 6538   4.918   1.069   2.729 -1.1890 -0.1314 -0.1856
 2194TIP3    H1 6539   4.885   1.007   2.794 -1.7383 -0.7911 -1.0787
 2194TIP3    H2 6540   4.850   1.072   2.662 -1.6702  2.2756  0.3523
 2195TIP3   OH2 6541   0.321   5.735   6.506 -0.3872 -0.2492  0.0122
 2195TIP3    H1 6542   0.370   5.775   6.578 -0.6936 -0.3736  0.2922
 2195TIP3    H2 6543   0.332   5.641   6.519  1.2773 -0.2590 -1.2950
 2196TIP3   OH2 6544   7.275   0.685   1.552  0.7249 -0.0859 -0.0426
 2196TIP3    H1 6545   7.311   0.741   1.621  1.2013 -0.5268  0.0762
 2196TIP3    H2 6546   7.236   0.612   1.600 -2.0534  1.3275 -0.0665
 2197TIP3   OH2 6547   8.228   0.073   0.385 -0.4223  0.7343 -0.1482
 2197TIP3    H1 6548   8.279  -0.002   0.355  0.1667  0.8947  0.4143
 2197TIP3    H2 6549   8.272   0.099   0.467 -1.3685  0.9200  0.3019
 2198TIP3   OH2 6550   5.126   2.215   2.644 -0.5757  0.1520  0.1686
 2198TIP3    H1 6551   5.071   2.274   2.694  0.9469  1.7563  0.0081
 2198TIP3    H2 6552   5.204   2.267   2.623  0.8241 -1.9263  0.0619
 2199TIP3   OH2 6553   7.584   0.966   2.339  0.1598  0.2171 -0.2129
 2199TIP3    H1 6554   7.573   0.947   2.246 -0.2969  0.5277 -0.2180
 2199TIP3    H2 6555   7.627   0.888   2.374  2.2486  0.9427 -1.0874
 2200TIP3   OH2 6556   1.155   4.630   5.605  0.1450 -0.9525  0.6453
 2200TIP3    H1 6557   1.203   4.662   5.682  0.3740  0.7417 -0.1689
 2200TIP3    H2 6558   1.087   4.696   5.590  0.5235 -0.9169 -0.9865
 2201TIP3   OH2 6559   5.419   1.668   1.388  0.4072  0.3899  0.2051
 2201TIP3    H1 6560   5.325   1.683   1.380  0.1664 -1.9526 -2.0450
 2201TIP3    H2 6561   5.454   1.685   1.300  1.5376 -2.1755  0.1074
 2202TIP3   OH2 6562   5.765   0.585   3.042  0.0159 -0.0460  0.5425
 2202TIP3    H1 6563   5.767   0.662   3.099  1.1288  0.6614 -0.4215
 2202TIP3    H2 6564   5.675   0.555   3.045 -0.5351  1.5580  0.6139
 2203TIP3   OH2 6565   2.592   6.720   1.214 -0.2226  0.2609  0.0758
 2203TIP3    H1 6566   2.586   6.687   1.124 -0.1530 -0.1128  0.2099
 2203TIP3    H2 6567   2.546   6.804   1.211  1.4917  1.2177 -0.7943
 2204TIP3   OH2 6568   5.870   1.220   1.735  0.1977  0.3159 -0.5236
 2204TIP3    H1 6569   5.786   1.252   1.702  0.2162  1.0787  0.1469
 2204TIP3    H2 6570   5.847   1.151   1.797  0.0674  0.3664 -0.5159
 2205TIP3   OH2 6571   8.182   2.250   0.969 -0.1286  0.1630 -0.7258
 2205TIP3    H1 6572   8.112   2.255   1.033 -1.0954 -1.6418 -1.5947
 2205TIP3    H2 6573   8.144   2.202   0.896  2.2051 -1.4689 -0.9209
 2206TIP3   OH2 6574   7.317   6.066   0.587 -0.4194 -0.4009 -0.1285
 2206TIP3    H1 6575   7.389   6.067   0.524  0.2986  2.2067  0.6548
 2206TIP3    H2 6576   7.347   6.010   0.658  1.0606  1.0299  0.4008
 2207TIP3   OH2 6577   3.127   7.568   2.502 -0.1214 -0.1158  0.2687
 2207TIP3    H1 6578   3.062   7.590   2.569 -0.2044 -1.5951  0.6843
 2207TIP3    H2 6579   3.081   7.581   2.419  0.2046  2.4415  0.4423
 2208TIP3   OH2 6580   5.272   7.005   1.746 -0.6587 -0.3020  0.9583
 2208TIP3    H1 6581   5.222   7.041   1.819 -2.0287  0.5851 -0.3655
 2208TIP3    H2 6582   5.266   6.910   1.756 -1.9554 -0.1955  1.2609
 2209TIP3   OH2 6583   7.105   0.490   4.452 -0.0245 -0.9277  0.6432
 2209TIP3    H1 6584   7.181   0.434   4.436  0.6578  0.1059  0.2397
 2209TIP3    H2 6585   7.123   0.532   4.535  0.2089 -0.0989  0.1785
 2210TIP3   OH2 6586   5.890   3.525   3.626  0.1449  0.8628 -0.3239
 2210TIP3    H1 6587   5.802   3.560   3.631 -0.6937 -1.1067 -0.9184
 2210TIP3    H2 6588   5.932   3.573   3.554 -0.9388  0.6834 -1.0728
 2211TIP3   OH2 6589   6.639   0.948   2.843 -0.2395 -0.0479 -0.8119
 2211TIP3    H1 6590   6.660   0.938   2.936 -2.0995 -2.2796 -0.6000
 2211TIP3    H2 6591   6.607   1.038   2.836  0.6588  0.4066  0.5326
 2212TIP3   OH2 6592   5.990   1.642   2.216 -0.4093  0.0375  0.3201
 2212TIP3    H1 6593   6.071   1.692   2.226 -0.6714  0.7141 -0.7942
 2212TIP3    H2 6594   5.920   1.707   2.223 -0.7755 -0.2429 -0.5400
 2213TIP3   OH2 6595   7.696   1.019   0.757 -0.0725 -0.1124  0.2314
 2213TIP3    H1 6596   7.704   0.952   0.689  0.2634  1.1595 -1.0137
 2213TIP3    H2 6597   7.649   0.976   0.828 -0.2228 -1.5414 -0.7163
 2214TIP3   OH2 6598   6.509   1.009   6.323  0.5494  0.1506  0.4835
 2214TIP3    H1 6599   6.576   1.037   6.261  0.0680  1.0285  0.3482
 2214TIP3    H2 6600   6.522   1.067   6.399 -1.1558  1.4844 -0.2286
 2215TIP3   OH2 6601   4.102   7.692   3.021 -0.3762 -0.3191  0.1089
 2215TIP3    H1 6602   4.037   7.731   2.962  0.6290 -1.1981 -1.6173
 2215TIP3    H2 6603   4.180   7.747   3.011 -1.4800  2.1568  3.9323
 2216TIP3   OH2 6604   6.039   1.897   3.862 -0.1916 -0.1693  0.0472
 2216TIP3    H1 6605   6.078   1.899   3.774 -0.3604 -0.0039 -0.0229
 2216TIP3    H2 6606   6.075   1.818   3.902  1.8523  1.0633  0.7351
 2217TIP3   OH2 6607   4.232   7.678   1.804 -0.0823 -0.5201 -0.1350
 2217TIP3    H1 6608   4.152   7.710   1.846 -2.0292 -3.5749 -1.3696
 2217TIP3    H2 6609   4.264   7.610   1.863  0.0658 -1.2270 -1.0282
 2218TIP3   OH2 6610   5.098   7.383   3.459  0.5136 -0.0634 -0.2808
 2218TIP3    H1 6611   5.165   7.340   3.512  0.1990 -0.8298 -0.4908
 2218TIP3    H2 6612   5.043   7.311   3.428  0.0462  0.4876 -0.7356
 2219TIP3   OH2 6613   3.348   7.792   1.991 -0.1864 -0.1492 -0.0138
 2219TIP3    H1 6614   3.350   7.852   1.917  2.5014  0.6536  0.6754
 2219TIP3    H2 6615   3.282   7.829   2.051  0.3853  1.2920 -0.2647
 2220TIP3   OH2 6616   5.326   6.235   3.858 -0.0812  0.1124 -0.8327
 2220TIP3    H1 6617   5.282   6.180   3.795  0.2882 -1.8083  0.5477
 2220TIP3    H2 6618   5.256   6.267   3.915 -0.4240  1.9101 -2.2238
 2221TIP3   OH2 6619   6.983   0.770   3.827  0.2215  0.3037 -0.3801
 2221TIP3    H1 6620   6.961   0.837   3.763  1.6628 -0.1262 -1.3487
 2221TIP3    H2 6621   7.079   0.764   3.824  0.0355 -3.5660 -2.2295
 2222TIP3   OH2 6622   6.041   1.010   3.252 -0.2093 -0.2840  0.0582
 2222TIP3    H1 6623   6.120   0.962   3.274  0.4896  0.3909 -0.9361
 2222TIP3    H2 6624   6.062   1.057   3.171 -0.2655  3.0994  1.9006
 2223TIP3   OH2 6625   4.707   1.752   1.986  0.2501  0.3973  0.3510
 2223TIP3    H1 6626   4.715   1.731   2.079  3.9267  2.1157  0.5071
 2223TIP3    H2 6627   4.762   1.688   1.942  0.6047  1.2202 -0.4019
 2224TIP3   OH2 6628   7.614   0.376   3.167  0.0451 -0.2205 -0.3143
 2224TIP3    H1 6629   7.647   0.463   3.145  1.4388 -0.6769 -0.0538
 2224TIP3    H2 6630   7.684   0.336   3.219 -1.3892 -0.7711  1.2563
 2225TIP3   OH2 6631   5.193   0.688   2.384 -0.3489  0.3833 -0.1722
 2225TIP3    H1 6632   5.140   0.748   2.436 -0.7773  1.4317 -1.7620
 2225TIP3    H2 6633   5.264   0.742   2.349 -0.3185 -0.1830 -1.0135
 2226TIP3   OH2 6634   4.802   7.330   2.824 -0.1464 -0.9079  0.3358
 2226TIP3    H1 6635   4.893   7.359   2.812 -0.1456 -0.9384  0.2707
 2226TIP3    H2 6636   4.764   7.394   2.884 -0.7089  0.3773 -1.3646
 2227TIP3   OH2 6637   5.425   7.912   3.665  0.0008 -0.0921  0.1670
 2227TIP3    H1 6638   5.410   7.839   3.606  1.3064 -1.1786  1.1505
 2227TIP3    H2 6639   5.427   7.873   3.752 -0.1640  1.2451  0.7939
 2228TIP3   OH2 6640   2.996   7.081   4.385 -0.3128  0.5824  0.1856
 2228TIP3    H1 6641   3.027   6.994   4.362 -0.7256  0.3050  0.6672
 2228TIP3    H2 6642   2.960   7.116   4.303  0.8826  0.7540 -0.2787
 2229TIP3   OH2 6643   4.981   0.732   1.620  0.1916  0.9177 -0.2610
 2229TIP3    H1 6644   4.948   0.822   1.619 -0.0652  0.8621  1.5597
 2229TIP3    H2 6645   4.903   0.679   1.604  0.0130  0.9497  0.4702
 2230TIP3   OH2 6646   4.868   6.380   2.108 -0.2276 -0.2469 -0.3150
 2230TIP3    H1 6647   4.905   6.374   2.197  0.9378  1.6714 -0.6431
 2230TIP3    H2 6648   4.774   6.388   2.122 -0.2189 -1.5564  0.6760
 2231TIP3   OH2 6649   5.469   3.235   1.694 -0.8661  0.3767 -0.1511
 2231TIP3    H1 6650   5.550   3.277   1.666 -0.9270  1.5561  1.3612
 2231TIP3    H2 6651   5.453   3.271   1.781 -2.5962 -0.4454 -0.1173
 2232TIP3   OH2 6652   1.875   4.239   5.113  0.7017 -0.4974 -0.7644
 2232TIP3    H1 6653   1.960   4.277   5.137 -0.5749  1.2098  1.1713
 2232TIP3    H2 6654   1.871   4.157   5.163  0.9970 -0.3467 -0.4897
 2233TIP3   OH2 6655   2.194   3.776   1.760  0.2903  0.0896 -0.0280
 2233TIP3    H1 6656   2.172   3.789   1.852 -0.0697  0.6211 -0.1849
 2233TIP3    H2 6657   2.110   3.757   1.717  0.3051  0.8837 -0.4180
 2234TIP3   OH2 6658   6.018   0.136   5.212  0.5314 -0.0410  0.2109
 2234TIP3    H1 6659   5.949   0.133   5.278  1.2084  1.1435  0.9792
 2234TIP3    H2 6660   6.022   0.228   5.187  1.3262 -0.2388 -0.3850
 2235TIP3   OH2 6661   7.190   1.183   2.096  0.8796 -0.1482  0.0444
 2235TIP3    H1 6662   7.156   1.234   2.170  1.5839  0.2209  0.1113
 2235TIP3    H2 6663   7.172   1.092   2.119  1.0498 -0.0296  0.6433
 2236TIP3   OH2 6664   6.896   0.302   4.593 -0.0331 -0.1396  0.2129
 2236TIP3    H1 6665   6.965   0.260   4.644 -0.0646  2.2520  2.3252
 2236TIP3    H2 6666   6.942   0.356   4.529  0.0643  0.6533  0.9443
 2237TIP3   OH2 6667   0.225   1.795   2.632 -0.6371  0.3980 -0.2292
 2237TIP3    H1 6668   0.276   1.777   2.711 -0.3395  0.2541 -0.4510
 2237TIP3    H2 6669   0.169   1.718   2.622 -0.5885  0.3619 -0.2240
 2238TIP3   OH2 6670   1.166   1.452   3.057  0.6049  0.3800  0.1663
 2238TIP3    H1 6671   1.198   1.416   3.140 -0.0132  1.2896  0.8110
 2238TIP3    H2 6672   1.206   1.397   2.990 -0.3057 -1.4946  1.1280
 2239TIP3   OH2 6673   8.458   0.412   3.234  0.2931  0.4177 -0.1397
 2239TIP3    H1 6674   8.422   0.472   3.169 -0.3499 -0.5377 -0.6745
 2239TIP3    H2 6675   8.551   0.436   3.240 -0.2238  2.3179  0.6189
 2240TIP3   OH2 6676   7.548   0.733   1.132  0.3214 -0.1138 -0.5420
 2240TIP3    H1 6677   7.632   0.715   1.175 -0.0240  0.5915  0.4408
 2240TIP3    H2 6678   7.511   0.646   1.115  0.9761 -0.4142 -0.4342
 2241TIP3   OH2 6679   4.444   6.967   1.978  0.1232  0.3724 -0.0729
 2241TIP3    H1 6680   4.404   6.900   2.033 -0.1013  0.5416 -0.0296
 2241TIP3    H2 6681   4.444   6.929   1.890 -0.3984  0.4875 -0.1256
 2242TIP3   OH2 6682   4.615   0.953   2.743 -0.4745 -0.1267 -0.3378
 2242TIP3    H1 6683   4.557   1.018   2.782  0.8356  1.2386 -0.6183
 2242TIP3    H2 6684   4.634   0.986   2.656  3.4670  1.3083  0.9351
 2243TIP3   OH2 6685   3.988   7.974   2.443  0.1722 -1.1328  0.0479
 2243TIP3    H1 6686   3.994   7.908   2.375 -0.5048  0.6878 -1.8391
 2243TIP3    H2 6687   4.079   7.996   2.464  0.4008 -0.5761 -1.4415
 2244TIP3   OH2 6688   6.922   0.457   1.439 -0.3419 -0.0709  0.1487
 2244TIP3    H1 6689   6.933   0.551   1.453  2.9757 -0.5172  1.0546
 2244TIP3    H2 6690   6.977   0.439   1.363 -2.0992 -1.0688 -0.9057
 2245TIP3   OH2 6691   7.339   0.847   3.400 -0.0013 -0.0713 -0.3616
 2245TIP3    H1 6692   7.333   0.784   3.472  5.2251  1.7523  1.9134
 2245TIP3    H2 6693   7.267   0.908   3.415 -0.1458 -0.8219  2.2209
 2246TIP3   OH2 6694   4.718   7.412   1.728  0.3849  0.3247  0.1336
 2246TIP3    H1 6695   4.717   7.484   1.792 -1.8898 -0.1687  0.7079
 2246TIP3    H2 6696   4.682   7.451   1.648 -1.3049 -0.2693  0.5847
 2247TIP3   OH2 6697   6.922   0.688   4.101  0.1186 -0.0244  0.0764
 2247TIP3    H1 6698   6.902   0.781   4.092  0.9501  0.1351 -0.2024
 2247TIP3    H2 6699   6.944   0.660   4.012  0.8429 -0.2494  0.3210
 2248TIP3   OH2 6700   5.494   0.143   2.760  0.3234 -0.4462  0.1111
 2248TIP3    H1 6701   5.513   0.217   2.702  1.3404 -1.0513 -0.3595
 2248TIP3    H2 6702   5.525   0.171   2.846 -1.7037  0.6723  0.4994
 2249TIP3   OH2 6703   5.748   3.793   0.334 -0.0369 -0.2433 -0.3066
 2249TIP3    H1 6704   5.744   3.739   0.413 -1.7179 -0.3607 -0.4473
 2249TIP3    H2 6705   5.770   3.881   0.366  0.8102 -0.5974  0.1152
 2250TIP3   OH2 6706   3.094   1.451   2.888 -0.3918 -0.2022 -0.5079
 2250TIP3    H1 6707   3.024   1.513   2.909 -2.4041 -1.9557 -1.8596
 2250TIP3    H2 6708   3.143   1.442   2.970 -1.9567  0.7961  0.5702
 2251TIP3   OH2 6709   7.515   1.336   3.249  0.0553  0.4719  0.8611
 2251TIP3    H1 6710   7.441   1.315   3.305 -0.1366  1.2009  0.8930
 2251TIP3    H2 6711   7.592   1.329   3.306 -0.0548  0.3775  0.9972
 2252TIP3   OH2 6712   8.452   1.978   3.993  0.3647 -0.5561  0.0235
 2252TIP3    H1 6713   8.391   2.001   3.923 -1.2180 -1.5808  1.0305
 2252TIP3    H2 6714   8.444   1.883   4.001  1.3002 -0.5680  0.8917
 2253TIP3   OH2 6715   7.133   0.484   3.719  0.2126 -0.1837  0.3377
 2253TIP3    H1 6716   7.193   0.554   3.744  0.9274 -1.7398  3.2151
 2253TIP3    H2 6717   7.065   0.527   3.668  1.9874  2.1649 -0.0867
 2254TIP3   OH2 6718   6.486   1.132   4.093 -0.1980 -0.1526  0.1862
 2254TIP3    H1 6719   6.510   1.095   4.009 -1.0746  0.3739 -0.3034
 2254TIP3    H2 6720   6.433   1.064   4.136 -0.1182 -0.2508  0.1267
 2255TIP3   OH2 6721   6.744   1.619   2.812 -0.8983 -0.2068 -0.3160
 2255TIP3    H1 6722   6.658   1.630   2.850 -0.3277 -1.2100  1.3104
 2255TIP3    H2 6723   6.803   1.612   2.887  0.3986 -1.0042 -1.3899
 2256TIP3   OH2 6724   7.433   2.674   1.794  0.3032 -0.2445  0.2235
 2256TIP3    H1 6725   7.415   2.755   1.844 -0.7828 -0.0908 -0.4092
 2256TIP3    H2 6726   7.379   2.608   1.837 -0.2220 -0.2273 -0.4007
 2257TIP3   OH2 6727   7.273   0.881   1.841 -0.1745 -0.0842  0.8522
 2257TIP3    H1 6728   7.360   0.894   1.802 -0.1465 -1.4410  0.4248
 2257TIP3    H2 6729   7.276   0.792   1.877 -1.7285 -0.5359 -0.0837
 2258TIP3   OH2 6730   5.782   0.782   2.430 -0.3154 -0.2479  0.5332
 2258TIP3    H1 6731   5.753   0.693   2.412  0.5174 -0.6112  0.9289
 2258TIP3    H2 6732   5.828   0.775   2.514  0.9742  0.2826 -0.1181
 2259TIP3   OH2 6733   5.653   0.718   5.048  0.1341 -0.0101 -0.2535
 2259TIP3    H1 6734   5.591   0.689   5.114  1.1438 -2.7715 -0.4311
 2259TIP3    H2 6735   5.632   0.810   5.033 -2.4441 -0.3143  1.2664
 2260TIP3   OH2 6736   7.591   0.959   2.884 -0.2539  0.3074 -0.0064
 2260TIP3    H1 6737   7.561   0.871   2.863 -0.2613  0.6737 -1.6071
 2260TIP3    H2 6738   7.589   0.963   2.980  0.4019 -1.6474  0.1172
 2261TIP3   OH2 6739   6.143   2.260   0.588 -0.2458 -0.5305  0.3837
 2261TIP3    H1 6740   6.223   2.271   0.537  1.3067 -1.7625  2.5119
 2261TIP3    H2 6741   6.098   2.186   0.547 -0.1200 -0.1196 -0.5300
 2262TIP3   OH2 6742   6.690   1.113   1.933 -1.2363  0.1995 -0.0476
 2262TIP3    H1 6743   6.602   1.100   1.899 -0.8509  0.3373 -1.1152
 2262TIP3    H2 6744   6.722   1.191   1.888 -0.4421 -0.0496  0.0766
 2263TIP3   OH2 6745   6.824   0.312   2.689 -0.4712 -0.1499  0.1921
 2263TIP3    H1 6746   6.785   0.399   2.675 -1.2639 -0.5102  0.1319
 2263TIP3    H2 6747   6.788   0.258   2.618 -0.8332 -0.8044  0.8767
 2264TIP3   OH2 6748   7.783   1.590   0.797  0.2135 -0.4488 -0.1127
 2264TIP3    H1 6749   7.861   1.535   0.790  0.5408 -0.2571  1.6172
 2264TIP3    H2 6750   7.722   1.538   0.850 -0.5171 -0.2620 -0.7671
 2265TIP3   OH2 6751   5.849   0.852   0.469 -0.1247 -0.0974  0.1083
 2265TIP3    H1 6752   5.908   0.867   0.396 -1.5825  1.4864 -0.7958
 2265TIP3    H2 6753   5.788   0.785   0.438  0.7685 -1.2448  0.7971
 2266TIP3   OH2 6754   7.570   0.137   4.878 -0.1358 -0.5112  0.1776
 2266TIP3    H1 6755   7.559   0.080   4.955  0.8178  0.1510  0.8151
 2266TIP3    H2 6756   7.504   0.106   4.816  0.2174 -2.1590  0.6031
 2267TIP3   OH2 6757   7.670   0.130   3.372 -0.0479 -0.4936  0.3058
 2267TIP3    H1 6758   7.604   0.069   3.405 -0.2327 -0.2758  0.3431
 2267TIP3    H2 6759   7.737   0.132   3.440 -1.7883  2.1471  2.0399
 2268TIP3   OH2 6760   6.857   0.713   0.403  0.0623 -0.2035 -0.4218
 2268TIP3    H1 6761   6.814   0.788   0.443  3.6722  1.0449  1.3853
 2268TIP3    H2 6762   6.874   0.653   0.476 -0.0910 -1.3993 -1.3480
 2269TIP3   OH2 6763   7.526   0.830   1.702  0.2151 -0.3539 -0.7275
 2269TIP3    H1 6764   7.529   0.807   1.609 -0.5855 -2.6742 -0.2238
 2269TIP3    H2 6765   7.589   0.771   1.743  0.1289  0.2473  0.2889
 2270TIP3   OH2 6766   7.510   1.512   2.977 -0.4200  0.0122  0.5940
 2270TIP3    H1 6767   7.453   1.524   3.053  0.0601 -0.1009  0.9727
 2270TIP3    H2 6768   7.578   1.452   3.007 -0.1374  0.0937  0.1242
 2271TIP3   OH2 6769   5.035   6.910   2.503 -0.1158 -0.6176  0.0644
 2271TIP3    H1 6770   5.095   6.843   2.470 -0.1291 -0.9388  0.6794
 2271TIP3    H2 6771   5.088   6.989   2.509  0.0160 -0.6828 -0.2424
 2272TIP3   OH2 6772   1.461   2.841   1.434 -0.1004 -0.0608 -0.2734
 2272TIP3    H1 6773   1.496   2.754   1.412 -0.4864  0.0092 -1.1946
 2272TIP3    H2 6774   1.511   2.868   1.510  0.8782 -0.5658 -0.7222
 2273TIP3   OH2 6775   5.965   7.669   0.719 -0.2427 -0.3297 -0.2681
 2273TIP3    H1 6776   5.956   7.663   0.814  0.0460 -1.0031 -0.2887
 2273TIP3    H2 6777   6.055   7.643   0.701 -0.0303  0.6373 -0.6522
 2274TIP3   OH2 6778   7.765   0.857   3.756 -0.4643  0.3696 -0.2847
 2274TIP3    H1 6779   7.725   0.900   3.831  0.0367  0.9182 -0.3320
 2274TIP3    H2 6780   7.713   0.886   3.681 -2.0951 -1.5764  0.0307
 2275TIP3   OH2 6781   5.272   7.766   3.490 -1.1316  0.1972 -0.4871
 2275TIP3    H1 6782   5.244   7.674   3.491 -1.0592  0.1636 -1.1184
 2275TIP3    H2 6783   5.327   7.773   3.412 -1.3012  0.8230 -0.5526
 2276TIP3   OH2 6784   3.190   3.668   6.834  0.4044  0.5181  0.2629
 2276TIP3    H1 6785   3.107   3.711   6.818  0.0500  0.2425  1.2929
 2276TIP3    H2 6786   3.203   3.676   6.929  0.4094 -1.4648  0.4534
 2277TIP3   OH2 6787   7.485   0.786   2.132 -0.5499 -0.4256 -0.1199
 2277TIP3    H1 6788   7.511   0.854   2.070  1.8324  0.9419  2.2916
 2277TIP3    H2 6789   7.402   0.816   2.167 -1.1974 -0.4900 -1.5550
 2278TIP3   OH2 6790   6.714   2.065   2.064  0.6483  0.3053  0.3736
 2278TIP3    H1 6791   6.674   2.120   1.997  1.8345  0.6505 -0.0578
 2278TIP3    H2 6792   6.652   1.993   2.076  1.1003 -0.5642 -2.1829
 2279TIP3   OH2 6793   0.550   0.287   4.245  0.0012 -0.5235  0.1811
 2279TIP3    H1 6794   0.488   0.289   4.172  0.9335 -0.0934 -0.6145
 2279TIP3    H2 6795   0.536   0.371   4.290  0.3485 -0.2119 -0.2891
 2280TIP3   OH2 6796   4.622   7.676   2.858  0.6022  0.2436 -0.1715
 2280TIP3    H1 6797   4.561   7.644   2.792 -1.6166 -0.3634  2.0916
 2280TIP3    H2 6798   4.619   7.610   2.927  3.0168  0.7568  0.4679
 2281TIP3   OH2 6799   8.029   0.870   3.757 -0.1570 -0.4616  0.2174
 2281TIP3    H1 6800   8.030   0.882   3.662  0.5547 -0.7744  0.1806
 2281TIP3    H2 6801   7.936   0.859   3.778 -0.3339 -0.2688 -0.4251
 2282TIP3   OH2 6802   8.012   0.785   2.315  0.1506 -0.4526  0.0542
 2282TIP3    H1 6803   7.931   0.789   2.367  0.9765 -0.0239  1.3473
 2282TIP3    H2 6804   7.994   0.839   2.238 -0.4471  0.5126  0.8486
 2283TIP3   OH2 6805   6.592   6.818   1.038  0.1809 -0.3838 -0.0534
 2283TIP3    H1 6806   6.530   6.885   1.067 -0.9577 -1.3922 -0.1374
 2283TIP3    H2 6807   6.576   6.810   0.944  1.4521  0.3731 -0.3578
 2284TIP3   OH2 6808   7.245   1.134   3.618 -0.0171 -0.6770  0.1275
 2284TIP3    H1 6809   7.236   1.142   3.524  0.1644 -0.7652  0.1021
 2284TIP3    H2 6810   7.331   1.169   3.638  0.3937 -1.6710  0.1262
 2285TIP3   OH2 6811   6.259   0.309   2.361 -0.0653  0.0218 -0.6516
 2285TIP3    H1 6812   6.352   0.327   2.370 -0.4091  0.7344  1.7256
 2285TIP3    H2 6813   6.254   0.232   2.304  2.0668 -1.5039  1.1912
 2286TIP3   OH2 6814   7.708   1.949   2.446  0.2200 -0.3359  0.3873
 2286TIP3    H1 6815   7.634   1.892   2.467  0.5548 -0.9720 -0.1319
 2286TIP3    H2 6816   7.733   1.989   2.529 -0.8778  0.0862  0.5238
 2287TIP3   OH2 6817   8.334   1.714   2.080 -0.3526  0.2356  0.1733
 2287TIP3    H1 6818   8.387   1.770   2.136 -0.6729  0.6759  0.0407
 2287TIP3    H2 6819   8.376   1.719   1.994  1.2901 -2.0016  0.8156
 2288TIP3   OH2 6820   4.583   7.844   2.516  0.5695  0.1530 -0.0507
 2288TIP3    H1 6821   4.519   7.826   2.448  2.5698 -2.2144 -1.4022
 2288TIP3    H2 6822   4.570   7.775   2.581 -0.0120  1.2418  1.0060
 2289TIP3   OH2 6823   6.231   7.075   1.828  0.3898 -0.6547 -0.2297
 2289TIP3    H1 6824   6.311   7.110   1.867  0.2965  0.5652 -1.0867
 2289TIP3    H2 6825   6.164   7.086   1.896  1.2106 -2.9502  1.0051
 2290TIP3   OH2 6826   6.361   7.630   3.259  0.5436 -0.0461  0.1843
 2290TIP3    H1 6827   6.268   7.633   3.279  0.5488 -1.9797  0.5617
 2290TIP3    H2 6828   6.366   7.593   3.171  0.9569 -0.1436  0.2470
 2291TIP3   OH2 6829   7.819   1.812   3.351  0.4402 -0.0099  0.7253
 2291TIP3    H1 6830   7.735   1.769   3.365 -0.0905 -0.0761 -2.3721
 2291TIP3    H2 6831   7.798   1.904   3.342  0.8178  0.0877  0.8066
 2292TIP3   OH2 6832   0.556   1.631   4.758  0.2607 -0.6748 -0.4534
 2292TIP3    H1 6833   0.505   1.562   4.716 -0.4274  0.0066 -0.7599
 2292TIP3    H2 6834   0.508   1.711   4.738  1.7289  0.0463 -1.1571
 2293TIP3   OH2 6835   0.605   1.341   3.767 -0.3124 -0.0945 -0.1227
 2293TIP3    H1 6836   0.574   1.432   3.769  0.6733  0.3268 -2.6799
 2293TIP3    H2 6837   0.525   1.289   3.778 -0.8562  1.0707  1.5899
 2294TIP3   OH2 6838   0.445   3.791   5.187  0.2307  0.2866  0.0562
 2294TIP3    H1 6839   0.495   3.771   5.266 -1.1333 -1.3268  0.5289
 2294TIP3    H2 6840   0.500   3.760   5.115  0.8917  0.5509  0.4478
 2295TIP3   OH2 6841   2.554   0.632   3.492  0.1603  0.3319  0.0884
 2295TIP3    H1 6842   2.552   0.663   3.582 -0.7954  2.3245 -0.5788
 2295TIP3    H2 6843   2.644   0.644   3.463  0.3576  0.1359  0.6353
 2296TIP3   OH2 6844   0.757   2.510   2.245 -0.3668  0.2986 -0.3529
 2296TIP3    H1 6845   0.725   2.490   2.157 -0.6148  0.9775 -0.4217
 2296TIP3    H2 6846   0.735   2.602   2.258  0.6026  0.4871  0.0147
 2297TIP3   OH2 6847   0.151   2.590   5.064  0.2487 -0.4073  0.4892
 2297TIP3    H1 6848   0.180   2.673   5.024 -0.7428 -1.0206 -1.5597
 2297TIP3    H2 6849   0.179   2.597   5.155 -0.0790  2.3254  0.4289
 2298TIP3   OH2 6850   1.505   2.623   4.616 -0.1027 -0.1972 -0.3430
 2298TIP3    H1 6851   1.518   2.595   4.525 -1.1259  1.1417 -0.9164
 2298TIP3    H2 6852   1.477   2.715   4.609  1.4727  0.4399  1.4016
 2299TIP3   OH2 6853   1.195   1.392   3.615  0.2116 -0.3330 -0.5515
 2299TIP3    H1 6854   1.257   1.461   3.593 -1.0406  0.9719 -0.0803
 2299TIP3    H2 6855   1.248   1.326   3.660  1.1244  1.0997  0.5309
 2300TIP3   OH2 6856   7.702   1.860   3.950  0.0744  0.3025 -0.4716
 2300TIP3    H1 6857   7.677   1.884   4.039  1.2721  0.5345 -0.1870
 2300TIP3    H2 6858   7.691   1.941   3.900 -2.4324 -0.3023 -0.9544
 2301TIP3   OH2 6859   3.724   0.472   5.245  0.0332 -0.4358 -0.3855
 2301TIP3    H1 6860   3.652   0.454   5.306 -0.2058  1.2071 -0.1385
 2301TIP3    H2 6861   3.683   0.477   5.159 -0.1735  0.5554 -0.2375
 2302TIP3   OH2 6862   7.326   7.964   5.588 -0.0230  0.2425 -0.3832
 2302TIP3    H1 6863   7.307   7.973   5.682  1.0897 -0.7257 -0.0444
 2302TIP3    H2 6864   7.379   8.041   5.567 -0.2787  0.4652 -0.2160
 2303TIP3   OH2 6865   0.499   2.004   4.186  0.6000 -0.2320 -0.6938
 2303TIP3    H1 6866   0.556   1.927   4.188  0.1055 -0.5979  2.9103
 2303TIP3    H2 6867   0.559   2.078   4.198  0.5081 -0.5369  1.9539
 2304TIP3   OH2 6868   7.681   4.437   3.933  0.0879  0.0025  0.2919
 2304TIP3    H1 6869   7.708   4.406   4.020 -1.9158  0.9856  1.2891
 2304TIP3    H2 6870   7.621   4.370   3.901  0.0025  0.1647  0.1125
 2305TIP3   OH2 6871   7.084   7.930   5.156  0.1958  0.1258  0.0120
 2305TIP3    H1 6872   7.079   7.938   5.251 -1.6916  0.5734 -0.1058
 2305TIP3    H2 6873   7.043   8.010   5.123  0.8719 -0.0025 -1.1959
 2306TIP3   OH2 6874   1.989   1.076   4.644  0.3232 -0.0976 -0.2327
 2306TIP3    H1 6875   2.065   1.019   4.633 -0.9176 -2.0096  0.7574
 2306TIP3    H2 6876   1.934   1.057   4.568  0.4510  0.6506 -0.5104
 2307TIP3   OH2 6877   6.181   2.730   3.116  0.2317 -0.1511 -0.4800
 2307TIP3    H1 6878   6.126   2.761   3.044  0.0729 -0.7895 -0.6417
 2307TIP3    H2 6879   6.252   2.793   3.121  0.7426 -0.6085 -1.8060
 2308TIP3   OH2 6880   0.657   2.500   1.967 -0.0522 -0.4376  0.5272
 2308TIP3    H1 6881   0.570   2.518   1.931  0.5114 -0.8548 -1.1060
 2308TIP3    H2 6882   0.712   2.570   1.932  0.8507 -1.7742 -0.7973
 2309TIP3   OH2 6883   2.366   0.587   3.308 -0.1176  0.2169  0.3559
 2309TIP3    H1 6884   2.274   0.568   3.325 -0.0263  0.1837  0.8306
 2309TIP3    H2 6885   2.406   0.591   3.395  0.2340  0.7065  0.1752
 2310TIP3   OH2 6886   1.548   0.776   4.099 -0.2682  0.1707  0.1760
 2310TIP3    H1 6887   1.640   0.784   4.075 -0.1853 -3.0117 -0.7963
 2310TIP3    H2 6888   1.500   0.812   4.024  0.1327  1.7685  0.6572
 2311TIP3   OH2 6889   2.834   0.914   2.042  0.1693  0.2169 -0.2960
 2311TIP3    H1 6890   2.783   0.969   1.982 -0.8743 -1.1236 -0.6692
 2311TIP3    H2 6891   2.826   0.958   2.126  1.0461  1.7263 -0.9658
 2312TIP3   OH2 6892   0.549   2.172   2.823 -0.0814  0.2591 -0.1716
 2312TIP3    H1 6893   0.524   2.109   2.755  0.8173  0.8855 -1.0919
 2312TIP3    H2 6894   0.483   2.241   2.818  0.9130  1.1318 -1.5413
 2313TIP3   OH2 6895   0.935   2.983   1.806  0.1426  0.5075  0.1979
 2313TIP3    H1 6896   0.845   2.979   1.774  0.1296 -0.9734  0.3751
 2313TIP3    H2 6897   0.951   3.076   1.823 -0.5118  1.0941 -2.1979
 2314TIP3   OH2 6898   2.164   2.650   5.015  0.4581  0.3062  0.3654
 2314TIP3    H1 6899   2.131   2.565   5.045  0.9086 -0.3505 -0.9658
 2314TIP3    H2 6900   2.131   2.712   5.080  0.2574 -0.8984  1.4435
 2315TIP3   OH2 6901   0.180   1.092   4.297  0.2301 -0.2095  0.3623
 2315TIP3    H1 6902   0.086   1.079   4.285  0.0147  1.5870 -0.1129
 2315TIP3    H2 6903   0.220   1.052   4.220 -0.3495  1.3859 -0.7819
 2316TIP3   OH2 6904   1.627   0.644   3.525  0.0617 -0.0749  0.4125
 2316TIP3    H1 6905   1.581   0.722   3.492  1.0809  0.4555  0.2129
 2316TIP3    H2 6906   1.582   0.622   3.606 -1.3347 -0.3142 -0.4099
 2317TIP3   OH2 6907   7.508   1.242   6.004  0.2897  0.5102  0.0800
 2317TIP3    H1 6908   7.526   1.282   5.919 -3.4181  0.8241 -0.6359
 2317TIP3    H2 6909   7.488   1.151   5.984 -0.4255  0.5476  0.5885
 2318TIP3   OH2 6910   2.090   3.526   1.913 -0.2034  0.0360 -0.3787
 2318TIP3    H1 6911   2.017   3.469   1.889 -0.5258  1.1762 -2.2304
 2318TIP3    H2 6912   2.167   3.484   1.875 -0.1148 -0.2945  0.1518
 2319TIP3   OH2 6913   8.184   1.061   5.338 -0.4189  0.2010 -0.4799
 2319TIP3    H1 6914   8.268   1.036   5.376  0.2975  0.1398 -2.0665
 2319TIP3    H2 6915   8.119   1.012   5.389  0.4452  0.6600  1.1170
 2320TIP3   OH2 6916   2.001   2.184   3.342  0.4132 -0.2721 -0.3874
 2320TIP3    H1 6917   2.062   2.142   3.281 -1.2929 -3.6074  0.1098
 2320TIP3    H2 6918   2.053   2.196   3.422  1.1483 -0.8154 -0.7665
 2321TIP3   OH2 6919   1.103   2.645   3.567  0.5057  0.2721 -0.0363
 2321TIP3    H1 6920   1.018   2.677   3.535  1.3664  1.2411 -1.4255
 2321TIP3    H2 6921   1.165   2.671   3.499  1.7160 -1.6488  0.2939
 2322TIP3   OH2 6922   0.265   1.527   2.935 -0.0635 -0.2706  0.0243
 2322TIP3    H1 6923   0.239   1.560   3.021 -1.4269  1.0178 -0.8516
 2322TIP3    H2 6924   0.361   1.532   2.936 -0.1848  3.3218  0.1253
 2323TIP3   OH2 6925   8.144   1.796   4.214  0.5214 -0.2166 -0.0759
 2323TIP3    H1 6926   8.138   1.716   4.162  1.7115  0.6798 -1.6406
 2323TIP3    H2 6927   8.081   1.856   4.174 -0.4071 -0.3608  1.1256
 2324TIP3   OH2 6928   1.627   2.870   3.904  0.1873  0.6380  0.2423
 2324TIP3    H1 6929   1.568   2.875   3.979 -1.3397  0.1993 -0.8977
 2324TIP3    H2 6930   1.606   2.948   3.852  0.6070  0.4710 -0.1818
 2325TIP3   OH2 6931   2.541   1.249   3.292 -0.0039 -0.5614 -0.3474
 2325TIP3    H1 6932   2.465   1.191   3.278 -0.5796 -0.1258  0.8949
 2325TIP3    H2 6933   2.511   1.335   3.262 -0.6250 -0.0130  1.7489
 2326TIP3   OH2 6934   6.248   7.216   6.512  0.1803 -0.0579 -0.2908
 2326TIP3    H1 6935   6.330   7.253   6.479  0.2730  0.5735  0.6249
 2326TIP3    H2 6936   6.233   7.138   6.459 -0.1552  1.4347 -2.4483
 2327TIP3   OH2 6937   8.371   2.501   2.878  0.4059 -0.4578 -0.1433
 2327TIP3    H1 6938   8.371   2.430   2.813  3.0803 -0.6016 -0.0482
 2327TIP3    H2 6939   8.324   2.572   2.835 -0.3142 -1.4956 -1.1304
 2328TIP3   OH2 6940   2.426   2.832   3.416  0.2095 -0.0552 -0.4320
 2328TIP3    H1 6941   2.355   2.871   3.367 -0.0588  1.7508  1.3135
 2328TIP3    H2 6942   2.500   2.831   3.355 -0.6652  0.2022 -1.5070
 2329TIP3   OH2 6943   7.834   1.814   4.276 -0.4112 -0.4547 -0.6291
 2329TIP3    H1 6944   7.879   1.863   4.207  1.1319 -0.7997  0.1011
 2329TIP3    H2 6945   7.795   1.881   4.332  1.7687  0.0050  0.4159
 2330TIP3   OH2 6946   1.062   1.967   2.598 -0.6554 -0.6775 -0.3144
 2330TIP3    H1 6947   1.045   2.032   2.529 -0.4610 -0.4385 -0.1382
 2330TIP3    H2 6948   0.974   1.943   2.628 -0.8015 -1.8371 -1.6067
 2331TIP3   OH2 6949   0.631   1.738   4.171 -0.4245  0.2463  0.1928
 2331TIP3    H1 6950   0.642   1.701   4.084 -2.8423  1.9737 -0.9163
 2331TIP3    H2 6951   0.580   1.673   4.219 -0.6891  0.1004 -0.2850
 2332TIP3   OH2 6952   0.440   3.390   0.733 -0.1695  0.2436  0.1696
 2332TIP3    H1 6953   0.395   3.428   0.809  0.4210 -1.5702  1.4872
 2332TIP3    H2 6954   0.526   3.365   0.768  0.2568 -0.2281 -1.2113
 2333TIP3   OH2 6955   7.363   4.254   2.515 -0.2161 -0.1266  0.1417
 2333TIP3    H1 6956   7.298   4.188   2.539 -0.1227 -0.0433  0.6103
 2333TIP3    H2 6957   7.335   4.333   2.559 -0.1970  0.0946 -0.2384
 2334TIP3   OH2 6958   0.367   0.126   5.853 -0.5971  0.3446 -0.4880
 2334TIP3    H1 6959   0.319   0.208   5.864 -0.9588  0.1248 -0.4151
 2334TIP3    H2 6960   0.364   0.084   5.939 -0.3609  0.2831 -0.5092
 2335TIP3   OH2 6961   6.948   1.938   4.223 -0.0491  0.6024 -0.4565
 2335TIP3    H1 6962   6.922   1.913   4.312 -0.7644 -0.1195 -0.8707
 2335TIP3    H2 6963   6.938   1.858   4.172 -0.4778  1.2428 -1.3770
 2336TIP3   OH2 6964   6.745   6.692   4.852 -0.1165  0.3078 -0.8775
 2336TIP3    H1 6965   6.678   6.624   4.844  0.3233 -0.2074 -0.2183
 2336TIP3    H2 6966   6.706   6.769   4.811 -1.2499  0.1117 -0.1952
 2337TIP3   OH2 6967   7.459   0.502   4.861 -0.1697  0.0351  0.0764
 2337TIP3    H1 6968   7.505   0.468   4.938  0.3028  1.5728  0.4791
 2337TIP3    H2 6969   7.524   0.555   4.816 -0.5740 -0.4996 -1.1681
 2338TIP3   OH2 6970   5.725   7.832   6.317 -0.0586 -0.0924 -0.1831
 2338TIP3    H1 6971   5.680   7.811   6.399 -0.1114 -0.7220 -0.3716
 2338TIP3    H2 6972   5.765   7.918   6.333  1.8130 -1.2092  1.2833
 2339TIP3   OH2 6973   6.488   7.226   4.469 -0.7459  0.0894  0.1035
 2339TIP3    H1 6974   6.451   7.138   4.474 -0.6235  0.0945  1.3111
 2339TIP3    H2 6975   6.554   7.229   4.539 -0.4210  0.9814 -0.2273
 2340TIP3   OH2 6976   1.128   0.725   4.915 -0.2802 -0.5359 -0.4741
 2340TIP3    H1 6977   1.161   0.636   4.931 -0.7069 -0.7653 -0.8421
 2340TIP3    H2 6978   1.123   0.765   5.001 -0.3809 -0.9770 -0.2721
 2341TIP3   OH2 6979   8.078   4.667   5.254  0.4623 -0.5127 -0.1006
 2341TIP3    H1 6980   8.169   4.653   5.228  0.6580  0.5272  0.0390
 2341TIP3    H2 6981   8.049   4.740   5.200 -0.7008 -1.6790 -1.1103
 2342TIP3   OH2 6982   2.188   1.804   2.186  0.0064 -0.3595 -0.3339
 2342TIP3    H1 6983   2.133   1.790   2.109 -1.4866 -1.1621  0.8511
 2342TIP3    H2 6984   2.277   1.802   2.153 -0.6155 -1.0346 -1.9878
 2343TIP3   OH2 6985   1.168   1.298   4.531 -0.4459  0.1823 -0.1991
 2343TIP3    H1 6986   1.212   1.213   4.537 -1.0725 -0.1327 -0.0563
 2343TIP3    H2 6987   1.079   1.277   4.503 -0.3268  0.8755 -1.1095
 2344TIP3   OH2 6988   0.580   1.090   5.477  0.1728  0.4559  0.3655
 2344TIP3    H1 6989   0.598   1.184   5.470  0.0162  0.4360 -0.4023
 2344TIP3    H2 6990   0.489   1.082   5.447  1.3434 -0.3999 -3.2141
 2345TIP3   OH2 6991   1.151   0.945   4.193 -0.2140  0.3957 -0.5146
 2345TIP3    H1 6992   1.219   0.881   4.214 -1.1971 -0.3838  0.3084
 2345TIP3    H2 6993   1.186   1.028   4.225  0.4396  0.0382 -0.2943
 2346TIP3   OH2 6994   0.446   2.620   3.239 -0.3903 -0.3331  0.4318
 2346TIP3    H1 6995   0.413   2.667   3.162 -0.3012 -0.3362  0.3908
 2346TIP3    H2 6996   0.445   2.528   3.213  1.1153 -0.2125 -0.1434
 2347TIP3   OH2 6997   1.218   2.241   3.428 -0.2673  0.2949  0.1035
 2347TIP3    H1 6998   1.205   2.173   3.362  1.2112 -1.3470  1.4232
 2347TIP3    H2 6999   1.134   2.288   3.431 -0.7747 -0.4133 -1.9872
 2348TIP3   OH2 7000   0.425   0.765   5.843  0.1976  0.0462  0.0380
 2348TIP3    H1 7001   0.511   0.738   5.810 -0.5525 -0.2771 -1.7136
 2348TIP3    H2 7002   0.430   0.750   5.937  1.3083 -2.0624 -0.3266
 2349TIP3   OH2 7003   0.910   0.388   3.620 -0.2104 -0.8056  0.4868
 2349TIP3    H1 7004   0.897   0.424   3.532 -2.3887  0.2540  1.1922
 2349TIP3    H2 7005   0.869   0.452   3.678  0.0848 -2.1079  2.1787
 2350TIP3   OH2 7006   5.393   6.437   1.663  0.2113  0.0900 -0.4021
 2350TIP3    H1 7007   5.479   6.397   1.680  0.2444  0.5286  0.4769
 2350TIP3    H2 7008   5.378   6.494   1.738  1.1209  3.3485 -2.5971
 2351TIP3   OH2 7009   1.198   3.541   3.591  0.0794  0.4358 -0.4448
 2351TIP3    H1 7010   1.206   3.447   3.574  1.0795  0.1932  1.2727
 2351TIP3    H2 7011   1.286   3.569   3.616 -0.5638  1.4778  0.7319
 2352TIP3   OH2 7012   1.386   2.809   5.606 -0.1507 -0.4412  0.3702
 2352TIP3    H1 7013   1.367   2.899   5.577  0.4911  0.0616  1.4996
 2352TIP3    H2 7014   1.473   2.814   5.645  0.3637 -1.7992 -0.5767
 2353TIP3   OH2 7015   7.046   2.334   3.580  0.6632 -0.1197 -0.3457
 2353TIP3    H1 7016   7.074   2.289   3.659  0.4679 -0.6039 -0.5538
 2353TIP3    H2 7017   7.126   2.375   3.546  1.4634 -2.7605 -1.7731
 2354TIP3   OH2 7018   1.176   2.237   3.091 -0.7479  0.5382  0.1586
 2354TIP3    H1 7019   1.115   2.311   3.088 -2.2162 -0.6808 -1.3845
 2354TIP3    H2 7020   1.126   2.167   3.134  0.0689 -0.0395  0.1681
 2355TIP3   OH2 7021   0.227   2.176   5.296  0.0049  0.8783  0.6515
 2355TIP3    H1 7022   0.285   2.100   5.291  2.3636  2.6032  0.8261
 2355TIP3    H2 7023   0.259   2.234   5.227 -0.6754  2.4359  1.6274
 2356TIP3   OH2 7024   1.582   0.252   4.999  0.1088 -0.5239  0.8938
 2356TIP3    H1 7025   1.511   0.198   4.965  0.0565 -0.4305  0.8553
 2356TIP3    H2 7026   1.550   0.342   4.991 -0.0083 -0.5148  1.4302
 2357TIP3   OH2 7027   0.784   3.439   2.907  0.2041 -0.4534  0.3008
 2357TIP3    H1 7028   0.794   3.446   2.812 -1.5342 -1.4974  0.0079
 2357TIP3    H2 7029   0.856   3.490   2.943  0.3317  0.7619 -1.5946
 2358TIP3   OH2 7030   5.388   5.299   6.542  0.1778 -0.0273 -0.2852
 2358TIP3    H1 7031   5.437   5.249   6.476 -0.7855 -0.8116 -0.4074
 2358TIP3    H2 7032   5.454   5.324   6.607  0.7296 -1.1572 -0.4055
 2359TIP3   OH2 7033   1.876   1.730   3.557 -0.1747  0.2119 -0.5583
 2359TIP3    H1 7034   1.826   1.721   3.476 -1.8852  0.5243  0.4420
 2359TIP3    H2 7035   1.871   1.824   3.578 -0.0358  0.0841  0.0720
 2360TIP3   OH2 7036   1.291   1.608   3.454 -0.6104 -0.2574 -0.0087
 2360TIP3    H1 7037   1.198   1.627   3.462 -0.8886 -0.8214 -1.6905
 2360TIP3    H2 7038   1.334   1.684   3.494 -1.7777  0.2545  0.3055
 2361TIP3   OH2 7039   3.200   1.683   3.395  0.2008  0.0919  0.0306
 2361TIP3    H1 7040   3.189   1.657   3.487  0.4110  0.3125  0.1182
 2361TIP3    H2 7041   3.114   1.718   3.370 -0.2821 -1.2680 -0.2793
 2362TIP3   OH2 7042   6.313   0.279   4.359 -0.0468  0.5336 -0.3297
 2362TIP3    H1 7043   6.352   0.292   4.272  2.4847 -1.1180  0.5074
 2362TIP3    H2 7044   6.387   0.274   4.418 -1.7452  1.4744  1.9582
 2363TIP3   OH2 7045   0.132   2.847   3.570 -0.4233  0.0882 -0.6919
 2363TIP3    H1 7046   0.137   2.941   3.551  0.8435  0.1002 -0.3251
 2363TIP3    H2 7047   0.134   2.805   3.484 -0.6420  0.3864 -0.8425
 2364TIP3   OH2 7048   0.505   5.343   3.243  0.2204  0.3667  0.3952
 2364TIP3    H1 7049   0.570   5.389   3.297  0.7036 -0.0284  0.1516
 2364TIP3    H2 7050   0.557   5.302   3.174 -0.2928  0.0359  0.2096
 2365TIP3   OH2 7051   8.129   4.035   4.353  0.3432 -0.2202 -0.2032
 2365TIP3    H1 7052   8.098   3.967   4.412 -0.9732  0.6506  0.1371
 2365TIP3    H2 7053   8.051   4.088   4.335  1.3110  1.0959 -0.5869
 2366TIP3   OH2 7054   0.170   4.839   3.747  0.4385  0.3348 -0.8255
 2366TIP3    H1 7055   0.090   4.839   3.798  2.5276  1.1888  2.5742
 2366TIP3    H2 7056   0.171   4.753   3.704 -0.9726 -0.7082  1.1750
 2367TIP3   OH2 7057   0.025   0.701   4.108 -0.0102  0.9401  0.2322
 2367TIP3    H1 7058   0.110   0.667   4.135  0.1466  0.7442 -0.5096
 2367TIP3    H2 7059  -0.007   0.748   4.185  0.9040  1.2873  0.4080
 2368TIP3   OH2 7060   2.440   2.650   5.069 -0.3993 -0.1414  0.0683
 2368TIP3    H1 7061   2.350   2.618   5.077  0.2540 -2.9150 -2.8267
 2368TIP3    H2 7062   2.436   2.717   5.002 -0.2226 -0.6867 -0.4918
 2369TIP3   OH2 7063   7.531   1.861   1.082 -0.4522  0.2872  0.3991
 2369TIP3    H1 7064   7.596   1.791   1.084 -1.1648 -0.4310 -0.7720
 2369TIP3    H2 7065   7.555   1.919   1.155  2.6004  1.0249 -1.0984
 2370TIP3   OH2 7066   0.675   3.482   0.467 -0.9684  0.0249  0.0963
 2370TIP3    H1 7067   0.749   3.467   0.409 -0.0971  0.5488  1.0634
 2370TIP3    H2 7068   0.649   3.573   0.450 -1.1369 -0.0303  0.0527
 2371TIP3   OH2 7069   0.116   1.731   3.535 -0.0783  0.0552  0.4532
 2371TIP3    H1 7070   0.163   1.686   3.465 -0.1653  1.6071 -0.6204
 2371TIP3    H2 7071   0.184   1.774   3.586 -0.1492  0.2585  0.3740
 2372TIP3   OH2 7072   1.844   2.408   3.508  0.5270  0.3938 -0.0391
 2372TIP3    H1 7073   1.883   2.321   3.517 -1.7839 -0.7160 -0.1980
 2372TIP3    H2 7074   1.803   2.424   3.593 -1.1231  0.2392 -0.7794
 2373TIP3   OH2 7075   8.188   2.195   3.204  0.1719  0.3724  0.1475
 2373TIP3    H1 7076   8.230   2.109   3.212  0.0244  0.3841  1.1410
 2373TIP3    H2 7077   8.201   2.219   3.112  1.4496 -0.0788  0.1943
 2374TIP3   OH2 7078   1.309   3.141   4.337  0.0511 -0.4872  0.1764
 2374TIP3    H1 7079   1.270   3.145   4.250 -1.3057 -2.0607  0.6750
 2374TIP3    H2 7080   1.380   3.079   4.329  0.2656 -0.2304  0.0740
 2375TIP3   OH2 7081   8.477   0.231   6.296 -0.2394  0.5158 -0.1821
 2375TIP3    H1 7082   8.458   0.185   6.378 -1.2017  1.7038  0.2768
 2375TIP3    H2 7083   8.408   0.202   6.236 -0.1976  0.5149 -0.2299
 2376TIP3   OH2 7084   2.483   1.485   3.168 -0.1192  0.1143 -0.3720
 2376TIP3    H1 7085   2.554   1.457   3.110 -1.4695 -0.3123 -1.8513
 2376TIP3    H2 7086   2.469   1.577   3.148  0.8500  0.5338  0.8220
 2377TIP3   OH2 7087   8.151   0.880   4.748 -0.2454 -0.1365  0.3594
 2377TIP3    H1 7088   8.066   0.922   4.733 -0.2846 -0.4750 -0.3817
 2377TIP3    H2 7089   8.162   0.881   4.843 -0.5126  1.0176  0.3825
 2378TIP3   OH2 7090   0.850   1.273   3.667  0.4093  0.1037  0.1127
 2378TIP3    H1 7091   0.766   1.303   3.703 -0.1392 -1.3466  0.0723
 2378TIP3    H2 7092   0.850   1.303   3.577  0.2396  0.7136  0.3154
 2379TIP3   OH2 7093   0.747   3.993   3.945 -0.3339 -0.5064  0.4160
 2379TIP3    H1 7094   0.693   4.071   3.939  1.0776  0.4949  0.4526
 2379TIP3    H2 7095   0.698   3.926   3.899 -0.4768  1.0245 -1.7160
 2380TIP3   OH2 7096   1.332   1.347   5.946 -0.9952  0.1822 -0.3927
 2380TIP3    H1 7097   1.323   1.441   5.929  0.3367  0.3866 -0.0308
 2380TIP3    H2 7098   1.338   1.307   5.860  3.0343  0.9317 -0.5685
 2381TIP3   OH2 7099   7.950   4.149   2.749  0.4064 -0.3775 -0.0833
 2381TIP3    H1 7100   8.025   4.207   2.742  0.1342  0.4226  3.0508
 2381TIP3    H2 7101   7.987   4.062   2.762  0.7860 -0.7200 -3.0556
 2382TIP3   OH2 7102   0.272   1.193   5.637  0.4521 -0.1087 -0.1550
 2382TIP3    H1 7103   0.290   1.100   5.625  1.7661  0.1910 -0.6531
 2382TIP3    H2 7104   0.275   1.230   5.548 -0.5805  0.3145 -0.0126
 2383TIP3   OH2 7105   6.432   0.328   4.820  0.3874  0.3623 -0.5268
 2383TIP3    H1 7106   6.517   0.352   4.783  0.1847  0.5621 -0.8654
 2383TIP3    H2 7107   6.414   0.241   4.784  1.3384 -0.5124  1.0703
 2384TIP3   OH2 7108   2.244   2.119   4.364 -0.2641  0.5438 -0.0342
 2384TIP3    H1 7109   2.153   2.143   4.382 -0.1752  1.2409 -0.5067
 2384TIP3    H2 7110   2.244   2.093   4.272  0.2008  1.4875 -0.3056
 2385TIP3   OH2 7111   1.459   3.608   3.730  0.0963  0.3495 -0.4314
 2385TIP3    H1 7112   1.546   3.599   3.693 -0.1221  0.1010 -0.8788
 2385TIP3    H2 7113   1.428   3.694   3.700  0.4288  0.7084  0.2340
 2386TIP3   OH2 7114   7.504   1.163   4.531 -0.2828  0.0951  0.3525
 2386TIP3    H1 7115   7.531   1.224   4.463  0.4293  0.6350  1.1064
 2386TIP3    H2 7116   7.575   1.100   4.537 -0.5540 -0.2184  0.2744
 2387TIP3   OH2 7117   1.599   1.952   4.822  0.3520 -0.6023  0.5475
 2387TIP3    H1 7118   1.660   2.025   4.812  0.8611 -1.2725 -1.6538
 2387TIP3    H2 7119   1.655   1.879   4.849  0.7423 -1.4290 -2.2871
 2388TIP3   OH2 7120   8.119   7.917   4.695  0.2911 -0.2592  0.0955
 2388TIP3    H1 7121   8.042   7.888   4.743 -0.5242 -0.9194 -1.5379
 2388TIP3    H2 7122   8.159   7.836   4.664  0.9053  0.1378 -0.1584
 2389TIP3   OH2 7123   6.209   6.627   4.985 -0.0100 -0.0459  0.7649
 2389TIP3    H1 7124   6.145   6.633   5.056 -0.8574 -2.7153  0.3022
 2389TIP3    H2 7125   6.189   6.701   4.927 -1.6157  0.0956  1.4875
 2390TIP3   OH2 7126   0.411   2.443   5.440 -0.6614  0.0142 -0.3971
 2390TIP3    H1 7127   0.368   2.405   5.517  1.3773  0.7108  1.1223
 2390TIP3    H2 7128   0.493   2.479   5.473  0.0923  0.6667 -2.8468
 2391TIP3   OH2 7129   0.596   1.955   5.316  0.7679 -0.3749  0.1312
 2391TIP3    H1 7130   0.677   1.916   5.350  0.9255  0.2072  0.4201
 2391TIP3    H2 7131   0.612   2.049   5.316 -0.5997 -0.1083  2.0007
 2392TIP3   OH2 7132   3.638   1.883   5.790 -0.1555  0.4566  0.0116
 2392TIP3    H1 7133   3.699   1.870   5.717  0.6174  2.3776  0.2991
 2392TIP3    H2 7134   3.607   1.973   5.781 -0.7085  0.4438  1.5615
 2393TIP3   OH2 7135   0.892   1.027   4.832 -0.3790 -0.4955 -0.5123
 2393TIP3    H1 7136   0.929   0.943   4.804  0.0104 -1.1450  1.8048
 2393TIP3    H2 7137   0.942   1.049   4.911 -2.3327  0.5421  0.4541
 2394TIP3   OH2 7138   0.402   1.528   5.254  0.3588  0.1348  0.1793
 2394TIP3    H1 7139   0.416   1.615   5.291  0.2466 -0.4466  1.6233
 2394TIP3    H2 7140   0.328   1.538   5.195  0.2754  0.9921  0.4212
 2395TIP3   OH2 7141   0.539   0.533   4.963 -0.1057 -0.1675  0.1291
 2395TIP3    H1 7142   0.508   0.577   5.042  0.2658  0.9474 -0.3270
 2395TIP3    H2 7143   0.463   0.529   4.906 -0.1160 -0.0249  0.1327
 2396TIP3   OH2 7144   1.517   1.224   4.287 -0.2812  0.0972 -0.0571
 2396TIP3    H1 7145   1.577   1.285   4.329  0.4054  0.4682 -1.5314
 2396TIP3    H2 7146   1.519   1.249   4.194 -2.6393  0.0556 -0.1435
 2397TIP3   OH2 7147   1.978   1.489   4.430 -0.5256 -0.5860  0.3836
 2397TIP3    H1 7148   1.923   1.411   4.422 -0.9321 -0.3251  0.6344
 2397TIP3    H2 7149   2.032   1.488   4.351  0.1191 -1.6180  0.8156
 2398TIP3   OH2 7150   5.136   7.220   6.860  0.3566  0.4039 -0.4057
 2398TIP3    H1 7151   5.116   7.290   6.797 -1.8867  0.0907 -0.0725
 2398TIP3    H2 7152   5.231   7.214   6.858  0.5674  3.0744 -0.8711
 2399TIP3   OH2 7153   1.465   2.128   4.530 -0.2683 -0.0614 -0.3897
 2399TIP3    H1 7154   1.399   2.108   4.597  0.5914 -0.7074  0.2729
 2399TIP3    H2 7155   1.497   2.042   4.501  0.3572  0.2517 -0.6436
 2400TIP3   OH2 7156   8.232   2.204   4.035 -0.3568 -0.2836 -0.3899
 2400TIP3    H1 7157   8.152   2.240   4.073  1.4434  1.4809  1.8806
 2400TIP3    H2 7158   8.216   2.207   3.940 -1.8563  2.8378 -0.1309
 2401TIP3   OH2 7159   2.628   1.914   3.970 -0.4684 -0.0626  0.2429
 2401TIP3    H1 7160   2.686   1.986   3.948 -0.6319 -0.6282 -2.1726
 2401TIP3    H2 7161   2.564   1.952   4.029 -0.6031  1.8114 -1.0685
 2402TIP3   OH2 7162   2.090   2.824   5.242  0.3628  0.4770  0.3323
 2402TIP3    H1 7163   2.090   2.840   5.336 -0.2264  1.6663  0.1461
 2402TIP3    H2 7164   1.999   2.804   5.221  0.5725 -0.2273  0.0828
 2403TIP3   OH2 7165   2.637   0.246   5.166  0.0495 -0.0623 -0.2516
 2403TIP3    H1 7166   2.699   0.207   5.104  0.1254 -1.4799  0.6768
 2403TIP3    H2 7167   2.553   0.203   5.146  0.0172 -0.3261  0.4220
 2404TIP3   OH2 7168   0.875   0.970   4.460  0.1916  0.1356 -0.1492
 2404TIP3    H1 7169   0.933   0.945   4.532  2.0254  0.9527 -1.3080
 2404TIP3    H2 7170   0.910   1.053   4.429 -1.0278  0.1541 -1.5094
 2405TIP3   OH2 7171   0.925   2.256   1.494  0.0122 -0.3398  0.3046
 2405TIP3    H1 7172   1.008   2.295   1.467 -0.2075  0.7233  1.1221
 2405TIP3    H2 7173   0.943   2.218   1.580 -0.2896 -0.2719  0.3999
 2406TIP3   OH2 7174   2.106   2.385   3.130 -0.3994  0.4398 -0.4631
 2406TIP3    H1 7175   2.151   2.463   3.096 -0.9318  0.8623 -0.2246
 2406TIP3    H2 7176   2.016   2.416   3.146  0.0827  0.5319  2.3224
 2407TIP3   OH2 7177   0.001   1.046   3.271  0.5745 -0.2585 -0.1844
 2407TIP3    H1 7178  -0.009   1.013   3.360  0.1182  0.1391 -0.0884
 2407TIP3    H2 7179   0.051   0.977   3.226  1.7561  0.0415  0.6556
 2408TIP3   OH2 7180   0.275   0.946   4.078 -0.3065 -0.5208 -0.3777
 2408TIP3    H1 7181   0.366   0.918   4.069  0.1296  0.9267 -0.6208
 2408TIP3    H2 7182   0.229   0.899   4.009  0.7070  0.6055 -1.8557
 2409TIP3   OH2 7183   3.228   2.335   4.036 -0.3432  0.2843  0.2982
 2409TIP3    H1 7184   3.159   2.401   4.037 -1.0008 -0.3259 -2.1406
 2409TIP3    H2 7185   3.277   2.353   3.956  1.5457 -0.1114  1.3330
 2410TIP3   OH2 7186   1.480   1.323   3.678  0.4660  0.3236  0.2339
 2410TIP3    H1 7187   1.470   1.243   3.730 -0.0598 -0.4923 -1.0881
 2410TIP3    H2 7188   1.539   1.378   3.730  0.6540 -0.8199  1.2721
 2411TIP3   OH2 7189   0.976   1.021   3.690  0.2657 -0.5455 -0.0495
 2411TIP3    H1 7190   0.919   1.096   3.675  2.0537  0.7387 -0.5907
 2411TIP3    H2 7191   0.988   1.018   3.785  2.0134  1.2663 -0.1856
 2412TIP3   OH2 7192   0.462   0.687   4.196  0.3686  0.1469  0.5684
 2412TIP3    H1 7193   0.501   0.772   4.215  2.3569 -0.9636  1.5493
 2412TIP3    H2 7194   0.481   0.634   4.273 -1.5527 -0.9595  0.3020
 2413TIP3   OH2 7195   0.173   1.546   4.220  0.8293  0.4791 -0.0938
 2413TIP3    H1 7196   0.116   1.469   4.219  1.2151  0.1391  1.7708
 2413TIP3    H2 7197   0.113   1.620   4.234  0.4372  0.5613 -2.0899
 2414TIP3   OH2 7198   7.869   0.971   4.824 -0.3212 -0.2818  0.2890
 2414TIP3    H1 7199   7.857   1.022   4.904 -1.0141  0.5078 -0.3156
 2414TIP3    H2 7200   7.864   0.880   4.853 -2.2832 -0.0000  0.9089
 2415TIP3   OH2 7201   3.568   1.729   4.420 -0.3543  0.6994 -0.0022
 2415TIP3    H1 7202   3.654   1.735   4.378 -0.9617  0.8229 -1.2386
 2415TIP3    H2 7203   3.543   1.637   4.411 -0.7102  0.8312 -0.3598
 2416TIP3   OH2 7204   0.410   7.399   6.770  0.2350  0.0776  0.1597
 2416TIP3    H1 7205   0.328   7.365   6.807 -0.0806  1.4627  0.7891
 2416TIP3    H2 7206   0.417   7.488   6.806  0.2487  1.2533 -2.6257
 2417TIP3   OH2 7207   1.692   1.836   4.024 -0.0401 -0.1727 -0.2558
 2417TIP3    H1 7208   1.761   1.777   3.995  0.5480 -0.4024  1.5219
 2417TIP3    H2 7209   1.619   1.778   4.047 -0.6146  0.0273 -1.5599
 2418TIP3   OH2 7210   8.332   7.676   2.598  0.0615 -0.3717 -0.4718
 2418TIP3    H1 7211   8.260   7.737   2.582 -0.4422 -1.5005 -2.6709
 2418TIP3    H2 7212   8.290   7.591   2.610  0.9076 -0.6846  0.3218
 2419TIP3   OH2 7213   7.055   7.635   2.838  0.2516  0.4881 -0.1919
 2419TIP3    H1 7214   7.091   7.558   2.882 -2.3678 -1.0867 -0.6874
 2419TIP3    H2 7215   6.986   7.666   2.897  0.6383  1.8635 -0.4661
 2420TIP3   OH2 7216   1.363   1.524   3.979  0.3550 -0.3245  0.1514
 2420TIP3    H1 7217   1.279   1.542   3.937 -0.1934  0.2524  1.4660
 2420TIP3    H2 7218   1.428   1.563   3.920 -0.3966  0.5538 -0.1071
 2421TIP3   OH2 7219   0.142   2.757   4.613 -0.5174 -0.0708  0.2691
 2421TIP3    H1 7220   0.049   2.754   4.636 -0.9243 -0.0495 -1.3336
 2421TIP3    H2 7221   0.143   2.779   4.520  1.1145  0.4515  0.3999
 2422TIP3   OH2 7222   8.390   2.741   4.726 -0.5664  0.7251  0.3488
 2422TIP3    H1 7223   8.377   2.646   4.727 -0.1238  0.6684  1.6613
 2422TIP3    H2 7224   8.309   2.776   4.691 -0.9662 -0.1003  0.4295
 2423TIP3   OH2 7225   7.865   0.372   6.255  0.0742 -0.2504 -0.5924
 2423TIP3    H1 7226   7.856   0.424   6.174  1.3903  0.0802 -0.5433
 2423TIP3    H2 7227   7.876   0.282   6.224 -0.4922 -0.2638 -0.7500
 2424TIP3   OH2 7228   4.178   1.593   4.596 -0.0894 -0.2416  0.3325
 2424TIP3    H1 7229   4.099   1.580   4.543  0.7246 -1.4049 -0.6302
 2424TIP3    H2 7230   4.178   1.520   4.657  0.5884 -0.6117 -0.1098
 2425TIP3   OH2 7231   0.773   2.141   3.980  0.4229  0.7799 -0.3683
 2425TIP3    H1 7232   0.708   2.072   3.968 -1.1745  2.5748 -2.7006
 2425TIP3    H2 7233   0.749   2.183   4.063 -0.8484  0.8126 -0.7408
 2426TIP3   OH2 7234   1.807   1.828   2.139  0.1028  0.1143 -0.2741
 2426TIP3    H1 7235   1.823   1.857   2.229  0.4420 -0.0370 -0.2865
 2426TIP3    H2 7236   1.712   1.817   2.134  0.2228 -1.3230  0.4989
 2427TIP3   OH2 7237   1.078   1.924   5.441 -0.0121  0.1057 -0.4287
 2427TIP3    H1 7238   1.121   1.840   5.456  0.5910  0.9826  3.1899
 2427TIP3    H2 7239   0.986   1.902   5.429  0.4800 -1.2319 -1.9433
 2428TIP3   OH2 7240   0.467   3.990   2.948  0.5113 -0.1604  0.3498
 2428TIP3    H1 7241   0.546   3.936   2.952  0.5765 -0.1466 -0.5496
 2428TIP3    H2 7242   0.443   3.990   2.855  0.7705  1.7022  0.2542
 2429TIP3   OH2 7243   2.498   1.566   5.487  0.1707  0.3781 -0.3699
 2429TIP3    H1 7244   2.421   1.587   5.435  0.0549  2.2137  0.4942
 2429TIP3    H2 7245   2.499   1.470   5.491 -2.3879  0.3298  0.0765
 2430TIP3   OH2 7246   0.244   0.633   5.702  0.4359  0.6790  0.1512
 2430TIP3    H1 7247   0.169   0.674   5.745  0.8478  0.3273  1.2402
 2430TIP3    H2 7248   0.320   0.666   5.750  0.7699 -1.5072  1.2144
 2431TIP3   OH2 7249   7.829   2.287   1.874  0.2552 -0.0432 -0.0513
 2431TIP3    H1 7250   7.896   2.346   1.841  0.0718 -0.2733 -0.8617
 2431TIP3    H2 7251   7.806   2.233   1.799  1.2734 -1.9567  0.9848
 2432TIP3   OH2 7252   0.947   2.716   3.092  0.1157 -0.5246  0.5535
 2432TIP3    H1 7253   0.910   2.760   3.015  2.8596  2.1274  0.6294
 2432TIP3    H2 7254   0.883   2.730   3.161 -1.0863 -0.4807 -0.5561
 2433TIP3   OH2 7255   0.792   0.525   4.134 -0.0222  0.2838  0.1789
 2433TIP3    H1 7256   0.858   0.592   4.117  2.2419 -1.8002  0.5346
 2433TIP3    H2 7257   0.744   0.557   4.210  1.5629  1.1191  0.8399
 2434TIP3   OH2 7258   1.425   1.089   4.788 -0.4027  0.4257 -0.0377
 2434TIP3    H1 7259   1.515   1.058   4.793  0.4561  2.6949 -0.9139
 2434TIP3    H2 7260   1.413   1.142   4.867 -1.5580 -1.3319  0.9882
 2435TIP3   OH2 7261   7.591   2.780   2.800 -0.3221 -0.6392  0.1322
 2435TIP3    H1 7262   7.684   2.790   2.819 -0.1419  0.9607 -1.5527
 2435TIP3    H2 7263   7.568   2.695   2.840  1.9529 -1.3151  0.0820
 2436TIP3   OH2 7264   7.499   7.474   5.550 -0.8503 -0.1910 -0.4971
 2436TIP3    H1 7265   7.460   7.557   5.524 -0.8157 -0.3820 -1.1761
 2436TIP3    H2 7266   7.555   7.496   5.625 -1.1037  0.3345 -0.4591
 2437TIP3   OH2 7267   7.491   4.231   3.828  0.0915  0.3645  0.5727
 2437TIP3    H1 7268   7.472   4.231   3.735 -0.1113 -0.9606  0.6054
 2437TIP3    H2 7269   7.407   4.218   3.871  0.2900  0.1789  0.9131
 2438TIP3   OH2 7270   6.226   0.238   1.577  0.5537  0.4208 -0.0166
 2438TIP3    H1 7271   6.247   0.317   1.627 -0.9097  1.1195 -0.4991
 2438TIP3    H2 7272   6.165   0.267   1.510  1.2182 -0.8351 -1.1939
 2439TIP3   OH2 7273   5.273   7.900   4.227 -0.4203  0.6448  0.1594
 2439TIP3    H1 7274   5.180   7.893   4.251 -0.1166  1.4942  1.6725
 2439TIP3    H2 7275   5.320   7.892   4.310  0.8172  1.1796 -0.4681
 2440TIP3   OH2 7276   2.388   3.292   4.926  0.1481  0.1825  0.1186
 2440TIP3    H1 7277   2.325   3.363   4.938  0.3368  0.6895 -1.7324
 2440TIP3    H2 7278   2.335   3.219   4.893  0.2165 -0.0084  0.4316
 2441TIP3   OH2 7279   4.005   0.670   1.395 -0.1524  0.5681 -0.1675
 2441TIP3    H1 7280   4.078   0.626   1.440 -0.3610  0.4668  0.0759
 2441TIP3    H2 7281   3.994   0.752   1.443 -1.2303 -0.1250  0.7978
 2442TIP3   OH2 7282   3.658   1.339   3.994 -0.3268  0.4986  0.0190
 2442TIP3    H1 7283   3.689   1.428   3.977 -0.6765  0.4458 -0.9265
 2442TIP3    H2 7284   3.567   1.340   3.964 -0.6663  0.1269  1.0186
 2443TIP3   OH2 7285   1.850   2.283   2.056  0.7923 -0.1405 -0.1425
 2443TIP3    H1 7286   1.881   2.306   1.969  0.0690  1.1558 -0.0568
 2443TIP3    H2 7287   1.841   2.366   2.102 -2.5896 -0.4584 -0.0921
 2444TIP3   OH2 7288   2.992   1.553   1.308 -0.0467  0.3439 -0.1212
 2444TIP3    H1 7289   3.035   1.475   1.274 -1.6812 -0.5800 -0.1357
 2444TIP3    H2 7290   2.899   1.530   1.311 -0.3336  1.5977  1.7396
 2445TIP3   OH2 7291   7.562   3.573   2.926  0.0587 -0.2685 -0.0998
 2445TIP3    H1 7292   7.651   3.542   2.946 -0.2077 -1.0033 -0.0449
 2445TIP3    H2 7293   7.559   3.573   2.830  0.1517 -0.1466 -0.1031
 2446TIP3   OH2 7294   2.955   1.833   2.655  0.2228  0.0466 -0.1019
 2446TIP3    H1 7295   2.982   1.807   2.567  1.4050  0.2000  0.2100
 2446TIP3    H2 7296   2.875   1.783   2.671  0.0807 -0.1036 -1.1955
 2447TIP3   OH2 7297   2.801   3.440   3.900 -0.1352  0.2808 -0.5964
 2447TIP3    H1 7298   2.761   3.359   3.932 -0.5495  0.5267 -0.4871
 2447TIP3    H2 7299   2.895   3.427   3.914 -0.1134 -0.5470 -1.4123
 2448TIP3   OH2 7300   0.942   3.342   5.011  0.2598 -0.1656  0.2727
 2448TIP3    H1 7301   1.015   3.324   4.952  1.9481  1.7861  1.6930
 2448TIP3    H2 7302   0.967   3.300   5.093 -0.8079 -0.5605  0.4025
 2449TIP3   OH2 7303   1.341   3.883   3.904 -0.0846 -0.2279  0.2844
 2449TIP3    H1 7304   1.338   3.839   3.819  0.0053 -1.6992  1.0355
 2449TIP3    H2 7305   1.334   3.976   3.883  0.3895 -0.5550 -1.3609
 2450TIP3   OH2 7306   3.120   0.901   2.381 -0.2223  0.5979 -0.1853
 2450TIP3    H1 7307   3.141   0.831   2.320 -1.0273  0.8733 -0.7835
 2450TIP3    H2 7308   3.157   0.872   2.465 -0.7099 -0.6188 -0.3856
 2451TIP3   OH2 7309   4.256   2.280   3.606  0.2754 -0.1446  0.2426
 2451TIP3    H1 7310   4.302   2.360   3.579 -0.7564  0.1188 -0.7648
 2451TIP3    H2 7311   4.286   2.213   3.544 -1.4462  0.2618 -1.0443
 2452TIP3   OH2 7312   8.471   0.645   4.409  0.1444  0.3713  0.2966
 2452TIP3    H1 7313   8.529   0.717   4.384 -0.9096  1.5727  1.2804
 2452TIP3    H2 7314   8.452   0.660   4.502  0.2315 -1.3995  0.6177
 2453TIP3   OH2 7315   3.565   1.464   2.778  0.1135 -0.5250 -0.0502
 2453TIP3    H1 7316   3.511   1.436   2.703 -0.0779 -1.2454  0.3467
 2453TIP3    H2 7317   3.580   1.383   2.827  2.6502 -0.5721 -0.8555
 2454TIP3   OH2 7318   1.327   2.239   2.241  0.6655  0.0855 -0.0036
 2454TIP3    H1 7319   1.337   2.191   2.323 -0.8336 -1.6626 -0.8158
 2454TIP3    H2 7320   1.417   2.260   2.215  1.1697  0.4557  1.9336
 2455TIP3   OH2 7321   0.823   8.006   3.151 -0.0354  0.2750 -0.4167
 2455TIP3    H1 7322   0.841   7.915   3.174  0.8682  0.6721  0.4669
 2455TIP3    H2 7323   0.747   8.030   3.203 -0.8742 -0.2679 -1.3790
 2456TIP3   OH2 7324   4.450   1.329   2.572  0.2935 -0.3730  0.0588
 2456TIP3    H1 7325   4.374   1.384   2.552  0.3654 -1.0558 -2.2145
 2456TIP3    H2 7326   4.525   1.380   2.543  0.5222 -0.7953 -0.0926
 2457TIP3   OH2 7327   5.067   2.479   4.609 -0.2914 -0.3113  0.6444
 2457TIP3    H1 7328   4.994   2.539   4.623 -0.2949  0.0136 -0.7805
 2457TIP3    H2 7329   5.123   2.522   4.545  1.5423 -0.2356  2.2368
 2458TIP3   OH2 7330   3.060   2.581   4.073  0.0325  0.2929  0.5200
 2458TIP3    H1 7331   2.979   2.579   4.023 -0.0348  2.6289  0.4632
 2458TIP3    H2 7332   3.120   2.633   4.020  1.4007 -0.9450  0.8222
 2459TIP3   OH2 7333   3.549   2.167   5.793 -0.0925  0.6173  0.3222
 2459TIP3    H1 7334   3.572   2.190   5.883  0.0319 -0.0343  0.4622
 2459TIP3    H2 7335   3.558   2.249   5.744 -1.2127  1.2248  1.0990
 2460TIP3   OH2 7336   3.116   0.993   3.480 -0.5661  0.5923 -0.0394
 2460TIP3    H1 7337   3.049   1.059   3.495 -0.5918  0.7140 -0.6812
 2460TIP3    H2 7338   3.085   0.943   3.405  0.7958  1.6506 -1.3603
 2461TIP3   OH2 7339   1.372   2.703   3.429 -0.0773 -0.2154 -0.3164
 2461TIP3    H1 7340   1.334   2.787   3.404 -0.3527  0.2349  1.5559
 2461TIP3    H2 7341   1.461   2.724   3.458 -0.4180 -0.4447  0.9214
 2462TIP3   OH2 7342   4.071   2.920   5.599  0.0478 -0.5756 -0.4754
 2462TIP3    H1 7343   4.076   2.979   5.524 -0.6973  0.1875  0.0519
 2462TIP3    H2 7344   4.153   2.934   5.646 -0.6441  1.0036  0.3174
 2463TIP3   OH2 7345   2.867   2.860   3.286 -0.2375  0.1856 -0.2013
 2463TIP3    H1 7346   2.931   2.828   3.223  0.2034 -1.5226  1.0757
 2463TIP3    H2 7347   2.918   2.878   3.365 -0.9960  0.9766  0.1176
 2464TIP3   OH2 7348   0.852   3.274   3.971  0.3614  0.0489 -0.0265
 2464TIP3    H1 7349   0.800   3.266   3.890 -0.7575 -1.6475  0.8334
 2464TIP3    H2 7350   0.926   3.215   3.957  0.3610  0.0359  0.0275
 2465TIP3   OH2 7351   2.717   2.637   2.623  0.0974 -0.3856 -0.3614
 2465TIP3    H1 7352   2.766   2.658   2.543  0.7121 -0.8266 -0.1026
 2465TIP3    H2 7353   2.694   2.544   2.613 -0.3557 -0.2796 -0.3068
 2466TIP3   OH2 7354   1.628   3.180   4.187 -0.7486  0.0022 -0.4700
 2466TIP3    H1 7355   1.687   3.222   4.124 -2.7665  2.7962 -0.5998
 2466TIP3    H2 7356   1.545   3.170   4.139 -1.7800  0.4981  1.1826
 2467TIP3   OH2 7357   3.909   2.013   4.852  0.4021  0.5446 -1.0402
 2467TIP3    H1 7358   3.969   2.036   4.781 -0.4855 -0.2513 -2.0734
 2467TIP3    H2 7359   3.903   1.917   4.849 -2.5151  0.7012 -2.3204
 2468TIP3   OH2 7360   4.359   1.064   1.484 -0.1647  0.5677  0.0537
 2468TIP3    H1 7361   4.347   1.046   1.578  0.0447 -1.3245 -0.2602
 2468TIP3    H2 7362   4.283   1.117   1.460 -0.8011  0.1449  1.0717
 2469TIP3   OH2 7363   3.635   1.529   3.767 -0.0873 -0.6738  0.2105
 2469TIP3    H1 7364   3.635   1.609   3.819  3.1433 -0.2397 -0.3819
 2469TIP3    H2 7365   3.587   1.551   3.688  0.1900  0.4614  0.3587
 2470TIP3   OH2 7366   3.482   0.438   4.365 -0.1040 -0.0867  0.1047
 2470TIP3    H1 7367   3.574   0.413   4.353 -0.5592 -1.6345 -0.3241
 2470TIP3    H2 7368   3.485   0.515   4.421  1.3674 -1.3171  1.7988
 2471TIP3   OH2 7369   3.331   0.023   2.263 -0.1821 -0.2325  0.3391
 2471TIP3    H1 7370   3.248   0.069   2.254 -0.5652 -0.6374  1.6691
 2471TIP3    H2 7371   3.309  -0.058   2.308  0.4206 -1.9659 -2.3530
 2472TIP3   OH2 7372   8.465   7.882   3.487  0.5318 -0.2387  0.5405
 2472TIP3    H1 7373   8.485   7.818   3.555  2.9752 -0.0102  0.0685
 2472TIP3    H2 7374   8.369   7.886   3.485  0.4056 -1.8516  2.4452
 2473TIP3   OH2 7375   2.148   4.609   4.002 -0.2747 -0.0331  0.2137
 2473TIP3    H1 7376   2.115   4.671   3.937 -1.0558 -1.3167 -0.6331
 2473TIP3    H2 7377   2.069   4.570   4.039  0.1294  1.0626  2.3471
 2474TIP3   OH2 7378   1.867   1.651   3.861 -0.4942  0.0414  0.5429
 2474TIP3    H1 7379   1.864   1.555   3.858 -3.0014  0.1288 -0.4113
 2474TIP3    H2 7380   1.894   1.677   3.773 -2.6196  0.2813 -0.0586
 2475TIP3   OH2 7381   3.505   2.307   4.372 -0.0081  0.4566  0.8193
 2475TIP3    H1 7382   3.422   2.339   4.334  0.6837  2.0832  0.6281
 2475TIP3    H2 7383   3.549   2.264   4.298  0.3723  1.7137  0.2949
 2476TIP3   OH2 7384   0.903   1.938   2.996 -0.4554 -0.2587  0.1154
 2476TIP3    H1 7385   0.883   1.872   3.063 -0.4844 -1.0288 -0.6319
 2476TIP3    H2 7386   0.861   2.018   3.027 -3.0917 -1.3607 -0.4865
 2477TIP3   OH2 7387   1.659   3.521   4.214  0.9166 -0.2124  0.0246
 2477TIP3    H1 7388   1.682   3.483   4.130 -0.4321  1.0917 -0.9613
 2477TIP3    H2 7389   1.743   3.542   4.255  1.5770 -0.9014 -0.9669
 2478TIP3   OH2 7390   3.258   4.081   3.569 -0.0938  0.2061 -0.2844
 2478TIP3    H1 7391   3.171   4.045   3.552  0.0635 -0.0863 -0.4549
 2478TIP3    H2 7392   3.298   4.019   3.630 -0.3659  0.8422  0.5623
 2479TIP3   OH2 7393   3.470  -0.018   4.137 -0.0019  1.0093 -0.1129
 2479TIP3    H1 7394   3.455   0.075   4.152 -0.1425  0.8021  1.1117
 2479TIP3    H2 7395   3.381  -0.056   4.135  0.0630  0.8686 -0.4020
 2480TIP3   OH2 7396   4.092   1.856   4.439  0.3884  0.1897  0.0396
 2480TIP3    H1 7397   4.139   1.877   4.359  0.1677  1.9992  0.3698
 2480TIP3    H2 7398   4.151   1.797   4.487  0.2285 -1.4523 -1.7221
 2481TIP3   OH2 7399   2.523   2.340   3.292 -0.6946 -0.1260  0.2372
 2481TIP3    H1 7400   2.446   2.390   3.323 -0.9562  0.1353 -0.8191
 2481TIP3    H2 7401   2.598   2.389   3.326 -0.9799 -0.0321  0.7453
 2482TIP3   OH2 7402   8.235   0.805   5.924  0.0597 -0.3002 -0.0202
 2482TIP3    H1 7403   8.199   0.719   5.945 -4.0770  1.1404 -0.7771
 2482TIP3    H2 7404   8.247   0.847   6.009 -1.4911 -0.2838  0.2025
 2483TIP3   OH2 7405   2.557   0.314   2.415  0.0745  0.4201  0.3316
 2483TIP3    H1 7406   2.601   0.376   2.357 -0.5424  2.5107  2.0612
 2483TIP3    H2 7407   2.599   0.324   2.500  0.4289 -2.0496  0.5030
 2484TIP3   OH2 7408   0.009   2.462   4.837  0.3340  0.2103  0.3807
 2484TIP3    H1 7409  -0.019   2.374   4.862  0.2197  0.4996  1.2933
 2484TIP3    H2 7410   0.017   2.509   4.920  3.2537  0.2262  0.1293
 2485TIP3   OH2 7411   4.607   3.583   4.409  0.6856  0.4810  0.1705
 2485TIP3    H1 7412   4.559   3.500   4.410  0.4997  0.5911  1.3179
 2485TIP3    H2 7413   4.646   3.589   4.496  2.1434  0.7757 -0.4815
 2486TIP3   OH2 7414   2.034   2.222   3.601  0.3347 -0.6875  0.1575
 2486TIP3    H1 7415   2.035   2.219   3.697 -2.1307  2.5662  0.3575
 2486TIP3    H2 7416   2.089   2.297   3.579 -0.7432 -0.1999 -0.8943
 2487TIP3   OH2 7417   2.816   0.683   3.563 -0.0291  0.5086 -0.0408
 2487TIP3    H1 7418   2.840   0.775   3.553  0.6393  0.3269 -0.1796
 2487TIP3    H2 7419   2.878   0.650   3.628 -0.0572  0.0772 -0.2327
 2488TIP3   OH2 7420   3.559   1.992   2.268  0.0178  0.0004 -0.0566
 2488TIP3    H1 7421   3.476   1.976   2.221  1.1510  0.1256 -2.1808
 2488TIP3    H2 7422   3.555   2.085   2.292 -0.2065  0.1658 -0.7068
 2489TIP3   OH2 7423   0.530   2.067   2.394  0.0141  0.4278  0.2579
 2489TIP3    H1 7424   0.614   2.068   2.440  0.3297  0.3570 -0.3118
 2489TIP3    H2 7425   0.465   2.055   2.463  0.7117 -3.4119  0.3543
 2490TIP3   OH2 7426   2.929   1.783   3.367 -0.1126 -0.1075  0.0637
 2490TIP3    H1 7427   2.904   1.870   3.335  1.4123  0.2259 -0.2520
 2490TIP3    H2 7428   2.910   1.786   3.461  0.3211  0.7163  0.1309
 2491TIP3   OH2 7429   0.942   2.947   2.211  0.3401 -0.6666 -0.7161
 2491TIP3    H1 7430   1.023   2.964   2.161  1.7057 -0.5469  1.4775
 2491TIP3    H2 7431   0.968   2.883   2.277 -1.6130 -1.3063 -0.5430
 2492TIP3   OH2 7432   2.772   1.042   0.677 -0.3380 -0.0727  0.7303
 2492TIP3    H1 7433   2.678   1.060   0.686 -0.7381 -1.6302 -0.1485
 2492TIP3    H2 7434   2.795   0.995   0.757 -0.3574  0.0455  0.8069
 2493TIP3   OH2 7435   1.522   4.431   3.528 -0.0348 -0.2762 -0.0456
 2493TIP3    H1 7436   1.587   4.470   3.470  1.0262 -0.0355  1.2652
 2493TIP3    H2 7437   1.547   4.461   3.615 -1.0067 -1.4160  0.6443
 2494TIP3   OH2 7438   3.488   0.150   3.407  0.6352 -0.1801 -0.3353
 2494TIP3    H1 7439   3.563   0.125   3.461  0.1189  1.1832  1.0585
 2494TIP3    H2 7440   3.422   0.083   3.426  0.4763  0.2615  0.7011
 2495TIP3   OH2 7441   1.692   2.064   3.318  0.4410 -0.1021  0.2329
 2495TIP3    H1 7442   1.682   1.971   3.339  0.9120 -0.1760  0.1203
 2495TIP3    H2 7443   1.707   2.066   3.224 -1.2114  0.2006 -0.0530
 2496TIP3   OH2 7444   0.144   1.998   2.419  0.2481 -0.5175 -0.2352
 2496TIP3    H1 7445   0.189   1.948   2.487  1.5160  2.2844  1.0686
 2496TIP3    H2 7446   0.203   1.995   2.343  0.9367  0.0534  0.2679
 2497TIP3   OH2 7447   4.858   1.660   3.031 -0.3621 -0.0580 -0.4733
 2497TIP3    H1 7448   4.868   1.750   2.999 -0.1021 -0.0534 -0.3845
 2497TIP3    H2 7449   4.908   1.607   2.969 -0.3342 -0.1160 -0.4009
 2498TIP3   OH2 7450   1.390   0.796   4.774 -0.3616 -0.0363  0.7622
 2498TIP3    H1 7451   1.318   0.776   4.834  0.1157 -0.1252  1.3172
 2498TIP3    H2 7452   1.420   0.882   4.801 -0.0123 -0.1652  0.7865
 2499TIP3   OH2 7453   0.058   6.423   0.036  0.0791  0.1396 -0.5667
 2499TIP3    H1 7454   0.148   6.433   0.006 -0.0632 -0.6878 -1.2986
 2499TIP3    H2 7455   0.020   6.358  -0.023 -0.9935  0.4679 -0.2545
 2500TIP3   OH2 7456   0.377   1.127   5.072  0.0245 -0.4351 -0.3843
 2500TIP3    H1 7457   0.394   1.064   5.143 -0.3585 -1.0624 -0.8422
 2500TIP3    H2 7458   0.398   1.079   4.992  0.6728  0.3510 -0.6855
 2501TIP3   OH2 7459   2.722   2.977   2.337  0.2723 -0.2809  0.2800
 2501TIP3    H1 7460   2.667   3.010   2.408  0.1368 -1.5848  0.7939
 2501TIP3    H2 7461   2.790   3.043   2.327 -1.2157  1.2360 -0.1896
 2502TIP3   OH2 7462   2.941   2.378   4.459 -0.2471  0.8027  0.1917
 2502TIP3    H1 7463   2.885   2.306   4.486  0.2267 -0.0435 -1.0333
 2502TIP3    H2 7464   2.917   2.451   4.517 -1.0434 -0.1988  1.1276
 2503TIP3   OH2 7465   1.358   2.245   4.288 -0.3253 -0.1573  0.2308
 2503TIP3    H1 7466   1.362   2.177   4.221  3.1517  0.1433  0.0755
 2503TIP3    H2 7467   1.402   2.208   4.364 -2.0795  0.4182  1.5543
 2504TIP3   OH2 7468   2.466   1.129   4.143  0.6203 -0.1926  0.2217
 2504TIP3    H1 7469   2.430   1.041   4.133  1.1343 -0.5466  1.3588
 2504TIP3    H2 7470   2.391   1.182   4.172  0.4804 -0.4190  0.2738
 2505TIP3   OH2 7471   4.898   5.046   6.391 -0.0341 -0.1529 -0.0722
 2505TIP3    H1 7472   4.984   5.064   6.428  0.1171 -1.7131  0.3952
 2505TIP3    H2 7473   4.857   5.132   6.381  0.8704  0.4649  1.4146
 2506TIP3   OH2 7474   3.167   0.305   3.642 -0.3415  0.2258 -0.3295
 2506TIP3    H1 7475   3.196   0.215   3.654 -3.1988 -0.6998  0.0804
 2506TIP3    H2 7476   3.154   0.314   3.548 -1.1027 -0.1484 -0.2627
 2507TIP3   OH2 7477   3.004   1.386   3.208 -0.5169 -0.1202 -0.3537
 2507TIP3    H1 7478   2.929   1.326   3.201 -0.3783 -0.5176  1.3960
 2507TIP3    H2 7479   3.053   1.353   3.283 -0.1544  1.8896  0.3064
 2508TIP3   OH2 7480   1.580   1.446   4.864  0.1409  0.0141  0.3263
 2508TIP3    H1 7481   1.520   1.441   4.939  0.3382 -2.0660  0.3641
 2508TIP3    H2 7482   1.667   1.453   4.904  0.0558  1.5962  0.2700
 2509TIP3   OH2 7483   2.733   2.511   3.355 -0.1323 -0.1421 -0.1898
 2509TIP3    H1 7484   2.788   2.585   3.330 -1.0728  0.6781  0.1670
 2509TIP3    H2 7485   2.792   2.452   3.403  0.7104  0.1694 -0.8359
 2510TIP3   OH2 7486   2.688   1.527   4.497 -0.4789 -0.0302  0.3936
 2510TIP3    H1 7487   2.691   1.587   4.422 -0.2519 -0.3391  0.1555
 2510TIP3    H2 7488   2.772   1.540   4.541  0.2497 -1.3713 -0.5910
 2511TIP3   OH2 7489   3.270   2.311   2.202 -0.0916 -0.2442  0.0307
 2511TIP3    H1 7490   3.358   2.285   2.229  0.4247  1.0563 -0.3660
 2511TIP3    H2 7491   3.282   2.352   2.116 -0.6372  2.6289  1.2605
 2512TIP3   OH2 7492   8.444   1.819   3.287 -0.1283  0.3691 -0.2584
 2512TIP3    H1 7493   8.380   1.817   3.216 -0.5168  1.0541  0.0691
 2512TIP3    H2 7494   8.433   1.734   3.330  1.4331 -0.8468 -2.1586
 2513TIP3   OH2 7495   1.072   1.867   4.240 -0.1018  0.2938 -0.0160
 2513TIP3    H1 7496   1.027   1.929   4.298 -1.4010 -0.7503  0.1348
 2513TIP3    H2 7497   1.106   1.800   4.298 -0.0808  0.0353 -0.3246
 2514TIP3   OH2 7498   1.818   2.441   2.946 -0.3779  0.0064  0.2923
 2514TIP3    H1 7499   1.852   2.415   3.031 -0.2287 -0.5697  0.0592
 2514TIP3    H2 7500   1.729   2.407   2.943 -0.3348 -0.0995  0.1647
 2515TIP3   OH2 7501   1.345   2.036   5.405 -0.0685  0.4209 -0.1372
 2515TIP3    H1 7502   1.385   1.969   5.350  2.2253  0.4222  1.4604
 2515TIP3    H2 7503   1.256   2.005   5.420 -0.1635 -0.4701 -2.3284
 2516TIP3   OH2 7504   3.143   3.285   2.505 -0.2212  0.4724  0.2657
 2516TIP3    H1 7505   3.179   3.202   2.535 -2.1026 -0.6491 -0.4808
 2516TIP3    H2 7506   3.217   3.331   2.466  1.1561 -0.1968  2.0195
 2517TIP3   OH2 7507   3.447   1.701   3.302 -0.1680 -0.0222 -0.3901
 2517TIP3    H1 7508   3.489   1.624   3.264  1.5831 -0.1466  1.7047
 2517TIP3    H2 7509   3.357   1.674   3.318  0.1495 -1.2858 -0.6561
 2518TIP3   OH2 7510   1.877   1.156   4.161 -0.4770 -0.0145 -0.3423
 2518TIP3    H1 7511   1.871   1.119   4.249  0.6406 -0.8909 -0.6158
 2518TIP3    H2 7512   1.925   1.238   4.172 -1.6951  0.6560  0.0678
 2519TIP3   OH2 7513   4.197   2.587   3.794 -0.2919 -0.0085 -0.0254
 2519TIP3    H1 7514   4.106   2.560   3.806  0.1128 -0.9362  1.0179
 2519TIP3    H2 7515   4.206   2.599   3.700 -1.5485  0.3073 -0.1210
 2520TIP3   OH2 7516   7.493   7.488   4.408  0.4696  0.9691 -0.2854
 2520TIP3    H1 7517   7.454   7.547   4.343 -0.4560 -0.8169 -1.3969
 2520TIP3    H2 7518   7.433   7.490   4.482  0.5495  1.5735 -0.2360
 2521TIP3   OH2 7519   2.173   2.991   4.283  1.0530  0.2106 -0.2820
 2521TIP3    H1 7520   2.145   2.917   4.337  1.2912 -0.3925 -0.9708
 2521TIP3    H2 7521   2.106   2.996   4.214 -0.7477  2.6579  1.5413
 2522TIP3   OH2 7522   2.201   2.102   5.003 -0.2231  0.4982  0.7011
 2522TIP3    H1 7523   2.165   2.024   5.044  0.3916  0.3628  0.9789
 2522TIP3    H2 7524   2.266   2.135   5.065  0.7435  0.2647 -0.1776
 2523TIP3   OH2 7525   6.397   7.828   0.464  0.3186 -0.3613 -0.1212
 2523TIP3    H1 7526   6.431   7.742   0.490 -0.7302 -1.2580 -1.5960
 2523TIP3    H2 7527   6.405   7.882   0.543  0.6811 -1.9028  0.9281
 2524TIP3   OH2 7528   4.368   2.378   3.289  0.5229  0.3154  0.0581
 2524TIP3    H1 7529   4.277   2.349   3.294  0.0065  1.1608 -3.2615
 2524TIP3    H2 7530   4.362   2.469   3.260  2.4634  0.0080 -1.3653
 2525TIP3   OH2 7531   2.450   1.359   1.628  0.2272 -0.4659 -0.4945
 2525TIP3    H1 7532   2.403   1.284   1.591  0.5570 -1.0059  0.1620
 2525TIP3    H2 7533   2.451   1.424   1.558 -1.2662 -0.5503 -0.6079
 2526TIP3   OH2 7534   1.129   3.255   2.292 -0.2100  0.0126  0.0989
 2526TIP3    H1 7535   1.185   3.295   2.358  0.6700  0.0090 -0.6417
 2526TIP3    H2 7536   1.178   3.180   2.260 -1.4158 -1.0809  0.7377
 2527TIP3   OH2 7537   3.515   1.215   4.387 -0.0246 -0.2159  0.0895
 2527TIP3    H1 7538   3.459   1.143   4.416  0.3957 -0.6110 -0.0775
 2527TIP3    H2 7539   3.523   1.202   4.293  0.4967 -0.2656  0.1393
 2528TIP3   OH2 7540   0.029   2.242   2.470  0.2356 -0.5712 -0.0822
 2528TIP3    H1 7541   0.070   2.157   2.456  0.7172 -0.6788  1.8738
 2528TIP3    H2 7542  -0.021   2.258   2.390  2.0758 -1.5803 -1.4712
 2529TIP3   OH2 7543   3.340   3.584   4.658  0.0680  0.5838  0.0226
 2529TIP3    H1 7544   3.388   3.641   4.598 -0.7293  1.1811 -0.0474
 2529TIP3    H2 7545   3.264   3.554   4.608  0.4247 -0.4733  0.0899
 2530TIP3   OH2 7546   3.365   0.405   0.767 -0.1621  0.4973 -0.1550
 2530TIP3    H1 7547   3.349   0.499   0.781 -1.1619  0.4339 -0.8390
 2530TIP3    H2 7548   3.329   0.362   0.844  0.0745  0.6612  0.0450
 2531TIP3   OH2 7549   2.801   1.438   2.065  0.1344  0.1011 -0.0814
 2531TIP3    H1 7550   2.755   1.378   2.007  1.2319  1.1729 -2.1101
 2531TIP3    H2 7551   2.877   1.389   2.094  1.3763  0.6733 -2.2489
 2532TIP3   OH2 7552   4.035   2.767   2.495 -0.1393 -0.2249  0.3566
 2532TIP3    H1 7553   4.053   2.718   2.575  2.2052  1.3908  0.8939
 2532TIP3    H2 7554   3.990   2.846   2.524 -1.2992 -0.6751 -0.1833
 2533TIP3   OH2 7555   8.359   1.582   1.237 -0.1586 -0.5088  0.0472
 2533TIP3    H1 7556   8.291   1.574   1.304 -2.4291 -2.0607 -2.3347
 2533TIP3    H2 7557   8.417   1.508   1.252  0.9011  0.6518  1.9074
 2534TIP3   OH2 7558   2.230   2.397   2.576  0.6903  0.5413  0.1392
 2534TIP3    H1 7559   2.286   2.355   2.510  0.0015  0.7869 -0.6172
 2534TIP3    H2 7560   2.286   2.405   2.653  0.8963 -1.5532  0.2247
 2535TIP3   OH2 7561   3.573   1.094   1.565  0.4202  0.0778  0.0076
 2535TIP3    H1 7562   3.543   1.073   1.477 -1.8601 -0.5659  0.9009
 2535TIP3    H2 7563   3.582   1.009   1.608 -1.1658  0.4941  1.2195
 2536TIP3   OH2 7564   0.661   2.962   2.900 -0.4322 -0.2142 -0.8044
 2536TIP3    H1 7565   0.721   3.026   2.938 -0.3717 -0.6449 -0.1762
 2536TIP3    H2 7566   0.586   3.014   2.873 -0.2082  0.1844 -0.6730
 2537TIP3   OH2 7567   3.052   1.947   2.144  0.1718 -0.3503  0.3624
 2537TIP3    H1 7568   3.069   2.041   2.155 -0.2611 -0.3342  0.9170
 2537TIP3    H2 7569   3.138   1.909   2.130  0.2102  0.3288 -1.4159
 2538TIP3   OH2 7570   1.340   3.609   3.335 -0.7826  0.0122  0.0052
 2538TIP3    H1 7571   1.293   3.596   3.417 -0.0103 -2.2134  0.1367
 2538TIP3    H2 7572   1.406   3.675   3.355  1.3902 -2.6574  2.0775
 2539TIP3   OH2 7573   1.416   1.496   5.173  0.3232 -0.4616 -0.2003
 2539TIP3    H1 7574   1.365   1.576   5.156  2.6347  1.0786 -0.0520
 2539TIP3    H2 7575   1.420   1.490   5.268 -1.2700 -1.7175 -0.1893
 2540TIP3   OH2 7576   3.516   2.665   4.412 -0.4485 -0.4176  0.1219
 2540TIP3    H1 7577   3.437   2.676   4.359  0.7745  2.1794 -1.2594
 2540TIP3    H2 7578   3.518   2.741   4.470  1.1320 -0.3275 -0.0141
 2541TIP3   OH2 7579   2.524   2.296   1.193  0.2176  0.3023  0.0772
 2541TIP3    H1 7580   2.541   2.206   1.165 -2.6187 -0.0726 -0.5741
 2541TIP3    H2 7581   2.504   2.343   1.112 -1.5293  0.7425  0.7347
 2542TIP3   OH2 7582   3.374   1.365   1.343 -0.1356 -0.0737  0.1012
 2542TIP3    H1 7583   3.396   1.397   1.430 -0.8606  1.3489 -0.2262
 2542TIP3    H2 7584   3.284   1.333   1.351 -0.3341  0.4037 -0.2173
 2543TIP3   OH2 7585   4.091   4.657   2.355  0.1925  0.2422 -0.1991
 2543TIP3    H1 7586   4.055   4.731   2.305  0.1743 -0.0150 -0.5676
 2543TIP3    H2 7587   4.097   4.690   2.444 -0.5251  0.4412 -0.2233
 2544TIP3   OH2 7588   1.299   3.279   4.581  0.2704  0.1162  0.0243
 2544TIP3    H1 7589   1.387   3.315   4.587  0.0174  0.5747  1.3710
 2544TIP3    H2 7590   1.299   3.227   4.501  1.9050 -0.2721  0.2558
 2545TIP3   OH2 7591   2.210   2.377   1.873  0.7507 -0.1475 -0.2181
 2545TIP3    H1 7592   2.116   2.388   1.885  0.7870 -0.5181  0.4033
 2545TIP3    H2 7593   2.218   2.303   1.813  0.6172  0.6681 -1.2586
 2546TIP3   OH2 7594   7.707   2.187   4.354  0.0975 -0.2156 -0.0590
 2546TIP3    H1 7595   7.745   2.133   4.423  1.1150  0.5410 -0.0180
 2546TIP3    H2 7596   7.781   2.236   4.318 -0.2969 -1.0514 -2.1178
 2547TIP3   OH2 7597   2.830   1.792   2.089 -0.9881  1.0860 -0.1580
 2547TIP3    H1 7598   2.866   1.867   2.137  1.1038 -0.0374  0.0513
 2547TIP3    H2 7599   2.864   1.802   2.001  0.4136 -0.3354  0.2017
 2548TIP3   OH2 7600   2.820   1.844   3.625  0.3111  0.2977  0.3249
 2548TIP3    H1 7601   2.752   1.898   3.665 -1.7864 -0.5393 -1.9763
 2548TIP3    H2 7602   2.815   1.761   3.671 -0.3585  0.1912  0.0736
 2549TIP3   OH2 7603   1.220   2.738   3.034 -0.0347  0.5706  0.1718
 2549TIP3    H1 7604   1.264   2.670   3.086 -1.5740 -1.1373 -0.7339
 2549TIP3    H2 7605   1.130   2.738   3.066 -0.7098  0.3036 -1.6969
 2550TIP3   OH2 7606   3.996   0.147   3.523 -0.6825  0.4447 -0.0049
 2550TIP3    H1 7607   4.033   0.140   3.610 -1.3203  0.6390  0.2906
 2550TIP3    H2 7608   3.961   0.237   3.519  0.2914  0.7951 -0.8413
 2551TIP3   OH2 7609   0.082   6.651   1.237  0.0615 -0.3287  0.9874
 2551TIP3    H1 7610   0.157   6.640   1.179 -0.3097 -0.4899  0.5399
 2551TIP3    H2 7611   0.009   6.670   1.179  0.2247  2.3002  1.5618
 2552TIP3   OH2 7612   8.238   1.813   2.380 -0.2380 -0.4584 -0.5436
 2552TIP3    H1 7613   8.155   1.860   2.374 -1.2028 -2.0704 -0.1971
 2552TIP3    H2 7614   8.294   1.855   2.314 -0.7881  1.6580  0.2770
 2553TIP3   OH2 7615   2.323   2.142   2.715  0.1861 -0.4281  0.5241
 2553TIP3    H1 7616   2.384   2.196   2.765  0.2314 -0.0963  0.1074
 2553TIP3    H2 7617   2.241   2.148   2.763  0.0466  0.4414  0.1915
 2554TIP3   OH2 7618   3.094   1.203   2.795 -0.2013 -0.0644 -0.4533
 2554TIP3    H1 7619   3.084   1.149   2.874  1.2942  0.5895  0.2196
 2554TIP3    H2 7620   3.091   1.293   2.828  3.9551  0.2350 -0.5688
 2555TIP3   OH2 7621   7.403   6.303   2.886 -0.1365 -0.0719  0.6969
 2555TIP3    H1 7622   7.451   6.369   2.836 -0.4359  0.6193  1.2963
 2555TIP3    H2 7623   7.388   6.345   2.971  1.4265 -1.6670  1.7940
 2556TIP3   OH2 7624   2.264   1.818   1.540 -0.2027  0.6550 -0.3711
 2556TIP3    H1 7625   2.250   1.886   1.606 -0.0448  0.8756 -0.5655
 2556TIP3    H2 7626   2.230   1.738   1.581  0.6239  0.6318  0.2829
 2557TIP3   OH2 7627   2.585   3.194   4.542  0.4287 -0.0598 -0.2702
 2557TIP3    H1 7628   2.575   3.270   4.599  4.5015 -0.9893  1.8431
 2557TIP3    H2 7629   2.571   3.229   4.454  1.0192  2.8670  0.7449
 2558TIP3   OH2 7630   2.608   2.041   3.697  0.4313  0.4659 -0.3168
 2558TIP3    H1 7631   2.520   2.075   3.710 -0.1659 -1.1338 -0.0710
 2558TIP3    H2 7632   2.666   2.105   3.739 -0.8368 -0.1452  2.4060
 2559TIP3   OH2 7633   4.325   1.385   3.762  0.0066 -0.2340 -0.0517
 2559TIP3    H1 7634   4.394   1.334   3.719 -1.0554 -0.2658 -1.7782
 2559TIP3    H2 7635   4.356   1.397   3.851  1.0066 -2.5739 -0.0442
 2560TIP3   OH2 7636   1.539   2.383   2.831 -0.2335 -0.6439  0.5764
 2560TIP3    H1 7637   1.601   2.368   2.760 -2.3651  2.0655 -1.9236
 2560TIP3    H2 7638   1.453   2.376   2.790 -1.4985  1.7722  2.7004
 2561TIP3   OH2 7639   8.373   7.808   2.849  0.0280 -0.2531  0.0531
 2561TIP3    H1 7640   8.346   7.748   2.779  0.8473  0.4224 -0.8484
 2561TIP3    H2 7641   8.331   7.891   2.827  0.3548 -0.0171  0.3108
 2562TIP3   OH2 7642   2.008   2.080   2.569  0.4736 -0.1974 -0.4108
 2562TIP3    H1 7643   2.053   2.159   2.600  1.3744 -0.8075 -0.1467
 2562TIP3    H2 7644   2.077   2.028   2.528  0.0998 -1.3527  0.4025
 2563TIP3   OH2 7645   8.287   0.833   3.708  0.1292  0.7376  0.2446
 2563TIP3    H1 7646   8.199   0.843   3.744 -0.0345  0.8615 -0.1943
 2563TIP3    H2 7647   8.341   0.809   3.783 -0.4521 -0.2456  0.3493
 2564TIP3   OH2 7648   2.236   0.544   3.737  0.4472 -0.2136 -0.3548
 2564TIP3    H1 7649   2.158   0.494   3.763  0.0681  1.2717  1.4497
 2564TIP3    H2 7650   2.204   0.607   3.673  0.0424  0.7734  0.8076
 2565TIP3   OH2 7651   2.701   3.088   5.177 -0.1788 -0.3061  0.5362
 2565TIP3    H1 7652   2.689   3.116   5.086 -1.0682 -0.1264  0.7011
 2565TIP3    H2 7653   2.699   3.170   5.227  1.1103 -0.3364  0.6427
 2566TIP3   OH2 7654   1.646   2.690   6.646 -0.1178  0.0614 -0.4386
 2566TIP3    H1 7655   1.722   2.639   6.673 -1.4726 -1.8726 -0.1719
 2566TIP3    H2 7656   1.661   2.709   6.553  0.6620 -0.3499 -0.4012
 2567TIP3   OH2 7657   2.951   1.735   0.753  0.2298  0.2575  0.1379
 2567TIP3    H1 7658   2.874   1.718   0.698  1.7702 -0.9047 -1.7199
 2567TIP3    H2 7659   2.964   1.829   0.747 -0.6690  0.3798 -0.0441
 2568TIP3   OH2 7660   0.655   4.014   4.938  0.6224 -0.4936  0.1198
 2568TIP3    H1 7661   0.597   4.000   5.013  1.2683 -0.0989  0.7023
 2568TIP3    H2 7662   0.668   4.109   4.935  0.5559 -0.5043 -0.5266
 2569TIP3   OH2 7663   2.900   1.935   3.027 -0.8192 -0.0835  0.0692
 2569TIP3    H1 7664   2.981   1.887   3.009  0.4151  0.8368  2.8801
 2569TIP3    H2 7665   2.850   1.876   3.084 -0.7179  0.6512  0.9150
 2570TIP3   OH2 7666   0.414   1.777   5.394  0.1315 -0.1613  0.1443
 2570TIP3    H1 7667   0.470   1.851   5.369 -0.4852  0.5707  0.8790
 2570TIP3    H2 7668   0.325   1.811   5.386 -0.1578 -0.8321  0.5020
 2571TIP3   OH2 7669   0.919   6.721   0.510 -0.1068  0.0684 -0.3024
 2571TIP3    H1 7670   0.909   6.737   0.416 -0.7589  0.9190 -0.0939
 2571TIP3    H2 7671   0.960   6.801   0.543 -1.3442  0.4238  0.3916
 2572TIP3   OH2 7672   1.283   4.175   6.253 -0.4191 -0.0356 -0.1016
 2572TIP3    H1 7673   1.366   4.147   6.291 -1.1897 -0.2975  1.4399
 2572TIP3    H2 7674   1.302   4.192   6.161  1.4896  0.5661  0.3986
 2573TIP3   OH2 7675   0.383   2.368   1.085 -0.5450 -0.0234 -0.5583
 2573TIP3    H1 7676   0.453   2.322   1.132 -1.2306 -2.1880 -1.5975
 2573TIP3    H2 7677   0.409   2.460   1.088  1.1243 -0.5104  1.1335
 2574TIP3   OH2 7678   4.182   1.459   5.334 -0.2469  0.5074 -0.1733
 2574TIP3    H1 7679   4.142   1.382   5.296  2.4395 -2.1294  2.1049
 2574TIP3    H2 7680   4.227   1.502   5.261  1.0959 -2.0078 -0.8932
 2575TIP3   OH2 7681   2.060   1.858   5.074 -0.0417  0.7563  0.1148
 2575TIP3    H1 7682   2.068   1.838   4.980  1.4424 -0.7626  0.5337
 2575TIP3    H2 7683   2.112   1.790   5.117 -0.8846  1.3130  2.0652
 2576TIP3   OH2 7684   2.247   0.504   5.277  0.2138  0.2815  0.1477
 2576TIP3    H1 7685   2.223   0.520   5.185 -1.3888 -0.6473  0.3817
 2576TIP3    H2 7686   2.323   0.560   5.292  0.5220  0.4247 -1.7602
 2577TIP3   OH2 7687   3.922   2.722   4.413  0.1479 -0.2504 -0.1684
 2577TIP3    H1 7688   3.855   2.777   4.370  1.3794  0.8530 -0.7129
 2577TIP3    H2 7689   3.909   2.635   4.374 -0.2609  0.2054 -1.0907
 2578TIP3   OH2 7690   2.583   1.686   2.235 -0.3869 -0.7475 -0.3418
 2578TIP3    H1 7691   2.541   1.680   2.321  0.4104 -2.3322 -0.0528
 2578TIP3    H2 7692   2.515   1.720   2.177 -0.2715  2.7340  1.3845
 2579TIP3   OH2 7693   5.908   2.306   3.149  0.3638  0.1139  0.5399
 2579TIP3    H1 7694   5.868   2.240   3.092 -4.0569  1.8447  1.4183
 2579TIP3    H2 7695   5.936   2.375   3.089  0.8023 -0.5031  0.0229
 2580TIP3   OH2 7696   0.910   7.707   0.647 -0.4081  0.2424  0.2950
 2580TIP3    H1 7697   0.920   7.705   0.551  0.4607 -0.3789  0.3885
 2580TIP3    H2 7698   0.860   7.786   0.664 -0.1294  0.6353 -0.6488
 2581TIP3   OH2 7699   2.455   2.791   4.842 -0.9134  0.0449  0.4705
 2581TIP3    H1 7700   2.433   2.872   4.795 -0.1806 -0.0656 -0.0760
 2581TIP3    H2 7701   2.537   2.762   4.802 -0.0975  0.1209  2.0528
 2582TIP3   OH2 7702   1.783   1.322   5.659  0.6713 -0.4919 -0.2217
 2582TIP3    H1 7703   1.751   1.239   5.695 -0.0935 -1.4555 -3.0145
 2582TIP3    H2 7704   1.719   1.387   5.687  1.1786 -0.8164  1.8300
 2583TIP3   OH2 7705   4.062   1.993   3.511 -0.3250  0.4849 -0.4249
 2583TIP3    H1 7706   4.139   1.980   3.567 -1.1106 -0.7199  0.3918
 2583TIP3    H2 7707   4.030   2.080   3.532  0.7315  0.9346 -0.6590
 2584TIP3   OH2 7708   4.011   1.927   3.993  0.2139  0.2221  0.6907
 2584TIP3    H1 7709   3.917   1.944   4.006  0.1619  1.2789 -0.9062
 2584TIP3    H2 7710   4.020   1.918   3.898  1.4891 -1.3801  0.9565
 2585TIP3   OH2 7711   2.066   0.527   4.351  0.5003  0.7654 -0.1817
 2585TIP3    H1 7712   2.105   0.505   4.267  3.8690  0.0088  1.4982
 2585TIP3    H2 7713   1.991   0.467   4.359  0.3531  0.6240 -2.4453
 2586TIP3   OH2 7714   2.025   1.812   3.152 -0.2403  0.6616  0.8132
 2586TIP3    H1 7715   2.086   1.805   3.079 -0.6871 -1.3961  0.6029
 2586TIP3    H2 7716   1.980   1.896   3.138  1.8190  1.7384  0.4410
 2587TIP3   OH2 7717   2.921   1.525   4.632 -0.1311  0.3570 -0.4805
 2587TIP3    H1 7718   2.957   1.558   4.714  1.9580  1.6286 -1.8591
 2587TIP3    H2 7719   2.940   1.432   4.633  0.0885  0.4078  0.3610
 2588TIP3   OH2 7720   4.493   1.255   4.417  0.5010  0.2902  0.2419
 2588TIP3    H1 7721   4.419   1.221   4.368  1.1878 -1.0783  0.1338
 2588TIP3    H2 7722   4.544   1.178   4.442  1.3414  1.1288  1.2038
 2589TIP3   OH2 7723   5.433   1.875   2.391  0.5570  0.5090 -0.3717
 2589TIP3    H1 7724   5.414   1.935   2.318  0.2306  1.2172  0.2916
 2589TIP3    H2 7725   5.411   1.788   2.357 -0.6774  0.9543 -0.7424
 2590TIP3   OH2 7726   3.212   1.221   5.296  0.5034  0.0785 -0.1400
 2590TIP3    H1 7727   3.269   1.212   5.220 -2.2653 -2.4510 -2.0136
 2590TIP3    H2 7728   3.141   1.277   5.266  0.3541  0.6283  1.1997
 2591TIP3   OH2 7729   2.780   2.462   3.724 -0.1686 -0.2850 -0.1674
 2591TIP3    H1 7730   2.793   2.386   3.667  1.7934  1.0391 -1.5817
 2591TIP3    H2 7731   2.685   2.468   3.735 -0.5566 -1.0162 -2.7370
 2592TIP3   OH2 7732   1.544   0.912   3.469  0.0769  0.4073  0.5033
 2592TIP3    H1 7733   1.480   0.977   3.441  1.0103  1.6419  1.2136
 2592TIP3    H2 7734   1.613   0.963   3.511  0.5480 -1.0858  1.5762
 2593TIP3   OH2 7735   2.589   1.013   3.101 -0.1871 -0.5187 -0.0462
 2593TIP3    H1 7736   2.622   1.006   3.011 -0.2480 -3.1776  0.1003
 2593TIP3    H2 7737   2.542   1.096   3.102  2.0338  0.8199 -1.7285
 2594TIP3   OH2 7738   1.935   4.217   3.489  0.2723 -0.4850 -0.4554
 2594TIP3    H1 7739   1.960   4.132   3.527 -0.0511  0.4612  1.9284
 2594TIP3    H2 7740   2.003   4.277   3.520 -1.8328  0.9746  1.4267
 2595TIP3   OH2 7741   7.948   1.197   2.627 -0.8698 -0.1468  0.1786
 2595TIP3    H1 7742   7.980   1.122   2.676 -0.2445 -0.3373 -0.4999
 2595TIP3    H2 7743   7.936   1.266   2.692  1.1026 -0.0214  0.4492
 2596TIP3   OH2 7744   0.849   2.631   2.623 -0.1068  0.7072  0.1565
 2596TIP3    H1 7745   0.915   2.591   2.566  0.3113  1.7027 -0.0865
 2596TIP3    H2 7746   0.766   2.597   2.592 -0.0671  2.8410 -2.4549
 2597TIP3   OH2 7747   1.771   4.204   2.275 -0.1765  0.2358 -0.1350
 2597TIP3    H1 7748   1.837   4.165   2.218  2.6654  1.4627  2.1739
 2597TIP3    H2 7749   1.756   4.292   2.238  0.5447  0.4717  0.1199
 2598TIP3   OH2 7750   2.222   0.963   3.410  0.0135 -0.3330  0.0156
 2598TIP3    H1 7751   2.257   1.035   3.463  1.3490 -1.1301  0.2438
 2598TIP3    H2 7752   2.217   0.999   3.321 -2.3262  1.0372  0.6693
 2599TIP3   OH2 7753   3.802   2.616   5.053  0.0836  0.3904  0.0293
 2599TIP3    H1 7754   3.712   2.637   5.030 -0.1366 -1.1828 -0.5985
 2599TIP3    H2 7755   3.797   2.533   5.099  1.4552 -1.1277 -2.4434
 2600TIP3   OH2 7756   3.356   0.919   2.938  0.7715  0.4267 -0.0930
 2600TIP3    H1 7757   3.414   0.857   2.982 -0.5757  0.1366  1.3507
 2600TIP3    H2 7758   3.278   0.868   2.917  0.8120  0.9333 -1.5395
 2601TIP3   OH2 7759   4.835   2.137   1.992 -0.7609 -0.5715 -0.2130
 2601TIP3    H1 7760   4.741   2.129   1.974 -0.7367 -1.3998  0.0068
 2601TIP3    H2 7761   4.842   2.120   2.086 -0.6684  1.8529  0.2337
 2602TIP3   OH2 7762   5.036   2.292   1.906 -0.4701  0.8596  0.5483
 2602TIP3    H1 7763   4.963   2.233   1.926 -1.1449  0.9477 -1.5070
 2602TIP3    H2 7764   5.030   2.360   1.972 -1.5534  0.2503  1.1030
 2603TIP3   OH2 7765   3.778   2.928   2.787 -0.6952 -0.2699  0.1297
 2603TIP3    H1 7766   3.830   2.953   2.710 -0.4270  1.8743  0.9701
 2603TIP3    H2 7767   3.688   2.925   2.755 -0.2801 -2.3378 -0.9391
 2604TIP3   OH2 7768   3.253   1.464   3.640 -0.1448 -0.6352  0.0081
 2604TIP3    H1 7769   3.237   1.410   3.718  1.7610 -1.0081  0.1785
 2604TIP3    H2 7770   3.222   1.551   3.664 -0.2851 -0.9247  0.8942
 2605TIP3   OH2 7771   4.483   1.904   1.986  0.4245 -0.1822 -0.3434
 2605TIP3    H1 7772   4.549   1.836   1.975 -0.4158 -0.6617 -2.6513
 2605TIP3    H2 7773   4.517   1.978   1.936  1.4421  1.2481  2.3255
 2606TIP3   OH2 7774   7.729   7.494   4.549 -0.1877  0.1402  0.0482
 2606TIP3    H1 7775   7.669   7.470   4.478  3.1148 -1.0483 -2.4441
 2606TIP3    H2 7776   7.709   7.585   4.567 -2.6103 -0.1700 -0.8411
 2607TIP3   OH2 7777   3.475   3.196   4.434 -0.1134  0.2354 -0.0466
 2607TIP3    H1 7778   3.506   3.225   4.348 -0.6267  0.8153 -0.0429
 2607TIP3    H2 7779   3.466   3.277   4.484 -1.5372  0.0751 -0.0272
 2608TIP3   OH2 7780   5.595   1.053   6.424 -0.2109 -0.1933  0.1191
 2608TIP3    H1 7781   5.622   1.126   6.480 -0.9562  0.6007 -0.5275
 2608TIP3    H2 7782   5.673   1.030   6.375 -0.2028  0.8319 -0.3744
 2609TIP3   OH2 7783   2.593   0.530   4.619 -0.2220 -0.1620 -0.1265
 2609TIP3    H1 7784   2.545   0.578   4.687  1.9884  0.3892  1.0678
 2609TIP3    H2 7785   2.567   0.573   4.538 -1.3006  0.5112  0.5494
 2610TIP3   OH2 7786   3.562   1.497   4.266  0.3483 -0.3513 -0.0988
 2610TIP3    H1 7787   3.493   1.440   4.231  0.7421 -0.4211 -0.7564
 2610TIP3    H2 7788   3.631   1.437   4.293  0.6662 -0.1988 -0.5763
 2611TIP3   OH2 7789   2.483   1.905   0.556  0.1178  0.6355 -0.2222
 2611TIP3    H1 7790   2.482   1.943   0.644  1.3096  1.0869 -0.3929
 2611TIP3    H2 7791   2.574   1.878   0.543  0.2728  1.8915 -1.8781
 2612TIP3   OH2 7792   1.925   2.624   6.595  0.5112 -0.2143 -0.5827
 2612TIP3    H1 7793   1.982   2.597   6.667  0.4142 -1.4627 -0.9645
 2612TIP3    H2 7794   1.956   2.711   6.571  0.0510  0.5408  1.4788
 2613TIP3   OH2 7795   0.433   7.865   3.875 -0.3404 -0.2114 -0.1688
 2613TIP3    H1 7796   0.399   7.802   3.811  1.1506 -0.5588 -0.6463
 2613TIP3    H2 7797   0.512   7.823   3.909  1.0402  1.6943 -0.9663
 2614TIP3   OH2 7798   3.943   0.504   5.091 -0.0708  0.2666 -0.1088
 2614TIP3    H1 7799   4.029   0.471   5.117  0.2949  0.9759 -0.4043
 2614TIP3    H2 7800   3.887   0.486   5.166  0.1403 -0.9313 -0.2214
 2615TIP3   OH2 7801   2.622   1.647   3.444 -0.0156  0.0524 -0.3753
 2615TIP3    H1 7802   2.620   1.552   3.458  1.2666  0.1042  0.2089
 2615TIP3    H2 7803   2.683   1.679   3.510 -0.5659  1.3086 -0.4732
 2616TIP3   OH2 7804   1.261   1.189   4.262  0.0000  0.7944  0.0563
 2616TIP3    H1 7805   1.225   1.275   4.242  3.3097  2.0487 -0.8115
 2616TIP3    H2 7806   1.354   1.205   4.279  0.5143 -2.4955  0.6931
 2617TIP3   OH2 7807   2.460   0.840   4.513 -0.0926 -0.4589 -0.1380
 2617TIP3    H1 7808   2.495   0.923   4.481  0.4815  0.1844  2.0988
 2617TIP3    H2 7809   2.370   0.838   4.480  0.4728  0.1448 -1.7914
 2618TIP3   OH2 7810   2.362   2.604   1.936 -0.0197 -1.0052  0.5372
 2618TIP3    H1 7811   2.293   2.662   1.968 -1.3566 -2.3717  0.1797
 2618TIP3    H2 7812   2.321   2.518   1.931  1.8228 -1.9276  0.6926
 2619TIP3   OH2 7813   1.395   3.009   2.424  0.0481  0.4089  0.0196
 2619TIP3    H1 7814   1.427   2.982   2.510  0.2685  0.4984 -0.0335
 2619TIP3    H2 7815   1.302   3.028   2.438 -0.4122 -1.5865 -0.2212
 2620TIP3   OH2 7816   1.201   5.062   4.359 -0.1860  0.0927 -0.1506
 2620TIP3    H1 7817   1.217   5.137   4.416  0.8883 -0.2148 -0.0319
 2620TIP3    H2 7818   1.246   4.989   4.403 -0.6149 -0.4641 -0.6307
 2621TIP3   OH2 7819   0.919   1.203   3.206  0.3813 -0.2678  0.1306
 2621TIP3    H1 7820   0.979   1.186   3.279  0.7476 -1.5828 -0.4534
 2621TIP3    H2 7821   0.861   1.127   3.205  0.4779 -0.3411 -1.0479
 2622TIP3   OH2 7822   1.546   3.750   3.440 -0.0765  0.6725 -0.2452
 2622TIP3    H1 7823   1.607   3.681   3.467  0.8597  0.9250 -1.6316
 2622TIP3    H2 7824   1.602   3.817   3.401 -0.9136  2.5065  1.6494
 2623TIP3   OH2 7825   7.873   3.848   3.879 -0.3198 -0.1732  0.4126
 2623TIP3    H1 7826   7.922   3.916   3.833 -1.5274  0.7516  0.4580
 2623TIP3    H2 7827   7.862   3.882   3.968 -0.6818 -0.5443  0.5136
 2624TIP3   OH2 7828   1.327   4.998   5.763 -0.1660  0.0607  0.6320
 2624TIP3    H1 7829   1.306   5.021   5.854 -0.1964 -1.6953  1.0773
 2624TIP3    H2 7830   1.308   4.905   5.757  0.6596 -0.0133 -0.9494
 2625TIP3   OH2 7831   1.097   2.003   3.256 -0.6129 -0.2404  0.3591
 2625TIP3    H1 7832   1.006   2.014   3.286 -0.6947 -1.8261  0.7328
 2625TIP3    H2 7833   1.105   1.909   3.239  0.3314  0.1896 -1.7584
 2626TIP3   OH2 7834   3.334   2.515   2.384 -0.0422 -0.3813  0.4633
 2626TIP3    H1 7835   3.267   2.580   2.362  0.6701  0.6338  1.2643
 2626TIP3    H2 7836   3.301   2.434   2.345 -1.0673  0.3918 -0.3330
 2627TIP3   OH2 7837   0.908   4.972   4.179  0.5185  0.5720  0.0846
 2627TIP3    H1 7838   0.952   5.012   4.254 -0.4740 -1.4831  1.8160
 2627TIP3    H2 7839   0.934   4.880   4.181 -2.6217 -0.3820  0.3069
 2628TIP3   OH2 7840   6.189   7.618   4.613  0.7960 -0.3535 -0.1470
 2628TIP3    H1 7841   6.106   7.579   4.583 -0.5339  1.3929  1.1391
 2628TIP3    H2 7842   6.246   7.614   4.537 -0.1802 -2.3746 -0.8143
 2629TIP3   OH2 7843   3.268   3.166   4.039  0.2041  0.3321  0.3189
 2629TIP3    H1 7844   3.333   3.233   4.018  0.2673  0.7043  1.6461
 2629TIP3    H2 7845   3.234   3.138   3.954  2.6072 -0.3635 -0.4727
 2630TIP3   OH2 7846   1.468   1.793   2.967  0.3449  0.4580 -0.1943
 2630TIP3    H1 7847   1.437   1.745   3.043  0.5238  0.8918  0.1531
 2630TIP3    H2 7848   1.389   1.830   2.928  0.3750  1.1915  0.4364
 2631TIP3   OH2 7849   1.274   3.293   3.544  0.5383  0.3468  0.1457
 2631TIP3    H1 7850   1.289   3.227   3.612  1.6531  0.6448  0.1889
 2631TIP3    H2 7851   1.326   3.264   3.470  0.1247  0.5719 -0.2322
 2632TIP3   OH2 7852   2.945   3.046   4.266  0.2932 -0.0292  0.2596
 2632TIP3    H1 7853   2.914   2.959   4.241  1.6860 -0.3220 -0.4693
 2632TIP3    H2 7854   2.901   3.064   4.349 -0.8584 -0.9502 -0.1321
 2633TIP3   OH2 7855   0.934   4.178   3.204  0.4292 -0.0070  0.8380
 2633TIP3    H1 7856   0.899   4.184   3.115  0.8433  1.1778  0.7459
 2633TIP3    H2 7857   0.985   4.258   3.215 -0.1687  0.1735  2.3818
 2634TIP3   OH2 7858   0.674   2.549   3.027  0.5501  0.0419  0.4747
 2634TIP3    H1 7859   0.702   2.471   2.978  0.2123  0.1257  0.1476
 2634TIP3    H2 7860   0.606   2.589   2.972 -0.3271 -0.2509  1.3392
 2635TIP3   OH2 7861   7.356   6.653   2.761  0.0337 -0.0736  0.1857
 2635TIP3    H1 7862   7.308   6.570   2.763 -0.4554  0.1790 -0.9445
 2635TIP3    H2 7863   7.404   6.654   2.844 -1.4108 -0.6223  1.0508
 2636TIP3   OH2 7864   3.694   1.311   4.919 -0.2820 -0.5157  0.1851
 2636TIP3    H1 7865   3.675   1.255   4.845  0.3494 -0.6309  0.1102
 2636TIP3    H2 7866   3.747   1.257   4.978 -0.7757 -0.4280  0.7212
 2637TIP3   OH2 7867   0.621   2.731   4.894 -0.6191  0.4608 -0.4741
 2637TIP3    H1 7868   0.713   2.752   4.908  0.0932 -0.9511 -2.6976
 2637TIP3    H2 7869   0.595   2.681   4.971  0.6399  0.4388 -0.0563
 2638TIP3   OH2 7870   2.248   0.277   3.977 -0.4782  0.3103 -0.6362
 2638TIP3    H1 7871   2.314   0.212   4.001 -0.0911  0.6399 -0.8068
 2638TIP3    H2 7872   2.255   0.285   3.882  1.2860  2.5148 -0.3656
 2639TIP3   OH2 7873   7.645   7.856   4.290  0.1279  0.1192 -0.4530
 2639TIP3    H1 7874   7.660   7.934   4.237  1.5441 -1.4968 -2.5430
 2639TIP3    H2 7875   7.570   7.813   4.249  0.7845 -0.7682 -0.7506
 2640TIP3   OH2 7876   4.424   1.090   5.213 -0.4232 -0.5294  0.2019
 2640TIP3    H1 7877   4.414   1.111   5.306 -0.0662 -0.1652  0.1611
 2640TIP3    H2 7878   4.495   1.147   5.184  0.0202 -1.2318 -0.1044
 2641TIP3   OH2 7879   3.486   1.129   3.789 -0.5607  0.4131  0.0356
 2641TIP3    H1 7880   3.524   1.048   3.822  0.1143  0.3748 -0.8129
 2641TIP3    H2 7881   3.495   1.122   3.694 -4.3994 -0.4717 -0.3519
 2642TIP3   OH2 7882   1.269   3.675   2.775 -0.4106 -0.4800  0.1505
 2642TIP3    H1 7883   1.183   3.639   2.754  0.1850 -2.4033  0.9245
 2642TIP3    H2 7884   1.270   3.678   2.871  0.4113 -0.5128  0.1417
 2643TIP3   OH2 7885   6.632   7.710   3.866  0.4983 -0.2573  0.0721
 2643TIP3    H1 7886   6.705   7.745   3.918  1.0663  1.3734 -1.7566
 2643TIP3    H2 7887   6.571   7.783   3.859 -0.9723 -1.3801  0.9264
 2644TIP3   OH2 7888   2.358   0.061   3.297  0.4486  0.2357  0.2844
 2644TIP3    H1 7889   2.381   0.142   3.342 -0.1929  0.7830 -0.3596
 2644TIP3    H2 7890   2.270   0.076   3.263  0.0763 -0.9549  0.6721
 2645TIP3   OH2 7891   2.475   1.891   3.386  0.0263  0.7529  0.3803
 2645TIP3    H1 7892   2.532   1.816   3.404  1.1979  1.3165 -0.9228
 2645TIP3    H2 7893   2.469   1.937   3.470 -0.4715 -0.6170  1.1261
 2646TIP3   OH2 7894   3.581   0.874   3.976 -0.6123 -0.3559 -0.1951
 2646TIP3    H1 7895   3.533   0.816   4.035 -0.0962 -0.3648  0.2134
 2646TIP3    H2 7896   3.602   0.820   3.901  0.3114 -0.8394  0.4058
 2647TIP3   OH2 7897   1.783   0.461   3.176 -0.4617 -0.1257 -0.4416
 2647TIP3    H1 7898   1.821   0.453   3.089  2.1134  0.9364  0.5404
 2647TIP3    H2 7899   1.691   0.482   3.160  0.7294  3.5960 -2.9255
 2648TIP3   OH2 7900   2.434   1.514   6.708  0.0758 -0.8562  0.5396
 2648TIP3    H1 7901   2.478   1.550   6.784 -0.4046 -0.1493  0.4918
 2648TIP3    H2 7902   2.342   1.508   6.734 -0.5235  1.7709 -0.8298
 2649TIP3   OH2 7903   4.660   0.507   6.415 -0.2907  0.3351 -0.0893
 2649TIP3    H1 7904   4.647   0.573   6.347 -1.0025 -1.3054 -1.5745
 2649TIP3    H2 7905   4.747   0.527   6.451 -0.2297  1.6815 -0.9434
 2650TIP3   OH2 7906   3.746   0.977   3.111 -0.1447  0.9849  0.1699
 2650TIP3    H1 7907   3.713   0.953   3.024 -0.5208  1.4584  0.1771
 2650TIP3    H2 7908   3.833   0.938   3.115 -0.2382  0.7131 -0.3098
 2651TIP3   OH2 7909   6.562   6.820   6.374 -0.1749 -0.1325  0.2633
 2651TIP3    H1 7910   6.513   6.850   6.450  0.2485 -1.6538  1.1495
 2651TIP3    H2 7911   6.637   6.773   6.410  1.1358  0.8754 -1.0865
 2652TIP3   OH2 7912   2.653   3.123   2.554  0.5064  0.0222 -0.3772
 2652TIP3    H1 7913   2.676   3.192   2.492  2.8196 -0.4824 -0.1411
 2652TIP3    H2 7914   2.709   3.140   2.630 -0.9387 -0.4783  0.8147
 2653TIP3   OH2 7915   3.820   3.497   3.265 -0.0940 -0.0441  0.1744
 2653TIP3    H1 7916   3.835   3.585   3.299 -1.0060  0.4900 -0.7894
 2653TIP3    H2 7917   3.874   3.440   3.320  0.4941  1.1165  0.7985
 2654TIP3   OH2 7918   5.352   3.031   1.566 -0.6011  0.1338 -0.0456
 2654TIP3    H1 7919   5.383   3.114   1.603  0.4243 -0.2384 -0.0800
 2654TIP3    H2 7920   5.351   3.045   1.472  0.1496 -0.0990 -0.0860
 2655TIP3   OH2 7921   4.301   1.813   4.727 -0.0853  0.5078 -0.2509
 2655TIP3    H1 7922   4.251   1.740   4.688  2.0540 -1.2069  0.1174
 2655TIP3    H2 7923   4.331   1.778   4.811 -1.1337  2.7297  1.0795
 2656TIP3   OH2 7924   2.667   2.391   1.679  0.3191 -0.1336  0.5920
 2656TIP3    H1 7925   2.578   2.358   1.687  0.6037 -1.2032 -0.6045
 2656TIP3    H2 7926   2.677   2.412   1.586  0.4049  2.6282  1.1646
 2657TIP3   OH2 7927   4.487   1.177   0.541 -0.0300  0.1893 -0.2754
 2657TIP3    H1 7928   4.535   1.202   0.462  0.6570 -0.8257 -0.1933
 2657TIP3    H2 7929   4.516   1.088   0.559 -2.1716 -0.5492 -0.3805
 2658TIP3   OH2 7930   5.156   1.132   0.423  0.0749 -0.2653 -0.1343
 2658TIP3    H1 7931   5.247   1.106   0.431  0.1654  0.5946  1.8198
 2658TIP3    H2 7932   5.154   1.223   0.454 -1.5069 -0.3916  0.1822
 2659TIP3   OH2 7933   5.111   1.190   2.912 -0.1742 -0.3833 -0.1178
 2659TIP3    H1 7934   5.052   1.188   2.837  0.2407 -0.0234 -0.4621
 2659TIP3    H2 7935   5.198   1.202   2.873 -0.0832  1.0283  0.4769
 2660TIP3   OH2 7936   5.370   1.338   1.272  0.2724 -0.2371  0.4034
 2660TIP3    H1 7937   5.319   1.401   1.221  1.8169 -0.2608 -1.1783
 2660TIP3    H2 7938   5.452   1.328   1.224  1.1139 -1.4583  2.0519
 2661TIP3   OH2 7939   3.575   0.792   0.973 -0.2534  0.5940  0.3479
 2661TIP3    H1 7940   3.628   0.835   0.906 -0.9640 -2.2007 -2.1150
 2661TIP3    H2 7941   3.487   0.828   0.961 -0.5851 -0.5926 -0.8993
 2662TIP3   OH2 7942   1.877   7.897   3.686  0.2711  0.0203  0.2488
 2662TIP3    H1 7943   1.846   7.825   3.631 -0.0192  0.4394 -0.1305
 2662TIP3    H2 7944   1.838   7.976   3.649  0.9595  0.4347  0.3834
 2663TIP3   OH2 7945   4.622   7.665   1.069  0.5451  0.4589 -0.0444
 2663TIP3    H1 7946   4.626   7.700   1.158  0.8770  1.0333 -0.2834
 2663TIP3    H2 7947   4.689   7.596   1.068  0.7313  0.6366  0.0692
 2664TIP3   OH2 7948   4.303   0.911   4.141  0.6539 -0.0936  0.5194
 2664TIP3    H1 7949   4.237   0.871   4.199  1.4356 -0.7957  0.9423
 2664TIP3    H2 7950   4.255   0.977   4.092 -0.2019 -0.0422  1.4040
 2665TIP3   OH2 7951   5.197   3.160   2.426 -0.4251 -0.1067 -0.3711
 2665TIP3    H1 7952   5.252   3.083   2.418 -0.1820  0.2431 -2.1568
 2665TIP3    H2 7953   5.253   3.233   2.400 -1.9405  0.1568 -3.1179
 2666TIP3   OH2 7954   5.336   1.422   1.816  0.2717  0.8265 -0.3590
 2666TIP3    H1 7955   5.316   1.515   1.804  1.1963  1.1176  0.2931
 2666TIP3    H2 7956   5.376   1.396   1.733  0.3877  1.1205 -0.3982
 2667TIP3   OH2 7957   5.401   0.251   2.062 -0.6320  0.0873 -0.2814
 2667TIP3    H1 7958   5.379   0.228   1.972  1.4181 -0.3658 -0.6940
 2667TIP3    H2 7959   5.378   0.173   2.113  1.5809 -1.0379 -0.9549
 2668TIP3   OH2 7960   3.078   4.573   1.666 -0.5126 -0.2780 -0.2491
 2668TIP3    H1 7961   3.048   4.491   1.628  0.1723 -0.1252 -1.1473
 2668TIP3    H2 7962   3.090   4.631   1.591 -1.6241  0.8502  0.4421
 2669TIP3   OH2 7963   4.418   2.094   2.938  0.5435 -0.7254  0.3581
 2669TIP3    H1 7964   4.326   2.109   2.959 -0.1106 -1.5497 -1.7980
 2669TIP3    H2 7965   4.433   2.003   2.963  0.8693 -0.5131  0.9600
 2670TIP3   OH2 7966   3.582   0.846   3.679 -0.2388 -0.0567 -0.0334
 2670TIP3    H1 7967   3.601   0.759   3.644 -2.9503 -0.8177  0.3206
 2670TIP3    H2 7968   3.487   0.856   3.671 -0.4610  1.3314  3.4475
 2671TIP3   OH2 7969   3.136   0.641   4.200  0.4077  0.0519  0.5315
 2671TIP3    H1 7970   3.054   0.646   4.249  1.2065 -1.4451  2.0661
 2671TIP3    H2 7971   3.148   0.730   4.165 -2.5405 -0.0522 -0.8935
 2672TIP3   OH2 7972   4.859   2.332   1.650 -0.5263 -0.5695  0.1098
 2672TIP3    H1 7973   4.847   2.365   1.739  2.1317  1.5573 -0.2555
 2672TIP3    H2 7974   4.938   2.277   1.656  0.6481  0.9307 -1.2391
 2673TIP3   OH2 7975   1.930   3.582   1.665  0.2926  0.1460 -0.7954
 2673TIP3    H1 7976   1.881   3.517   1.715 -0.2104 -0.1183 -1.6245
 2673TIP3    H2 7977   1.863   3.639   1.626  0.7759  2.6715  1.8914
 2674TIP3   OH2 7978   1.791   3.754   4.075 -0.2190  0.5186 -0.3048
 2674TIP3    H1 7979   1.774   3.673   4.123  0.9693 -0.0168 -0.7461
 2674TIP3    H2 7980   1.718   3.811   4.097  0.8056  0.6997  3.0095
 2675TIP3   OH2 7981   3.719   7.579   2.391  0.3160 -0.0854 -0.6515
 2675TIP3    H1 7982   3.731   7.662   2.437 -1.9062 -0.3581  0.4883
 2675TIP3    H2 7983   3.679   7.603   2.307 -0.4763  0.0118 -0.2551
 2676TIP3   OH2 7984   4.901   1.893   2.570  0.1025  0.3013 -0.1704
 2676TIP3    H1 7985   4.887   1.868   2.661 -2.1950  0.1143 -0.5507
 2676TIP3    H2 7986   4.841   1.966   2.555  1.7938  1.5577 -1.0340
 2677TIP3   OH2 7987   6.352   2.412   2.373 -0.2501 -0.6194 -0.0088
 2677TIP3    H1 7988   6.304   2.365   2.305 -0.3273  1.2416 -1.2424
 2677TIP3    H2 7989   6.444   2.398   2.351 -0.2625 -0.6363 -0.0506
 2678TIP3   OH2 7990   4.020   1.077   2.832  0.1085 -0.0918  0.2153
 2678TIP3    H1 7991   3.949   1.118   2.882 -0.4259 -1.3170  0.4656
 2678TIP3    H2 7992   4.100   1.108   2.874 -0.3355 -1.1050  1.8450
 2679TIP3   OH2 7993   3.812   2.688   2.928 -0.6428 -0.1908 -0.3509
 2679TIP3    H1 7994   3.765   2.731   2.999  1.1282  2.7021 -0.8646
 2679TIP3    H2 7995   3.805   2.749   2.854 -0.9585 -2.3403 -2.1627
 2680TIP3   OH2 7996   3.404   2.716   0.637 -0.1311 -0.4283 -0.1507
 2680TIP3    H1 7997   3.314   2.744   0.653 -0.8278 -0.9519 -2.9592
 2680TIP3    H2 7998   3.429   2.668   0.716 -1.3202  2.0670  1.8225
 2681TIP3   OH2 7999   8.126   7.811   6.880 -0.0492 -0.0050 -0.1226
 2681TIP3    H1 8000   8.162   7.895   6.851  0.5027 -0.6414 -1.3082
 2681TIP3    H2 8001   8.193   7.776   6.939 -0.6493  0.7506  1.0301
 2682TIP3   OH2 8002   4.558   5.190   1.496  0.4133  0.0094 -0.0475
 2682TIP3    H1 8003   4.602   5.193   1.581  0.8632 -0.1580 -0.2723
 2682TIP3    H2 8004   4.580   5.274   1.455 -1.2148  0.8159  0.6946
 2683TIP3   OH2 8005   5.734   2.366   0.860 -0.1010 -0.3590 -0.0366
 2683TIP3    H1 8006   5.719   2.321   0.942 -0.8297 -2.1575 -1.1321
 2683TIP3    H2 8007   5.796   2.436   0.882  0.1981 -1.1983  1.8929
 2684TIP3   OH2 8008   2.570   2.643   0.793  0.1149  0.0739  0.1451
 2684TIP3    H1 8009   2.611   2.722   0.828  1.2067 -1.5285  2.6569
 2684TIP3    H2 8010   2.642   2.595   0.752 -0.6067  0.5455 -1.6728
 2685TIP3   OH2 8011   5.169   4.292   2.473 -0.7394  0.2685 -0.0085
 2685TIP3    H1 8012   5.106   4.345   2.523  1.2606  1.5153  1.2990
 2685TIP3    H2 8013   5.128   4.206   2.467 -2.9178  1.2454  0.1168
 2686TIP3   OH2 8014   5.817   1.680   0.836  0.3655  0.0291 -0.0169
 2686TIP3    H1 8015   5.777   1.755   0.793  0.6334  0.2198  0.0648
 2686TIP3    H2 8016   5.906   1.678   0.802  0.4351 -0.1006  0.1710
 2687TIP3   OH2 8017   5.971   2.727   2.794 -0.3546 -0.0206 -0.1872
 2687TIP3    H1 8018   5.895   2.783   2.775 -0.2953  1.2905  3.1511
 2687TIP3    H2 8019   6.047   2.782   2.772 -0.3262  0.3599  0.8475
 2688TIP3   OH2 8020   3.779   0.315   1.811 -0.2269  0.4510 -0.7280
 2688TIP3    H1 8021   3.705   0.261   1.837 -0.7812 -0.0410 -3.1847
 2688TIP3    H2 8022   3.799   0.368   1.888 -2.4728 -0.1427  0.2862
 2689TIP3   OH2 8023   5.254   0.965   0.718 -0.2680 -0.1696 -0.0335
 2689TIP3    H1 8024   5.342   0.933   0.739 -0.7098 -1.1459  0.3963
 2689TIP3    H2 8025   5.212   0.975   0.804 -0.6402  0.0990 -0.2474
 2690TIP3   OH2 8026   5.064   0.876   2.598 -0.0465  0.2559 -0.0277
 2690TIP3    H1 8027   4.993   0.933   2.629  0.3044  0.8682 -0.3516
 2690TIP3    H2 8028   5.142   0.907   2.644 -0.3312 -1.7189  1.8891
 2691TIP3   OH2 8029   3.651   4.435   2.307 -0.1327  0.0402 -0.6270
 2691TIP3    H1 8030   3.652   4.459   2.399 -0.7893 -2.5991  0.1179
 2691TIP3    H2 8031   3.726   4.376   2.296 -1.6698 -1.9018 -1.0862
 2692TIP3   OH2 8032   2.504   4.455   2.758  0.2386  0.6989  0.1955
 2692TIP3    H1 8033   2.448   4.427   2.686  2.7633 -2.2280 -0.7509
 2692TIP3    H2 8034   2.444   4.479   2.828 -2.2143  1.2386 -2.0343
 2693TIP3   OH2 8035   4.183   2.436   1.847 -0.0113  0.2184  0.9311
 2693TIP3    H1 8036   4.176   2.469   1.937 -1.2813  2.4623  0.0616
 2693TIP3    H2 8037   4.137   2.501   1.794 -1.8065 -2.5588 -1.0358
 2694TIP3   OH2 8038   3.676   2.570   3.892 -0.4004 -0.2436 -0.1427
 2694TIP3    H1 8039   3.651   2.517   3.817 -1.4266 -0.6900  0.5143
 2694TIP3    H2 8040   3.609   2.638   3.897  0.0466  0.1965 -0.0368
 2695TIP3   OH2 8041   6.502   1.841   1.209  0.3439 -0.0017  0.1948
 2695TIP3    H1 8042   6.590   1.873   1.190 -0.3092  1.3223 -0.6324
 2695TIP3    H2 8043   6.466   1.817   1.124 -0.6264  0.8220  0.3767
 2696TIP3   OH2 8044   5.790   1.815   2.681 -0.1823  0.2547 -0.9109
 2696TIP3    H1 8045   5.753   1.856   2.603  0.7809 -1.6967 -2.4299
 2696TIP3    H2 8046   5.873   1.860   2.695 -0.2957  0.5214 -1.0974
 2697TIP3   OH2 8047   2.775   0.715   2.886 -0.0223 -0.0434  0.7290
 2697TIP3    H1 8048   2.749   0.687   2.798  0.6787  0.4315  0.3712
 2697TIP3    H2 8049   2.803   0.806   2.875 -0.1352  0.0836  1.4821
 2698TIP3   OH2 8050   6.058   3.732   2.731 -0.3051 -0.4748  0.5200
 2698TIP3    H1 8051   6.153   3.721   2.728 -0.3045 -1.1047  2.5410
 2698TIP3    H2 8052   6.043   3.803   2.793 -0.9792  2.7026 -3.0764
 2699TIP3   OH2 8053   4.494   4.168   0.765 -0.1626 -0.1170  0.3105
 2699TIP3    H1 8054   4.471   4.118   0.843 -3.6000  0.9552  0.0454
 2699TIP3    H2 8055   4.519   4.102   0.701 -1.6855 -1.3225  0.9199
 2700TIP3   OH2 8056   6.827   5.240   4.309 -0.5168  0.1336 -0.2144
 2700TIP3    H1 8057   6.788   5.239   4.222  1.3997 -0.4211 -1.0916
 2700TIP3    H2 8058   6.898   5.176   4.305 -1.6333 -1.3222  2.3534
 2701TIP3   OH2 8059   3.929   1.358   2.681 -0.4122  0.3050 -0.2846
 2701TIP3    H1 8060   3.919   1.294   2.611  1.1074 -0.6741  0.3690
 2701TIP3    H2 8061   3.882   1.322   2.755 -0.4397  0.4506 -0.2302
 2702TIP3   OH2 8062   6.010   2.454   2.928  0.3388 -0.3364 -0.2207
 2702TIP3    H1 8063   6.106   2.453   2.926  0.3379 -0.4323 -0.2054
 2702TIP3    H2 8064   5.986   2.535   2.884  0.4699  0.6003  1.3729
 2703TIP3   OH2 8065   4.186   3.006   2.683 -0.3319  0.4208 -0.2290
 2703TIP3    H1 8066   4.218   3.093   2.707 -0.9498  0.9965 -1.4380
 2703TIP3    H2 8067   4.140   2.975   2.761  0.8112  0.7172  0.5744
 2704TIP3   OH2 8068   6.872   2.348   3.308  0.2633  0.3583  0.4094
 2704TIP3    H1 8069   6.825   2.317   3.231 -0.3956  2.6041 -0.1436
 2704TIP3    H2 8070   6.814   2.329   3.381 -1.0879  2.1927 -0.1595
 2705TIP3   OH2 8071   2.102   2.072   1.781 -0.1275  0.1764  0.8793
 2705TIP3    H1 8072   2.023   2.057   1.833 -0.4227  1.0623  0.6947
 2705TIP3    H2 8073   2.070   2.109   1.699  0.4419  0.0934  0.6159
 2706TIP3   OH2 8074   3.848   1.259   2.956  0.1424 -0.0602  0.1799
 2706TIP3    H1 8075   3.767   1.238   3.004 -0.6177 -1.3107 -1.5865
 2706TIP3    H2 8076   3.902   1.305   3.020 -1.1003 -1.0892  2.0364
 2707TIP3   OH2 8077   3.849   1.122   3.990 -0.8393 -0.7427 -0.1475
 2707TIP3    H1 8078   3.790   1.187   4.030 -0.3729  0.0574 -0.7378
 2707TIP3    H2 8079   3.814   1.110   3.901 -0.5172 -0.7766 -0.2699
 2708TIP3   OH2 8080   4.135   2.673   1.715  0.5849 -0.4812 -0.3836
 2708TIP3    H1 8081   4.224   2.648   1.690  1.2225  1.0346  0.3425
 2708TIP3    H2 8082   4.137   2.768   1.723 -1.3022 -0.3603 -1.0868
 2709TIP3   OH2 8083   5.090   1.638   2.227 -0.0336 -0.6402  0.3632
 2709TIP3    H1 8084   4.999   1.663   2.211  0.1685  0.4539  0.9316
 2709TIP3    H2 8085   5.086   1.581   2.304 -0.0347  0.9227  1.5431
 2710TIP3   OH2 8086   5.587   2.302   1.822 -0.5205  0.0678  0.4911
 2710TIP3    H1 8087   5.628   2.276   1.904  0.9403  2.6876  0.6496
 2710TIP3    H2 8088   5.494   2.312   1.844 -0.2615 -0.0129  1.6261
 2711TIP3   OH2 8089   5.940   3.192   3.400  0.0283  0.2358 -0.4044
 2711TIP3    H1 8090   5.947   3.113   3.345 -0.4133  0.0649 -0.2171
 2711TIP3    H2 8091   5.918   3.261   3.338 -2.6160 -0.3501 -0.1764
 2712TIP3   OH2 8092   3.402   1.309   2.612  0.3383  0.1311  0.2212
 2712TIP3    H1 8093   3.380   1.240   2.674 -0.3437  1.4183  1.4507
 2712TIP3    H2 8094   3.411   1.264   2.528  1.3860 -1.6620  1.2441
 2713TIP3   OH2 8095   2.364   3.713   1.478  0.0675  0.5051 -0.3181
 2713TIP3    H1 8096   2.276   3.679   1.493 -0.7534  2.2712 -0.8644
 2713TIP3    H2 8097   2.393   3.745   1.563  1.3856 -2.6874  0.4810
 2714TIP3   OH2 8098   5.231   2.930   3.024 -0.1176  0.0054 -0.5469
 2714TIP3    H1 8099   5.160   2.992   3.045 -0.9625 -0.8774 -0.7701
 2714TIP3    H2 8100   5.309   2.985   3.020 -0.6220  0.8549  0.6765
 2715TIP3   OH2 8101   5.597   1.616   1.628 -0.3294 -0.0423  0.3081
 2715TIP3    H1 8102   5.554   1.661   1.701 -1.6304 -2.1212  0.8401
 2715TIP3    H2 8103   5.542   1.635   1.552 -0.6554 -0.4258  0.4519
 2716TIP3   OH2 8104   3.791   2.344   5.092 -0.2142  0.3443 -0.1106
 2716TIP3    H1 8105   3.868   2.315   5.043 -0.6484  1.6079 -1.5685
 2716TIP3    H2 8106   3.719   2.293   5.055 -0.3945  0.6222 -0.1400
 2717TIP3   OH2 8107   3.027   1.779   2.400  0.0341 -0.4490  0.1024
 2717TIP3    H1 8108   3.019   1.856   2.344 -1.5650  0.5386  1.6276
 2717TIP3    H2 8109   3.035   1.705   2.339 -1.2047  0.6367 -1.4177
 2718TIP3   OH2 8110   8.453   7.199   4.804 -0.3817  0.2472  0.5159
 2718TIP3    H1 8111   8.363   7.166   4.806 -0.2658 -0.1349 -0.2848
 2718TIP3    H2 8112   8.458   7.259   4.878 -0.1667 -2.5616  2.8258
 2719TIP3   OH2 8113   3.122   0.984   3.765  0.1855 -0.6433 -0.4482
 2719TIP3    H1 8114   3.117   1.015   3.674 -0.3052 -1.4763 -0.7123
 2719TIP3    H2 8115   3.148   0.893   3.757 -1.6310 -1.2295  0.1633
 2720TIP3   OH2 8116   5.770   2.122   2.982 -0.4636 -0.3515  0.2783
 2720TIP3    H1 8117   5.835   2.051   2.986  0.2616  0.2875 -0.1130
 2720TIP3    H2 8118   5.712   2.105   3.057  0.2550 -0.8267  0.7316
 2721TIP3   OH2 8119   3.363   0.975   4.450 -0.4228 -0.2341  0.0545
 2721TIP3    H1 8120   3.416   0.910   4.405  1.5669  1.2428  0.2040
 2721TIP3    H2 8121   3.274   0.938   4.451  0.5111 -2.5310 -0.5894
 2722TIP3   OH2 8122   1.356   2.663   0.909  0.3790 -0.5796  0.6539
 2722TIP3    H1 8123   1.304   2.709   0.844 -0.3972 -0.5858  1.2651
 2722TIP3    H2 8124   1.403   2.596   0.859 -0.0542 -0.4575  0.0774
 2723TIP3   OH2 8125   0.665   7.839   1.471  0.1281 -0.5612  0.0368
 2723TIP3    H1 8126   0.592   7.780   1.455  0.3016 -0.4993 -1.0224
 2723TIP3    H2 8127   0.721   7.792   1.532 -1.8265  0.2469  2.5452
 2724TIP3   OH2 8128   7.546   0.733   4.716 -0.0660 -0.1538  0.6996
 2724TIP3    H1 8129   7.499   0.814   4.735  0.3893  0.5507 -1.0314
 2724TIP3    H2 8130   7.616   0.729   4.781  0.9645  1.7409 -0.2448
 2725TIP3   OH2 8131   7.153   4.548   6.651  0.3088  0.1626 -0.1132
 2725TIP3    H1 8132   7.152   4.619   6.715 -0.2766 -1.6006  1.8780
 2725TIP3    H2 8133   7.210   4.482   6.690 -1.8735 -1.8891 -0.3148
 2726TIP3   OH2 8134   3.057   2.271   3.056 -0.4669  0.1008  0.2012
 2726TIP3    H1 8135   2.969   2.291   3.087 -0.9358 -2.0488  0.3756
 2726TIP3    H2 8136   3.059   2.303   2.966 -1.5309 -0.0913  0.1078
 2727TIP3   OH2 8137   2.427   2.350   4.109 -0.1109  0.4052 -0.4017
 2727TIP3    H1 8138   2.339   2.388   4.099  0.1665  1.2072  0.1572
 2727TIP3    H2 8139   2.474   2.413   4.164  0.2986 -0.8390  0.6966
 2728TIP3   OH2 8140   5.185   1.896   3.074 -0.0671 -0.1236  0.0289
 2728TIP3    H1 8141   5.110   1.932   3.122 -1.5754 -2.5668 -0.4215
 2728TIP3    H2 8142   5.176   1.930   2.985 -0.4151 -0.0823  0.0797
 2729TIP3   OH2 8143   4.077   0.819   4.335 -1.0446 -0.1990  0.6108
 2729TIP3    H1 8144   4.071   0.870   4.416 -0.2198 -1.5099  1.5109
 2729TIP3    H2 8145   4.000   0.845   4.285  0.1718  3.1338  0.3457
 2730TIP3   OH2 8146   3.947   1.317   4.242 -0.4303  0.1172  0.0324
 2730TIP3    H1 8147   3.959   1.348   4.153 -0.6713 -2.2614 -0.8706
 2730TIP3    H2 8148   3.995   1.380   4.296  1.4513  0.4608 -1.9541
 2731TIP3   OH2 8149   3.853   3.645   3.787 -0.2339 -0.1375 -0.0862
 2731TIP3    H1 8150   3.874   3.690   3.869 -1.6810  0.9297 -0.2782
 2731TIP3    H2 8151   3.937   3.629   3.745  0.4090  0.7611  0.8551
 2732TIP3   OH2 8152   5.056   1.193   2.460  0.5427 -0.6796 -0.1842
 2732TIP3    H1 8153   5.126   1.139   2.424 -0.3398 -1.4528 -0.7561
 2732TIP3    H2 8154   5.036   1.154   2.545  0.1215 -1.0603 -0.4587
 2733TIP3   OH2 8155   2.545   3.678   2.129 -0.1872  0.4786 -0.6523
 2733TIP3    H1 8156   2.467   3.647   2.174 -0.1346  1.7064  0.2986
 2733TIP3    H2 8157   2.513   3.744   2.068 -0.3993 -1.9234 -3.2404
 2734TIP3   OH2 8158   4.509   4.340   2.253 -0.2625 -0.2657  0.0005
 2734TIP3    H1 8159   4.532   4.269   2.313  2.1221 -0.1226 -0.6667
 2734TIP3    H2 8160   4.471   4.296   2.177 -0.0284 -0.7255  0.1460
 2735TIP3   OH2 8161   4.036   2.679   1.367 -0.7082 -0.4085 -0.1130
 2735TIP3    H1 8162   3.997   2.614   1.424 -1.9221  0.1870 -0.2414
 2735TIP3    H2 8163   4.127   2.651   1.356 -0.5565 -0.7368  1.7908
 2736TIP3   OH2 8164   3.850   2.032   3.195 -0.7696  0.6004 -0.4821
 2736TIP3    H1 8165   3.780   1.967   3.193  0.0468 -0.2907 -0.5355
 2736TIP3    H2 8166   3.831   2.086   3.271 -0.4333 -0.8662  0.6736
 2737TIP3   OH2 8167   3.939   3.833   3.173  0.1231  0.6680 -0.2190
 2737TIP3    H1 8168   4.004   3.775   3.133  0.1089  0.8612 -0.5288
 2737TIP3    H2 8169   3.988   3.914   3.191 -0.2618  1.1636 -1.3524
 2738TIP3   OH2 8170   3.892   0.739   3.147 -0.3587 -0.1771 -0.5182
 2738TIP3    H1 8171   3.908   0.700   3.061  0.5516 -2.5398  0.6720
 2738TIP3    H2 8172   3.978   0.769   3.176 -0.5315 -0.0743 -0.1133
 2739TIP3   OH2 8173   6.234   2.817   2.799  0.1410  0.4081 -0.1050
 2739TIP3    H1 8174   6.294   2.866   2.743  0.3472 -0.2466 -0.4638
 2739TIP3    H2 8175   6.250   2.725   2.777 -0.0318  0.1662  0.7736
 2740TIP3   OH2 8176   5.015   3.939   4.227  0.3511  0.2643  0.0151
 2740TIP3    H1 8177   4.941   3.993   4.256 -2.5377 -3.5363  0.1442
 2740TIP3    H2 8178   5.068   3.926   4.306  0.4708  1.9418  0.2249
 2741TIP3   OH2 8179   3.065   2.264   2.769  0.7107  0.2339  0.4414
 2741TIP3    H1 8180   3.159   2.286   2.767  1.2735 -2.2107 -2.7043
 2741TIP3    H2 8181   3.062   2.177   2.809 -0.1964  0.1853  0.2650
 2742TIP3   OH2 8182   5.382   3.122   1.303 -0.2473 -0.6721  0.0435
 2742TIP3    H1 8183   5.354   3.183   1.235  0.4176 -0.5659 -0.1356
 2742TIP3    H2 8184   5.476   3.113   1.290  0.3603  1.3850  2.5869
 2743TIP3   OH2 8185   3.895   3.542   2.836  0.0393  0.2949 -0.3207
 2743TIP3    H1 8186   3.866   3.603   2.904 -2.6184 -0.3369 -0.8646
 2743TIP3    H2 8187   3.855   3.573   2.756  1.2767 -0.3365 -1.2108
 2744TIP3   OH2 8188   4.878   2.904   1.880 -0.0161 -0.0147 -0.0771
 2744TIP3    H1 8189   4.847   2.816   1.861 -0.6982  0.1585  0.2290
 2744TIP3    H2 8190   4.956   2.891   1.934 -0.5463 -0.4159  0.5961
 2745TIP3   OH2 8191   3.156   2.844   0.652  0.2694 -0.2305  0.6777
 2745TIP3    H1 8192   3.064   2.838   0.626  0.8499 -0.4787 -1.4373
 2745TIP3    H2 8193   3.162   2.926   0.701 -0.9661  0.0836  0.3283
 2746TIP3   OH2 8194   3.816   1.656   3.159  0.2408  0.2924  0.3309
 2746TIP3    H1 8195   3.739   1.606   3.187  0.7318 -1.1172 -0.7090
 2746TIP3    H2 8196   3.858   1.684   3.240 -1.9548  2.0381  0.9026
 2747TIP3   OH2 8197   4.107   2.130   0.985  0.1037  0.2207 -0.0628
 2747TIP3    H1 8198   4.021   2.096   0.958  0.3669 -0.2605 -0.2966
 2747TIP3    H2 8199   4.118   2.210   0.933  1.5801 -1.8558 -3.1080
 2748TIP3   OH2 8200   2.862   2.742   2.828 -0.0793  0.4625  0.5538
 2748TIP3    H1 8201   2.806   2.689   2.772 -0.5638  0.8415  0.6775
 2748TIP3    H2 8202   2.938   2.762   2.774 -0.1018  0.0281  0.3544
 2749TIP3   OH2 8203   4.453   4.045   2.842 -0.3131  0.3176 -0.1713
 2749TIP3    H1 8204   4.455   3.978   2.911  0.8681  1.8158  1.3069
 2749TIP3    H2 8205   4.360   4.067   2.834 -0.6004 -0.7876  0.0380
 2750TIP3   OH2 8206   2.042   4.042   1.827  0.2760 -0.1874  0.1785
 2750TIP3    H1 8207   2.019   4.090   1.748 -0.7188 -0.0328  0.5478
 2750TIP3    H2 8208   2.133   4.015   1.814  1.3655  3.1292  0.6649
 2751TIP3   OH2 8209   3.709   0.989   0.764  0.2069 -0.4091  0.0051
 2751TIP3    H1 8210   3.770   0.931   0.720 -1.3218 -0.9980 -1.3819
 2751TIP3    H2 8211   3.764   1.053   0.809  1.8065 -0.4884 -1.8203
 2752TIP3   OH2 8212   4.404   3.622   3.888  0.0766  0.6032 -0.3525
 2752TIP3    H1 8213   4.443   3.637   3.974 -1.0812 -0.3544  0.3549
 2752TIP3    H2 8214   4.443   3.689   3.832  2.5402 -0.1581  0.3830
 2753TIP3   OH2 8215   6.198   1.844   0.077 -0.0773 -0.2477 -0.0947
 2753TIP3    H1 8216   6.273   1.783   0.076  0.1323 -0.0141 -3.0146
 2753TIP3    H2 8217   6.217   1.906   0.006 -2.4625  0.5322 -0.0840
 2754TIP3   OH2 8218   7.246   6.880   2.582  0.2964  0.4014  0.3085
 2754TIP3    H1 8219   7.253   6.814   2.651 -0.4932 -0.6367 -0.5851
 2754TIP3    H2 8220   7.306   6.850   2.514 -0.7136  0.1132 -0.4754
 2755TIP3   OH2 8221   3.856   3.502   1.360  0.5381  0.7119 -0.2139
 2755TIP3    H1 8222   3.909   3.506   1.440  0.4625 -0.2267 -0.1105
 2755TIP3    H2 8223   3.828   3.410   1.354 -1.3213  1.2565 -0.1029
 2756TIP3   OH2 8224   4.075   3.226   5.038  0.3450  0.0089 -0.1139
 2756TIP3    H1 8225   4.028   3.224   5.121 -2.1433 -0.3287 -1.4695
 2756TIP3    H2 8226   4.046   3.146   4.993 -1.1591  1.9734 -2.7598
 2757TIP3   OH2 8227   0.727   2.323   1.208  0.8508 -0.3497 -0.3555
 2757TIP3    H1 8228   0.780   2.270   1.266  1.7587  0.3473 -0.5333
 2757TIP3    H2 8229   0.738   2.413   1.240  0.2228 -0.1309 -0.7338
 2758TIP3   OH2 8230   2.737   3.560   2.307  0.5252 -0.1403  0.1836
 2758TIP3    H1 8231   2.813   3.614   2.330  1.1613 -0.4378 -1.1533
 2758TIP3    H2 8232   2.689   3.612   2.242 -0.0535 -0.2429  0.5264
 2759TIP3   OH2 8233   3.384   1.078   2.118  0.6197 -0.0002  0.6176
 2759TIP3    H1 8234   3.308   1.035   2.079 -0.1369  2.1544 -0.3653
 2759TIP3    H2 8235   3.456   1.016   2.104 -0.8469 -1.8664  1.1535
 2760TIP3   OH2 8236   5.749   1.757   2.309 -0.5507  0.2079  0.6893
 2760TIP3    H1 8237   5.713   1.732   2.224 -0.1331 -0.0397  0.5871
 2760TIP3    H2 8238   5.762   1.674   2.355  1.2937  0.1836  0.1642
 2761TIP3   OH2 8239   5.785   0.870   1.652 -0.4047 -0.0414 -0.6281
 2761TIP3    H1 8240   5.780   0.953   1.604  0.2541 -0.3891 -1.3005
 2761TIP3    H2 8241   5.694   0.842   1.660 -0.6812  1.0068  0.0641
 2762TIP3   OH2 8242   6.324   2.837   1.748  0.2664  0.2130 -0.8706
 2762TIP3    H1 8243   6.341   2.931   1.742  0.2741  0.1875 -1.2314
 2762TIP3    H2 8244   6.230   2.830   1.762  0.1662  0.2454 -1.5442
 2763TIP3   OH2 8245   3.971   1.732   3.768 -0.0848  0.7572  0.0702
 2763TIP3    H1 8246   4.061   1.755   3.744 -0.1233  0.8411  0.0029
 2763TIP3    H2 8247   3.950   1.656   3.713  0.4803 -0.2348  1.1920
 2764TIP3   OH2 8248   5.145   0.863   2.984 -0.1457  0.0521 -0.0215
 2764TIP3    H1 8249   5.114   0.817   3.062 -0.0549  0.3043  0.1644
 2764TIP3    H2 8250   5.090   0.941   2.979  1.7235  1.4705  1.3914
 2765TIP3   OH2 8251   4.277   0.960   2.006  0.6234  0.0221  0.2311
 2765TIP3    H1 8252   4.267   1.014   2.085  1.2071 -0.5172  0.6846
 2765TIP3    H2 8253   4.223   0.882   2.023  0.7016 -0.0661  0.0797
 2766TIP3   OH2 8254   3.392   3.865   2.840 -0.0176 -0.0297  0.1875
 2766TIP3    H1 8255   3.387   3.936   2.904 -0.6917 -1.1269  1.3772
 2766TIP3    H2 8256   3.486   3.856   2.822  0.2940 -0.5315  1.9688
 2767TIP3   OH2 8257   7.972   4.368   3.148  0.2875 -0.0186 -0.4471
 2767TIP3    H1 8258   7.938   4.304   3.085  1.4766  0.0369 -1.1781
 2767TIP3    H2 8259   7.926   4.449   3.128 -0.2213 -0.3087 -0.4440
 2768TIP3   OH2 8260   4.064   3.813   1.597  0.1358  0.1967 -0.2634
 2768TIP3    H1 8261   4.149   3.770   1.602 -0.4258 -0.6902  1.8854
 2768TIP3    H2 8262   4.072   3.888   1.656 -0.6368 -0.0078  0.1039
 2769TIP3   OH2 8263   4.034   2.153   2.116  0.2658  0.5594  0.4294
 2769TIP3    H1 8264   4.114   2.145   2.065  1.0675  1.6340  1.5142
 2769TIP3    H2 8265   3.984   2.074   2.094  1.5574 -0.0519 -0.3441
 2770TIP3   OH2 8266   6.508   4.225   5.775 -0.4591 -0.2384 -0.4879
 2770TIP3    H1 8267   6.423   4.187   5.796 -0.3623 -0.6487 -0.8550
 2770TIP3    H2 8268   6.571   4.170   5.822 -0.5453  1.4531  1.7216
 2771TIP3   OH2 8269   4.409   1.734   2.300 -0.2547  0.2267 -0.3144
 2771TIP3    H1 8270   4.500   1.702   2.301  0.7026  2.6813  3.1618
 2771TIP3    H2 8271   4.416   1.824   2.268 -1.2866  0.7976  1.0401
 2772TIP3   OH2 8272   2.834   1.162   3.220  0.1305 -0.3827 -0.0095
 2772TIP3    H1 8273   2.741   1.150   3.236  0.4012 -2.4058  0.2364
 2772TIP3    H2 8274   2.875   1.150   3.306  0.7899 -1.7433 -0.4946
 2773TIP3   OH2 8275   4.518   2.191   2.689 -0.2111  0.4461 -0.3823
 2773TIP3    H1 8276   4.482   2.149   2.611 -2.6275  2.4081 -0.3709
 2773TIP3    H2 8277   4.490   2.135   2.762 -0.0909 -0.0070 -0.6796
 2774TIP3   OH2 8278   2.450   5.721   3.084  0.0546  0.0195  0.1436
 2774TIP3    H1 8279   2.502   5.654   3.039 -1.6983 -0.2636 -1.5472
 2774TIP3    H2 8280   2.472   5.802   3.039 -2.9389 -0.5086 -2.4664
 2775TIP3   OH2 8281   4.381   2.364   2.972 -0.2828 -0.0978 -0.4123
 2775TIP3    H1 8282   4.390   2.399   3.060  0.8495  0.2285 -0.6500
 2775TIP3    H2 8283   4.415   2.275   2.978 -1.2926 -0.4765 -0.2600
 2776TIP3   OH2 8284   4.842   1.573   1.826 -0.1334 -0.3263  0.1282
 2776TIP3    H1 8285   4.789   1.596   1.749  0.0276  2.2917  0.7588
 2776TIP3    H2 8286   4.927   1.549   1.789 -0.7085 -1.2379 -0.6489
 2777TIP3   OH2 8287   5.129   3.278   1.672 -0.3150  0.1743  0.3988
 2777TIP3    H1 8288   5.109   3.249   1.583 -1.0775  0.9629  0.2982
 2777TIP3    H2 8289   5.147   3.198   1.721 -0.1854 -0.2815 -0.3974
 2778TIP3   OH2 8290   4.801   4.149   0.718  0.4587  0.0444  0.1802
 2778TIP3    H1 8291   4.730   4.164   0.656 -0.5511 -1.4535  0.9274
 2778TIP3    H2 8292   4.793   4.056   0.741  2.0001  0.1192  1.0987
 2779TIP3   OH2 8293   2.536   3.227   4.251 -0.1427  0.2771  0.1191
 2779TIP3    H1 8294   2.532   3.135   4.225 -0.1115  0.9483 -2.4188
 2779TIP3    H2 8295   2.444   3.253   4.259 -0.1846  0.4483 -0.8272
 2780TIP3   OH2 8296   4.926   0.183   0.291 -0.0441  0.2699 -0.1550
 2780TIP3    H1 8297   4.943   0.090   0.277 -0.3402  0.0694  0.7955
 2780TIP3    H2 8298   4.935   0.223   0.204  0.9774 -0.5057 -0.4086
 2781TIP3   OH2 8299   5.623   4.397   3.258  0.2247  0.1661 -0.1189
 2781TIP3    H1 8300   5.603   4.351   3.340  1.1544  0.4805  0.2997
 2781TIP3    H2 8301   5.538   4.412   3.217 -0.2774  0.3093  0.9541
 2782TIP3   OH2 8302   3.338   1.032   0.259  0.0663 -0.0210  0.2171
 2782TIP3    H1 8303   3.335   1.125   0.279  0.9769  0.1225 -0.3000
 2782TIP3    H2 8304   3.346   1.028   0.164 -0.1720 -0.6298  0.2180
 2783TIP3   OH2 8305   5.402   2.952   2.450 -0.2533 -0.1282 -0.5979
 2783TIP3    H1 8306   5.375   2.872   2.406  0.6635 -0.9846  0.3475
 2783TIP3    H2 8307   5.388   2.935   2.543  1.9481 -0.0158 -0.2091
 2784TIP3   OH2 8308   4.286   2.906   3.404  0.3551 -0.3683 -0.0750
 2784TIP3    H1 8309   4.342   2.838   3.441  0.7922 -1.4670 -2.6762
 2784TIP3    H2 8310   4.277   2.883   3.311 -1.8317  1.5381 -0.3955
 2785TIP3   OH2 8311   4.578   1.656   3.447 -0.0277  0.4721 -0.8762
 2785TIP3    H1 8312   4.609   1.645   3.537  0.5299  1.2567 -0.9724
 2785TIP3    H2 8313   4.633   1.597   3.395  1.4197  1.9479 -1.0633
 2786TIP3   OH2 8314   3.885   2.572   1.797  0.5705  0.1580 -0.2328
 2786TIP3    H1 8315   3.959   2.620   1.757 -0.4195  2.0788  0.1748
 2786TIP3    H2 8316   3.895   2.587   1.891  0.3525 -0.6117 -0.0873
 2787TIP3   OH2 8317   2.835   2.410   2.367 -0.0508  0.1325  0.8362
 2787TIP3    H1 8318   2.874   2.446   2.287  0.5049  0.6491  1.3260
 2787TIP3    H2 8319   2.910   2.377   2.417 -0.4201 -0.4107  1.0249
 2788TIP3   OH2 8320   4.060   3.997   1.807 -0.2208  0.2309  0.4507
 2788TIP3    H1 8321   4.037   4.089   1.797 -0.7980  0.2194  1.5247
 2788TIP3    H2 8322   3.986   3.959   1.856  0.0386 -0.7847  0.0709
 2789TIP3   OH2 8323   4.888   2.483   2.609 -0.6702 -0.3607 -0.3896
 2789TIP3    H1 8324   4.805   2.453   2.572 -0.3665  0.0678 -1.4520
 2789TIP3    H2 8325   4.863   2.551   2.672 -1.0649  0.7775 -1.7349
 2790TIP3   OH2 8326   3.904   2.514   3.538 -0.0511  0.5467 -0.4761
 2790TIP3    H1 8327   3.866   2.581   3.481 -0.3996  0.4978 -0.2999
 2790TIP3    H2 8328   3.889   2.547   3.627  2.4143  1.6991 -0.4397
 2791TIP3   OH2 8329   5.579   3.959   1.971  0.4456 -0.0824 -0.2029
 2791TIP3    H1 8330   5.591   3.924   2.060 -0.8407  0.0486  0.0336
 2791TIP3    H2 8331   5.622   3.895   1.915  0.4649 -0.6592  0.4532
 2792TIP3   OH2 8332   3.749   2.014   1.897  0.0019  0.6495  0.1611
 2792TIP3    H1 8333   3.717   2.085   1.841 -0.1765 -0.9916 -1.8960
 2792TIP3    H2 8334   3.842   2.006   1.875 -0.4256 -1.0768 -1.1682
 2793TIP3   OH2 8335   5.313   2.887   2.747 -0.2780  0.1284 -0.1165
 2793TIP3    H1 8336   5.399   2.845   2.742 -1.0361 -1.4069 -0.4609
 2793TIP3    H2 8337   5.292   2.888   2.841  0.2662  0.8221 -0.0006
 2794TIP3   OH2 8338   4.560   3.043   3.720  0.7721  0.3689 -0.1544
 2794TIP3    H1 8339   4.538   3.134   3.741  0.7602  0.2572  0.3197
 2794TIP3    H2 8340   4.495   2.991   3.766  1.0232  0.1017 -0.0980
 2795TIP3   OH2 8341   4.362   4.297   3.052  0.1546 -0.0448  0.3260
 2795TIP3    H1 8342   4.271   4.297   3.025  0.3858 -0.1934 -0.4580
 2795TIP3    H2 8343   4.412   4.317   2.972  0.8114 -0.0423  0.7262
 2796TIP3   OH2 8344   3.817   3.237   2.667  0.7388  0.2765 -0.2929
 2796TIP3    H1 8345   3.753   3.185   2.714  1.4615  0.4866  0.9590
 2796TIP3    H2 8346   3.766   3.289   2.605 -0.2657  0.2202  0.4779
 2797TIP3   OH2 8347   4.056   1.113   3.663 -0.0009 -0.1238 -0.5144
 2797TIP3    H1 8348   4.097   1.171   3.727  1.3178  1.6366 -2.8923
 2797TIP3    H2 8349   3.968   1.096   3.699  1.3726 -0.8388  2.7181
 2798TIP3   OH2 8350   5.184   3.708   3.869 -1.1145 -0.0078 -0.1091
 2798TIP3    H1 8351   5.096   3.675   3.852 -0.9458 -1.1782  1.1937
 2798TIP3    H2 8352   5.242   3.638   3.839 -0.6407  0.6025 -0.6203
 2799TIP3   OH2 8353   6.863   0.790   3.181  0.3773 -0.0378  0.1389
 2799TIP3    H1 8354   6.845   0.787   3.275  1.8153 -0.2369  0.4198
 2799TIP3    H2 8355   6.848   0.701   3.150 -4.1740  0.8754 -0.6442
 2800TIP3   OH2 8356   4.549   2.740   3.855 -0.0858 -0.4638 -0.1559
 2800TIP3    H1 8357   4.492   2.814   3.835  0.9454 -0.1443 -1.9766
 2800TIP3    H2 8358   4.619   2.745   3.790  1.3688 -1.5587  1.3005
 2801TIP3   OH2 8359   5.167   1.279   3.913 -0.2874  0.3909 -0.7202
 2801TIP3    H1 8360   5.204   1.263   3.827  0.5702  1.0275 -0.4683
 2801TIP3    H2 8361   5.164   1.374   3.922  0.0002  0.3336  0.1037
 2802TIP3   OH2 8362   2.743   1.665   1.735  0.3676  0.0917 -0.2731
 2802TIP3    H1 8363   2.721   1.576   1.760 -0.5161 -0.2881 -2.2608
 2802TIP3    H2 8364   2.839   1.668   1.736  0.3926 -0.8079 -0.0022
 2803TIP3   OH2 8365   3.757   1.159   3.473 -0.2741 -0.2307  0.0251
 2803TIP3    H1 8366   3.814   1.235   3.473  0.3636 -0.7075 -0.2565
 2803TIP3    H2 8367   3.721   1.155   3.384 -1.3724  0.5303  0.4233
 2804TIP3   OH2 8368   1.916   2.057   0.656  0.1968 -0.3653 -0.1893
 2804TIP3    H1 8369   1.827   2.076   0.630 -0.4198 -0.5551  1.6883
 2804TIP3    H2 8370   1.929   1.965   0.632 -0.7580 -0.8771  1.2133
 2805TIP3   OH2 8371   2.454   1.679   2.473 -0.4104  0.4224  0.2414
 2805TIP3    H1 8372   2.454   1.773   2.492  1.5038  0.5118 -0.1184
 2805TIP3    H2 8373   2.392   1.642   2.537 -1.1367  1.9066  0.4227
 2806TIP3   OH2 8374   6.823   1.639   0.936  0.5389 -0.4932 -0.0607
 2806TIP3    H1 8375   6.834   1.626   0.842 -0.2288 -1.5158 -0.0164
 2806TIP3    H2 8376   6.900   1.596   0.975 -0.9553 -3.2996 -0.0361
 2807TIP3   OH2 8377   6.493   3.635   3.194 -0.5580  0.1793  0.3796
 2807TIP3    H1 8378   6.583   3.606   3.185 -1.2650 -1.7223 -0.8988
 2807TIP3    H2 8379   6.498   3.712   3.250  1.9920  0.8635 -0.7275
 2808TIP3   OH2 8380   5.000   3.767   2.430  0.3068  0.2221  0.5967
 2808TIP3    H1 8381   4.973   3.734   2.516  0.2617 -2.6991 -0.4603
 2808TIP3    H2 8382   4.919   3.772   2.380  0.4052  1.3658  0.5502
 2809TIP3   OH2 8383   5.548   3.376   0.559  0.0087  0.1929  0.4346
 2809TIP3    H1 8384   5.564   3.401   0.650 -1.2039 -1.2122  1.0494
 2809TIP3    H2 8385   5.607   3.303   0.543 -0.0893  0.1607  0.2180
 2810TIP3   OH2 8386   5.694   1.430   2.531 -0.4666 -0.1321 -0.1658
 2810TIP3    H1 8387   5.629   1.423   2.461 -1.6934  0.8055  0.8410
 2810TIP3    H2 8388   5.648   1.402   2.609  1.4030 -2.8491  0.0391
 2811TIP3   OH2 8389   4.253   4.057   2.139  0.3558  0.1192  0.5761
 2811TIP3    H1 8390   4.210   4.143   2.143  1.9476  0.9625 -0.0543
 2811TIP3    H2 8391   4.208   4.005   2.206 -1.6076  0.9776 -0.0333
 2812TIP3   OH2 8392   6.569   2.262   1.857 -0.1238 -0.6817  0.3773
 2812TIP3    H1 8393   6.579   2.205   1.781 -0.2626 -0.3543  0.1112
 2812TIP3    H2 8394   6.476   2.285   1.857  0.1097  0.2653 -0.0364
 2813TIP3   OH2 8395   2.853   0.784   2.552 -0.1569  0.4920  0.1555
 2813TIP3    H1 8396   2.919   0.813   2.615  1.2988 -1.6158 -0.3352
 2813TIP3    H2 8397   2.895   0.713   2.503 -2.7891 -0.9878 -0.1213
 2814TIP3   OH2 8398   5.263   3.602   1.837  0.2535 -0.2120  0.0984
 2814TIP3    H1 8399   5.258   3.697   1.825  0.0113 -0.1756  0.4802
 2814TIP3    H2 8400   5.356   3.584   1.849  0.3286 -0.0546 -0.2436
 2815TIP3   OH2 8401   4.234   2.171   1.923 -0.0473  0.5114  0.6792
 2815TIP3    H1 8402   4.221   2.262   1.896  0.7299  1.3941  3.1106
 2815TIP3    H2 8403   4.312   2.143   1.876  0.3273  1.4638  0.7122
 2816TIP3   OH2 8404   4.507   2.309   3.925 -0.2052 -0.3076  0.9134
 2816TIP3    H1 8405   4.590   2.340   3.959  0.1371  0.7703 -0.8718
 2816TIP3    H2 8406   4.446   2.382   3.937 -0.5330 -0.5771  0.9130
 2817TIP3   OH2 8407   4.806   2.116   2.858 -0.3431 -0.0972  0.5214
 2817TIP3    H1 8408   4.862   2.193   2.865 -0.7586  0.1856  0.7502
 2817TIP3    H2 8409   4.717   2.151   2.859 -0.5158 -0.4074 -1.3843
 2818TIP3   OH2 8410   5.374   2.735   1.973  0.3231  0.2714  0.5415
 2818TIP3    H1 8411   5.425   2.795   1.919 -0.6910  0.7340  0.0846
 2818TIP3    H2 8412   5.335   2.673   1.911  2.9235 -2.0786  1.1816
 2819TIP3   OH2 8413   3.770   2.315   0.834 -0.1826 -0.0763  0.3084
 2819TIP3    H1 8414   3.807   2.374   0.900 -0.0109 -0.3555  0.4628
 2819TIP3    H2 8415   3.794   2.355   0.751 -0.8692  0.5663  0.4144
 2820TIP3   OH2 8416   5.289   4.115   3.255 -0.1507  0.5856 -0.3936
 2820TIP3    H1 8417   5.339   4.192   3.227 -0.5576  0.6849 -0.8649
 2820TIP3    H2 8418   5.227   4.149   3.320 -0.1737  0.6146 -0.4302
 2821TIP3   OH2 8419   4.791   3.252   1.199  0.5102 -0.1494 -0.0072
 2821TIP3    H1 8420   4.883   3.226   1.191  0.3364 -0.9545  0.6468
 2821TIP3    H2 8421   4.755   3.194   1.265 -0.2296  0.8187  0.4560
 2822TIP3   OH2 8422   3.581   1.895   3.126  0.2866 -0.3383 -0.1475
 2822TIP3    H1 8423   3.531   1.830   3.174  0.2589 -1.0722 -1.1650
 2822TIP3    H2 8424   3.519   1.966   3.108 -0.1494 -0.8259 -0.5789
 2823TIP3   OH2 8425   3.425   7.824   3.211 -0.5043 -0.3580  1.0255
 2823TIP3    H1 8426   3.433   7.903   3.159  0.4492 -1.1664 -0.0751
 2823TIP3    H2 8427   3.487   7.836   3.284 -0.3766 -0.0899  0.8725
 2824TIP3   OH2 8428   5.052   1.443   1.719  0.0672 -0.5254  0.2290
 2824TIP3    H1 8429   5.142   1.416   1.733 -0.0407 -1.6786 -1.1946
 2824TIP3    H2 8430   5.044   1.456   1.624 -1.3955 -1.0179  0.2570
 2825TIP3   OH2 8431   5.777   1.779   4.554  0.6509 -0.2491 -0.0426
 2825TIP3    H1 8432   5.754   1.705   4.497  1.2213 -1.1150  0.8403
 2825TIP3    H2 8433   5.763   1.856   4.499 -1.4648 -0.9051 -0.5034
 2826TIP3   OH2 8434   5.020   2.523   0.995  0.2844 -0.3465 -0.0286
 2826TIP3    H1 8435   5.043   2.613   1.019 -0.3218  0.4645 -2.3150
 2826TIP3    H2 8436   5.102   2.485   0.965 -0.1647  0.7690 -2.8654
 2827TIP3   OH2 8437   6.236   0.011   1.777  0.2478 -0.1187 -0.0305
 2827TIP3    H1 8438   6.228   0.095   1.733 -1.6012 -0.0339  0.4102
 2827TIP3    H2 8439   6.229  -0.054   1.707 -0.2855  0.0550 -0.1375
 2828TIP3   OH2 8440   5.812   4.197   6.606 -0.0743  0.0342 -0.5105
 2828TIP3    H1 8441   5.849   4.182   6.692 -0.1726  0.0608 -0.4631
 2828TIP3    H2 8442   5.873   4.258   6.564 -0.1943  0.2696 -0.3431
 2829TIP3   OH2 8443   3.457   0.709   2.154 -0.0641  0.3710 -0.0880
 2829TIP3    H1 8444   3.469   0.726   2.061 -0.3954 -0.8923 -0.3643
 2829TIP3    H2 8445   3.365   0.685   2.163 -0.1903  1.1030  0.6629
 2830TIP3   OH2 8446   6.039   2.473   1.266  0.0721  0.0022 -0.8943
 2830TIP3    H1 8447   6.022   2.552   1.318  0.3948 -1.5600  1.6392
 2830TIP3    H2 8448   6.126   2.489   1.227 -1.1459  2.1451 -2.8859
 2831TIP3   OH2 8449   3.613   3.223   4.916 -0.2809 -0.1830 -0.4352
 2831TIP3    H1 8450   3.588   3.150   4.973 -0.2995  0.2545  0.1219
 2831TIP3    H2 8451   3.598   3.301   4.970 -1.0335  0.2817 -1.2957
 2832TIP3   OH2 8452   1.521   1.611   3.262 -0.6956  0.1896  0.2990
 2832TIP3    H1 8453   1.577   1.534   3.269 -0.7703  0.3783  4.0320
 2832TIP3    H2 8454   1.437   1.584   3.299 -1.4736  1.4210 -0.4905
 2833TIP3   OH2 8455   4.373   3.444   4.212 -0.1993  0.2271  0.1311
 2833TIP3    H1 8456   4.427   3.513   4.175 -1.0569  0.9638  0.2404
 2833TIP3    H2 8457   4.430   3.402   4.277  0.6390  0.2089 -0.6031
 2834TIP3   OH2 8458   6.786   3.232   3.871 -0.4172  0.0262  0.2623
 2834TIP3    H1 8459   6.878   3.241   3.845 -0.8547  1.8732 -0.7524
 2834TIP3    H2 8460   6.779   3.143   3.905  1.1841 -0.9730 -1.8946
 2835TIP3   OH2 8461   5.049   4.440   1.857 -0.0783  0.2096  0.0789
 2835TIP3    H1 8462   5.010   4.483   1.781 -0.4890 -0.1865  0.0631
 2835TIP3    H2 8463   5.068   4.511   1.918 -0.1209  0.4855 -0.2299
 2836TIP3   OH2 8464   6.963   0.704   1.546 -0.0574  0.0037  0.2209
 2836TIP3    H1 8465   7.045   0.746   1.517  0.7559 -1.5158  0.2517
 2836TIP3    H2 8466   6.976   0.688   1.639 -0.7235  0.4873  0.3971
 2837TIP3   OH2 8467   3.392   5.171   2.037  0.2824  0.0918 -0.4221
 2837TIP3    H1 8468   3.396   5.076   2.028  2.8127  0.1340 -0.0715
 2837TIP3    H2 8469   3.395   5.204   1.947  0.7965 -0.1444 -0.4975
 2838TIP3   OH2 8470   3.612   2.266   2.904 -0.3317  0.1304 -0.3063
 2838TIP3    H1 8471   3.624   2.357   2.874  0.3587 -0.1932 -1.0520
 2838TIP3    H2 8472   3.598   2.216   2.823 -1.6360 -0.2928  0.1733
 2839TIP3   OH2 8473   3.217   4.879   2.768  0.2849 -0.0328  0.0789
 2839TIP3    H1 8474   3.198   4.972   2.781 -1.8218 -0.5856  1.2721
 2839TIP3    H2 8475   3.191   4.838   2.850  0.8685 -1.7272 -0.5689
 2840TIP3   OH2 8476   6.946   4.194   4.118 -0.0710 -0.3244  0.2569
 2840TIP3    H1 8477   6.930   4.163   4.029 -2.3611 -1.9311  1.1993
 2840TIP3    H2 8478   6.986   4.120   4.162 -1.2374 -0.3823  1.2380
 2841TIP3   OH2 8479   4.772   4.392   1.375 -0.1789  0.4979  0.4405
 2841TIP3    H1 8480   4.720   4.375   1.296 -0.9105  2.0047  0.5934
 2841TIP3    H2 8481   4.834   4.319   1.377 -2.4698 -1.5692  0.4221
 2842TIP3   OH2 8482   3.308   3.001   1.861  0.0344  0.4986 -0.3604
 2842TIP3    H1 8483   3.360   3.007   1.941 -2.3334 -2.1720  1.5307
 2842TIP3    H2 8484   3.331   2.915   1.824 -2.1908 -0.3006 -0.0060
 2843TIP3   OH2 8485   4.003   2.214   4.361 -0.5088  0.2430 -0.6148
 2843TIP3    H1 8486   3.991   2.279   4.291  1.7297  1.7048  0.3067
 2843TIP3    H2 8487   4.039   2.137   4.316  0.8437  1.1473 -1.1330
 2844TIP3   OH2 8488   2.852   3.284   3.409 -0.0490  0.3626  0.5381
 2844TIP3    H1 8489   2.775   3.291   3.352  0.8508  0.4529 -0.6742
 2844TIP3    H2 8490   2.824   3.224   3.479 -0.2191 -2.1953 -1.6337
 2845TIP3   OH2 8491   5.413   0.144   0.472  0.2726  0.0946 -0.1212
 2845TIP3    H1 8492   5.382   0.094   0.396 -0.9448  1.3956 -0.4860
 2845TIP3    H2 8493   5.337   0.195   0.500  1.1213  0.7001  1.1063
 2846TIP3   OH2 8494   3.638   7.502   2.687 -0.6473  0.5622  0.5945
 2846TIP3    H1 8495   3.555   7.549   2.699 -0.1287  1.5731  0.3085
 2846TIP3    H2 8496   3.680   7.548   2.614 -0.0204 -0.2143  0.4639
 2847TIP3   OH2 8497   6.676   1.077   0.855 -0.5169 -0.4376 -0.4713
 2847TIP3    H1 8498   6.588   1.075   0.816 -0.9534  0.6129  0.4264
 2847TIP3    H2 8499   6.660   1.064   0.949 -0.0784  3.4532  0.2256
 2848TIP3   OH2 8500   3.531   0.674   2.469 -0.3453 -0.0378  0.6236
 2848TIP3    H1 8501   3.539   0.590   2.515  1.3866 -0.3748 -0.2331
 2848TIP3    H2 8502   3.520   0.739   2.538 -0.5946 -0.8590  1.3643
 2849TIP3   OH2 8503   6.449   5.306   5.932  0.5111  0.2710  0.3765
 2849TIP3    H1 8504   6.492   5.391   5.929  2.1239 -0.5075  0.9192
 2849TIP3    H2 8505   6.367   5.322   5.980  0.1577  1.7740 -0.7207
 2850TIP3   OH2 8506   5.812   3.050   2.439  0.0947 -0.5444 -0.0307
 2850TIP3    H1 8507   5.720   3.066   2.418  0.5421  2.3803  0.0863
 2850TIP3    H2 8508   5.856   3.043   2.354  0.3465  1.7140 -0.0962
 2851TIP3   OH2 8509   4.704   3.683   1.066  0.5291 -0.1815  0.0545
 2851TIP3    H1 8510   4.774   3.706   1.004  0.3027  0.1682 -0.0706
 2851TIP3    H2 8511   4.663   3.766   1.088 -1.8213 -0.7102 -2.2114
 2852TIP3   OH2 8512   2.406   1.592   1.438  0.2744 -0.4426  0.2735
 2852TIP3    H1 8513   2.328   1.634   1.476  1.1456 -0.5129  2.1556
 2852TIP3    H2 8514   2.466   1.665   1.422  0.4262 -0.5722  0.2643
 2853TIP3   OH2 8515   4.599   1.063   2.141  0.2324  0.1239 -0.0413
 2853TIP3    H1 8516   4.662   1.136   2.139 -0.0945  0.3978 -0.2925
 2853TIP3    H2 8517   4.553   1.073   2.224  0.9233 -0.4186  0.4129
 2854TIP3   OH2 8518   3.021   2.367   0.319 -0.3543  0.5656 -0.6097
 2854TIP3    H1 8519   3.020   2.460   0.345 -1.9455  1.4606 -3.6457
 2854TIP3    H2 8520   3.095   2.360   0.259  1.1121 -0.6828  1.2718
 2855TIP3   OH2 8521   7.286   2.140   2.638 -0.5137  0.4581  0.0306
 2855TIP3    H1 8522   7.191   2.145   2.628 -0.6064  0.6832  1.0172
 2855TIP3    H2 8523   7.301   2.147   2.732  0.4289 -0.3798 -0.0465
 2856TIP3   OH2 8524   3.196   1.297   3.870  0.5690 -0.3185 -0.4155
 2856TIP3    H1 8525   3.107   1.264   3.884 -0.0697  1.7235  0.4950
 2856TIP3    H2 8526   3.247   1.219   3.848 -0.6142 -2.1721  2.9680
 2857TIP3   OH2 8527   5.549   0.154   4.533 -0.4969 -0.4064  0.0019
 2857TIP3    H1 8528   5.642   0.175   4.539 -0.8170  1.1524 -0.3941
 2857TIP3    H2 8529   5.540   0.072   4.582  1.6041 -2.1981 -2.4318
 2858TIP3   OH2 8530   5.457   2.828   1.680  0.3637 -0.1029  0.3067
 2858TIP3    H1 8531   5.427   2.911   1.642  0.8453  0.9043  2.0640
 2858TIP3    H2 8532   5.531   2.852   1.736  3.3896 -2.3113 -2.5543
 2859TIP3   OH2 8533   5.363   0.856   2.174  0.6515 -0.0456 -0.1052
 2859TIP3    H1 8534   5.352   0.901   2.090 -1.3535 -2.1210 -0.9933
 2859TIP3    H2 8535   5.382   0.765   2.151  0.9747 -0.4576  1.6923
 2860TIP3   OH2 8536   6.055   3.481   5.509  0.0588  0.3321  0.6803
 2860TIP3    H1 8537   6.120   3.449   5.572 -0.2072  1.6687  1.6722
 2860TIP3    H2 8538   5.998   3.405   5.493  2.3188 -1.0961 -0.8646
 2861TIP3   OH2 8539   6.262   1.519   2.058  0.1393  0.1136 -0.0643
 2861TIP3    H1 8540   6.224   1.535   2.144  1.3285  0.7390  0.3587
 2861TIP3    H2 8541   6.280   1.607   2.023 -1.3628 -0.1059 -1.4220
 2862TIP3   OH2 8542   6.687   2.008   1.740  0.0959  0.2184 -0.0693
 2862TIP3    H1 8543   6.680   1.963   1.655  0.2913 -0.1545  0.1139
 2862TIP3    H2 8544   6.776   2.043   1.741  0.5467 -0.9301  0.5590
 2863TIP3   OH2 8545   6.395   2.237   0.487  0.5595  0.1315 -0.1824
 2863TIP3    H1 8546   6.454   2.161   0.488 -0.7135 -0.9666 -3.0575
 2863TIP3    H2 8547   6.439   2.301   0.431 -0.6110 -0.4311 -1.7862
 2864TIP3   OH2 8548   8.151   0.226   2.596  0.3399  0.2859  1.0373
 2864TIP3    H1 8549   8.162   0.315   2.630 -1.4626  0.9060  0.0282
 2864TIP3    H2 8550   8.190   0.229   2.508 -0.0159  0.1774  0.8742
 2865TIP3   OH2 8551   3.289   4.811   2.324 -0.1006 -0.1729  0.0518
 2865TIP3    H1 8552   3.370   4.808   2.273  0.5408  1.0185  0.9750
 2865TIP3    H2 8553   3.275   4.720   2.350  0.4096 -0.5464 -0.9306
 2866TIP3   OH2 8554   3.212   7.121   2.782 -0.1036  0.5662 -0.5984
 2866TIP3    H1 8555   3.176   7.128   2.693 -1.7924  0.7224  0.0774
 2866TIP3    H2 8556   3.253   7.205   2.798  2.0395 -0.1670 -1.9862
 2867TIP3   OH2 8557   4.519   2.499   3.640  0.3676  0.8304  0.3676
 2867TIP3    H1 8558   4.517   2.535   3.729 -0.4018 -1.2549  1.2410
 2867TIP3    H2 8559   4.608   2.466   3.630  0.5910  1.4856  0.1844
 2868TIP3   OH2 8560   7.653   3.693   1.925  0.3439 -0.7508 -0.5513
 2868TIP3    H1 8561   7.591   3.626   1.896 -0.4009 -0.2100 -0.2277
 2868TIP3    H2 8562   7.616   3.726   2.007  1.7216 -1.2957  0.3048
 2869TIP3   OH2 8563   7.841   4.240   3.674 -0.8649  0.3848  0.2524
 2869TIP3    H1 8564   7.917   4.182   3.664 -0.2239  1.2875 -0.1402
 2869TIP3    H2 8565   7.766   4.186   3.646 -0.0379  0.3291 -2.0001
 2870TIP3   OH2 8566   5.684   2.588   1.747  0.1593  0.0577  0.4275
 2870TIP3    H1 8567   5.611   2.613   1.690  0.7169  1.3543  0.2684
 2870TIP3    H2 8568   5.672   2.494   1.761 -1.0545  0.0913 -0.2904
 2871TIP3   OH2 8569   6.919   0.412   4.213 -0.7081  0.3289  0.9316
 2871TIP3    H1 8570   6.954   0.323   4.213 -0.2416  0.5154  0.7789
 2871TIP3    H2 8571   6.834   0.404   4.169 -0.4102  0.0682  0.4089
 2872TIP3   OH2 8572   5.712   2.850   1.296  0.1540 -0.1018 -0.2255
 2872TIP3    H1 8573   5.715   2.873   1.388 -2.0569 -2.7929  0.5922
 2872TIP3    H2 8574   5.687   2.931   1.251  0.2376  0.9736  1.6322
 2873TIP3   OH2 8575   5.959   0.145   2.645 -0.8414  0.1323 -0.1282
 2873TIP3    H1 8576   5.957   0.050   2.634 -0.7952  0.3933 -2.7265
 2873TIP3    H2 8577   6.051   0.168   2.632 -0.2536  0.2647  3.6151
 2874TIP3   OH2 8578   5.120   2.491   2.423 -0.5728 -0.4820  0.0600
 2874TIP3    H1 8579   5.193   2.445   2.464 -0.8122 -0.8400  0.0896
 2874TIP3    H2 8580   5.054   2.500   2.492  0.2654  1.6879  0.6046
 2875TIP3   OH2 8581   4.577   2.169   1.904  0.0715 -0.2722 -0.4045
 2875TIP3    H1 8582   4.546   2.259   1.896  2.8888  0.7360 -0.3313
 2875TIP3    H2 8583   4.593   2.141   1.814 -1.1374 -0.8587 -0.4541
 2876TIP3   OH2 8584   8.377   0.896   2.940 -0.4871  0.0953  0.0134
 2876TIP3    H1 8585   8.353   0.975   2.988 -0.3940  0.7123 -0.9599
 2876TIP3    H2 8586   8.460   0.917   2.898 -0.4535 -0.5232 -0.2336
 2877TIP3   OH2 8587   4.940   1.694   1.480 -0.8180 -0.0040  0.2972
 2877TIP3    H1 8588   4.965   1.604   1.458  0.6025  0.8972 -1.8881
 2877TIP3    H2 8589   4.997   1.717   1.554  0.3031 -0.1926 -0.4937
 2878TIP3   OH2 8590   6.053   0.839   1.703  0.3826  0.3827  0.3058
 2878TIP3    H1 8591   5.963   0.855   1.675  0.4533  2.1362  1.0247
 2878TIP3    H2 8592   6.051   0.847   1.798  1.5804  2.0136  0.2136
 2879TIP3   OH2 8593   5.336   2.417   2.177 -0.2743 -0.4492  0.2487
 2879TIP3    H1 8594   5.256   2.469   2.185  0.5012  1.0433 -1.2494
 2879TIP3    H2 8595   5.331   2.378   2.090  1.5185  1.2622 -0.6667
 2880TIP3   OH2 8596   7.133   1.025   1.643  0.8131 -0.2545 -0.2986
 2880TIP3    H1 8597   7.214   1.069   1.619  0.9968 -0.8372 -0.7559
 2880TIP3    H2 8598   7.158   0.967   1.716  0.4104  0.9626  0.8358
 2881TIP3   OH2 8599   3.798   4.059   2.346  0.1573  0.3223  0.2579
 2881TIP3    H1 8600   3.743   4.023   2.276 -0.8636  1.1282  0.6344
 2881TIP3    H2 8601   3.880   4.011   2.339 -0.5797 -0.8631 -0.3458
 2882TIP3   OH2 8602   6.244   3.632   3.019 -0.7878  0.8870 -0.1005
 2882TIP3    H1 8603   6.195   3.705   3.059  0.1192  1.1653  0.5269
 2882TIP3    H2 8604   6.295   3.673   2.949 -1.8108  0.5181 -1.0673
 2883TIP3   OH2 8605   5.743   2.660   0.099 -0.6123  0.1031 -0.7248
 2883TIP3    H1 8606   5.713   2.749   0.118  0.3818  0.5741 -1.3098
 2883TIP3    H2 8607   5.817   2.648   0.158 -2.2740 -1.2756  1.1527
 2884TIP3   OH2 8608   5.989   2.109   2.369  0.2111  0.1081 -0.1453
 2884TIP3    H1 8609   6.048   2.038   2.394 -0.7304 -0.8689 -0.6549
 2884TIP3    H2 8610   6.040   2.163   2.309  0.6587 -0.5990 -0.4015
 2885TIP3   OH2 8611   7.258   2.240   1.893 -0.0830  0.1898  0.2332
 2885TIP3    H1 8612   7.191   2.193   1.942 -0.2970  0.6935  0.4278
 2885TIP3    H2 8613   7.330   2.177   1.883  0.4496  0.4395  2.1950
 2886TIP3   OH2 8614   7.775   0.098   2.943  0.2942 -0.0282 -0.2544
 2886TIP3    H1 8615   7.709   0.036   2.975 -1.0321  2.1356  1.3552
 2886TIP3    H2 8616   7.849   0.087   3.003 -0.7955  1.4699  1.3997
 2887TIP3   OH2 8617   8.296   6.999   6.774 -0.1584 -0.0526 -0.1123
 2887TIP3    H1 8618   8.281   6.920   6.827  1.1401 -2.0262 -2.5950
 2887TIP3    H2 8619   8.212   7.045   6.776 -0.9513 -1.4915  1.3492
 2888TIP3   OH2 8620   5.902   2.896   0.726  0.1300  0.1923  0.1427
 2888TIP3    H1 8621   5.883   2.941   0.808 -1.2427  3.3804 -1.8501
 2888TIP3    H2 8622   5.991   2.864   0.736  1.1713  3.4048  1.6626
 2889TIP3   OH2 8623   0.145   2.425   2.862  0.6500 -0.1894 -0.1442
 2889TIP3    H1 8624   0.070   2.477   2.890  0.4904 -0.2135 -0.5112
 2889TIP3    H2 8625   0.193   2.482   2.802 -0.3350 -0.9575 -1.7139
 2890TIP3   OH2 8626   4.880   2.173   2.518  0.0823  0.0993  0.2766
 2890TIP3    H1 8627   4.847   2.240   2.578  1.0908 -0.1281  1.0959
 2890TIP3    H2 8628   4.975   2.173   2.531  0.0257 -2.0235  0.8665
 2891TIP3   OH2 8629   0.942   2.746   0.328 -0.2274 -0.3345  0.0665
 2891TIP3    H1 8630   0.883   2.674   0.305 -0.3359  0.4306 -2.1675
 2891TIP3    H2 8631   1.023   2.702   0.354 -0.9840 -1.3175  0.8087
 2892TIP3   OH2 8632   1.948   2.552   1.028  0.6789 -0.2333 -0.9752
 2892TIP3    H1 8633   1.920   2.481   0.970  1.4260 -0.2744 -1.2856
 2892TIP3    H2 8634   1.966   2.625   0.970 -1.7490  0.7769 -0.5232
 2893TIP3   OH2 8635   6.799   1.718   1.882  0.7235 -0.0208  0.0383
 2893TIP3    H1 8636   6.825   1.707   1.973  0.6180 -3.2673 -0.2785
 2893TIP3    H2 8637   6.711   1.755   1.886  0.7379 -0.1156  1.2317
 2894TIP3   OH2 8638   6.634   1.326   2.180 -0.7233 -0.3342 -0.1243
 2894TIP3    H1 8639   6.554   1.331   2.233 -1.2447 -0.7620 -0.8648
 2894TIP3    H2 8640   6.604   1.297   2.094  0.0819  0.6665 -0.7457
 2895TIP3   OH2 8641   3.592   1.826   3.483  0.3121  0.5028  0.3494
 2895TIP3    H1 8642   3.526   1.774   3.439  1.4829 -1.6281  1.0323
 2895TIP3    H2 8643   3.672   1.811   3.432  0.5681  2.0967  0.2353
 2896TIP3   OH2 8644   5.306   3.542   1.293 -0.0778  0.6432 -0.5122
 2896TIP3    H1 8645   5.282   3.470   1.351 -0.8977 -0.4830 -2.1808
 2896TIP3    H2 8646   5.278   3.621   1.339 -0.2992 -0.1892  0.8066
 2897TIP3   OH2 8647   5.957   2.597   1.861  0.1753 -0.2634 -0.4166
 2897TIP3    H1 8648   5.862   2.599   1.872  0.3275  1.5299  0.6655
 2897TIP3    H2 8649   5.979   2.682   1.824  1.1064 -1.5800 -3.0830
 2898TIP3   OH2 8650   7.142   3.241   2.949 -0.0799 -0.6666 -0.1681
 2898TIP3    H1 8651   7.132   3.302   3.022 -0.0292 -1.4428  0.5022
 2898TIP3    H2 8652   7.060   3.192   2.947  0.5126 -1.7268  0.3975
 2899TIP3   OH2 8653   6.475   3.814   1.461  0.0285 -0.4070  0.5345
 2899TIP3    H1 8654   6.451   3.907   1.457  1.2708 -0.1239 -0.9805
 2899TIP3    H2 8655   6.456   3.781   1.373  1.0903 -1.1953  0.5999
 2900TIP3   OH2 8656   7.841   2.029   0.253 -0.0733 -0.5500 -0.0356
 2900TIP3    H1 8657   7.775   1.995   0.193  1.0066 -0.7806 -1.1175
 2900TIP3    H2 8658   7.916   2.050   0.197  0.2890  0.9771  0.9791
 2901TIP3   OH2 8659   5.891   0.398   1.731  0.1546 -0.7375  0.2461
 2901TIP3    H1 8660   5.945   0.416   1.655 -1.0521 -0.3384 -0.5324
 2901TIP3    H2 8661   5.832   0.328   1.702 -0.3664 -0.5234  0.7836
 2902TIP3   OH2 8662   7.056   2.285   2.236  0.2850 -0.1137  0.0472
 2902TIP3    H1 8663   7.014   2.273   2.151 -1.5511 -0.7505  1.0442
 2902TIP3    H2 8664   7.050   2.379   2.252  0.9294  0.0603 -0.6470
 2903TIP3   OH2 8665   7.196   0.932   2.782 -0.2727  0.0934  0.2350
 2903TIP3    H1 8666   7.241   0.855   2.818  0.9972 -0.1552 -1.8008
 2903TIP3    H2 8667   7.148   0.968   2.856 -1.4594 -3.0494  1.0948
 2904TIP3   OH2 8668   4.656   1.382   1.010  0.1601  0.4110 -0.3945
 2904TIP3    H1 8669   4.735   1.383   0.956 -0.9015  1.1124 -1.9621
 2904TIP3    H2 8670   4.633   1.474   1.021 -0.3147  0.2158  0.2427
 2905TIP3   OH2 8671   0.896   2.896   0.541  0.3567  0.8385  0.0578
 2905TIP3    H1 8672   0.823   2.842   0.573  1.2942  0.1233  1.0449
 2905TIP3    H2 8673   0.913   2.863   0.453 -0.7725  1.2861 -0.3379
 2906TIP3   OH2 8674   2.728   3.403   2.681  0.7095 -0.1263 -0.3892
 2906TIP3    H1 8675   2.802   3.405   2.620  1.1520  0.0320  0.1536
 2906TIP3    H2 8676   2.764   3.436   2.763 -0.8287  3.4072 -1.0571
 2907TIP3   OH2 8677   7.868   2.279   3.723 -0.3182 -0.0373  0.2060
 2907TIP3    H1 8678   7.881   2.296   3.630 -0.3789  1.1570  0.4099
 2907TIP3    H2 8679   7.798   2.338   3.749 -0.8796 -0.9696  0.8239
 2908TIP3   OH2 8680   7.441   3.747   3.263 -0.1504 -0.2342 -0.1824
 2908TIP3    H1 8681   7.450   3.807   3.190 -1.8500  0.1895 -0.0569
 2908TIP3    H2 8682   7.439   3.804   3.341  0.8243 -0.6286  0.1450
 2909TIP3   OH2 8683   5.762   2.213   1.646 -0.0685  0.4669 -0.0744
 2909TIP3    H1 8684   5.762   2.124   1.681 -0.6884  0.7714  0.7207
 2909TIP3    H2 8685   5.690   2.257   1.692  0.4230  1.4586 -0.2358
 2910TIP3   OH2 8686   7.595   4.731   1.903  0.4748  0.3660 -0.2441
 2910TIP3    H1 8687   7.566   4.640   1.892  2.2573 -0.2017 -0.3662
 2910TIP3    H2 8688   7.636   4.733   1.989  1.9132  0.6492 -0.9275
 2911TIP3   OH2 8689   6.587   2.709   0.962  0.4264 -0.1158  0.4611
 2911TIP3    H1 8690   6.640   2.715   1.041 -1.0329 -1.5965  1.6032
 2911TIP3    H2 8691   6.505   2.753   0.986 -0.6101 -1.9205  0.3387
 2912TIP3   OH2 8692   7.565   2.867   2.288 -0.4927 -0.3745  0.5362
 2912TIP3    H1 8693   7.528   2.843   2.373 -1.1319 -3.7388 -0.6346
 2912TIP3    H2 8694   7.615   2.790   2.260 -0.1439  0.7426 -2.0502
 2913TIP3   OH2 8695   6.143   3.242   2.156 -0.5094 -0.2706 -0.0975
 2913TIP3    H1 8696   6.165   3.274   2.243 -0.7536 -1.0346  0.2441
 2913TIP3    H2 8697   6.224   3.205   2.122 -0.5777 -0.5585  0.0576
 2914TIP3   OH2 8698   6.653   2.312   1.193 -0.5128 -0.4641  0.4661
 2914TIP3    H1 8699   6.735   2.334   1.148 -0.5114 -1.9123 -0.2755
 2914TIP3    H2 8700   6.616   2.241   1.141 -1.8762 -0.3221  1.2260
 2915TIP3   OH2 8701   7.231   0.659   2.635  0.4089  0.0158  0.2883
 2915TIP3    H1 8702   7.226   0.563   2.640 -1.6626  0.0280 -0.9045
 2915TIP3    H2 8703   7.243   0.687   2.725 -0.8968 -1.2928  0.8999
 2916TIP3   OH2 8704   5.748   2.025   2.479  0.0853  0.2896 -0.1265
 2916TIP3    H1 8705   5.814   2.062   2.421  0.9006 -1.4911 -0.3685
 2916TIP3    H2 8706   5.717   1.947   2.433 -2.7575  1.4892 -0.3756
 2917TIP3   OH2 8707   7.941   2.231   4.001  0.0964 -0.0037 -0.3537
 2917TIP3    H1 8708   7.921   2.244   3.909  2.2418  0.2057 -0.8151
 2917TIP3    H2 8709   7.890   2.297   4.047 -0.2126  0.5387 -1.4722
 2918TIP3   OH2 8710   3.652   3.630   6.191  0.2567 -0.0119 -0.2128
 2918TIP3    H1 8711   3.676   3.691   6.120 -0.4762 -0.8834 -1.2346
 2918TIP3    H2 8712   3.579   3.579   6.155 -0.8018  0.2154  1.5577
 2919TIP3   OH2 8713   7.017   0.996   2.367 -0.3440 -0.2534 -0.6115
 2919TIP3    H1 8714   7.006   1.087   2.397 -1.0553 -0.2936 -0.7451
 2919TIP3    H2 8715   6.972   0.993   2.283  1.2608 -0.2630 -1.4683
 2920TIP3   OH2 8716   6.677   0.137   2.897  0.6310  0.1326  0.3579
 2920TIP3    H1 8717   6.658   0.229   2.918  2.0305  0.2831  1.0589
 2920TIP3    H2 8718   6.771   0.137   2.877  0.2130 -0.7782 -1.7226
 2921TIP3   OH2 8719   6.948   3.014   1.110 -0.2660  0.9112  0.1063
 2921TIP3    H1 8720   6.868   3.064   1.127  1.1222  2.8700  1.0898
 2921TIP3    H2 8721   6.927   2.960   1.034 -3.0702  0.1278  1.4045
 2922TIP3   OH2 8722   7.856   7.199   6.555  0.3057  0.3626 -0.1122
 2922TIP3    H1 8723   7.819   7.115   6.527  1.0305 -0.0552  0.1813
 2922TIP3    H2 8724   7.788   7.263   6.534 -0.5417 -0.3869  0.3107
 2923TIP3   OH2 8725   7.622   3.351   3.966  0.9464 -0.2653  0.5499
 2923TIP3    H1 8726   7.573   3.312   3.894  0.0478  1.3456  0.2632
 2923TIP3    H2 8727   7.622   3.283   4.034  0.8699 -1.3892 -0.5475
 2924TIP3   OH2 8728   5.360   2.013   2.027 -0.0817  0.4330 -0.0129
 2924TIP3    H1 8729   5.293   1.972   2.081  1.6157 -0.7189  1.2765
 2924TIP3    H2 8730   5.427   2.041   2.090  0.8221  1.2228 -1.3086
 2925TIP3   OH2 8731   5.482   0.409   1.001  0.1741 -0.4176  0.5019
 2925TIP3    H1 8732   5.498   0.364   1.084  0.4705 -0.1750  0.5768
 2925TIP3    H2 8733   5.387   0.409   0.992  0.1750 -1.0806  0.4910
 2926TIP3   OH2 8734   6.330   1.747   1.394  0.4312 -0.0855  0.1187
 2926TIP3    H1 8735   6.241   1.778   1.374  0.3043  0.5587  1.6022
 2926TIP3    H2 8736   6.387   1.799   1.337 -0.0598  0.3031 -0.0210
 2927TIP3   OH2 8737   4.274   2.351   2.386 -0.3379 -0.1898 -0.3172
 2927TIP3    H1 8738   4.275   2.431   2.439  0.8576  0.1944 -0.9099
 2927TIP3    H2 8739   4.316   2.286   2.442  0.9583  0.2254 -0.7879
 2928TIP3   OH2 8740   5.021   0.598   2.702  0.1900 -0.3706 -0.0923
 2928TIP3    H1 8741   5.041   0.561   2.616 -0.0941  0.2090 -0.4051
 2928TIP3    H2 8742   5.040   0.691   2.694  0.1119 -0.3018  0.4603
 2929TIP3   OH2 8743   5.590   0.224   2.327  0.0927  0.4699 -0.4468
 2929TIP3    H1 8744   5.526   0.159   2.301 -0.4040  0.2996  1.1209
 2929TIP3    H2 8745   5.660   0.173   2.369  0.0896  0.8534  0.0366
 2930TIP3   OH2 8746   6.123   3.165   3.018  0.0239  0.2581 -0.0074
 2930TIP3    H1 8747   6.117   3.259   3.000  1.1249  0.5543  1.0792
 2930TIP3    H2 8748   6.043   3.145   3.067 -0.0058  0.7261  0.1382
 2931TIP3   OH2 8749   5.810   3.437   0.896 -0.3164  0.1722  0.3792
 2931TIP3    H1 8750   5.808   3.400   0.984  1.1674  0.4791  0.5666
 2931TIP3    H2 8751   5.745   3.388   0.847  0.5862 -1.6939  1.0027
 2932TIP3   OH2 8752   5.947   0.803   1.287  0.2157 -0.1538  0.3069
 2932TIP3    H1 8753   5.853   0.819   1.286 -0.0892 -1.8943  0.2235
 2932TIP3    H2 8754   5.982   0.866   1.350 -0.9751  0.5811  0.2395
 2933TIP3   OH2 8755   7.082   0.032   2.448 -0.0892  0.3050 -0.8256
 2933TIP3    H1 8756   7.117   0.062   2.532  1.1759 -0.6971 -0.9928
 2933TIP3    H2 8757   7.146   0.062   2.384 -0.4370  0.0046 -1.3090
 2934TIP3   OH2 8758   7.708   2.205   0.654  0.5016  0.5007  0.2176
 2934TIP3    H1 8759   7.629   2.246   0.689 -0.0093  0.2655 -0.6449
 2934TIP3    H2 8760   7.676   2.147   0.585  1.2789 -0.8663  0.9885
 2935TIP3   OH2 8761   7.312   2.442   5.031 -0.3107 -0.0284  0.3539
 2935TIP3    H1 8762   7.360   2.524   5.023 -0.7523  0.1441 -0.6243
 2935TIP3    H2 8763   7.336   2.393   4.951  2.1422 -2.0283  2.2237
 2936TIP3   OH2 8764   5.522   3.582   4.647 -0.4951 -0.0512 -0.0804
 2936TIP3    H1 8765   5.607   3.541   4.631 -0.5448  0.0330 -0.5871
 2936TIP3    H2 8766   5.519   3.596   4.741  0.0125 -0.1433 -0.0484
 2937TIP3   OH2 8767   6.230   1.731   2.308 -0.0217  0.1155 -0.3829
 2937TIP3    H1 8768   6.224   1.652   2.362 -0.8008  0.8287  0.5974
 2937TIP3    H2 8769   6.319   1.762   2.320  0.1989 -0.4519 -0.5448
 2938TIP3   OH2 8770   6.170   0.984   2.761 -0.0690  0.2180 -0.4021
 2938TIP3    H1 8771   6.149   0.923   2.690  0.5283  0.8070 -1.1004
 2938TIP3    H2 8772   6.218   1.055   2.718 -1.0302  1.3486  0.3376
 2939TIP3   OH2 8773   6.519   1.468   2.910  0.3703  0.2074 -0.0328
 2939TIP3    H1 8774   6.464   1.523   2.966  1.3640  1.1569  0.0256
 2939TIP3    H2 8775   6.527   1.385   2.958 -1.5560 -0.1832 -0.3586
 2940TIP3   OH2 8776   5.242   2.594   0.821 -0.7005  0.2598 -0.0181
 2940TIP3    H1 8777   5.276   2.683   0.810  1.5361 -0.5848 -0.3084
 2940TIP3    H2 8778   5.196   2.576   0.739  0.7432  0.3598 -0.8693
 2941TIP3   OH2 8779   6.358   2.833   1.265  0.7820  0.0053  0.0598
 2941TIP3    H1 8780   6.312   2.890   1.327 -0.1799 -1.7384  0.9725
 2941TIP3    H2 8781   6.414   2.778   1.319  0.6996 -0.8507 -0.7163
 2942TIP3   OH2 8782   0.761   4.011   6.612  0.1132 -0.0416 -0.4901
 2942TIP3    H1 8783   0.670   3.987   6.629 -0.3333  1.9038 -0.0675
 2942TIP3    H2 8784   0.767   4.017   6.517 -0.9001  2.4008 -0.4262
 2943TIP3   OH2 8785   5.543   3.881   0.162 -0.5864 -0.1189  0.0314
 2943TIP3    H1 8786   5.610   3.833   0.211 -1.2428 -1.8961 -0.7512
 2943TIP3    H2 8787   5.577   3.970   0.156  0.2905 -0.2673  2.2370
 2944TIP3   OH2 8788   8.392   2.828   0.445  0.1634  0.3566 -0.2797
 2944TIP3    H1 8789   8.420   2.782   0.524 -1.4272  0.1164  0.1506
 2944TIP3    H2 8790   8.363   2.913   0.476 -0.4656  0.2629 -0.6078
 2945TIP3   OH2 8791   6.008   1.858   0.272 -0.1834  0.2768 -0.3147
 2945TIP3    H1 8792   6.088   1.862   0.219 -0.4031 -1.8895 -0.8803
 2945TIP3    H2 8793   6.030   1.795   0.341 -0.3015  2.1824  1.4907
 2946TIP3   OH2 8794   5.352   2.704   1.135 -0.8298  0.4778 -0.1405
 2946TIP3    H1 8795   5.316   2.621   1.166  0.9742 -0.0503  0.6554
 2946TIP3    H2 8796   5.413   2.679   1.066 -1.2835  1.2588 -0.8269
 2947TIP3   OH2 8797   6.585   0.940   1.151  0.4026  0.3727 -0.4474
 2947TIP3    H1 8798   6.573   1.024   1.195 -0.4142 -0.0290  0.1308
 2947TIP3    H2 8799   6.679   0.926   1.149  0.4738  0.5802  0.8612
 2948TIP3   OH2 8800   6.869   2.772   2.705 -0.2956  0.0176  0.1329
 2948TIP3    H1 8801   6.935   2.706   2.728  0.4333  0.7829  0.2986
 2948TIP3    H2 8802   6.787   2.724   2.701  0.4627 -1.1892 -1.3008
 2949TIP3   OH2 8803   6.350   3.935   1.032  0.1252  0.0490  0.0021
 2949TIP3    H1 8804   6.384   3.862   0.981  1.8690  0.2654  0.7869
 2949TIP3    H2 8805   6.376   4.013   0.982 -0.2882  0.1766 -0.0110
 2950TIP3   OH2 8806   6.880   2.504   2.355 -0.2761 -0.1049 -0.3755
 2950TIP3    H1 8807   6.823   2.461   2.419 -0.8236  0.3926 -0.5236
 2950TIP3    H2 8808   6.840   2.483   2.270 -0.3908  0.4646 -0.4652
 2951TIP3   OH2 8809   7.586   2.406   1.987  0.9035 -0.3655  0.4008
 2951TIP3    H1 8810   7.614   2.404   1.895  0.8974 -0.7558  0.4075
 2951TIP3    H2 8811   7.612   2.321   2.022 -0.0821 -0.6545  0.4668
 2952TIP3   OH2 8812   0.549   3.543   2.482 -0.4688  0.4626 -0.6091
 2952TIP3    H1 8813   0.579   3.589   2.403 -1.2401 -1.8521 -2.3054
 2952TIP3    H2 8814   0.537   3.453   2.454 -1.5817 -0.2393  1.9795
 2953TIP3   OH2 8815   7.917   1.309   3.188 -0.3072 -0.6309  0.9510
 2953TIP3    H1 8816   7.908   1.265   3.272 -0.7777  0.3459  1.4187
 2953TIP3    H2 8817   7.839   1.282   3.139  0.1105 -1.4291  0.7050
 2954TIP3   OH2 8818   7.136   2.020   4.043  0.4055  0.2441  0.4698
 2954TIP3    H1 8819   7.181   2.086   4.096  0.5736 -2.1514  3.4719
 2954TIP3    H2 8820   7.049   2.013   4.083 -0.3295  0.0913 -1.1262
 2955TIP3   OH2 8821   3.696   3.531   2.080  0.9664 -0.3415  0.0094
 2955TIP3    H1 8822   3.705   3.586   2.003 -0.7600 -0.3990 -0.2516
 2955TIP3    H2 8823   3.672   3.591   2.151  0.1867 -0.6018 -0.0294
 2956TIP3   OH2 8824   6.356   2.784   2.322 -0.4245  0.5327  0.7400
 2956TIP3    H1 8825   6.350   2.870   2.279  2.4957 -0.1697 -1.1785
 2956TIP3    H2 8826   6.292   2.730   2.276  1.4830  0.2577 -1.6846
 2957TIP3   OH2 8827   6.529   0.626   0.437  0.3330  0.7762 -0.1505
 2957TIP3    H1 8828   6.471   0.629   0.361 -0.2716 -0.2839  0.2533
 2957TIP3    H2 8829   6.482   0.673   0.505  0.3147  0.6421 -0.0698
 2958TIP3   OH2 8830   5.971   2.580   2.479  0.4129 -0.0416  0.2673
 2958TIP3    H1 8831   6.004   2.621   2.559 -0.9237  0.6101  0.5017
 2958TIP3    H2 8832   5.973   2.486   2.497  1.6761  0.0106  0.4473
 2959TIP3   OH2 8833   5.982   2.197   1.216  0.0657 -0.4182 -0.2545
 2959TIP3    H1 8834   5.903   2.155   1.252 -0.4409 -0.0845 -0.9684
 2959TIP3    H2 8835   5.995   2.274   1.271 -1.2778  0.6386 -1.3464
 2960TIP3   OH2 8836   6.392   0.108   1.332  0.0838  0.4837 -0.1672
 2960TIP3    H1 8837   6.473   0.155   1.349 -0.3790  1.1080  0.3646
 2960TIP3    H2 8838   6.342   0.116   1.413 -0.2083 -0.5205 -0.2384
 2961TIP3   OH2 8839   6.477   4.712   2.375  0.3965 -0.2090 -0.2756
 2961TIP3    H1 8840   6.566   4.692   2.346  1.3585 -0.0991  2.4057
 2961TIP3    H2 8841   6.487   4.788   2.433 -1.3480 -0.5718  0.5403
 2962TIP3   OH2 8842   0.069   3.717   0.193 -0.2606 -0.3027 -0.1285
 2962TIP3    H1 8843   0.058   3.721   0.288  0.5567 -0.5796 -0.0198
 2962TIP3    H2 8844   0.153   3.759   0.176  0.5719 -2.0655 -0.5286
 2963TIP3   OH2 8845   6.896   0.576   1.799 -0.4450 -0.2822 -0.0697
 2963TIP3    H1 8846   6.815   0.621   1.775  1.1419  2.2848 -0.8154
 2963TIP3    H2 8847   6.922   0.615   1.882  0.5632 -0.3689 -0.3381
 2964TIP3   OH2 8848   0.514   7.385   4.903  0.4601 -1.0579 -0.2642
 2964TIP3    H1 8849   0.470   7.300   4.908 -0.3493 -0.6852 -0.8013
 2964TIP3    H2 8850   0.443   7.446   4.883  1.1356 -0.3441 -0.4708
 2965TIP3   OH2 8851   5.728   1.804   0.514  0.2428  0.6427 -0.2741
 2965TIP3    H1 8852   5.737   1.869   0.445 -0.6836  0.5092 -0.5233
 2965TIP3    H2 8853   5.644   1.824   0.555 -0.0397 -0.3810 -0.3411
 2966TIP3   OH2 8854   6.327   3.126   1.666  0.1491 -0.3061  0.3873
 2966TIP3    H1 8855   6.323   3.186   1.592  1.2697 -1.4949 -0.6616
 2966TIP3    H2 8856   6.390   3.165   1.727  1.9042 -1.0461 -0.9023
 2967TIP3   OH2 8857   5.427   1.072   0.417  0.0356 -0.1899  0.0006
 2967TIP3    H1 8858   5.426   1.107   0.506  0.6384 -0.5091  0.1397
 2967TIP3    H2 8859   5.514   1.095   0.384 -0.5252  0.7752 -0.8527
 2968TIP3   OH2 8860   5.090   2.593   2.168 -0.3731 -0.3806  0.6342
 2968TIP3    H1 8861   5.099   2.569   2.260 -0.4652 -1.7639  0.2927
 2968TIP3    H2 8862   5.012   2.545   2.138 -0.1659 -0.1785 -0.2302
 2969TIP3   OH2 8863   6.581   3.732   3.817  0.5839 -0.0772  0.3583
 2969TIP3    H1 8864   6.541   3.678   3.749  0.1625  0.7506 -0.0569
 2969TIP3    H2 8865   6.567   3.683   3.898 -0.2405 -0.3450  0.0553
 2970TIP3   OH2 8866   6.255   0.818   3.293  0.0036  0.4774  0.5607
 2970TIP3    H1 8867   6.290   0.834   3.381  1.2303  0.4530  0.0846
 2970TIP3    H2 8868   6.267   0.724   3.278  2.2539  0.9070 -0.6438
 2971TIP3   OH2 8869   6.830   3.360   0.781 -0.2378 -0.0418 -0.1186
 2971TIP3    H1 8870   6.790   3.375   0.866  0.4944 -0.6476  0.3312
 2971TIP3    H2 8871   6.776   3.412   0.720 -1.3487 -0.3919  0.5593
 2972TIP3   OH2 8872   6.739   1.354   1.559 -0.4382 -0.4734 -0.3173
 2972TIP3    H1 8873   6.671   1.360   1.626  0.7744  0.6831  0.8386
 2972TIP3    H2 8874   6.821   1.348   1.608  0.4007 -0.4754 -1.6893
 2973TIP3   OH2 8875   6.338   1.268   3.517  0.5772 -0.1528 -0.5557
 2973TIP3    H1 8876   6.345   1.362   3.532  0.9979 -0.4451  1.1887
 2973TIP3    H2 8877   6.247   1.246   3.539  0.3214 -0.0773 -1.4974
 2974TIP3   OH2 8878   2.350   7.385   1.469  0.0673 -0.3968  0.4425
 2974TIP3    H1 8879   2.256   7.385   1.486  0.4307 -0.5777  2.5420
 2974TIP3    H2 8880   2.383   7.462   1.516  0.7828  0.4711 -1.4408
 2975TIP3   OH2 8881   3.783   1.969   2.432 -0.2223 -0.0821 -0.0199
 2975TIP3    H1 8882   3.751   1.891   2.478 -0.6788 -0.3636 -0.8048
 2975TIP3    H2 8883   3.731   1.972   2.352  1.5867 -0.4194 -1.2262
 2976TIP3   OH2 8884   6.817   1.296   2.682 -0.0339  0.2976 -0.1732
 2976TIP3    H1 8885   6.808   1.325   2.591  0.1062  1.5606  0.2169
 2976TIP3    H2 8886   6.730   1.264   2.706 -0.4917  1.5349 -0.2017
 2977TIP3   OH2 8887   7.785   2.027   2.192 -0.2815 -0.0953 -0.0627
 2977TIP3    H1 8888   7.774   2.027   2.287 -0.0838  0.5437 -0.0424
 2977TIP3    H2 8889   7.867   2.073   2.176 -0.8950  0.8202 -0.6151
 2978TIP3   OH2 8890   0.084   2.959   1.866 -0.1930 -0.4612 -0.1531
 2978TIP3    H1 8891   0.080   2.945   1.960  3.9833 -0.2726  0.1234
 2978TIP3    H2 8892   0.042   3.044   1.852 -0.1858 -0.1583  1.6119
 2979TIP3   OH2 8893   6.004   2.366   1.998 -0.4265 -0.0488 -0.6281
 2979TIP3    H1 8894   5.990   2.432   1.930 -1.1660 -2.0826 -2.4891
 2979TIP3    H2 8895   5.962   2.404   2.076 -2.5129  0.8796 -2.1347
 2980TIP3   OH2 8896   4.120   7.844   3.248 -0.1055  0.2037 -0.5308
 2980TIP3    H1 8897   4.211   7.815   3.238  0.4047  1.2970  0.8720
 2980TIP3    H2 8898   4.069   7.778   3.200  1.4637 -0.0540 -1.9073
 2981TIP3   OH2 8899   8.276   4.640   3.947  0.3567 -0.8150  0.0022
 2981TIP3    H1 8900   8.227   4.647   3.865 -0.0090 -3.9405 -0.0946
 2981TIP3    H2 8901   8.210   4.614   4.012  0.9810 -0.0932  0.9537
 2982TIP3   OH2 8902   5.979   0.551   1.480 -0.4469  0.3020  0.1696
 2982TIP3    H1 8903   6.057   0.594   1.517  1.0133 -1.3285 -0.9315
 2982TIP3    H2 8904   5.962   0.598   1.399 -1.4109  1.4862  1.0369
 2983TIP3   OH2 8905   6.866   2.882   3.163 -0.9202 -0.9190 -0.3642
 2983TIP3    H1 8906   6.918   2.871   3.243  0.9063  1.7585 -1.1330
 2983TIP3    H2 8907   6.911   2.828   3.098  1.2673  1.7371 -1.1450
 2984TIP3   OH2 8908   4.773   2.492   3.590 -0.2320 -0.1096 -0.0089
 2984TIP3    H1 8909   4.816   2.525   3.668 -1.7618  1.2059  0.3251
 2984TIP3    H2 8910   4.808   2.546   3.519  0.1277 -0.3581 -0.0165
 2985TIP3   OH2 8911   6.540   1.235   2.772  0.1350  0.3696 -0.0472
 2985TIP3    H1 8912   6.521   1.320   2.812  1.7565  0.7063  0.0488
 2985TIP3    H2 8913   6.462   1.215   2.720 -0.8089  1.2767  0.9964
 2986TIP3   OH2 8914   6.583   3.241   1.741  0.3177  0.1722 -0.0606
 2986TIP3    H1 8915   6.562   3.334   1.731  1.2821  0.3271 -0.6942
 2986TIP3    H2 8916   6.665   3.241   1.791  0.5608 -0.3252 -0.4632
 2987TIP3   OH2 8917   6.183   4.894   5.328  0.4031  0.7378  0.4069
 2987TIP3    H1 8918   6.172   4.850   5.243  3.0781 -0.9936  0.9340
 2987TIP3    H2 8919   6.123   4.848   5.386 -0.3685  0.9831 -0.1759
 2988TIP3   OH2 8920   5.428   3.717   0.471  0.1160  0.5966  0.1058
 2988TIP3    H1 8921   5.437   3.630   0.431  0.5422  0.4397  0.5353
 2988TIP3    H2 8922   5.343   3.749   0.440  0.1671  0.2232 -0.4326
 2989TIP3   OH2 8923   4.970   3.766   3.608 -0.6102 -0.1588  0.1678
 2989TIP3    H1 8924   5.017   3.775   3.525  1.0430 -2.0815  0.8501
 2989TIP3    H2 8925   5.009   3.830   3.666  0.7791 -1.3122  0.5372
 2990TIP3   OH2 8926   5.528   0.815   1.736 -0.8754  0.1444  0.3527
 2990TIP3    H1 8927   5.434   0.820   1.718 -0.7253  1.7466 -0.0267
 2990TIP3    H2 8928   5.540   0.727   1.773 -2.2155 -0.7674 -1.3010
 2991TIP3   OH2 8929   7.116   0.872   3.075  0.2067  0.0619  0.1133
 2991TIP3    H1 8930   7.070   0.940   3.026 -0.4304 -2.0299 -2.2828
 2991TIP3    H2 8931   7.046   0.820   3.115  0.6562  0.0366  0.8743
 2992TIP3   OH2 8932   3.725   7.109   1.692  0.1675 -0.3395  0.1590
 2992TIP3    H1 8933   3.659   7.049   1.657 -1.0752 -0.7722  3.1043
 2992TIP3    H2 8934   3.787   7.053   1.737  0.2757  0.3835  0.9319
 2993TIP3   OH2 8935   6.677   0.207   1.295  0.0235  0.0006  0.2344
 2993TIP3    H1 8936   6.726   0.230   1.216 -1.7159  0.0328 -0.8369
 2993TIP3    H2 8937   6.661   0.291   1.338 -0.5778  0.1499 -0.2845
 2994TIP3   OH2 8938   5.968   1.194   2.053 -0.0582  0.4132  0.1757
 2994TIP3    H1 8939   5.915   1.117   2.035 -0.1267  0.3547  0.6142
 2994TIP3    H2 8940   5.906   1.257   2.092  0.0053  0.6721 -0.1380
 2995TIP3   OH2 8941   7.451   1.150   1.763 -0.1204 -0.1126  0.4724
 2995TIP3    H1 8942   7.506   1.225   1.741  0.6755 -0.3177  1.7054
 2995TIP3    H2 8943   7.442   1.102   1.681  0.0616  0.8850 -0.1351
 2996TIP3   OH2 8944   7.986   2.515   2.228 -0.7785  0.7347  0.3785
 2996TIP3    H1 8945   7.952   2.471   2.150 -1.5858  1.7176  0.1685
 2996TIP3    H2 8946   8.075   2.541   2.203 -1.3270  1.7831 -0.5064
 2997TIP3   OH2 8947   7.601   0.153   1.949 -0.3306 -0.2758  0.0934
 2997TIP3    H1 8948   7.536   0.085   1.931 -0.7559 -0.2602  1.4954
 2997TIP3    H2 8949   7.652   0.160   1.868 -1.8185 -0.5548 -0.8852
 2998TIP3   OH2 8950   8.171   2.460   4.187  0.0238 -0.3582 -0.4315
 2998TIP3    H1 8951   8.164   2.468   4.091 -1.3575 -0.0099 -0.3176
 2998TIP3    H2 8952   8.091   2.502   4.220 -0.5737 -2.3732  0.7751
 2999TIP3   OH2 8953   6.690   4.879   6.456  0.4344 -0.2129  0.5628
 2999TIP3    H1 8954   6.649   4.946   6.511 -0.5757 -0.0316 -0.3859
 2999TIP3    H2 8955   6.783   4.883   6.478  0.1754  0.5157  1.5525
 3000TIP3   OH2 8956   6.463   1.389   2.384  0.1913 -0.0207 -0.6278
 3000TIP3    H1 8957   6.371   1.410   2.398  0.4401  0.1887  0.7759
 3000TIP3    H2 8958   6.464   1.293   2.375 -0.0419 -0.1206  0.3809
 3001TIP3   OH2 8959   5.400   0.699   0.915 -0.2058  0.0027  0.3933
 3001TIP3    H1 8960   5.372   0.746   0.993 -1.9278 -1.2231  0.5393
 3001TIP3    H2 8961   5.390   0.606   0.937  1.2235 -0.4148 -0.5811
 3002TIP3   OH2 8962   8.513   6.919   6.480 -0.8955 -0.4813 -0.1233
 3002TIP3    H1 8963   8.418   6.903   6.482 -0.7392 -1.3290  0.4212
 3002TIP3    H2 8964   8.551   6.835   6.457 -0.2912 -0.0422 -0.7293
 3003TIP3   OH2 8965   1.945   3.070   4.118  0.1030  0.2039 -0.4810
 3003TIP3    H1 8966   1.918   3.139   4.057 -1.6675 -1.1786 -1.3055
 3003TIP3    H2 8967   1.938   3.111   4.204  1.9320  1.9513 -1.1145
 3004TIP3   OH2 8968   8.268   2.810   2.208  0.7351  0.0302 -0.2887
 3004TIP3    H1 8969   8.181   2.831   2.176  0.6347 -0.5377 -0.4012
 3004TIP3    H2 8970   8.316   2.781   2.129  0.5255 -1.2415  0.0306
 3005TIP3   OH2 8971   6.225   1.738   2.866 -0.3607  0.1270 -0.4332
 3005TIP3    H1 8972   6.281   1.778   2.799  0.1493 -0.4250 -0.3403
 3005TIP3    H2 8973   6.152   1.701   2.817 -0.4952  0.5854 -0.5852
 3006TIP3   OH2 8974   5.677   0.373   1.225 -0.3041  0.2705  0.4179
 3006TIP3    H1 8975   5.729   0.293   1.231  1.7114  1.6215  1.4223
 3006TIP3    H2 8976   5.651   0.392   1.316 -0.1178  1.1807  0.2824
 3007TIP3   OH2 8977   5.416   3.693   2.353  0.1236  0.3539 -0.0660
 3007TIP3    H1 8978   5.359   3.767   2.334  1.9730  2.1226  1.0766
 3007TIP3    H2 8979   5.453   3.668   2.269  0.2638  1.3925 -0.3107
 3008TIP3   OH2 8980   4.489   2.727   3.465  0.3405 -0.5696 -0.1745
 3008TIP3    H1 8981   4.571   2.760   3.501  0.1070 -0.0748 -0.0925
 3008TIP3    H2 8982   4.478   2.641   3.505 -0.2151  0.2080  1.3876
 3009TIP3   OH2 8983   6.582   1.666   4.696  0.7546 -0.7317  0.0620
 3009TIP3    H1 8984   6.651   1.605   4.721  0.9426 -0.1023  1.1094
 3009TIP3    H2 8985   6.628   1.738   4.652  0.5630 -1.2174 -0.9288
 3010TIP3   OH2 8986   6.690   0.253   4.757 -0.1091 -0.1667 -0.0051
 3010TIP3    H1 8987   6.701   0.168   4.800 -1.5862 -0.2655  0.2127
 3010TIP3    H2 8988   6.766   0.261   4.700  0.0604 -1.6360 -0.0134
 3011TIP3   OH2 8989   5.728   1.547   1.095  0.2783  0.3742  0.7051
 3011TIP3    H1 8990   5.793   1.576   1.158  0.6028  0.3497  0.3849
 3011TIP3    H2 8991   5.770   1.560   1.009  0.2137 -0.4918  0.5358
 3012TIP3   OH2 8992   7.223   1.430   2.435 -0.2785  0.6505 -0.0387
 3012TIP3    H1 8993   7.233   1.427   2.530 -1.4170 -0.2910  0.0608
 3012TIP3    H2 8994   7.238   1.521   2.412 -2.8223  1.4777  1.3878
 3013TIP3   OH2 8995   7.526   1.474   0.883 -0.0380 -0.3674  0.3271
 3013TIP3    H1 8996   7.450   1.423   0.855  1.4069 -3.2057  1.3498
 3013TIP3    H2 8997   7.490   1.540   0.942 -2.2430  1.3456 -2.7618
 3014TIP3   OH2 8998   2.869   7.432   0.647  0.2467  0.0669 -0.1421
 3014TIP3    H1 8999   2.820   7.466   0.722  1.2391  1.0965  0.0679
 3014TIP3    H2 9000   2.803   7.402   0.586 -0.5838 -0.7344  1.1358
 3015TIP3   OH2 9001   7.913   4.792   6.681  0.2202  0.4577 -0.2111
 3015TIP3    H1 9002   7.998   4.758   6.652  0.3888  0.2346  0.5265
 3015TIP3    H2 9003   7.902   4.755   6.769 -1.2144 -0.5012 -0.7838
 3016TIP3   OH2 9004   8.136   2.600   3.169  0.0552 -0.4797  0.6981
 3016TIP3    H1 9005   8.224   2.564   3.180  1.0657  1.6974  0.0178
 3016TIP3    H2 9006   8.114   2.581   3.078  0.6845  0.7348  0.2705
 3017TIP3   OH2 9007   7.879   3.322   2.900  0.0647 -0.3172 -0.0656
 3017TIP3    H1 9008   7.929   3.357   2.973  0.5788  1.8915 -1.4307
 3017TIP3    H2 9009   7.788   3.337   2.924  0.2088 -0.3790  0.5164
 3018TIP3   OH2 9010   7.440   3.194   1.960  0.0713 -0.4171 -0.1295
 3018TIP3    H1 9011   7.347   3.181   1.942  0.1319 -0.3495 -0.4977
 3018TIP3    H2 9012   7.472   3.107   1.984  0.0609 -0.5773 -0.6905
 3019TIP3   OH2 9013   0.359   3.308   2.324 -0.4274  0.0084  0.2903
 3019TIP3    H1 9014   0.318   3.240   2.271 -0.9081  0.6303 -0.1488
 3019TIP3    H2 9015   0.447   3.317   2.286 -0.0424 -0.9842  0.9240
 3020TIP3   OH2 9016   5.377   1.586   2.823 -0.5981  0.2266  0.7120
 3020TIP3    H1 9017   5.357   1.584   2.917 -0.0505  1.9873  0.8892
 3020TIP3    H2 9018   5.362   1.677   2.798 -0.2914 -0.1371 -0.8136
 3021TIP3   OH2 9019   6.919   2.247   1.999  0.0942  0.0435  0.6432
 3021TIP3    H1 9020   6.843   2.208   2.041 -1.1077  0.5417 -1.0117
 3021TIP3    H2 9021   6.883   2.308   1.934  1.8710 -0.2675 -0.6916
 3022TIP3   OH2 9022   5.746   2.902   2.667  0.1105 -0.0823 -0.8533
 3022TIP3    H1 9023   5.757   2.956   2.588  2.2621 -0.6605 -0.9742
 3022TIP3    H2 9024   5.755   2.964   2.740 -0.0294  0.1508 -1.0332
 3023TIP3   OH2 9025   1.189   2.338   1.470 -0.5988 -0.2543  0.3677
 3023TIP3    H1 9026   1.236   2.345   1.387 -1.2064  0.9192  0.1025
 3023TIP3    H2 9027   1.258   2.325   1.536  0.0580  0.8258 -0.0930
 3024TIP3   OH2 9028   6.050   1.559   2.736 -0.0898 -0.1294 -0.2051
 3024TIP3    H1 9029   6.027   1.523   2.651  0.7154  0.0009 -0.4856
 3024TIP3    H2 9030   5.972   1.547   2.790 -0.3721 -0.8173 -0.7673
 3025TIP3   OH2 9031   5.234   7.977   0.843  0.4063 -0.2343  0.7055
 3025TIP3    H1 9032   5.169   8.003   0.778  1.6389 -0.0526 -0.4884
 3025TIP3    H2 9033   5.195   7.998   0.927 -0.8552  0.3535 -0.0206
 3026TIP3   OH2 9034   7.225   3.822   3.951 -0.0534 -0.2885 -0.1077
 3026TIP3    H1 9035   7.199   3.729   3.949 -1.6600  0.1481  0.1466
 3026TIP3    H2 9036   7.217   3.847   4.043  2.8503 -0.5526  0.2693
 3027TIP3   OH2 9037   2.475   2.964   4.628  0.3430  0.1636  0.0210
 3027TIP3    H1 9038   2.542   2.907   4.590  0.8301  0.6027  0.2217
 3027TIP3    H2 9039   2.508   3.053   4.616  0.6555  0.3042  1.7481
 3028TIP3   OH2 9040   8.041   1.638   3.287  0.1287  0.0005 -0.3012
 3028TIP3    H1 9041   8.037   1.558   3.340  2.8935 -0.8888 -1.3704
 3028TIP3    H2 9042   7.956   1.680   3.301 -0.5304 -1.9997  2.0276
 3029TIP3   OH2 9043   6.930   2.304   2.680  0.0491  0.0172  0.3969
 3029TIP3    H1 9044   6.982   2.382   2.698  1.0875 -0.3121 -1.1628
 3029TIP3    H2 9045   6.981   2.254   2.616  0.0335 -2.5892  2.2958
 3030TIP3   OH2 9046   7.033   0.729   2.108 -0.4012  0.0280  0.0987
 3030TIP3    H1 9047   7.044   0.709   2.201  1.1835  0.1538 -0.0450
 3030TIP3    H2 9048   7.119   0.760   2.080 -1.3227  1.6988 -0.9936
 3031TIP3   OH2 9049   7.710   0.721   1.857  0.2346 -0.2333  0.0603
 3031TIP3    H1 9050   7.760   0.673   1.923  0.9777  2.6011  1.6003
 3031TIP3    H2 9051   7.777   0.758   1.799 -0.2143  0.9569  0.2979
 3032TIP3   OH2 9052   5.412   7.816   2.274  0.3809 -0.7511 -0.4393
 3032TIP3    H1 9053   5.433   7.731   2.235  1.5143 -0.2667 -0.9114
 3032TIP3    H2 9054   5.412   7.877   2.200  0.8452 -0.1248  0.0722
 3033TIP3   OH2 9055   6.376   4.620   1.347 -0.1089 -0.3169 -0.2580
 3033TIP3    H1 9056   6.406   4.661   1.428  1.6734 -0.0195 -1.0368
 3033TIP3    H2 9057   6.281   4.610   1.358 -0.2338  1.9003  0.8839
 3034TIP3   OH2 9058   5.721   1.997   4.390  0.0072 -0.1464 -0.0720
 3034TIP3    H1 9059   5.653   2.043   4.440 -1.5287  0.3177 -2.4962
 3034TIP3    H2 9060   5.737   2.053   4.315  1.4026 -1.4181 -0.7322
 3035TIP3   OH2 9061   4.384   8.012   3.368  0.0289 -0.1404 -0.2436
 3035TIP3    H1 9062   4.447   7.961   3.417 -0.8586 -0.6945  0.3350
 3035TIP3    H2 9063   4.371   7.962   3.287 -0.0721 -0.3068 -0.1256
 3036TIP3   OH2 9064   7.072   1.288   2.762 -0.1555  0.8562 -0.2944
 3036TIP3    H1 9065   6.990   1.275   2.715 -1.4832  1.0871  1.8723
 3036TIP3    H2 9066   7.089   1.382   2.756  0.8710  0.5579 -2.2040
 3037TIP3   OH2 9067   6.289   2.742   1.011  0.4286 -0.0895 -0.4535
 3037TIP3    H1 9068   6.304   2.770   1.101 -0.1198 -1.8978  0.2229
 3037TIP3    H2 9069   6.283   2.647   1.016  2.8773 -0.4201 -2.7680
 3038TIP3   OH2 9070   4.658   3.542   1.913  0.2468 -0.3407 -0.0560
 3038TIP3    H1 9071   4.623   3.461   1.875  1.3562 -1.5029  1.3149
 3038TIP3    H2 9072   4.625   3.542   2.003  1.4437 -0.0103  0.3877
 3039TIP3   OH2 9073   6.860   1.802   3.231 -0.5808 -0.0609 -0.1763
 3039TIP3    H1 9074   6.904   1.750   3.164  0.2817 -0.3091  0.5708
 3039TIP3    H2 9075   6.881   1.757   3.313 -1.3596  0.4235  0.2870
 3040TIP3   OH2 9076   8.085   2.349   0.388  0.3366  0.4076 -0.2466
 3040TIP3    H1 9077   8.102   2.255   0.384  0.5970  0.4509 -0.1536
 3040TIP3    H2 9078   7.990   2.355   0.403  0.1553  0.1758 -1.2396
 3041TIP3   OH2 9079   4.074   1.590   3.051 -0.0579 -0.1385 -0.4630
 3041TIP3    H1 9080   4.086   1.497   3.072  0.9508  0.1639  0.3473
 3041TIP3    H2 9081   3.981   1.605   3.063 -1.0085 -2.0118 -4.6358
 3042TIP3   OH2 9082   7.689   3.976   1.723 -0.1332  0.1469 -0.2508
 3042TIP3    H1 9083   7.692   3.927   1.806  0.9877  0.0974 -0.3118
 3042TIP3    H2 9084   7.625   3.928   1.670 -0.3944 -0.1878  0.3566
 3043TIP3   OH2 9085   3.828   7.203   3.244 -0.2803 -0.4806  0.3749
 3043TIP3    H1 9086   3.873   7.274   3.198 -0.4254 -1.1573 -0.8382
 3043TIP3    H2 9087   3.891   7.171   3.307 -0.0471  0.4152  0.6072
 3044TIP3   OH2 9088   4.894   3.415   3.046  0.2247 -0.8222 -0.1602
 3044TIP3    H1 9089   4.836   3.477   3.090 -0.4385 -0.2884 -1.7573
 3044TIP3    H2 9090   4.870   3.329   3.083 -0.5498 -0.4342  0.2538
 3045TIP3   OH2 9091   4.664   4.586   2.204  0.4799  0.0357  0.0155
 3045TIP3    H1 9092   4.596   4.524   2.232  0.7417  0.5698  1.9022
 3045TIP3    H2 9093   4.734   4.531   2.170  0.8138 -0.7394  1.9029
 3046TIP3   OH2 9094   7.062   3.841   3.629 -0.0927  0.0476 -0.4155
 3046TIP3    H1 9095   7.115   3.837   3.708 -2.9652 -0.0534  1.6082
 3046TIP3    H2 9096   7.063   3.751   3.595  3.3861  0.6532 -2.1237
 3047TIP3   OH2 9097   8.216   1.830   1.687  0.0074  0.0225  0.0649
 3047TIP3    H1 9098   8.177   1.743   1.687 -0.2162  0.1123 -1.1916
 3047TIP3    H2 9099   8.175   1.875   1.761  0.7456 -1.1934  1.2539
 3048TIP3   OH2 9100   5.160   4.727   3.286  0.3136 -0.3456  0.4659
 3048TIP3    H1 9101   5.088   4.684   3.239  0.6095 -0.3239 -0.0091
 3048TIP3    H2 9102   5.176   4.807   3.237 -0.0088  0.1491  1.1585
 3049TIP3   OH2 9103   5.761   4.428   1.208 -0.3551 -0.0901  0.0713
 3049TIP3    H1 9104   5.700   4.440   1.136 -0.9191 -1.9295  0.2071
 3049TIP3    H2 9105   5.713   4.373   1.271 -0.3992  2.6308  2.5198
 3050TIP3   OH2 9106   2.291   7.031   5.944 -0.1800  0.0214 -0.2652
 3050TIP3    H1 9107   2.337   7.099   5.895  1.4071 -0.0327  1.0999
 3050TIP3    H2 9108   2.299   7.058   6.035 -1.9248 -0.5838  0.0905
 3051TIP3   OH2 9109   8.238   3.516   4.333 -0.2246 -0.5076 -0.0568
 3051TIP3    H1 9110   8.296   3.449   4.298 -0.1880 -0.5510  0.0897
 3051TIP3    H2 9111   8.160   3.511   4.277 -0.1330 -0.5223 -0.1846
 3052TIP3   OH2 9112   0.530   5.829   6.699  0.1794 -0.2265  0.2975
 3052TIP3    H1 9113   0.475   5.899   6.733 -0.7574 -0.5443 -0.5332
 3052TIP3    H2 9114   0.608   5.874   6.666 -0.1204  0.3598  0.3750
 3053TIP3   OH2 9115   6.992   0.818   2.620 -0.3466  0.1920  0.2701
 3053TIP3    H1 9116   6.991   0.904   2.579  0.6796 -0.4073 -1.0386
 3053TIP3    H2 9117   7.078   0.814   2.664 -0.1624 -0.3685 -0.1340
 3054TIP3   OH2 9118   6.997   0.456   3.341  0.0017 -0.4211  0.1883
 3054TIP3    H1 9119   7.000   0.512   3.419  1.8457  0.2583 -0.3511
 3054TIP3    H2 9120   7.087   0.450   3.312 -0.8061  0.3763 -2.6447
 3055TIP3   OH2 9121   8.185   0.001   2.745 -0.0882  0.2070  0.1093
 3055TIP3    H1 9122   8.144   0.080   2.711  0.3686  0.5885  0.4327
 3055TIP3    H2 9123   8.187  -0.060   2.671 -0.2960  0.5583 -0.1827
 3056TIP3   OH2 9124   1.438   2.247   3.095  0.0103 -0.5126 -0.7477
 3056TIP3    H1 9125   1.343   2.237   3.093  0.0013 -0.4590 -0.6131
 3056TIP3    H2 9126   1.462   2.272   3.006 -0.3229  1.5492 -0.2852
 3057TIP3   OH2 9127   6.129   0.625   1.177  0.2901 -0.2047 -0.0112
 3057TIP3    H1 9128   6.079   0.577   1.110  0.1163  0.7182 -0.5441
 3057TIP3    H2 9129   6.068   0.691   1.210  0.4908 -0.4265  0.8147
 3058TIP3   OH2 9130   4.588   0.509   0.342 -0.0871  0.3999  0.4466
 3058TIP3    H1 9131   4.569   0.416   0.346  1.1342  0.1739  1.2501
 3058TIP3    H2 9132   4.682   0.514   0.324 -0.0427  1.4633  0.9088
 3059TIP3   OH2 9133   7.963   2.251   2.427  0.5779 -0.5302 -0.2958
 3059TIP3    H1 9134   7.880   2.242   2.379  0.3401 -0.7512  0.1524
 3059TIP3    H2 9135   7.945   2.320   2.492  1.0599  0.1423 -0.8707
 3060TIP3   OH2 9136   0.222   0.925   3.813 -0.3365  0.1100  0.2778
 3060TIP3    H1 9137   0.271   1.004   3.793 -1.3284  0.0476 -2.4778
 3060TIP3    H2 9138   0.289   0.865   3.848  0.7926  1.4002  0.3919
 3061TIP3   OH2 9139   5.610   0.964   2.286  0.2205  0.7733  0.0476
 3061TIP3    H1 9140   5.676   0.903   2.319 -1.6602 -1.2207  0.2416
 3061TIP3    H2 9141   5.547   0.909   2.239 -1.1655  2.6481 -0.3694
 3062TIP3   OH2 9142   5.095   2.044   0.536  0.1022 -0.0823 -0.0778
 3062TIP3    H1 9143   5.070   2.118   0.481  0.2627 -1.3405 -1.9180
 3062TIP3    H2 9144   5.180   2.016   0.501  1.8762  1.1995  3.0398
 3063TIP3   OH2 9145   4.421   2.658   1.718  0.2581 -0.0558 -0.5296
 3063TIP3    H1 9146   4.495   2.650   1.778 -0.3930 -0.8799  0.1785
 3063TIP3    H2 9147   4.454   2.626   1.634  0.7828 -0.1565 -0.2845
 3064TIP3   OH2 9148   0.141   2.508   1.296 -0.0202 -0.7393 -0.0649
 3064TIP3    H1 9149   0.080   2.443   1.260 -0.6633 -0.3583  0.3291
 3064TIP3    H2 9150   0.107   2.592   1.265  0.0082 -0.4875  0.5780
 3065TIP3   OH2 9151   6.380   2.907   0.500 -0.1905 -0.4304 -0.1166
 3065TIP3    H1 9152   6.332   2.983   0.467  3.1783  1.2845 -1.2438
 3065TIP3    H2 9153   6.383   2.921   0.595  0.8809  1.1542 -0.3721
 3066TIP3   OH2 9154   6.287   1.877   1.642  0.0552  0.1170  0.3400
 3066TIP3    H1 9155   6.214   1.938   1.636 -2.4660 -2.7706  0.8825
 3066TIP3    H2 9156   6.324   1.875   1.554 -1.3539  0.5569 -0.2686
 3067TIP3   OH2 9157   4.430   2.994   1.219  0.1452 -0.4133 -0.2822
 3067TIP3    H1 9158   4.447   2.938   1.143  1.9731  0.8731 -0.8589
 3067TIP3    H2 9159   4.396   3.075   1.181  2.5020  0.8002  0.1308
 3068TIP3   OH2 9160   4.911   2.241   3.910 -0.3374  0.1098  0.6604
 3068TIP3    H1 9161   4.897   2.155   3.949 -0.1026 -0.1757  0.1314
 3068TIP3    H2 9162   4.918   2.301   3.984  1.4835 -0.6277  1.0972
 3069TIP3   OH2 9163   5.534   3.971   1.288  0.1515 -0.1425 -0.1699
 3069TIP3    H1 9164   5.618   3.939   1.321  0.5369  0.3773 -0.6295
 3069TIP3    H2 9165   5.516   4.050   1.339  0.6083  0.4997 -0.9891
 3070TIP3   OH2 9166   6.384   3.184   3.457  0.0268 -0.5633  0.3058
 3070TIP3    H1 9167   6.479   3.188   3.446 -0.1248 -0.7180 -1.2180
 3070TIP3    H2 9168   6.369   3.102   3.505  0.7231 -0.0881  1.3431
 3071TIP3   OH2 9169   6.874   2.686   2.051  0.2350  0.0616 -0.2166
 3071TIP3    H1 9170   6.967   2.709   2.046  0.2808  0.5917  2.6628
 3071TIP3    H2 9171   6.830   2.769   2.066 -0.5970 -0.3650 -0.2962
 3072TIP3   OH2 9172   6.281   2.160   1.250 -0.3077  0.0122 -0.7071
 3072TIP3    H1 9173   6.188   2.175   1.237 -0.5830  0.2472  1.3712
 3072TIP3    H2 9174   6.320   2.247   1.251 -0.6405  0.1935  2.2411
 3073TIP3   OH2 9175   7.654   3.102   1.488  0.2549 -0.1894 -0.0492
 3073TIP3    H1 9176   7.730   3.159   1.480 -0.1712  0.6286  1.3390
 3073TIP3    H2 9177   7.590   3.139   1.427  0.7757 -0.5578 -0.8249
 3074TIP3   OH2 9178   3.371   6.034   5.956  0.4638 -0.0036 -0.3374
 3074TIP3    H1 9179   3.302   5.972   5.980 -0.2458  0.5979 -0.8155
 3074TIP3    H2 9180   3.398   6.072   6.040 -0.5740  0.5785 -0.2543
 3075TIP3   OH2 9181   7.166   0.465   1.665 -0.1319  0.2133  0.1395
 3075TIP3    H1 9182   7.098   0.467   1.733 -1.0431  0.6266 -0.7743
 3075TIP3    H2 9183   7.228   0.399   1.696  0.4769  1.7745  2.3362
 3076TIP3   OH2 9184   7.466   2.948   0.955  0.4452 -0.2719 -0.6355
 3076TIP3    H1 9185   7.561   2.937   0.964  0.1745 -4.4975 -2.1176
 3076TIP3    H2 9186   7.457   3.005   0.878  1.7872 -0.1119 -0.6878
 3077TIP3   OH2 9187   7.424   1.730   2.830  0.9588 -0.1731  0.6576
 3077TIP3    H1 9188   7.478   1.656   2.857 -1.5132 -1.7738  1.3003
 3077TIP3    H2 9189   7.400   1.773   2.912  1.5314  0.7708  0.3445
 3078TIP3   OH2 9190   4.321   7.455   2.547  0.0383 -0.0455 -0.0412
 3078TIP3    H1 9191   4.398   7.399   2.535  0.0873  0.1474 -0.6296
 3078TIP3    H2 9192   4.283   7.462   2.459  0.3279  1.2754 -0.0596
 3079TIP3   OH2 9193   0.379   2.539   1.852  0.1177 -0.6665  0.1746
 3079TIP3    H1 9194   0.299   2.565   1.805  0.0200  0.4238  0.9287
 3079TIP3    H2 9195   0.435   2.502   1.784  0.2007  1.3879 -0.9489
 3080TIP3   OH2 9196   6.570   2.633   2.695  0.0573  0.2214 -0.1643
 3080TIP3    H1 9197   6.535   2.685   2.623  0.8502  1.0037  0.0200
 3080TIP3    H2 9198   6.562   2.689   2.772 -0.8584 -0.6417  0.3866
 3081TIP3   OH2 9199   7.376   3.460   1.254  0.2434  0.3238 -0.6238
 3081TIP3    H1 9200   7.461   3.503   1.254 -0.2578  1.3644 -1.9369
 3081TIP3    H2 9201   7.395   3.367   1.269  1.7693  0.2561 -2.7320
 3082TIP3   OH2 9202   7.537   3.747   2.190 -0.1475  0.3157  0.4776
 3082TIP3    H1 9203   7.442   3.753   2.204  0.1341  1.9482  1.7595
 3082TIP3    H2 9204   7.573   3.826   2.231  1.9896 -1.3219  1.8816
 3083TIP3   OH2 9205   6.552   2.306   1.577 -0.4174  0.2984  0.6733
 3083TIP3    H1 9206   6.594   2.379   1.622 -0.6770  2.4699 -2.4840
 3083TIP3    H2 9207   6.620   2.270   1.520 -1.5069  0.9970 -1.1278
 3084TIP3   OH2 9208   5.769   2.133   1.390 -0.6552 -0.3757  0.2355
 3084TIP3    H1 9209   5.691   2.078   1.402 -0.1724 -0.8968  1.0140
 3084TIP3    H2 9210   5.774   2.185   1.470 -1.1241  0.8391 -0.5049
 3085TIP3   OH2 9211   7.807   3.263   1.873 -0.2265  0.0511  0.4815
 3085TIP3    H1 9212   7.890   3.214   1.879  0.1455  0.3544 -1.7670
 3085TIP3    H2 9213   7.742   3.205   1.913  0.7053 -1.0993  0.3625
 3086TIP3   OH2 9214   8.095   1.709   1.932  0.3144 -0.0183 -0.6389
 3086TIP3    H1 9215   8.018   1.712   1.988  0.3983 -0.8053 -0.4883
 3086TIP3    H2 9216   8.168   1.696   1.991  0.3613 -1.2519 -0.9535
 3087TIP3   OH2 9217   0.244   4.688   5.197 -0.2612  0.0569 -0.1122
 3087TIP3    H1 9218   0.243   4.754   5.267  1.1592  0.5740 -0.5567
 3087TIP3    H2 9219   0.321   4.634   5.216 -0.1007 -0.0514 -1.0346
 3088TIP3   OH2 9220   0.237   2.227   3.268 -0.1863 -0.8085 -0.7003
 3088TIP3    H1 9221   0.171   2.169   3.308 -0.7253 -0.2861 -0.8296
 3088TIP3    H2 9222   0.314   2.217   3.324 -1.3420  0.9521  1.3114
 3089TIP3   OH2 9223   7.460   2.389   2.258  0.1301 -0.1941  0.7245
 3089TIP3    H1 9224   7.487   2.353   2.174 -1.4061  1.4103 -0.4904
 3089TIP3    H2 9225   7.445   2.312   2.313  0.1351 -1.2972 -0.7777
 3090TIP3   OH2 9226   6.927   3.010   1.935  0.2973 -0.8206  0.0847
 3090TIP3    H1 9227   6.850   2.966   1.971  0.6220  0.4583  2.4132
 3090TIP3    H2 9228   7.001   2.976   1.986  0.8601  0.5297  0.1952
 3091TIP3   OH2 9229   6.247   0.759   1.526 -0.4629 -0.1731  0.3535
 3091TIP3    H1 9230   6.179   0.784   1.589 -0.3178  0.7762  0.1412
 3091TIP3    H2 9231   6.315   0.825   1.537 -1.2560  1.1117 -2.1194
 3092TIP3   OH2 9232   0.456   4.083   3.741 -0.1196 -0.2551  0.3445
 3092TIP3    H1 9233   0.432   4.137   3.666 -2.5188  0.8783  1.8628
 3092TIP3    H2 9234   0.504   4.142   3.799 -3.7079  0.6624  2.5155
 3093TIP3   OH2 9235   0.822   1.873   2.732 -0.1610 -0.0539 -0.2587
 3093TIP3    H1 9236   0.836   1.901   2.822 -0.3390  2.0592 -0.8792
 3093TIP3    H2 9237   0.754   1.805   2.739 -2.5513  2.3795  0.9014
 3094TIP3   OH2 9238   6.907   4.830   2.826  0.1729 -0.3285 -0.3373
 3094TIP3    H1 9239   6.965   4.789   2.890  0.0648  0.7719  0.4664
 3094TIP3    H2 9240   6.964   4.887   2.775 -0.2932  1.2615  0.8816
 3095TIP3   OH2 9241   4.853   0.108   6.517 -1.0249 -0.4129  0.4117
 3095TIP3    H1 9242   4.794   0.134   6.587 -0.1734  0.6193  0.7598
 3095TIP3    H2 9243   4.913   0.045   6.558  0.6722  1.6235  1.1306
 3096TIP3   OH2 9244   8.063   3.928   1.858 -0.0367 -0.4578  0.1711
 3096TIP3    H1 9245   8.059   3.935   1.954  0.3515  0.0852  0.1494
 3096TIP3    H2 9246   8.073   3.834   1.842 -0.9239 -0.6453  0.6288
 3097TIP3   OH2 9247   6.978   4.167   2.565 -0.0987  0.2420 -0.1202
 3097TIP3    H1 9248   7.002   4.086   2.609  0.8011 -1.1465 -3.0524
 3097TIP3    H2 9249   6.912   4.141   2.501  0.1005  1.8373 -0.9954
 3098TIP3   OH2 9250   0.934   1.840   3.876 -0.3221  0.0406 -0.2127
 3098TIP3    H1 9251   0.987   1.834   3.797  0.5602 -0.5016  0.4173
 3098TIP3    H2 9252   0.871   1.910   3.857 -0.1254 -0.0961 -1.3899
 3099TIP3   OH2 9253   6.095   1.359   1.891  0.0810 -0.1299  0.0848
 3099TIP3    H1 9254   6.035   1.325   1.957  0.2368  1.2224  0.9387
 3099TIP3    H2 9255   6.160   1.408   1.940  0.2663  0.8050 -1.0674
 3100TIP3   OH2 9256   7.073   0.462   2.892 -0.0427 -0.4377 -0.1049
 3100TIP3    H1 9257   7.161   0.458   2.930 -0.0320 -1.0541 -0.1951
 3100TIP3    H2 9258   7.084   0.427   2.804 -0.4727 -0.9761  0.0554
 3101TIP3   OH2 9259   7.026   2.445   1.413 -0.2597 -0.1196  0.3245
 3101TIP3    H1 9260   7.085   2.384   1.368 -0.6679 -0.5828  0.4112
 3101TIP3    H2 9261   7.080   2.523   1.428  0.7021 -1.0014  1.5362
 3102TIP3   OH2 9262   8.329   3.824   2.681  0.2128 -0.4154  0.0129
 3102TIP3    H1 9263   8.340   3.752   2.744  1.4566  0.0777  0.3698
 3102TIP3    H2 9264   8.383   3.799   2.606  0.6122  0.1163  0.1183
 3103TIP3   OH2 9265   6.382   0.120   0.245  0.0616  0.4024  0.1570
 3103TIP3    H1 9266   6.424   0.041   0.279 -0.8442 -0.1394  0.0260
 3103TIP3    H2 9267   6.440   0.191   0.273  0.9076 -0.3039  0.2376
 3104TIP3   OH2 9268   8.281   1.245   2.495  0.1022 -0.1357  0.2611
 3104TIP3    H1 9269   8.289   1.291   2.411  0.3855  0.4994  0.6336
 3104TIP3    H2 9270   8.187   1.231   2.507 -0.0008  0.5596  0.2591
 3105TIP3   OH2 9271   0.586   2.441   0.778  0.6378 -0.7524 -0.0156
 3105TIP3    H1 9272   0.508   2.394   0.806  0.3287 -1.3535 -1.8632
 3105TIP3    H2 9273   0.654   2.414   0.840 -0.1080 -1.8477  0.3255
 3106TIP3   OH2 9274   6.931   1.628   2.253  0.1417 -0.0234  0.2444
 3106TIP3    H1 9275   6.985   1.671   2.319  0.7372  0.5767 -0.6198
 3106TIP3    H2 9276   6.842   1.655   2.272  0.3740  0.5732  0.4822
 3107TIP3   OH2 9277   7.368   3.090   0.699 -0.3309  0.3099 -0.3092
 3107TIP3    H1 9278   7.351   3.011   0.647 -0.5327  0.2018 -0.0737
 3107TIP3    H2 9279   7.390   3.157   0.633 -1.2820  0.3594 -0.5832
 3108TIP3   OH2 9280   3.570   5.163   6.698 -0.0073 -0.0906  0.3894
 3108TIP3    H1 9281   3.510   5.148   6.771 -0.3650  1.4540  0.4349
 3108TIP3    H2 9282   3.531   5.235   6.649  1.3993  0.4014 -0.0412
 3109TIP3   OH2 9283   7.894   2.039   1.372  0.1245 -0.2457 -0.2866
 3109TIP3    H1 9284   7.852   1.982   1.436  0.6599 -1.4256 -0.9556
 3109TIP3    H2 9285   7.853   2.016   1.288  2.6198 -1.9988 -1.0781
 3110TIP3   OH2 9286   8.134   3.685   3.923 -0.3665  0.1186  0.3707
 3110TIP3    H1 9287   8.052   3.733   3.915 -0.5909 -0.3497 -0.1049
 3110TIP3    H2 9288   8.202   3.750   3.901 -0.6602  0.2558 -0.1252
 3111TIP3   OH2 9289   0.417   2.181   2.013  0.0255 -0.4760 -0.5566
 3111TIP3    H1 9290   0.504   2.195   1.975  0.0225  2.3258  0.3223
 3111TIP3    H2 9291   0.360   2.168   1.937  1.1290 -1.8068 -1.1612
 3112TIP3   OH2 9292   0.101   3.915   1.065 -0.1941  0.4164 -0.2718
 3112TIP3    H1 9293   0.051   3.862   1.127 -0.8642  1.8935  0.4733
 3112TIP3    H2 9294   0.185   3.869   1.056 -0.7701 -0.7801  0.3215
 3113TIP3   OH2 9295   8.161   2.956   2.841 -0.0265 -0.3248  0.4223
 3113TIP3    H1 9296   8.136   3.031   2.786 -0.7206  0.6691  2.0430
 3113TIP3    H2 9297   8.256   2.953   2.835 -0.0467  0.2043 -0.2862
 3114TIP3   OH2 9298   7.455   1.303   2.148  0.2744 -0.4392 -0.4216
 3114TIP3    H1 9299   7.376   1.253   2.130 -0.5990  0.9660 -0.6093
 3114TIP3    H2 9300   7.446   1.382   2.095  1.2344  0.2963  0.4726
 3115TIP3   OH2 9301   3.000   5.897   6.610  0.6908 -0.3418  0.0277
 3115TIP3    H1 9302   2.993   5.967   6.675  1.4767 -0.2727  0.0510
 3115TIP3    H2 9303   3.024   5.941   6.529 -1.5671 -0.2931 -0.6343
 3116TIP3   OH2 9304   7.209   1.915   1.066 -0.3428  0.2969 -0.2341
 3116TIP3    H1 9305   7.167   1.898   1.150 -1.5662  0.4260 -0.8099
 3116TIP3    H2 9306   7.303   1.908   1.084 -0.6035  0.1330  1.0939
 3117TIP3   OH2 9307   0.706   3.469   3.382  0.2350  0.3913  0.0534
 3117TIP3    H1 9308   0.689   3.561   3.398  0.3170  0.6779 -1.4332
 3117TIP3    H2 9309   0.802   3.462   3.381  0.2868  0.9683 -3.3725
 3118TIP3   OH2 9310   5.998   4.797   1.162 -0.1979 -0.0394  0.3364
 3118TIP3    H1 9311   5.907   4.817   1.183 -0.3789 -1.0176  0.5197
 3118TIP3    H2 9312   6.001   4.798   1.066 -1.0518 -2.7135  0.2482
 3119TIP3   OH2 9313   7.377   1.647   1.058 -0.1599 -0.3016 -0.0008
 3119TIP3    H1 9314   7.350   1.646   1.150  2.3761 -0.3323  0.7539
 3119TIP3    H2 9315   7.420   1.731   1.046  1.0042 -0.9988 -0.7311
 3120TIP3   OH2 9316   7.057   2.641   0.613 -0.0471  0.1629  0.0241
 3120TIP3    H1 9317   6.964   2.653   0.632  0.4536  1.0892  1.9468
 3120TIP3    H2 9318   7.097   2.727   0.628  0.8647  0.2263 -2.4755
 3121TIP3   OH2 9319   6.710   4.185   2.494  0.1061 -0.2628  0.2719
 3121TIP3    H1 9320   6.637   4.139   2.534  0.3441 -0.8161  0.0798
 3121TIP3    H2 9321   6.717   4.267   2.543 -1.2234  0.2145 -0.2955
 3122TIP3   OH2 9322   7.628   4.903   0.200  0.3651 -0.6915  0.0855
 3122TIP3    H1 9323   7.690   4.974   0.185  1.5445 -1.6103  0.5382
 3122TIP3    H2 9324   7.585   4.890   0.115  0.5569  0.1555 -0.1480
 3123TIP3   OH2 9325   5.271   7.152   2.481  0.0246 -0.1004  0.1234
 3123TIP3    H1 9326   5.195   7.210   2.481 -0.7019 -1.0308 -0.9078
 3123TIP3    H2 9327   5.332   7.192   2.544 -1.6224  0.2333  1.5291
 3124TIP3   OH2 9328   1.162   4.664   0.320  0.2253  0.3643 -0.2323
 3124TIP3    H1 9329   1.174   4.570   0.315 -0.3041  0.3139 -0.5587
 3124TIP3    H2 9330   1.151   4.692   0.229  1.0840  0.8355 -0.2011
 3125TIP3   OH2 9331   8.219   2.529   0.931  0.1423  0.4642 -0.4124
 3125TIP3    H1 9332   8.236   2.435   0.938 -0.6843  0.4795  2.6906
 3125TIP3    H2 9333   8.189   2.541   0.842  1.0079 -2.0973 -1.1051
 3126TIP3   OH2 9334   7.486   3.191   0.358  0.0951  0.2131  0.1222
 3126TIP3    H1 9335   7.492   3.267   0.300 -1.1894 -0.8279 -1.3775
 3126TIP3    H2 9336   7.436   3.223   0.433  0.1110  1.0177 -0.2046
 3127TIP3   OH2 9337   8.363   3.058   1.030  0.3296  0.2749  0.6221
 3127TIP3    H1 9338   8.338   2.983   1.084 -0.2617  0.8579  1.1714
 3127TIP3    H2 9339   8.283   3.109   1.021  0.5948  0.5498 -0.2228
 3128TIP3   OH2 9340   7.915   3.999   0.673  0.4266  0.0308 -0.4532
 3128TIP3    H1 9341   7.916   4.076   0.617  1.6556 -0.6748 -1.4308
 3128TIP3    H2 9342   7.990   4.011   0.732 -1.0583  0.9430  1.3220
 3129TIP3   OH2 9343   2.449   7.868   6.443  0.2997  0.6209 -0.2331
 3129TIP3    H1 9344   2.434   7.830   6.356 -1.0238  1.8225 -0.5348
 3129TIP3    H2 9345   2.503   7.945   6.427  1.4380 -0.0677  0.1974
 3130TIP3   OH2 9346   0.845   2.676   3.472  0.0511  0.0125  0.3730
 3130TIP3    H1 9347   0.831   2.584   3.452 -2.3816  0.1169  1.4252
 3130TIP3    H2 9348   0.761   2.718   3.451  0.2443  1.5042  2.4704
 3131TIP3   OH2 9349   0.102   3.336   0.016  0.0452  0.4121 -0.1067
 3131TIP3    H1 9350   0.182   3.347  -0.036  1.8203  0.8388  2.5949
 3131TIP3    H2 9351   0.068   3.424   0.027  0.1907  0.4326  0.2022
 3132TIP3   OH2 9352   7.681   2.682   1.687  0.3272 -0.4869  0.2612
 3132TIP3    H1 9353   7.698   2.776   1.685 -1.2275 -0.1945  0.1136
 3132TIP3    H2 9354   7.589   2.675   1.713  0.3953 -1.9644  0.1528
 3133TIP3   OH2 9355   6.039   1.412   1.589  0.1570  0.2537  0.1882
 3133TIP3    H1 9356   6.102   1.472   1.627  2.7898 -1.6352 -1.0366
 3133TIP3    H2 9357   6.044   1.428   1.495 -0.3991 -0.6530 -0.0032
 3134TIP3   OH2 9358   3.264   7.653   5.936  0.7948  0.3322 -0.9009
 3134TIP3    H1 9359   3.355   7.681   5.920  1.2875 -0.4098  0.4997
 3134TIP3    H2 9360   3.237   7.612   5.854  1.4097  1.4003 -1.6486
 3135TIP3   OH2 9361   0.351   2.497   2.481  0.4699 -0.2901  0.1614
 3135TIP3    H1 9362   0.260   2.480   2.507 -0.2607  0.7795 -1.6191
 3135TIP3    H2 9363   0.363   2.444   2.402  0.6143  1.4141 -0.9792
 3136TIP3   OH2 9364   8.227   4.469   3.396 -0.2975  0.0878  0.9498
 3136TIP3    H1 9365   8.312   4.430   3.418 -0.5815 -0.3268  1.3039
 3136TIP3    H2 9366   8.163   4.402   3.418 -0.5804 -0.4741 -1.4399
 3137TIP3   OH2 9367   2.998   7.272   6.531  0.2236 -0.0478 -0.2098
 3137TIP3    H1 9368   3.060   7.210   6.568 -0.2512 -0.4464 -0.0764
 3137TIP3    H2 9369   2.982   7.241   6.442 -0.4582 -0.4542  0.0496
 3138TIP3   OH2 9370   7.043   4.478   4.553 -0.2021  1.1380  0.0080
 3138TIP3    H1 9371   7.017   4.414   4.619  0.8714  1.1974  0.4961
 3138TIP3    H2 9372   7.005   4.445   4.472  2.3804 -1.4922 -0.2352
 3139TIP3   OH2 9373   6.901   1.081   1.523  0.1050  0.3376 -0.5580
 3139TIP3    H1 9374   6.991   1.073   1.555  0.6186  1.8265 -1.5643
 3139TIP3    H2 9375   6.873   1.169   1.551 -1.0124 -0.0712 -0.3429
 3140TIP3   OH2 9376   0.196   4.204   2.285 -0.0695  0.2440 -0.1486
 3140TIP3    H1 9377   0.195   4.109   2.296  1.9019  0.0641 -1.3214
 3140TIP3    H2 9378   0.279   4.223   2.243 -0.7337  2.4371 -0.5627
 3141TIP3   OH2 9379   7.811   2.566   1.481 -0.1957  0.0217  0.2052
 3141TIP3    H1 9380   7.757   2.487   1.481 -0.6831  0.3528 -0.0166
 3141TIP3    H2 9381   7.781   2.616   1.558 -0.6694  0.5120 -0.2871
 3142TIP3   OH2 9382   0.701   3.501   1.638 -0.4133  0.4162 -0.2707
 3142TIP3    H1 9383   0.645   3.426   1.657  0.6609  0.4312  3.3384
 3142TIP3    H2 9384   0.771   3.496   1.703  3.7751  0.4616 -4.5102
 3143TIP3   OH2 9385   0.148   2.626   3.962 -0.2054  0.4634  0.4005
 3143TIP3    H1 9386   0.098   2.550   3.934  1.2469 -0.6959  0.9092
 3143TIP3    H2 9387   0.137   2.628   4.057  3.2816 -1.7194  0.9377
 3144TIP3   OH2 9388   8.349   1.262   0.672 -0.1492  0.4014  0.5647
 3144TIP3    H1 9389   8.310   1.304   0.749  0.6751  1.2035  0.5455
 3144TIP3    H2 9390   8.351   1.331   0.605 -0.5605 -0.1995 -0.0827
 3145TIP3   OH2 9391   0.394   1.990   3.113 -0.2330 -0.4946 -0.1987
 3145TIP3    H1 9392   0.359   2.064   3.163 -0.2645 -0.7803  0.2126
 3145TIP3    H2 9393   0.348   1.914   3.149  0.2071 -0.7754 -0.2306
 3146TIP3   OH2 9394   0.637   3.238   3.506 -0.5496  0.0617  0.3196
 3146TIP3    H1 9395   0.655   3.312   3.449 -0.5508  1.1374  1.6910
 3146TIP3    H2 9396   0.635   3.162   3.447  3.3629  0.5589 -0.6171
 3147TIP3   OH2 9397   1.015   5.711   2.847 -0.3300  0.1658 -0.4100
 3147TIP3    H1 9398   0.928   5.675   2.869  0.0283 -1.9740 -2.3957
 3147TIP3    H2 9399   1.076   5.653   2.891  0.2016 -0.6135 -2.1506
 3148TIP3   OH2 9400   7.553   1.534   0.607  0.3608 -0.4778 -0.4782
 3148TIP3    H1 9401   7.624   1.597   0.622 -1.5444  1.5893  0.1155
 3148TIP3    H2 9402   7.528   1.503   0.694 -0.6876  0.2164 -0.5199
 3149TIP3   OH2 9403   7.972   3.227   3.386  0.5492  0.6169  0.3893
 3149TIP3    H1 9404   7.912   3.300   3.398  0.3805  0.2338  1.8637
 3149TIP3    H2 9405   8.059   3.268   3.385  0.3941  0.9481  0.1976
 3150TIP3   OH2 9406   6.216   3.190   0.727 -0.4032  0.1257 -0.3300
 3150TIP3    H1 9407   6.303   3.226   0.747 -0.1066  0.2195 -1.7525
 3150TIP3    H2 9408   6.158   3.267   0.727 -0.2754  0.2194 -0.5979
 3151TIP3   OH2 9409   0.392   3.879   1.787 -0.3855 -0.5739 -0.0372
 3151TIP3    H1 9410   0.431   3.882   1.700  1.0368 -4.2740  0.3539
 3151TIP3    H2 9411   0.344   3.961   1.795  2.0194  1.2572 -3.0664
 3152TIP3   OH2 9412   8.161   3.422   3.462 -0.3835  0.0620  0.3698
 3152TIP3    H1 9413   8.254   3.416   3.438 -0.2086  1.2746  0.7004
 3152TIP3    H2 9414   8.162   3.427   3.558 -0.7863  0.0802  0.3719
 3153TIP3   OH2 9415   7.964   3.158   4.367  0.0995  0.0685 -0.0374
 3153TIP3    H1 9416   7.893   3.219   4.343 -0.4910 -0.8084 -0.5768
 3153TIP3    H2 9417   8.030   3.213   4.409 -0.9616  0.8819  0.5928
 3154TIP3   OH2 9418   7.548   3.302   2.719  0.6150 -0.5515  0.4800
 3154TIP3    H1 9419   7.509   3.216   2.731 -0.7081 -0.3841 -2.2454
 3154TIP3    H2 9420   7.474   3.362   2.721  1.4322  0.4485  1.4423
 3155TIP3   OH2 9421   0.302   3.910   3.908  0.0823 -0.6638  0.1899
 3155TIP3    H1 9422   0.332   3.955   3.830 -1.3467 -0.2757 -0.1358
 3155TIP3    H2 9423   0.333   3.965   3.981 -0.5196  0.1595 -0.1678
 3156TIP3   OH2 9424   7.833   0.366   2.750 -0.0001  0.1853 -0.0595
 3156TIP3    H1 9425   7.744   0.376   2.715 -0.5066 -2.2339  0.4695
 3156TIP3    H2 9426   7.822   0.307   2.825  2.0196  0.0887  0.1661
 3157TIP3   OH2 9427   0.006   3.758   0.445  0.1678  0.2055  0.2220
 3157TIP3    H1 9428   0.053   3.746   0.527 -0.4286 -0.5583  0.4619
 3157TIP3    H2 9429  -0.048   3.680   0.437  0.5783  0.0532 -1.1465
 3158TIP3   OH2 9430   0.552   1.230   4.156 -0.5886 -0.7443  0.5053
 3158TIP3    H1 9431   0.605   1.309   4.160 -0.8873 -0.5018 -0.2693
 3158TIP3    H2 9432   0.491   1.238   4.229 -1.1648  0.1299 -0.0694
 3159TIP3   OH2 9433   6.201   4.128   1.603  0.3373  0.3006 -0.4368
 3159TIP3    H1 9434   6.283   4.156   1.643  1.6892 -2.5008 -1.0925
 3159TIP3    H2 9435   6.211   4.149   1.510  0.0028  0.6418 -0.3958
 3160TIP3   OH2 9436   5.692   4.514   3.013 -0.1491 -0.5730  0.4520
 3160TIP3    H1 9437   5.657   4.601   2.995  1.5657  0.4263  1.9350
 3160TIP3    H2 9438   5.658   4.491   3.099 -0.6715 -1.4265  0.0311
 3161TIP3   OH2 9439   7.235   3.555   4.534 -0.4667  0.5990  0.1910
 3161TIP3    H1 9440   7.207   3.487   4.473  1.3812  0.2376 -0.2820
 3161TIP3    H2 9441   7.242   3.634   4.480  0.6917  0.3921  0.0455
 3162TIP3   OH2 9442   8.095   3.617   0.867 -0.0452  0.0699  0.0456
 3162TIP3    H1 9443   8.031   3.558   0.827 -0.2634  1.6023 -1.9212
 3162TIP3    H2 9444   8.155   3.559   0.914 -2.3347 -1.4545  1.2141
 3163TIP3   OH2 9445   6.862   5.381   2.999 -0.2225 -0.0569 -0.1095
 3163TIP3    H1 9446   6.953   5.382   2.969 -0.8551  1.3523 -2.0928
 3163TIP3    H2 9447   6.830   5.470   2.984 -0.8617  0.5394  4.1311
 3164TIP3   OH2 9448   7.129   4.461   2.964 -0.4481  0.3786 -0.0361
 3164TIP3    H1 9449   7.099   4.440   2.875  0.0850  1.4543 -0.4752
 3164TIP3    H2 9450   7.065   4.417   3.021  0.5800 -2.3699 -0.9158
 3165TIP3   OH2 9451   6.438   4.527   2.583 -0.0417 -0.4168 -0.0196
 3165TIP3    H1 9452   6.350   4.490   2.583  0.1736 -0.9521  0.7362
 3165TIP3    H2 9453   6.434   4.601   2.522 -0.8997 -0.6955 -0.3029
 3166TIP3   OH2 9454   0.342   4.403   3.292 -0.3747  0.1132 -0.1723
 3166TIP3    H1 9455   0.425   4.427   3.253  1.3000 -2.7203  1.4385
 3166TIP3    H2 9456   0.315   4.324   3.244 -2.4180  1.3105 -1.0431
 3167TIP3   OH2 9457   7.143   1.938   3.211 -0.1850  0.0104 -0.1649
 3167TIP3    H1 9458   7.145   2.033   3.209  0.5507 -0.0050 -0.8896
 3167TIP3    H2 9459   7.053   1.915   3.231 -0.0455  0.8712  1.5015
 3168TIP3   OH2 9460   7.840   1.601   1.651 -0.3500  0.4665  0.4275
 3168TIP3    H1 9461   7.923   1.580   1.694  0.5603  1.7966 -0.6205
 3168TIP3    H2 9462   7.776   1.606   1.722 -0.0463 -2.8787  1.0136
 3169TIP3   OH2 9463   5.567   3.740   3.963  0.0491  0.2182  0.1167
 3169TIP3    H1 9464   5.480   3.701   3.970 -0.2804  0.8318 -0.5172
 3169TIP3    H2 9465   5.552   3.834   3.974  1.0364  0.0742  3.2189
 3170TIP3   OH2 9466   2.957   4.685   6.356  0.0745 -0.0485 -0.5181
 3170TIP3    H1 9467   3.010   4.709   6.280 -0.3585 -0.6191 -1.0030
 3170TIP3    H2 9468   3.011   4.709   6.432  1.0547 -0.6892 -1.0068
 3171TIP3   OH2 9469   5.073   7.822   2.644 -0.3826  0.3702 -0.4400
 3171TIP3    H1 9470   5.162   7.802   2.617  0.1431  0.1443  1.4424
 3171TIP3    H2 9471   5.065   7.785   2.732 -2.7264 -0.7381 -1.0622
 3172TIP3   OH2 9472   6.585   3.038   1.555  0.0905  0.2041 -0.3724
 3172TIP3    H1 9473   6.531   3.071   1.482 -0.6646 -1.7277 -0.7368
 3172TIP3    H2 9474   6.556   3.089   1.631 -2.9337 -1.3644 -0.3801
 3173TIP3   OH2 9475   5.957   0.642   3.285  0.1929  0.4011  0.3040
 3173TIP3    H1 9476   5.905   0.564   3.307 -0.1767 -0.1289 -2.3272
 3173TIP3    H2 9477   6.046   0.610   3.276  0.4416  0.7219  1.5186
 3174TIP3   OH2 9478   0.071   4.437   1.433 -0.1569 -0.6283 -0.3669
 3174TIP3    H1 9479   0.110   4.427   1.346  1.8850 -1.5257  0.6052
 3174TIP3    H2 9480   0.141   4.476   1.486 -1.5757  0.4707  0.7327
 3175TIP3   OH2 9481   6.992   1.187   1.217  0.3893 -0.0036  0.4426
 3175TIP3    H1 9482   7.076   1.227   1.241  0.0454  0.4299  0.9369
 3175TIP3    H2 9483   6.935   1.262   1.198  0.1908 -0.3031 -0.1617
 3176TIP3   OH2 9484   1.495   3.035   3.562 -0.0166 -0.0500  0.5189
 3176TIP3    H1 9485   1.482   3.059   3.470  0.8861  2.5306  0.9986
 3176TIP3    H2 9486   1.578   2.988   3.564  0.9128  1.5231  0.2189
 3177TIP3   OH2 9487   6.615   2.731   2.268  0.2019 -0.2013 -0.2476
 3177TIP3    H1 9488   6.524   2.751   2.288  0.1767 -1.2902  0.8305
 3177TIP3    H2 9489   6.615   2.637   2.247  1.2129 -0.4453  0.7554
 3178TIP3   OH2 9490   1.277   4.195   3.563  0.0303  0.4186  0.2641
 3178TIP3    H1 9491   1.345   4.186   3.496 -0.2213 -0.0676  0.0791
 3178TIP3    H2 9492   1.242   4.283   3.549  0.6773  0.7014  0.4094
 3179TIP3   OH2 9493   1.674   1.927   5.604  0.3903 -0.5440 -0.5201
 3179TIP3    H1 9494   1.767   1.917   5.620  0.5858  0.2066 -1.1504
 3179TIP3    H2 9495   1.668   1.964   5.516 -0.3583  2.5253  0.7454
 3180TIP3   OH2 9496   2.461   2.801   2.463 -0.5889 -0.2622 -0.1919
 3180TIP3    H1 9497   2.517   2.737   2.505 -1.2506 -0.0070  1.1302
 3180TIP3    H2 9498   2.500   2.817   2.378  1.1216 -0.3678  0.5666
 3181TIP3   OH2 9499   1.438   2.123   3.906 -0.0539 -0.2316  0.5988
 3181TIP3    H1 9500   1.531   2.104   3.920  0.0500 -0.3296 -0.1714
 3181TIP3    H2 9501   1.393   2.071   3.972  0.4843  0.4919  1.5488
 3182TIP3   OH2 9502   0.133   4.835   3.314 -0.4736 -0.0790 -0.2424
 3182TIP3    H1 9503   0.092   4.892   3.379 -0.0734 -1.7664  1.5314
 3182TIP3    H2 9504   0.067   4.769   3.294  0.1951 -0.8955  0.1831
 3183TIP3   OH2 9505   8.393   3.669   4.113 -0.4157  0.1931  0.4986
 3183TIP3    H1 9506   8.344   3.611   4.171 -0.2587  0.0369  0.4768
 3183TIP3    H2 9507   8.349   3.754   4.119 -1.1375 -0.1352 -0.0834
 3184TIP3   OH2 9508   8.298   3.933   3.874 -0.0641  0.1010  0.3765
 3184TIP3    H1 9509   8.388   3.940   3.842  0.2925  0.0280  1.3710
 3184TIP3    H2 9510   8.305   3.940   3.969 -0.9942 -0.9975  0.5329
 3185TIP3   OH2 9511   1.197   2.212   5.641 -0.3541 -0.2956 -0.2642
 3185TIP3    H1 9512   1.165   2.200   5.552 -1.5137 -2.6537  0.4390
 3185TIP3    H2 9513   1.162   2.297   5.668  0.6551  0.8050 -2.2855
 3186TIP3   OH2 9514   0.378   1.112   3.640 -0.0530 -0.5329  0.5750
 3186TIP3    H1 9515   0.314   1.085   3.574  2.5195  0.9028 -2.5984
 3186TIP3    H2 9516   0.330   1.176   3.694 -1.6332 -0.2885 -1.0558
 3187TIP3   OH2 9517   0.226   1.816   4.945 -0.9356 -0.5560  0.0850
 3187TIP3    H1 9518   0.161   1.809   5.015 -1.3159  0.3431 -0.1725
 3187TIP3    H2 9519   0.310   1.817   4.990 -1.2113  0.7607  0.5796
 3188TIP3   OH2 9520   1.902   2.039   1.959  0.2724 -0.0903  0.3010
 3188TIP3    H1 9521   1.883   1.964   2.015  0.4255 -0.4147 -0.0754
 3188TIP3    H2 9522   1.901   2.114   2.018  1.1689 -0.5127  0.8561
 3189TIP3   OH2 9523   0.786   2.325   2.914  0.0373 -0.6961 -0.4548
 3189TIP3    H1 9524   0.775   2.258   2.982  2.5142 -1.3642 -0.6783
 3189TIP3    H2 9525   0.724   2.300   2.846 -1.5178 -0.7803  0.9598
 3190TIP3   OH2 9526   7.991   2.491   2.587 -0.1568  0.0526 -0.6611
 3190TIP3    H1 9527   7.904   2.470   2.622  0.0879  0.3771  0.1720
 3190TIP3    H2 9528   7.974   2.538   2.506 -0.7541 -0.3620 -0.7768
 3191TIP3   OH2 9529   0.186   1.575   5.577 -0.4489 -0.0969 -0.1360
 3191TIP3    H1 9530   0.100   1.536   5.562  0.0770 -0.6289 -1.9038
 3191TIP3    H2 9531   0.248   1.507   5.551  0.4890  1.1718 -1.2926
 3192TIP3   OH2 9532   0.899   1.466   3.080 -0.2867  0.2056  0.2177
 3192TIP3    H1 9533   0.904   1.373   3.101 -1.8443  0.3515  1.2584
 3192TIP3    H2 9534   0.991   1.493   3.073  0.1857 -1.8414 -2.1425
 3193TIP3   OH2 9535   1.009   2.375   2.194 -0.7340  0.2070 -0.4557
 3193TIP3    H1 9536   0.938   2.438   2.206 -1.2037 -0.2355 -0.8926
 3193TIP3    H2 9537   1.056   2.405   2.116  0.9807  1.8269  1.1697
 3194TIP3   OH2 9538   1.304   3.946   4.431  0.1029 -0.0639  0.2445
 3194TIP3    H1 9539   1.281   3.854   4.447 -1.6842  0.4156  0.5796
 3194TIP3    H2 9540   1.392   3.943   4.396 -0.0397 -1.9468 -0.0016
 3195TIP3   OH2 9541   0.626   3.343   2.249 -0.2715  0.1077  0.0205
 3195TIP3    H1 9542   0.615   3.312   2.159  0.8433 -1.5960  0.4688
 3195TIP3    H2 9543   0.718   3.326   2.270 -0.7082 -0.1826  1.7545
 3196TIP3   OH2 9544   8.378   3.276   2.193 -0.0548  0.0914 -0.3644
 3196TIP3    H1 9545   8.387   3.241   2.282  0.8006 -0.5681 -0.7048
 3196TIP3    H2 9546   8.284   3.269   2.174 -0.0589 -0.9641  0.0010
 3197TIP3   OH2 9547   0.305   2.220   3.730  0.3548  0.1979  0.4656
 3197TIP3    H1 9548   0.279   2.312   3.724  1.3633  0.4112 -0.6468
 3197TIP3    H2 9549   0.347   2.213   3.816  3.7144  1.6777 -0.9566
 3198TIP3   OH2 9550   1.546   6.003   6.394  0.0724 -0.4599 -0.0989
 3198TIP3    H1 9551   1.482   5.969   6.331  0.7201 -0.7831 -0.5934
 3198TIP3    H2 9552   1.599   5.927   6.417  0.1914 -0.2233  0.4174
 3199TIP3   OH2 9553   7.134   4.082   3.503  0.2830  0.0432  0.1604
 3199TIP3    H1 9554   7.108   4.008   3.558  1.9487  0.3740  1.4294
 3199TIP3    H2 9555   7.117   4.052   3.413  3.1793 -2.8457  0.4896
 3200TIP3   OH2 9556   1.148   5.236   4.791 -0.2789  0.1436  0.3290
 3200TIP3    H1 9557   1.167   5.164   4.851  0.7255  0.9208  0.9532
 3200TIP3    H2 9558   1.197   5.215   4.712 -2.1539 -1.2382 -0.5068
 3201TIP3   OH2 9559   6.417   3.519   3.966  0.3789 -0.2232  0.0262
 3201TIP3    H1 9560   6.347   3.539   4.029  0.3237 -1.5959  0.4071
 3201TIP3    H2 9561   6.373   3.519   3.881  0.2508  0.5940  0.0827
 3202TIP3   OH2 9562   0.467   4.026   4.114 -0.2727  0.1994 -0.0173
 3202TIP3    H1 9563   0.501   3.941   4.144  0.3372  0.7117  0.7624
 3202TIP3    H2 9564   0.404   4.051   4.182  1.6448  1.7107  1.2614
 3203TIP3   OH2 9565   2.475   4.391   4.994  0.3559 -0.0500 -0.2162
 3203TIP3    H1 9566   2.528   4.322   5.034  2.2102  1.2694 -0.3346
 3203TIP3    H2 9567   2.514   4.472   5.026 -3.8039  1.0043  2.6051
 3204TIP3   OH2 9568   1.922   3.318   3.719  0.0967 -0.0207 -0.3337
 3204TIP3    H1 9569   1.983   3.390   3.734  0.1032 -0.1931  0.4922
 3204TIP3    H2 9570   1.970   3.257   3.663 -0.2675  1.0804 -1.9089
 3205TIP3   OH2 9571   1.683   5.189   3.229  0.0449 -0.8518  0.3963
 3205TIP3    H1 9572   1.736   5.137   3.169  3.0653  1.6594  0.7745
 3205TIP3    H2 9573   1.617   5.230   3.174  1.1369 -0.6967 -0.8142
 3206TIP3   OH2 9574   1.016   2.443   3.012 -0.1322  0.0378  0.3221
 3206TIP3    H1 9575   0.929   2.419   2.978  0.1355 -1.2728  0.5077
 3206TIP3    H2 9576   1.010   2.536   3.031 -0.6572  0.5456 -2.1711
 3207TIP3   OH2 9577   0.582   3.092   3.274 -0.1930  0.2756  0.0431
 3207TIP3    H1 9578   0.642   3.126   3.208 -0.6985  0.6788 -0.2039
 3207TIP3    H2 9579   0.497   3.086   3.230 -0.1143 -1.3547  0.0493
 3208TIP3   OH2 9580   2.605   2.880   3.215 -0.2872 -0.2667  0.3525
 3208TIP3    H1 9581   2.577   2.969   3.240 -0.0327  0.1371 -0.7845
 3208TIP3    H2 9582   2.695   2.874   3.249  0.0154  0.2399 -0.3368
 3209TIP3   OH2 9583   2.583   5.911   2.930 -0.1229 -0.4094 -0.3031
 3209TIP3    H1 9584   2.535   5.869   2.859 -0.5602  0.8989 -0.7925
 3209TIP3    H2 9585   2.619   5.990   2.891 -0.4889  0.3906  0.9740
 3210TIP3   OH2 9586   0.309   3.620   1.884 -0.1644 -0.1291 -0.1442
 3210TIP3    H1 9587   0.332   3.698   1.834  0.8953  0.2712  0.9405
 3210TIP3    H2 9588   0.265   3.654   1.962 -0.1899 -0.6471  0.0706
 3211TIP3   OH2 9589   2.024   2.209   3.871  0.4770  0.3159  0.3362
 3211TIP3    H1 9590   1.940   2.170   3.895  0.3168  0.7238  0.4410
 3211TIP3    H2 9591   2.089   2.153   3.912  0.2671 -0.1769  0.0049
 3212TIP3   OH2 9592   8.454   1.921   2.198 -0.0545  0.0380 -0.1105
 3212TIP3    H1 9593   8.482   1.997   2.148  1.6169 -0.2488  0.3653
 3212TIP3    H2 9594   8.493   1.934   2.285  0.6169 -1.5546 -0.1543
 3213TIP3   OH2 9595   0.632   3.889   3.628 -0.0265 -0.5320 -0.1122
 3213TIP3    H1 9596   0.574   3.963   3.647 -0.7051 -0.6196 -1.7398
 3213TIP3    H2 9597   0.625   3.833   3.705 -0.3101  0.5988  0.6953
 3214TIP3   OH2 9598   0.899   3.466   1.111  0.3514 -0.4810 -0.0040
 3214TIP3    H1 9599   0.901   3.462   1.207  0.4192  0.5634  0.0390
 3214TIP3    H2 9600   0.886   3.375   1.084  0.3756 -0.7887  0.9947
 3215TIP3   OH2 9601   6.007   2.420   3.842 -0.2896 -0.8018 -0.3050
 3215TIP3    H1 9602   5.974   2.330   3.844 -0.6117 -0.6677  1.0603
 3215TIP3    H2 9603   6.099   2.411   3.819 -1.2003 -1.1794 -4.1474
 3216TIP3   OH2 9604   1.379   2.658   3.875 -0.0061  0.4055 -0.5090
 3216TIP3    H1 9605   1.414   2.714   3.945  0.8323  0.1189 -0.7031
 3216TIP3    H2 9606   1.351   2.579   3.920  1.4721 -0.1951 -0.6337
 3217TIP3   OH2 9607   7.660   6.963   6.109 -0.4394  0.2827  1.2813
 3217TIP3    H1 9608   7.740   6.923   6.142 -0.7830 -0.0664  1.6941
 3217TIP3    H2 9609   7.687   7.009   6.029 -0.0948 -0.9934  0.6562
 3218TIP3   OH2 9610   0.320   1.396   3.368  0.0158 -0.3679 -0.6056
 3218TIP3    H1 9611   0.246   1.358   3.319  1.1620 -1.0147 -1.8773
 3218TIP3    H2 9612   0.397   1.352   3.333  1.0207  0.3301  0.6853
 3219TIP3   OH2 9613   7.880   4.024   2.414  0.3559  0.2495  0.5109
 3219TIP3    H1 9614   7.847   4.112   2.434  1.0046  0.5487  0.2844
 3219TIP3    H2 9615   7.975   4.033   2.419  0.5310  0.1373 -1.8177
 3220TIP3   OH2 9616   2.435   4.023   4.352 -0.6296 -0.2802  0.3845
 3220TIP3    H1 9617   2.497   4.047   4.283 -0.4570  1.9500  1.2765
 3220TIP3    H2 9618   2.399   3.939   4.323  0.7744 -0.2805 -1.5027
 3221TIP3   OH2 9619   0.715   2.762   2.324  0.3009  0.1197 -0.1610
 3221TIP3    H1 9620   0.683   2.850   2.346 -0.0003 -0.2166  0.8029
 3221TIP3    H2 9621   0.810   2.769   2.327  0.2884 -0.3185  3.0783
 3222TIP3   OH2 9622   0.281   2.500   2.112 -0.0969  0.0579 -0.2180
 3222TIP3    H1 9623   0.323   2.502   2.026 -0.1222  3.1368 -0.1995
 3222TIP3    H2 9624   0.335   2.441   2.164  1.9250  0.8843 -1.3380
 3223TIP3   OH2 9625   0.111   3.796   4.639 -0.1532 -0.6531 -0.1378
 3223TIP3    H1 9626   0.042   3.812   4.575  0.9492 -0.2441 -1.2367
 3223TIP3    H2 9627   0.169   3.732   4.597  0.1354 -1.0135  0.7828
 3224TIP3   OH2 9628   1.475   7.005   2.778 -0.0466 -0.0647  0.2125
 3224TIP3    H1 9629   1.386   7.038   2.761  0.4626  0.3267 -1.8359
 3224TIP3    H2 9630   1.528   7.084   2.787  0.6276 -0.2659 -1.6875
 3225TIP3   OH2 9631   1.806   3.527   2.169  0.1759  0.0349  0.5583
 3225TIP3    H1 9632   1.839   3.610   2.134 -0.5254 -0.1362 -0.5249
 3225TIP3    H2 9633   1.722   3.513   2.126  0.8166 -1.8224 -0.1745
 3226TIP3   OH2 9634   8.217   3.365   3.713 -0.2037  0.1941 -0.1563
 3226TIP3    H1 9635   8.274   3.293   3.687  0.5001  0.8929 -0.5603
 3226TIP3    H2 9636   8.169   3.332   3.789  0.2559 -0.6337 -0.2290
 3227TIP3   OH2 9637   6.772   2.239   5.195 -0.1780 -0.3908 -0.6105
 3227TIP3    H1 9638   6.721   2.195   5.127 -1.0180 -1.3965  0.6265
 3227TIP3    H2 9639   6.708   2.259   5.264  0.8579 -0.4987  0.4083
 3228TIP3   OH2 9640   0.976   5.647   3.812  0.7746  0.7859 -0.3072
 3228TIP3    H1 9641   0.926   5.667   3.891 -0.1950 -0.1626 -0.6699
 3228TIP3    H2 9642   1.053   5.601   3.843 -0.7078 -1.6152 -0.0569
 3229TIP3   OH2 9643   1.651   3.389   1.669  0.6540  0.2024 -0.7608
 3229TIP3    H1 9644   1.592   3.314   1.670  1.7056 -0.6377 -0.4027
 3229TIP3    H2 9645   1.674   3.401   1.576 -1.7330  1.8879 -1.1852
 3230TIP3   OH2 9646   7.265   4.476   3.822 -0.4209  0.1582 -0.0724
 3230TIP3    H1 9647   7.237   4.442   3.907 -0.3949 -0.2451 -0.2248
 3230TIP3    H2 9648   7.260   4.401   3.763 -0.3726  0.4203 -0.4122
 3231TIP3   OH2 9649   6.243   2.453   3.476  0.0147 -0.3504  0.3500
 3231TIP3    H1 9650   6.336   2.430   3.478  0.1312  0.2031  2.0191
 3231TIP3    H2 9651   6.200   2.374   3.442  1.0815 -0.6025 -0.4655
 3232TIP3   OH2 9652   0.668   2.162   3.396  0.2400  0.6624  0.6799
 3232TIP3    H1 9653   0.575   2.167   3.417  0.4249 -0.6943  1.8946
 3232TIP3    H2 9654   0.686   2.241   3.345 -1.5628  0.9408  0.4709
 3233TIP3   OH2 9655   8.399   4.229   1.545  0.3378 -0.0610 -0.3605
 3233TIP3    H1 9656   8.400   4.160   1.479 -2.4736  2.4478 -3.1926
 3233TIP3    H2 9657   8.453   4.298   1.508 -1.2078  1.3470 -0.0608
 3234TIP3   OH2 9658   0.150   3.628   5.783 -0.1613  1.1859  0.1278
 3234TIP3    H1 9659   0.122   3.613   5.693 -0.6727 -0.5722  0.5676
 3234TIP3    H2 9660   0.071   3.653   5.830 -0.4390 -0.6322  0.6727
 3235TIP3   OH2 9661   2.825   2.532   3.970 -0.2705  0.2304 -0.1504
 3235TIP3    H1 9662   2.821   2.451   4.020  0.8814 -0.0021 -0.4223
 3235TIP3    H2 9663   2.799   2.507   3.881 -0.9297  0.3699 -0.0024
 3236TIP3   OH2 9664   7.749   1.459   1.088  0.1357 -0.2397 -0.1571
 3236TIP3    H1 9665   7.770   1.422   1.174 -2.0310  0.3100  0.6374
 3236TIP3    H2 9666   7.750   1.384   1.029  0.1783 -0.8517  0.6133
 3237TIP3   OH2 9667   2.205   2.918   1.669 -0.2058  0.0829  0.1765
 3237TIP3    H1 9668   2.297   2.893   1.658  0.2068  1.4975  0.2907
 3237TIP3    H2 9669   2.156   2.838   1.652  0.9664 -0.3250 -1.3340
 3238TIP3   OH2 9670   7.577   4.214   4.946  0.0535  0.2097  0.6731
 3238TIP3    H1 9671   7.625   4.273   4.888 -2.5799  1.3782 -0.3977
 3238TIP3    H2 9672   7.644   4.176   5.003  2.5199  0.0916 -2.1942
 3239TIP3   OH2 9673   1.808   4.787   3.369  0.4106  0.1281 -0.1072
 3239TIP3    H1 9674   1.798   4.807   3.276  0.0834  2.6754  0.4242
 3239TIP3    H2 9675   1.834   4.871   3.408  0.3780 -0.8709  2.1054
 3240TIP3   OH2 9676   2.073   4.262   2.850 -0.2401  0.2331 -0.2329
 3240TIP3    H1 9677   2.080   4.295   2.939 -0.5335  1.5359 -0.6847
 3240TIP3    H2 9678   1.992   4.210   2.849 -1.9948  2.9151 -0.5865
 3241TIP3   OH2 9679   7.071   1.744   3.645  0.1048 -0.0120 -0.0184
 3241TIP3    H1 9680   7.107   1.656   3.643 -0.7118 -0.3686  0.6286
 3241TIP3    H2 9681   7.126   1.794   3.584 -0.3620 -1.2979 -1.5171
 3242TIP3   OH2 9682   0.674   2.795   3.176 -0.1296  0.3257  0.1518
 3242TIP3    H1 9683   0.659   2.721   3.118 -3.4143  0.9581  0.0774
 3242TIP3    H2 9684   0.686   2.870   3.118  2.2148  0.0404  0.2398
 3243TIP3   OH2 9685   7.281   2.991   1.742  0.0494  0.5428 -0.2508
 3243TIP3    H1 9686   7.350   2.989   1.809 -0.7035  0.1131  0.5201
 3243TIP3    H2 9687   7.328   2.980   1.660  0.7147 -1.7933  0.4020
 3244TIP3   OH2 9688   1.017   2.898   6.276  0.2673 -0.3368  0.3511
 3244TIP3    H1 9689   1.030   2.805   6.258 -1.9857 -0.7061  0.5116
 3244TIP3    H2 9690   0.928   2.916   6.247  0.4592  1.6401  0.9037
 3245TIP3   OH2 9691   6.818   2.548   3.003  0.1234  0.3383 -0.4533
 3245TIP3    H1 9692   6.867   2.470   2.979  1.4187  1.0447 -0.1724
 3245TIP3    H2 9693   6.886   2.612   3.025 -0.9725  0.7325  1.8231
 3246TIP3   OH2 9694   0.232   5.774   4.072 -0.1483  0.1611  0.2069
 3246TIP3    H1 9695   0.317   5.765   4.029  1.0176  0.5176  2.3641
 3246TIP3    H2 9696   0.202   5.683   4.083  0.9446 -0.0949  1.2908
 3247TIP3   OH2 9697   3.999   7.411   3.076 -0.2445  0.0342  0.7731
 3247TIP3    H1 9698   3.946   7.450   3.146 -0.2627 -1.0150  1.3484
 3247TIP3    H2 9699   4.047   7.485   3.040 -1.2435  0.8104  1.0002
 3248TIP3   OH2 9700   0.760   2.261   2.356  0.5536  0.0331 -0.5116
 3248TIP3    H1 9701   0.679   2.249   2.307  1.2376 -0.0436 -1.6558
 3248TIP3    H2 9702   0.789   2.350   2.334  1.0652 -0.1389 -0.5541
 3249TIP3   OH2 9703   0.916   4.686   4.197  0.0736 -0.2756  0.4441
 3249TIP3    H1 9704   0.834   4.638   4.211  0.5227 -1.3162 -0.4588
 3249TIP3    H2 9705   0.938   4.670   4.106  0.5668  1.1473  0.3008
 3250TIP3   OH2 9706   2.593   7.589   6.619 -0.3140 -0.2597 -0.2649
 3250TIP3    H1 9707   2.547   7.581   6.536  0.9727 -0.9718 -0.9296
 3250TIP3    H2 9708   2.664   7.525   6.613  0.6801  0.7273  0.7837
 3251TIP3   OH2 9709   0.596   2.611   2.536  0.3947  0.0859 -0.6322
 3251TIP3    H1 9710   0.651   2.654   2.472  0.9119 -3.1596 -2.4833
 3251TIP3    H2 9711   0.510   2.605   2.494  0.0151  0.4193  0.0914
 3252TIP3   OH2 9712   1.368   4.138   3.838  0.1753  0.2502  0.3345
 3252TIP3    H1 9713   1.355   4.155   3.744 -1.9550 -0.5753  0.4396
 3252TIP3    H2 9714   1.322   4.210   3.882 -0.3614 -0.3274  0.7326
 3253TIP3   OH2 9715   8.407   5.076   4.104  0.2157 -0.5558 -0.0028
 3253TIP3    H1 9716   8.462   5.147   4.137 -0.2542 -0.3256  0.2905
 3253TIP3    H2 9717   8.466   5.022   4.052  0.4779  0.3092 -0.6169
 3254TIP3   OH2 9718   0.341   3.396   3.366 -0.4940  0.0538  0.4931
 3254TIP3    H1 9719   0.277   3.330   3.337 -1.8887  2.4761 -2.1637
 3254TIP3    H2 9720   0.418   3.379   3.312 -1.4692  1.6606 -1.4395
 3255TIP3   OH2 9721   1.423   2.446   3.547 -0.1706 -0.2567  0.4399
 3255TIP3    H1 9722   1.456   2.405   3.466  2.4366 -1.1815  1.8985
 3255TIP3    H2 9723   1.445   2.539   3.536 -0.9345 -0.1707 -0.4275
 3256TIP3   OH2 9724   1.237   2.955   3.373  0.2912 -0.4573  0.6860
 3256TIP3    H1 9725   1.163   3.014   3.364  0.4281 -0.1319  1.6601
 3256TIP3    H2 9726   1.312   3.005   3.340  0.3372 -0.2240  1.1360
 3257TIP3   OH2 9727   8.077   1.903   3.534  0.6017  0.0829 -0.2848
 3257TIP3    H1 9728   8.053   1.894   3.442 -0.3375 -1.4066  0.0892
 3257TIP3    H2 9729   8.172   1.887   3.536  0.3679 -1.4213 -0.7998
 3258TIP3   OH2 9730   2.271   2.577   3.030 -0.6520  0.1266 -0.2550
 3258TIP3    H1 9731   2.349   2.625   3.057  0.2164 -2.3698  1.8692
 3258TIP3    H2 9732   2.301   2.519   2.960 -0.5042 -0.9696  0.6904
 3259TIP3   OH2 9733   7.270   3.988   1.453  0.3646 -0.3198 -0.6492
 3259TIP3    H1 9734   7.175   3.994   1.467  0.1251  0.9369 -2.5326
 3259TIP3    H2 9735   7.283   3.899   1.421 -0.2146 -0.4708 -0.4776
 3260TIP3   OH2 9736   0.639   5.178   4.393 -0.2705 -0.1097  0.2390
 3260TIP3    H1 9737   0.627   5.133   4.309  0.8656  0.0247 -0.0132
 3260TIP3    H2 9738   0.665   5.108   4.454  2.9151  0.3573 -0.4850
 3261TIP3   OH2 9739   0.998   3.684   2.732  0.1525 -0.6349 -0.6496
 3261TIP3    H1 9740   0.976   3.673   2.825 -1.2479  0.4223 -0.8288
 3261TIP3    H2 9741   0.954   3.612   2.688  2.6115 -2.4058 -0.2679
 3262TIP3   OH2 9742   6.510   0.385   2.374  0.4885 -0.1174 -0.4613
 3262TIP3    H1 9743   6.536   0.418   2.288  0.4191  1.8648  0.2482
 3262TIP3    H2 9744   6.577   0.419   2.434  0.9660 -2.1280  0.1758
 3263TIP3   OH2 9745   7.462   5.388   3.884  0.1208 -0.3903 -0.0794
 3263TIP3    H1 9746   7.486   5.296   3.878  1.3172 -0.0446 -0.8570
 3263TIP3    H2 9747   7.528   5.426   3.943 -0.4818 -0.0688  0.3969
 3264TIP3   OH2 9748   0.581   5.665   4.272  0.1042 -0.4907 -0.0192
 3264TIP3    H1 9749   0.666   5.676   4.316 -0.2749  0.8595  0.4011
 3264TIP3    H2 9750   0.554   5.577   4.295  1.1457 -0.7399  0.2948
 3265TIP3   OH2 9751   1.150   6.054   3.609 -0.0073  0.0451 -0.2272
 3265TIP3    H1 9752   1.198   6.100   3.540  0.9751 -0.9501 -0.2107
 3265TIP3    H2 9753   1.083   6.117   3.637  0.7751  1.1413 -0.7920
 3266TIP3   OH2 9754   2.014   2.248   4.460  0.3056 -0.6904  0.0668
 3266TIP3    H1 9755   1.930   2.256   4.506  1.1913  0.2691  1.5426
 3266TIP3    H2 9756   1.991   2.258   4.368 -1.2834 -1.0193  0.4112
 3267TIP3   OH2 9757   0.891   4.234   2.100 -0.4670 -0.6240 -0.0136
 3267TIP3    H1 9758   0.890   4.262   2.192 -2.6672 -0.5774 -0.0107
 3267TIP3    H2 9759   0.887   4.316   2.050  1.0364 -0.6369 -0.1682
 3268TIP3   OH2 9760   0.132   5.430   5.634  0.1912  0.4808  0.1286
 3268TIP3    H1 9761   0.135   5.416   5.539 -0.7735 -1.1951  0.3211
 3268TIP3    H2 9762   0.061   5.493   5.647  1.1034  1.6316 -0.3392
 3269TIP3   OH2 9763   0.639   6.047   3.602 -0.2664  0.5584  0.0268
 3269TIP3    H1 9764   0.696   6.043   3.525  0.6038  0.6801  0.6537
 3269TIP3    H2 9765   0.672   5.978   3.659 -0.3937  1.0113  0.6443
 3270TIP3   OH2 9766   0.933   3.683   3.708 -0.0030 -0.0227 -0.2021
 3270TIP3    H1 9767   0.943   3.773   3.676  2.3240  0.6815  2.3336
 3270TIP3    H2 9768   1.013   3.639   3.679 -1.0967 -1.2689 -1.3475
 3271TIP3   OH2 9769   0.461   3.614   4.526 -0.6614 -0.4738 -0.1850
 3271TIP3    H1 9770   0.377   3.646   4.494  0.3093  0.0728 -2.2323
 3271TIP3    H2 9771   0.512   3.693   4.543  0.4168 -0.8510 -1.6360
 3272TIP3   OH2 9772   7.526   3.499   3.336 -0.2052  0.4628 -0.7117
 3272TIP3    H1 9773   7.508   3.578   3.286  1.2987  2.0155  1.1456
 3272TIP3    H2 9774   7.451   3.491   3.395  1.0963  2.3329  1.2949
 3273TIP3   OH2 9775   5.148   6.473   4.664 -0.0722 -0.1879  0.3056
 3273TIP3    H1 9776   5.233   6.432   4.655 -0.3200 -1.2830  2.5240
 3273TIP3    H2 9777   5.167   6.560   4.699  0.2105 -0.0143 -0.2906
 3274TIP3   OH2 9778   0.288   2.353   5.675  0.5173  0.4128 -0.2610
 3274TIP3    H1 9779   0.342   2.333   5.752  1.4026  1.4127 -0.6058
 3274TIP3    H2 9780   0.200   2.367   5.710  1.2871  2.7349  0.8298
 3275TIP3   OH2 9781   8.308   2.007   3.762 -0.4775 -0.1100  0.0336
 3275TIP3    H1 9782   8.221   1.973   3.783 -0.2079 -1.2671 -0.7074
 3275TIP3    H2 9783   8.317   1.994   3.668  0.4389  0.1761  0.0731
 3276TIP3   OH2 9784   7.380   1.501   1.723 -0.0960 -0.2805 -0.4448
 3276TIP3    H1 9785   7.318   1.430   1.737 -2.3200  1.2006 -2.4932
 3276TIP3    H2 9786   7.461   1.457   1.695 -0.1810 -2.2138  2.1493
 3277TIP3   OH2 9787   6.216   4.332   4.262  0.6979 -0.6902  0.1718
 3277TIP3    H1 9788   6.281   4.356   4.327  1.6169 -1.0245 -0.6017
 3277TIP3    H2 9789   6.132   4.353   4.302  1.2482 -0.9412  1.4706
 3278TIP3   OH2 9790   1.582   4.376   1.777 -0.5589 -0.3388 -0.2387
 3278TIP3    H1 9791   1.571   4.380   1.872 -0.2117 -2.9445 -0.0427
 3278TIP3    H2 9792   1.672   4.347   1.765 -0.2803  1.0032 -1.3856
 3279TIP3   OH2 9793   0.095   3.489   3.546 -0.1484 -0.2025 -0.0454
 3279TIP3    H1 9794   0.037   3.414   3.541 -0.3920  0.0205 -0.6005
 3279TIP3    H2 9795   0.040   3.560   3.579  0.0569 -0.2396  0.3835
 3280TIP3   OH2 9796   8.209   2.110   1.883 -0.2120  0.3759 -0.2815
 3280TIP3    H1 9797   8.152   2.070   1.817 -0.0913 -1.2243  0.5686
 3280TIP3    H2 9798   8.293   2.121   1.839 -0.3637  0.0577 -0.6502
 3281TIP3   OH2 9799   0.601   1.982   3.828 -0.0951  0.1373 -0.3603
 3281TIP3    H1 9800   0.642   1.928   3.760  0.7776 -1.0248  1.0358
 3281TIP3    H2 9801   0.519   1.937   3.848  0.5281 -0.5600  0.6496
 3282TIP3   OH2 9802   5.521   6.657   1.372 -0.5604 -0.7644  0.4185
 3282TIP3    H1 9803   5.487   6.569   1.385 -0.5014 -0.5840  1.8203
 3282TIP3    H2 9804   5.607   6.657   1.413 -0.4750 -0.1204  0.2531
 3283TIP3   OH2 9805   3.574   0.320   5.679  0.8891 -0.0498  0.0287
 3283TIP3    H1 9806   3.659   0.308   5.721  1.9570 -0.8244 -2.2488
 3283TIP3    H2 9807   3.513   0.270   5.734  2.0818 -0.3380  1.1103
 3284TIP3   OH2 9808   0.837   0.837   3.529 -0.0048 -0.0048  0.4332
 3284TIP3    H1 9809   0.763   0.893   3.552  1.3012  1.9339  0.0268
 3284TIP3    H2 9810   0.913   0.880   3.568  0.9436 -1.8800  0.6986
 3285TIP3   OH2 9811   6.289   4.100   2.377 -0.5317  0.0066  0.0952
 3285TIP3    H1 9812   6.247   4.184   2.359 -1.0899 -0.9330 -3.2018
 3285TIP3    H2 9813   6.217   4.040   2.396 -0.3441 -0.4461 -0.6041
 3286TIP3   OH2 9814   8.094   3.549   2.828  0.3605 -0.0428  0.5602
 3286TIP3    H1 9815   8.061   3.525   2.915  0.8096  1.7696  1.2471
 3286TIP3    H2 9816   8.181   3.584   2.843 -0.2032  1.8741 -0.3994
 3287TIP3   OH2 9817   8.485   1.160   2.846  0.4460  0.2088  0.0641
 3287TIP3    H1 9818   8.415   1.217   2.880  1.1700  1.8559 -1.1575
 3287TIP3    H2 9819   8.559   1.178   2.904  1.2048  1.8443 -1.3801
 3288TIP3   OH2 9820   0.786   4.253   5.815 -0.2737  0.4906 -0.4875
 3288TIP3    H1 9821   0.809   4.249   5.908 -0.9370 -1.7769 -0.3682
 3288TIP3    H2 9822   0.869   4.262   5.770  0.2081 -0.0883  0.2682
 3289TIP3   OH2 9823   1.517   6.175   2.518 -0.6248 -0.5093  0.2788
 3289TIP3    H1 9824   1.586   6.212   2.573 -0.4335  0.5541 -0.6710
 3289TIP3    H2 9825   1.435   6.202   2.560 -0.4734 -0.0115  0.2614
 3290TIP3   OH2 9826   1.615   3.566   1.365 -0.1918 -0.0856  0.2523
 3290TIP3    H1 9827   1.527   3.544   1.333  0.4644 -2.8182  0.2273
 3290TIP3    H2 9828   1.670   3.560   1.288  0.3014 -0.1368  0.6097
 3291TIP3   OH2 9829   1.099   2.910   2.632 -0.2447  1.2257 -0.1235
 3291TIP3    H1 9830   1.156   2.987   2.623  1.9394 -0.3770 -0.4511
 3291TIP3    H2 9831   1.101   2.891   2.726 -0.3221  1.2374 -0.1199
 3292TIP3   OH2 9832   8.439   3.118   2.579  0.6050  0.2958 -0.1323
 3292TIP3    H1 9833   8.534   3.116   2.577  0.5687 -1.2380 -0.2613
 3292TIP3    H2 9834   8.412   3.095   2.490  0.0686 -2.7934  0.7996
 3293TIP3   OH2 9835   0.623   4.646   3.404 -0.0200  0.1382  0.1196
 3293TIP3    H1 9836   0.551   4.661   3.342  0.3441  1.7301  0.0501
 3293TIP3    H2 9837   0.584   4.591   3.472 -0.1333 -2.4938 -2.0175
 3294TIP3   OH2 9838   0.569   5.811   5.744 -0.1973 -0.4244  0.0598
 3294TIP3    H1 9839   0.529   5.728   5.772 -0.8618 -0.4615 -0.9978
 3294TIP3    H2 9840   0.495   5.866   5.719  0.1998  0.7214  1.3198
 3295TIP3   OH2 9841   6.656   3.545   6.296 -0.1404 -0.3365  0.1196
 3295TIP3    H1 9842   6.660   3.451   6.311 -0.3785 -0.6362 -1.5549
 3295TIP3    H2 9843   6.563   3.563   6.281  0.1620 -0.2601 -1.9258
 3296TIP3   OH2 9844   7.352   3.702   3.558  0.1328  0.3869 -0.1379
 3296TIP3    H1 9845   7.415   3.637   3.590 -0.4021 -1.1155 -2.0615
 3296TIP3    H2 9846   7.269   3.654   3.551  0.0645  0.8106 -3.0344
 3297TIP3   OH2 9847   1.105   2.491   1.971  0.5420  0.1842  0.3680
 3297TIP3    H1 9848   1.084   2.573   1.926  0.3460  0.2401  0.5553
 3297TIP3    H2 9849   1.200   2.492   1.981  0.4888  0.6327  0.8292
 3298TIP3   OH2 9850   0.596   4.420   5.688 -0.6626 -0.1077 -0.6180
 3298TIP3    H1 9851   0.641   4.360   5.747  0.4681 -1.1124 -2.4858
 3298TIP3    H2 9852   0.514   4.441   5.733 -0.2601 -1.6318  0.8533
 3299TIP3   OH2 9853   0.049   2.727   3.330  0.2825  0.1573  0.0772
 3299TIP3    H1 9854  -0.012   2.797   3.307  0.2911  0.3317  0.5827
 3299TIP3    H2 9855   0.057   2.675   3.250 -1.4376 -0.5532  0.3397
 3300TIP3   OH2 9856   8.032   4.784   4.822  0.2682 -0.0305  0.2067
 3300TIP3    H1 9857   7.939   4.807   4.827  0.5649  1.3412 -0.2538
 3300TIP3    H2 9858   8.058   4.810   4.733  0.8223 -1.4685 -0.0647
 3301TIP3   OH2 9859   1.778   1.445   5.061  0.0959 -0.2359 -0.0223
 3301TIP3    H1 9860   1.752   1.456   5.153  1.7982  1.9226  0.2252
 3301TIP3    H2 9861   1.873   1.441   5.063  0.1654  0.3080 -1.7574
 3302TIP3   OH2 9862   7.551   7.842   6.275 -0.2753 -0.2961  0.0210
 3302TIP3    H1 9863   7.487   7.887   6.330 -0.2047 -0.0083 -0.1343
 3302TIP3    H2 9864   7.505   7.826   6.193  0.2386  0.9751 -0.5195
 3303TIP3   OH2 9865   1.379   3.840   6.457 -0.0263 -0.6664 -0.1306
 3303TIP3    H1 9866   1.464   3.837   6.413  0.2598  0.5911  0.3196
 3303TIP3    H2 9867   1.360   3.748   6.478  0.1888 -1.2101 -2.1632
 3304TIP3   OH2 9868   1.090   2.468   3.959 -0.3383 -0.4474  0.2421
 3304TIP3    H1 9869   1.170   2.415   3.952  0.7303  1.1619 -0.0842
 3304TIP3    H2 9870   1.039   2.445   3.882  0.1516 -0.9536  0.0617
 3305TIP3   OH2 9871   0.581   3.148   4.063 -0.0990  0.2906  0.0827
 3305TIP3    H1 9872   0.530   3.228   4.050  0.9134  0.8063 -0.7080
 3305TIP3    H2 9873   0.664   3.178   4.099  0.8583 -0.2675 -1.6168
 3306TIP3   OH2 9874   1.721   2.311   3.767  0.2348 -0.0062 -0.1629
 3306TIP3    H1 9875   1.739   2.240   3.829  0.8125  0.2984  0.0223
 3306TIP3    H2 9876   1.665   2.372   3.816  0.6962  0.2374  0.0671
 3307TIP3   OH2 9877   7.445   2.167   2.412  1.1875 -0.3713  0.4540
 3307TIP3    H1 9878   7.462   2.083   2.369  0.7313  0.2193 -0.8740
 3307TIP3    H2 9879   7.372   2.149   2.471 -0.5106 -0.3142 -1.6140
 3308TIP3   OH2 9880   7.422   4.401   4.259  0.1023  0.2681  0.2029
 3308TIP3    H1 9881   7.489   4.467   4.244  0.3185 -0.2293 -0.9885
 3308TIP3    H2 9882   7.469   4.318   4.260 -0.3789 -0.0059  0.2576
 3309TIP3   OH2 9883   0.970   2.055   4.422 -0.4308 -0.2073  0.4118
 3309TIP3    H1 9884   0.878   2.069   4.447 -0.2215  0.9854  0.5633
 3309TIP3    H2 9885   1.010   2.142   4.431  0.5495 -0.5794 -0.3179
 3310TIP3   OH2 9886   1.331   1.604   5.879  0.8108  0.2758  0.2664
 3310TIP3    H1 9887   1.364   1.653   5.804 -1.1661  0.7603 -0.3144
 3310TIP3    H2 9888   1.286   1.669   5.932 -0.0141 -0.5232  0.5662
 3311TIP3   OH2 9889   0.320   2.601   3.500  0.6885  0.4896 -0.2989
 3311TIP3    H1 9890   0.387   2.599   3.431  0.4355  0.3763 -0.5447
 3311TIP3    H2 9891   0.296   2.693   3.508 -0.0838  0.3666 -1.1481
 3312TIP3   OH2 9892   7.693   3.965   5.875  0.1470  0.0147 -0.2717
 3312TIP3    H1 9893   7.716   4.053   5.847 -0.4184  0.1038 -0.4623
 3312TIP3    H2 9894   7.676   3.918   5.793 -0.6723  0.0439 -0.1181
 3313TIP3   OH2 9895   2.438   3.645   3.856  0.1099 -0.1071 -0.1697
 3313TIP3    H1 9896   2.372   3.708   3.826  0.4286  0.2301 -0.1581
 3313TIP3    H2 9897   2.468   3.601   3.776  1.1210  0.9465 -0.3755
 3314TIP3   OH2 9898   7.668   4.844   2.419 -0.0338  0.6783  0.1836
 3314TIP3    H1 9899   7.616   4.909   2.466 -0.6144  0.8804 -0.7286
 3314TIP3    H2 9900   7.659   4.764   2.471 -0.2572  1.0295  0.6901
 3315TIP3   OH2 9901   8.311   4.497   4.350  0.0233 -0.4744 -0.1232
 3315TIP3    H1 9902   8.312   4.506   4.446 -0.9771  0.7268 -0.2165
 3315TIP3    H2 9903   8.237   4.550   4.322 -0.5767 -1.9825 -1.4571
 3316TIP3   OH2 9904   3.197   2.777   5.532 -0.5257 -0.0495  0.1942
 3316TIP3    H1 9905   3.243   2.719   5.471  0.6000  0.0088  0.9694
 3316TIP3    H2 9906   3.123   2.725   5.564 -1.7634  0.2897 -2.0257
 3317TIP3   OH2 9907   1.125   3.433   4.455 -0.0407 -0.0815  0.0645
 3317TIP3    H1 9908   1.068   3.372   4.407 -2.2048 -0.2634  2.7225
 3317TIP3    H2 9909   1.197   3.378   4.486  0.3590 -0.3514 -1.3201
 3318TIP3   OH2 9910   0.260   5.434   3.141 -0.3258  0.0643 -0.4883
 3318TIP3    H1 9911   0.333   5.381   3.173 -0.4155 -0.7748 -1.6404
 3318TIP3    H2 9912   0.297   5.521   3.127 -0.1813  0.3307  1.4266
 3319TIP3   OH2 9913   0.152   3.498   2.365 -0.1268 -0.3817 -0.1445
 3319TIP3    H1 9914   0.210   3.426   2.389 -1.6497 -1.1500  1.3816
 3319TIP3    H2 9915   0.110   3.469   2.284  1.8700  0.3683 -1.5047
 3320TIP3   OH2 9916   1.672   3.094   3.108  0.0096  0.0199 -0.8240
 3320TIP3    H1 9917   1.731   3.122   3.038 -0.0816  0.7666 -0.6101
 3320TIP3    H2 9918   1.602   3.047   3.062  1.0867 -1.4395 -1.0154
 3321TIP3   OH2 9919   1.810   3.043   2.473 -0.0879 -0.9448 -0.0533
 3321TIP3    H1 9920   1.730   3.067   2.427  0.3711  2.8861  0.9742
 3321TIP3    H2 9921   1.881   3.066   2.412  0.3145 -4.6110 -1.0931
 3322TIP3   OH2 9922   0.646   3.656   5.070 -0.0512 -0.1684 -0.1308
 3322TIP3    H1 9923   0.675   3.618   5.153  1.0341  1.7094  0.3752
 3322TIP3    H2 9924   0.719   3.643   5.010 -0.1594  0.0377 -0.3099
 3323TIP3   OH2 9925   1.439   4.745   3.644  0.2497  0.4986 -0.5833
 3323TIP3    H1 9926   1.467   4.739   3.553  0.7513 -0.9156 -0.3400
 3323TIP3    H2 9927   1.512   4.710   3.694 -0.7775 -0.5181  0.2357
 3324TIP3   OH2 9928   2.932   7.598   6.878 -0.1031  0.3123  0.0458
 3324TIP3    H1 9929   3.024   7.620   6.861  0.7768 -1.3722  2.2382
 3324TIP3    H2 9930   2.913   7.643   6.961 -0.4890 -1.3108  0.8412
 3325TIP3   OH2 9931   0.402   2.292   5.933 -0.2773  0.0465  0.3779
 3325TIP3    H1 9932   0.452   2.344   5.996 -0.1456 -0.0902  0.3863
 3325TIP3    H2 9933   0.337   2.246   5.987 -0.4247  0.2379  0.3647
 3326TIP3   OH2 9934   2.501   2.119   4.678 -0.0235 -0.3888 -0.2282
 3326TIP3    H1 9935   2.422   2.174   4.669  0.2420  0.0021 -0.1877
 3326TIP3    H2 9936   2.476   2.051   4.741 -0.4960 -0.5727 -0.6156
 3327TIP3   OH2 9937   1.256   5.001   4.949  0.4960  0.6657 -0.0041
 3327TIP3    H1 9938   1.216   5.055   5.018 -0.8496  0.2211 -0.4305
 3327TIP3    H2 9939   1.346   4.986   4.980  0.2514  1.4115  1.1095
 3328TIP3   OH2 9940   7.739   4.083   5.131 -0.9697 -0.1243 -0.4600
 3328TIP3    H1 9941   7.719   4.051   5.219 -0.0459  0.8983  0.1320
 3328TIP3    H2 9942   7.777   4.008   5.086  1.1450  0.0852  0.9026
 3329TIP3   OH2 9943   3.127   3.290   3.409  0.2511 -0.3937  0.5994
 3329TIP3    H1 9944   3.046   3.276   3.359  1.5585 -0.8295 -1.4777
 3329TIP3    H2 9945   3.124   3.382   3.434 -0.6180 -0.2638  0.0316
 3330TIP3   OH2 9946   0.662   2.451   3.543  0.4484  0.1322 -0.2633
 3330TIP3    H1 9947   0.656   2.410   3.457  1.9158 -0.7243  0.0328
 3330TIP3    H2 9948   0.636   2.381   3.604  2.2899 -0.1915  0.1895
 3331TIP3   OH2 9949   7.374   1.490   2.713 -0.2846  0.2074  0.1375
 3331TIP3    H1 9950   7.286   1.529   2.714 -0.9017 -1.1664  0.8589
 3331TIP3    H2 9951   7.404   1.496   2.803 -0.1419 -0.4251  0.1353
 3332TIP3   OH2 9952   5.066   7.797   0.124  0.6091  0.8907  0.0211
 3332TIP3    H1 9953   5.091   7.789   0.216 -1.8190 -0.8599  0.5726
 3332TIP3    H2 9954   5.076   7.709   0.089  1.3396  1.5087 -1.3709
 3333TIP3   OH2 9955   8.121   0.526   3.903 -0.1278  0.3734 -0.1035
 3333TIP3    H1 9956   8.029   0.544   3.925 -0.8753 -1.7611 -1.2831
 3333TIP3    H2 9957   8.122   0.525   3.807  0.5014 -2.4326 -0.0997
 3334TIP3   OH2 9958   8.129   5.876   2.720 -0.1496 -0.5856  0.1996
 3334TIP3    H1 9959   8.209   5.880   2.773 -0.4870 -0.3782  0.7095
 3334TIP3    H2 9960   8.058   5.874   2.785 -0.5689 -0.3640 -0.2487
 3335TIP3   OH2 9961   8.253   0.385   6.087 -0.1543 -0.3404  0.2666
 3335TIP3    H1 9962   8.234   0.291   6.084 -1.0409 -0.1751  0.4034
 3335TIP3    H2 9963   8.259   0.404   6.181  1.0023 -0.4424  0.2186
 3336TIP3   OH2 9964   8.073   6.549   3.434 -0.2470 -0.3090  0.1948
 3336TIP3    H1 9965   8.042   6.465   3.468 -0.3663  0.1642  1.2882
 3336TIP3    H2 9966   8.023   6.614   3.483  0.3547  0.4153 -0.1477
 3337TIP3   OH2 9967   0.570   4.186   6.464  0.4241 -0.4423 -0.4136
 3337TIP3    H1 9968   0.512   4.259   6.485  0.2213 -0.2326 -1.6742
 3337TIP3    H2 9969   0.514   4.109   6.466  0.1466 -0.2733 -1.3558
 3338TIP3   OH2 9970   0.911   5.371   4.743 -0.4325  0.2923  0.1080
 3338TIP3    H1 9971   0.986   5.312   4.743  0.0649  0.8984 -1.0390
 3338TIP3    H2 9972   0.859   5.344   4.818  1.6654  0.7948  1.8084
 3339TIP3   OH2 9973   1.048   2.117   3.957  0.1164  0.9694 -0.1259
 3339TIP3    H1 9974   0.969   2.172   3.953 -0.2563  0.5474  1.0010
 3339TIP3    H2 9975   1.046   2.081   4.046  2.0451  1.6215  0.1870
 3340TIP3   OH2 9976   7.245   5.379   5.377 -0.0327  0.6773 -0.0008
 3340TIP3    H1 9977   7.330   5.383   5.334  0.2231 -0.1970  0.4114
 3340TIP3    H2 9978   7.265   5.365   5.469 -0.6674 -2.5265 -0.3132
 3341TIP3   OH2 9979   0.481   1.591   3.703  0.1341  0.1089  0.4742
 3341TIP3    H1 9980   0.412   1.656   3.698  1.4941  1.5436  0.1489
 3341TIP3    H2 9981   0.503   1.572   3.612  1.1145  0.6902  0.5798
 3342TIP3   OH2 9982   1.025   2.435   3.448  0.1974  0.0025  0.1682
 3342TIP3    H1 9983   0.981   2.369   3.502 -2.2254  0.4229 -1.2032
 3342TIP3    H2 9984   1.041   2.508   3.507  1.8692 -1.3325  1.4273
 3343TIP3   OH2 9985   1.957   4.442   4.083  0.4128  0.2442 -0.2675
 3343TIP3    H1 9986   1.943   4.350   4.062 -0.7405 -0.1423  2.0303
 3343TIP3    H2 9987   1.891   4.489   4.032 -1.0565 -0.4945  0.9180
 3344TIP3   OH2 9988   8.170   3.621   1.797 -0.1223 -0.0613 -0.2738
 3344TIP3    H1 9989   8.173   3.558   1.869  1.2911 -2.5505 -2.4422
 3344TIP3    H2 9990   8.089   3.602   1.751 -0.1468  0.3276 -0.3961
 3345TIP3   OH2 9991   8.379   5.712   4.658  0.2388 -0.0531 -0.0049
 3345TIP3    H1 9992   8.403   5.662   4.580  0.0292  1.1880 -0.8645
 3345TIP3    H2 9993   8.338   5.792   4.625 -1.4709 -0.3029  1.3845
 3346TIP3   OH2 9994   0.467   3.187   3.703  0.4659  0.1955  0.2550
 3346TIP3    H1 9995   0.520   3.232   3.636 -1.8736  3.0626  0.2585
 3346TIP3    H2 9996   0.499   3.097   3.701  1.9212  0.6948 -3.2508
 3347TIP3   OH2 9997   1.858   3.992   4.347  0.7921 -0.1868 -0.0497
 3347TIP3    H1 9998   1.950   3.992   4.322  0.9394 -0.2725  0.4900
 3347TIP3    H2 9999   1.838   4.083   4.369  0.0786  0.3117 -2.5877
 3348TIP3   OH210000   1.664   2.321   1.828  0.6042  0.0011 -0.2336
 3348TIP3    H110001   1.571   2.300   1.830  0.1991  1.2497 -2.8069
 3348TIP3    H210002   1.695   2.305   1.917 -1.9699 -0.8381  0.5538
 3349TIP3   OH210003   5.960   6.802   2.439  0.2247  0.5363  0.6804
 3349TIP3    H110004   5.964   6.823   2.346  0.2980  0.9037  0.7655
 3349TIP3    H210005   5.878   6.842   2.469  1.1625  2.1381  1.1944
 3350TIP3   OH210006   0.626   1.628   3.922 -0.3404 -0.1352 -0.0361
 3350TIP3    H110007   0.562   1.601   3.855 -0.1564 -1.0167  0.1367
 3350TIP3    H210008   0.685   1.687   3.876  0.0285 -1.0525 -0.7734
 3351TIP3   OH210009   2.687   3.665   4.593 -0.0831  0.2746 -0.4224
 3351TIP3    H110010   2.653   3.727   4.658 -2.1558 -0.3102 -0.8860
 3351TIP3    H210011   2.622   3.668   4.522  0.3972 -1.5423 -0.9622
 3352TIP3   OH210012   4.845   7.899   2.404  0.2209  0.4617  0.1285
 3352TIP3    H110013   4.852   7.882   2.310 -0.1063 -2.1001  0.5294
 3352TIP3    H210014   4.751   7.911   2.418  0.4165  2.5018 -0.0954
 3353TIP3   OH210015   0.462   4.507   3.620  0.1171 -0.4700  0.2329
 3353TIP3    H110016   0.381   4.543   3.655  1.0610  1.3214  0.6419
 3353TIP3    H210017   0.454   4.412   3.632 -2.0147 -0.3249  0.0035
 3354TIP3   OH210018   8.056   4.070   1.350  0.8098 -0.3083  0.7357
 3354TIP3    H110019   7.997   4.003   1.316  1.9425 -0.2865 -1.3412
 3354TIP3    H210020   7.999   4.135   1.391 -0.6946  0.2673 -2.1728
 3355TIP3   OH210021   0.789   2.769   4.585 -0.1383  0.2383  0.0100
 3355TIP3    H110022   0.739   2.706   4.636  2.4116 -1.2850  0.7370
 3355TIP3    H210023   0.852   2.716   4.536 -0.1395  1.9725 -1.9225
 3356TIP3   OH210024   1.122   1.425   4.161  0.1857 -0.1800  0.3001
 3356TIP3    H110025   1.198   1.429   4.102 -0.2954  0.4266 -0.2849
 3356TIP3    H210026   1.049   1.457   4.108 -0.4858 -0.7659  0.8581
 3357TIP3   OH210027   0.971   3.238   3.270  0.0415 -0.6310 -0.5518
 3357TIP3    H110028   1.002   3.285   3.347  1.3229 -1.6450 -0.4462
 3357TIP3    H210029   0.951   3.150   3.301 -0.3694 -0.7618 -1.1736
 3358TIP3   OH210030   1.496   2.227   5.027  0.3008 -0.0992 -0.5575
 3358TIP3    H110031   1.505   2.309   5.075  1.2968  0.4228 -1.6220
 3358TIP3    H210032   1.483   2.253   4.936  0.8239 -1.1275 -0.9341
 3359TIP3   OH210033   0.751   3.190   3.067 -0.4580  0.7018 -0.1386
 3359TIP3    H110034   0.819   3.216   3.129  1.1438  0.4537 -1.7473
 3359TIP3    H210035   0.743   3.265   3.007 -0.8757  0.3305 -0.5554
 3360TIP3   OH210036   1.677   4.563   1.259  0.1079 -0.3709  0.6382
 3360TIP3    H110037   1.675   4.476   1.298  1.0751 -1.3056 -1.3416
 3360TIP3    H210038   1.586   4.592   1.261 -0.4028 -1.8997  0.3058
 3361TIP3   OH210039   2.795   4.898   1.525  0.1651 -0.0151 -0.5030
 3361TIP3    H110040   2.862   4.847   1.477 -0.6604 -2.8552  1.2449
 3361TIP3    H210041   2.715   4.886   1.474  0.4443  1.3942 -1.2880
 3362TIP3   OH210042   1.070   5.778   4.600  0.1105  0.7151  0.3284
 3362TIP3    H110043   1.073   5.815   4.688  0.5163 -2.7314  1.8485
 3362TIP3    H210044   1.159   5.787   4.566  0.1570  1.2899  0.6051
 3363TIP3   OH210045   2.630   3.349   3.259 -0.1770  0.0772 -0.0515
 3363TIP3    H110046   2.569   3.276   3.258  0.0524 -0.1022 -1.1234
 3363TIP3    H210047   2.675   3.345   3.175 -0.6510  1.8483 -0.4285
 3364TIP3   OH210048   2.401   2.543   3.490  0.2458  0.0235  0.1212
 3364TIP3    H110049   2.483   2.517   3.531  0.2709 -0.4315 -0.2161
 3364TIP3    H210050   2.411   2.636   3.474  0.9700 -0.1652 -0.5485
 3365TIP3   OH210051   2.578   2.752   1.875 -0.3513  0.4560 -0.1476
 3365TIP3    H110052   2.506   2.707   1.919 -0.7682  1.6305  0.3683
 3365TIP3    H210053   2.655   2.699   1.898 -0.8742 -0.1561  0.2377
 3366TIP3   OH210054   1.185   3.363   5.518  0.2923 -0.4949  0.0709
 3366TIP3    H110055   1.263   3.310   5.536 -0.2856 -1.5927 -0.6076
 3366TIP3    H210056   1.217   3.453   5.522  0.9850 -0.8129  2.6768
 3367TIP3   OH210057   0.520   5.467   4.864  0.1316 -0.1840 -0.0755
 3367TIP3    H110058   0.431   5.482   4.898 -0.3880 -2.2200 -0.4690
 3367TIP3    H210059   0.513   5.487   4.770 -0.6635 -3.0465 -0.6823
 3368TIP3   OH210060   1.366   4.969   4.692 -0.5022 -0.5293 -0.3063
 3368TIP3    H110061   1.275   4.955   4.665 -1.1141  1.9087  0.4133
 3368TIP3    H210062   1.361   5.037   4.759  1.9561  0.2489 -0.8897
 3369TIP3   OH210063   2.212   2.115   2.171  0.1069 -0.1656  0.3028
 3369TIP3    H110064   2.203   2.186   2.234  1.0592  0.4031 -0.1917
 3369TIP3    H210065   2.148   2.049   2.199 -2.5697  1.9201 -0.6583
 3370TIP3   OH210066   3.043   3.730   3.966  0.0392 -0.0331 -0.5254
 3370TIP3    H110067   3.053   3.823   3.987 -1.1759 -0.1181  0.4948
 3370TIP3    H210068   2.982   3.697   4.032  0.0524 -1.4421 -1.1989
 3371TIP3   OH210069   1.887   2.850   1.372 -0.4178 -0.4351 -0.4383
 3371TIP3    H110070   1.936   2.930   1.351 -1.3851  0.1186 -0.6048
 3371TIP3    H210071   1.953   2.781   1.370  0.7091  0.5473  1.1043
 3372TIP3   OH210072   3.304   3.873   1.646 -0.2046  0.2379 -0.0629
 3372TIP3    H110073   3.326   3.965   1.663  2.4959 -0.2180 -0.9742
 3372TIP3    H210074   3.305   3.832   1.733  1.2366  0.5046  0.0508
 3373TIP3   OH210075   1.614   1.985   4.275  0.8912 -0.3066  0.0943
 3373TIP3    H110076   1.573   1.948   4.197  1.8411 -0.2958 -0.4197
 3373TIP3    H210077   1.573   1.938   4.348  1.3498 -1.6513 -0.5002
 3374TIP3   OH210078   1.032   0.650   3.095  0.2159 -0.4660  0.7942
 3374TIP3    H110079   0.950   0.699   3.090 -0.1909 -1.0489  1.5328
 3374TIP3    H210080   1.086   0.685   3.025 -1.2208 -1.0990 -0.6528
 3375TIP3   OH210081   3.028   0.704   1.943 -0.2345  0.5476  0.1093
 3375TIP3    H110082   3.064   0.634   1.888 -0.1983  0.2701  0.4870
 3375TIP3    H210083   2.935   0.682   1.951 -0.0154 -0.0195  1.0845
 3376TIP3   OH210084   1.974   1.147   4.901 -0.0770  0.2651 -0.9743
 3376TIP3    H110085   1.965   1.062   4.944  0.6048  0.4683 -0.4182
 3376TIP3    H210086   1.976   1.126   4.807  1.7287 -0.5107 -0.7977
 3377TIP3   OH210087   1.689   2.957   1.546  0.9437 -0.2078 -0.3441
 3377TIP3    H110088   1.740   2.923   1.473  1.3334 -2.6308  0.9936
 3377TIP3    H210089   1.720   3.046   1.559  1.7029 -0.1740 -2.3647
 3378TIP3   OH210090   2.075   2.287   2.331 -0.1140 -0.7683 -0.1711
 3378TIP3    H110091   1.999   2.327   2.287 -0.4484 -1.4521 -0.2202
 3378TIP3    H210092   2.052   2.289   2.424  0.8978  1.3323  0.0758
 3379TIP3   OH210093   4.580   1.807   3.732  0.6495 -0.6417 -0.3818
 3379TIP3    H110094   4.566   1.901   3.736  2.0987 -0.4476  0.4698
 3379TIP3    H210095   4.646   1.789   3.799 -1.2780 -2.5948  1.0649
 3380TIP3   OH210096   1.344   2.386   3.941  0.0276 -0.1236  0.1674
 3380TIP3    H110097   1.415   2.393   4.004  1.6348 -1.2177 -1.4629
 3380TIP3    H210098   1.331   2.292   3.930  0.0172  0.0552 -1.4060
 3381TIP3   OH210099   3.215   6.514   2.250 -0.2134  0.6587 -0.0799
 3381TIP3    H110100   3.139   6.559   2.212 -0.8422  0.0567  0.4444
 3381TIP3    H210101   3.232   6.560   2.332 -1.1541 -0.3442  0.6876
 3382TIP3   OH210102   0.800   6.164   4.843 -0.2679 -0.3034  0.2133
 3382TIP3    H110103   0.785   6.154   4.748  1.8540  0.7996 -0.2674
 3382TIP3    H210104   0.712   6.171   4.880 -1.2146 -2.5390 -1.4521
 3383TIP3   OH210105   2.662   2.791   4.356  0.5147  1.0318  0.1536
 3383TIP3    H110106   2.584   2.838   4.326  0.6367  1.1920  0.0910
 3383TIP3    H210107   2.715   2.857   4.400  1.5400  1.3524 -1.5202
 3384TIP3   OH210108   3.516   1.424   3.550  0.1494 -0.5043  0.3332
 3384TIP3    H110109   3.429   1.456   3.573 -0.3842 -1.0827 -0.8041
 3384TIP3    H210110   3.562   1.415   3.633 -0.1882  1.7490  0.7756
 3385TIP3   OH210111   1.041   0.564   5.626 -0.3144 -0.3334  0.0754
 3385TIP3    H110112   1.003   0.498   5.684 -1.2643  1.1288  1.1352
 3385TIP3    H210113   0.981   0.638   5.632  0.0304  0.1527 -2.1350
 3386TIP3   OH210114   1.574   5.273   3.881 -0.4402 -0.9941  0.1623
 3386TIP3    H110115   1.625   5.247   3.804  2.8562 -1.4652  2.4265
 3386TIP3    H210116   1.539   5.192   3.916 -0.4505 -0.9801  0.1848
 3387TIP3   OH210117   4.586   3.013   2.701  0.3288  0.3916  0.4141
 3387TIP3    H110118   4.650   3.085   2.706  0.5862  0.2344 -0.4719
 3387TIP3    H210119   4.521   3.044   2.637  0.0218  0.1591  0.6129
 3388TIP3   OH210120   2.177   5.730   4.344 -0.1451 -0.2020  0.6609
 3388TIP3    H110121   2.254   5.734   4.400  0.4938 -0.5033 -0.1887
 3388TIP3    H210122   2.210   5.744   4.255 -1.4689  2.8143  0.5885
 3389TIP3   OH210123   6.883   5.156   2.746  0.7185 -0.2310  0.1193
 3389TIP3    H110124   6.869   5.223   2.813  0.2196  0.5924 -0.8008
 3389TIP3    H210125   6.795   5.125   2.724  0.8386 -0.0643 -0.6028
 3390TIP3   OH210126   2.413   3.935   2.968  0.5010  0.0415 -0.1799
 3390TIP3    H110127   2.343   3.962   2.907 -1.1697 -3.6743 -0.0482
 3390TIP3    H210128   2.485   3.909   2.911 -0.9863 -3.2376 -0.6718
 3391TIP3   OH210129   2.801   1.292   1.407 -0.1155  0.1354  0.0023
 3391TIP3    H110130   2.714   1.322   1.380  0.0383  1.4752  0.9533
 3391TIP3    H210131   2.832   1.239   1.334 -0.8784  1.3418 -1.2075
 3392TIP3   OH210132   1.737   4.926   3.141 -0.2415 -0.0169  0.0162
 3392TIP3    H110133   1.806   4.895   3.081  0.7234  1.4414  0.3364
 3392TIP3    H210134   1.657   4.920   3.089  0.6235  1.5255 -1.5622
 3393TIP3   OH210135   2.157   4.121   3.892  0.2260  0.3005 -0.0627
 3393TIP3    H110136   2.187   4.212   3.885  3.2639 -0.5934  0.3217
 3393TIP3    H210137   2.078   4.126   3.946 -0.1369  2.7752 -0.7393
 3394TIP3   OH210138   0.131   2.239   1.080 -0.6875  0.3423 -0.2053
 3394TIP3    H110139   0.053   2.291   1.101 -0.8720 -0.3898  0.9756
 3394TIP3    H210140   0.189   2.300   1.035 -0.7830  1.6374  1.4087
 3395TIP3   OH210141   0.489   4.811   1.355  0.3010  0.4548  0.6558
 3395TIP3    H110142   0.455   4.825   1.266 -0.1035 -0.8761  0.5955
 3395TIP3    H210143   0.577   4.848   1.353  0.9874 -1.1727 -0.8238
 3396TIP3   OH210144   1.531   3.555   2.973 -0.3127 -0.0001  0.1405
 3396TIP3    H110145   1.605   3.495   2.979 -0.7602 -0.5294  0.4089
 3396TIP3    H210146   1.541   3.613   3.049  0.3836  0.5809 -0.3808
 3397TIP3   OH210147   3.613   2.522   2.776  0.4194 -0.2537 -0.4466
 3397TIP3    H110148   3.550   2.592   2.755  0.9083 -0.1653 -1.6576
 3397TIP3    H210149   3.685   2.566   2.820  0.6924  0.0068 -1.1435
 3398TIP3   OH210150   1.046   4.154   2.537 -0.0174 -0.0325  0.0590
 3398TIP3    H110151   1.005   4.104   2.607  1.3739 -0.7021  0.4147
 3398TIP3    H210152   0.976   4.169   2.474 -0.7642 -1.3026  0.5723
 3399TIP3   OH210153   0.326   4.648   4.383 -0.4461  0.6684  0.1067
 3399TIP3    H110154   0.368   4.624   4.466 -1.2093  0.2359  0.3697
 3399TIP3    H210155   0.234   4.623   4.394 -0.3225 -0.5442 -1.3143
 3400TIP3   OH210156   1.533   4.496   2.620 -0.1246  0.2104 -0.1035
 3400TIP3    H110157   1.573   4.434   2.559  0.2578  0.6766 -0.3271
 3400TIP3    H210158   1.440   4.475   2.618  0.2786 -1.9217  1.5922
 3401TIP3   OH210159   2.236   5.726   4.701  0.1482  0.0932 -0.0013
 3401TIP3    H110160   2.266   5.804   4.654 -0.4250  0.4380  0.2120
 3401TIP3    H210161   2.304   5.661   4.683  1.7293  1.2567  1.5644
 3402TIP3   OH210162   2.136   1.839   2.457  0.4015 -0.7889 -0.9063
 3402TIP3    H110163   2.159   1.821   2.366 -0.4763 -0.3010 -1.2261
 3402TIP3    H210164   2.181   1.771   2.507  0.8778 -1.0604 -1.7063
 3403TIP3   OH210165   1.848   5.367   3.346  0.2204 -0.3588 -0.8211
 3403TIP3    H110166   1.801   5.399   3.423  1.3606 -0.1382 -0.2087
 3403TIP3    H210167   1.789   5.301   3.308 -0.6997  0.0999 -0.2269
 3404TIP3   OH210168   2.217   3.913   4.533 -0.8238 -0.1019 -0.8138
 3404TIP3    H110169   2.220   3.922   4.628 -0.5612 -0.2448 -0.8077
 3404TIP3    H210170   2.293   3.961   4.502 -0.9043 -0.0636 -0.9503
 3405TIP3   OH210171   1.848   3.278   3.976 -0.3946 -0.2683 -0.4227
 3405TIP3    H110172   1.866   3.281   3.882  0.3121  1.7185 -0.2519
 3405TIP3    H210173   1.788   3.351   3.991  0.3260  0.0768  0.8372
 3406TIP3   OH210174   2.433   2.926   4.248  0.1854 -0.0702  0.2776
 3406TIP3    H110175   2.351   2.967   4.276 -0.1157  0.9532 -1.9624
 3406TIP3    H210176   2.405   2.852   4.193  0.7646 -1.5272  1.8807
 3407TIP3   OH210177   2.893   5.354   2.783  0.4161  0.7547 -0.1237
 3407TIP3    H110178   2.872   5.310   2.865 -0.1526  0.6469 -0.3235
 3407TIP3    H210179   2.882   5.447   2.802  0.6008  0.7461  0.0145
 3408TIP3   OH210180   2.807   6.299   3.120  0.1762  0.4859 -0.2846
 3408TIP3    H110181   2.740   6.358   3.155  1.1663  0.6834  1.3348
 3408TIP3    H210182   2.798   6.219   3.171 -1.1472 -0.7982 -2.4660
 3409TIP3   OH210183   2.120   3.451   2.691  0.3745  0.2099 -0.3340
 3409TIP3    H110184   2.156   3.395   2.623 -2.2099 -0.4771 -1.1974
 3409TIP3    H210185   2.127   3.540   2.656  0.1749 -0.0331 -0.9866
 3410TIP3   OH210186   0.325   4.023   2.703  0.0309 -0.2159 -0.1254
 3410TIP3    H110187   0.250   4.075   2.733 -0.3843 -0.5989 -0.5034
 3410TIP3    H210188   0.355   4.068   2.624  0.8605  0.5462  0.6111
 3411TIP3   OH210189   1.192   4.334   3.962  0.5662 -0.0004 -0.0775
 3411TIP3    H110190   1.150   4.250   3.978 -0.4263  0.2690 -1.1894
 3411TIP3    H210191   1.120   4.394   3.942  1.1613  1.3978  1.8323
 3412TIP3   OH210192   8.327   3.037   3.958  0.3408  0.2929  0.8495
 3412TIP3    H110193   8.274   2.962   3.984  0.2012  0.4359  0.9779
 3412TIP3    H210194   8.411   3.000   3.932  0.5682  0.1757  1.7362
 3413TIP3   OH210195   2.360   2.554   4.367  0.0992  0.4758 -0.3494
 3413TIP3    H110196   2.445   2.513   4.381  0.0644  0.1381 -1.1377
 3413TIP3    H210197   2.296   2.484   4.382 -0.0558  0.7971  0.5202
 3414TIP3   OH210198   2.282   3.577   2.173  0.7506  0.5697 -0.7017
 3414TIP3    H110199   2.284   3.515   2.246  3.1964  1.9768  0.5215
 3414TIP3    H210200   2.217   3.542   2.113  0.7740 -2.1912  0.7928
 3415TIP3   OH210201   1.486   2.439   4.824  0.1127 -0.2279 -0.0562
 3415TIP3    H110202   1.494   2.508   4.758 -1.1369  1.4789  1.5198
 3415TIP3    H210203   1.401   2.400   4.807  0.6747 -1.1900 -0.7316
 3416TIP3   OH210204   8.120   1.560   1.713 -0.6909  0.3722 -0.1901
 3416TIP3    H110205   8.101   1.467   1.722 -2.7479  0.7083 -0.7070
 3416TIP3    H210206   8.121   1.593   1.802  2.0948 -0.4973  0.1364
 3417TIP3   OH210207   8.181   1.300   4.093  0.1284 -0.1191  0.3554
 3417TIP3    H110208   8.218   1.220   4.130  0.2300  0.2364  1.0328
 3417TIP3    H210209   8.189   1.289   3.999  0.2477 -0.8582  0.4510
 3418TIP3   OH210210   1.879   2.047   3.109 -0.1417  0.1580  0.0855
 3418TIP3    H110211   1.863   2.139   3.132  0.3436  0.4661 -0.7738
 3418TIP3    H210212   1.799   2.020   3.064 -0.3041  0.1532  0.3818
 3419TIP3   OH210213   2.428   1.792   2.034 -0.5391  0.2882 -0.2322
 3419TIP3    H110214   2.390   1.864   1.984 -0.5459 -0.1446 -0.8566
 3419TIP3    H210215   2.468   1.735   1.968  1.5553  0.9400  0.4378
 3420TIP3   OH210216   2.091   3.069   1.974 -0.0445 -0.1343 -0.2196
 3420TIP3    H110217   2.141   3.131   1.921 -1.2561  0.7879 -0.3141
 3420TIP3    H210218   2.037   3.124   2.032 -0.5623 -1.1014  0.2438
 3421TIP3   OH210219   1.445   4.493   1.088  0.0763 -0.2675 -0.0606
 3421TIP3    H110220   1.410   4.480   1.176  1.4272  1.6285  0.8086
 3421TIP3    H210221   1.398   4.569   1.054  0.8414  0.1302 -0.2499
 3422TIP3   OH210222   1.604   2.012   3.021 -0.0612  0.1524  0.0620
 3422TIP3    H110223   1.558   1.931   2.998 -0.7683  0.4862  0.2832
 3422TIP3    H210224   1.534   2.075   3.038  0.4857  0.7834 -0.0070
 3423TIP3   OH210225   0.147   3.376   4.361  0.0512 -0.1708 -0.1215
 3423TIP3    H110226   0.177   3.298   4.313 -0.5319 -0.0247 -0.7316
 3423TIP3    H210227   0.081   3.342   4.422  1.6003 -0.5251  1.3743
 3424TIP3   OH210228   1.522   1.266   3.398 -0.0003  0.0170 -0.1557
 3424TIP3    H110229   1.577   1.188   3.400  1.1271  0.7712 -0.9188
 3424TIP3    H210230   1.521   1.296   3.489 -1.2158 -1.4007  0.3153
 3425TIP3   OH210231   0.882   3.947   2.638 -0.0157 -0.8093  0.5122
 3425TIP3    H110232   0.912   3.861   2.666 -1.4317 -1.2461  0.7259
 3425TIP3    H210233   0.843   3.932   2.552 -2.5164 -0.8700  1.5999
 3426TIP3   OH210234   4.785   7.471   0.532 -0.2064 -0.1195  0.7065
 3426TIP3    H110235   4.733   7.397   0.500 -1.3178  1.1989 -0.6068
 3426TIP3    H210236   4.876   7.447   0.514 -0.5083 -1.4303  0.8926
 3427TIP3   OH210237   1.794   5.415   4.491 -0.9450 -0.1035  0.1864
 3427TIP3    H110238   1.874   5.466   4.502 -0.2689 -0.9363 -0.8046
 3427TIP3    H210239   1.736   5.447   4.560  0.4688  0.0437  1.3338
 3428TIP3   OH210240   3.630   3.279   2.987 -0.3104 -0.2519 -0.8018
 3428TIP3    H110241   3.696   3.230   3.038 -1.7077 -1.8958 -0.5490
 3428TIP3    H210242   3.619   3.360   3.036 -0.0214 -0.8788  0.3356
 3429TIP3   OH210243   2.174   1.287   3.592  0.2612 -0.1011  0.3408
 3429TIP3    H110244   2.148   1.221   3.657  0.7273 -0.2589  0.3666
 3429TIP3    H210245   2.216   1.356   3.644  0.7275 -0.2747  0.1957
 3430TIP3   OH210246   2.202   3.141   3.923  0.1646 -0.1433  0.5976
 3430TIP3    H110247   2.158   3.210   3.973  0.2617 -0.6068  1.3169
 3430TIP3    H210248   2.283   3.183   3.892 -0.8713  0.7894 -0.9422
 3431TIP3   OH210249   1.827   2.617   3.316 -0.1566 -0.5063  0.3449
 3431TIP3    H110250   1.827   2.554   3.388 -0.7159 -0.6172  0.2505
 3431TIP3    H210251   1.907   2.597   3.267 -0.3055 -1.1100  0.3405
 3432TIP3   OH210252   1.211   3.566   1.774  0.1492  0.2323 -0.0010
 3432TIP3    H110253   1.287   3.587   1.720 -0.1258 -0.8711 -0.8531
 3432TIP3    H210254   1.239   3.491   1.827 -0.5458 -0.6465 -0.8371
 3433TIP3   OH210255   3.259   2.683   3.282 -0.2383 -0.1820  0.5198
 3433TIP3    H110256   3.185   2.626   3.301  0.1434 -1.0245 -0.4690
 3433TIP3    H210257   3.284   2.661   3.192  0.5216  0.8645  0.4597
 3434TIP3   OH210258   1.944   5.001   3.488 -0.1260  0.5717  0.2267
 3434TIP3    H110259   1.975   5.072   3.543 -1.3847  1.5093 -0.2509
 3434TIP3    H210260   1.986   5.017   3.403  1.1336 -0.3804  0.6638
 3435TIP3   OH210261   1.680   1.972   6.273  0.1069  0.5520  0.0028
 3435TIP3    H110262   1.705   1.897   6.219  1.3562  0.4875  0.6576
 3435TIP3    H210263   1.672   1.936   6.362  2.1226  1.4726  0.5739
 3436TIP3   OH210264   3.262   2.627   3.571 -0.2433  0.1223  0.3530
 3436TIP3    H110265   3.275   2.555   3.633  2.8060 -0.5053 -0.9747
 3436TIP3    H210266   3.281   2.590   3.485  0.4601  2.2598 -0.4610
 3437TIP3   OH210267   1.449   1.275   4.028 -0.4024 -0.1732 -0.0749
 3437TIP3    H110268   1.396   1.352   4.012 -0.9609 -0.1356  1.8607
 3437TIP3    H210269   1.397   1.202   3.992 -0.9509  0.0793  0.1975
 3438TIP3   OH210270   1.615   2.129   2.176  0.0471 -0.4289  0.1060
 3438TIP3    H110271   1.687   2.192   2.179  0.9914 -1.4491 -0.5640
 3438TIP3    H210272   1.647   2.054   2.226 -0.6507 -0.7799  0.0225
 3439TIP3   OH210273   0.812   4.291   4.224 -0.0143 -0.1303 -0.2459
 3439TIP3    H110274   0.767   4.334   4.297 -1.0364  0.9079 -1.4572
 3439TIP3    H210275   0.858   4.362   4.179 -1.5043 -0.3165 -2.1239
 3440TIP3   OH210276   2.735   2.003   1.679 -0.1619 -0.0058  0.1825
 3440TIP3    H110277   2.752   2.046   1.763  0.9084  0.3612 -0.2117
 3440TIP3    H210278   2.645   2.027   1.658 -0.2228  0.4301  0.9186
 3441TIP3   OH210279   3.480   1.696   4.674 -0.7642 -0.1205  0.3122
 3441TIP3    H110280   3.528   1.705   4.592  1.9676 -0.7140  1.7766
 3441TIP3    H210281   3.492   1.781   4.718 -2.2980  0.2326  0.0579
 3442TIP3   OH210282   2.062   2.673   4.150 -0.5886  0.5679  0.9899
 3442TIP3    H110283   2.026   2.670   4.239  0.4773  1.3052  1.4520
 3442TIP3    H210284   1.995   2.718   4.100 -0.4644  1.6760  1.7917
 3443TIP3   OH210285   0.103   3.211   5.505 -0.7863  0.3170  0.2250
 3443TIP3    H110286   0.140   3.297   5.525 -0.8923  0.3619  0.2236
 3443TIP3    H210287   0.179   3.153   5.505 -0.4612  0.6979 -1.4422
 3444TIP3   OH210288   0.554   4.051   2.099 -0.2758 -0.1782 -0.3109
 3444TIP3    H110289   0.584   3.992   2.030 -0.4875  1.0644 -1.5083
 3444TIP3    H210290   0.585   4.138   2.072 -0.4043  0.3402  1.1429
 3445TIP3   OH210291   0.872   3.815   5.327 -0.3424 -0.2782  0.1559
 3445TIP3    H110292   0.925   3.877   5.276 -0.3117  0.1209  0.6747
 3445TIP3    H210293   0.908   3.729   5.305  0.3569 -0.0249  0.3202
 3446TIP3   OH210294   1.699   4.958   3.868 -0.1113  0.2463  0.5472
 3446TIP3    H110295   1.766   4.958   3.937  0.7952  0.4384 -0.3123
 3446TIP3    H210296   1.619   4.931   3.912 -0.1421  2.9710  2.2205
 3447TIP3   OH210297   1.846   4.253   4.443  1.0667 -0.0748 -0.5100
 3447TIP3    H110298   1.838   4.247   4.539  0.3138  0.0129 -0.5655
 3447TIP3    H210299   1.778   4.315   4.417  1.5526  0.2370 -1.0656
 3448TIP3   OH210300   1.274   4.690   2.913 -0.2359  0.2898 -0.0797
 3448TIP3    H110301   1.199   4.743   2.939 -0.3619 -0.5149  1.2774
 3448TIP3    H210302   1.319   4.742   2.846 -0.9351  1.6297  0.4738
 3449TIP3   OH210303   2.321   4.644   2.557 -0.2059  0.5186  0.0258
 3449TIP3    H110304   2.406   4.681   2.582 -0.2524  0.7032 -0.0819
 3449TIP3    H210305   2.310   4.569   2.615 -0.4375  1.0980  0.7549
 3450TIP3   OH210306   3.867   5.278   1.902  0.1063 -0.2085  0.1146
 3450TIP3    H110307   3.918   5.197   1.908 -2.2178 -2.0867 -3.6672
 3450TIP3    H210308   3.909   5.328   1.833  0.0747  0.7146  0.7619
 3451TIP3   OH210309   3.279   2.098   3.325 -0.0020 -0.4359 -0.1495
 3451TIP3    H110310   3.322   2.104   3.240  1.0052 -0.3398  0.3609
 3451TIP3    H210311   3.338   2.143   3.386  0.9632 -3.4138  1.2176
 3452TIP3   OH210312   1.384   4.254   2.867 -0.0512  0.0745 -0.1202
 3452TIP3    H110313   1.315   4.248   2.933 -1.0470  0.8796 -1.0684
 3452TIP3    H210314   1.339   4.239   2.784  1.3643 -1.9688 -0.5538
 3453TIP3   OH210315   7.938   1.429   2.795 -0.7154 -0.2048 -0.2821
 3453TIP3    H110316   7.973   1.471   2.873  1.3880 -0.2210 -1.1972
 3453TIP3    H210317   7.983   1.472   2.722 -1.8831 -0.9139 -1.4472
 3454TIP3   OH210318   1.594   4.347   4.407 -0.0538  0.1227 -0.2093
 3454TIP3    H110319   1.572   4.293   4.482 -0.2550 -1.5890 -1.4744
 3454TIP3    H210320   1.526   4.415   4.406 -0.0310  0.1670  1.1488
 3455TIP3   OH210321   1.620   5.743   4.915  0.1544  0.8255  0.4721
 3455TIP3    H110322   1.611   5.675   4.981  0.8086  0.5724  0.3010
 3455TIP3    H210323   1.681   5.707   4.851 -0.9987  0.7980 -0.6210
 3456TIP3   OH210324   2.482   4.515   3.796 -0.1751  0.3665 -0.3261
 3456TIP3    H110325   2.537   4.531   3.720 -0.1223  1.9409  0.0401
 3456TIP3    H210326   2.544   4.510   3.870 -0.1507 -1.8644 -0.4554
 3457TIP3   OH210327   2.573   4.346   3.242  0.0198  0.0784 -0.5521
 3457TIP3    H110328   2.560   4.441   3.233  1.1373  0.3052  0.1276
 3457TIP3    H210329   2.568   4.313   3.152 -2.8418  0.4313 -0.5728
 3458TIP3   OH210330   1.628   1.880   3.651 -0.7162 -0.3006  0.0481
 3458TIP3    H110331   1.623   1.941   3.724 -0.6327  1.7222 -1.5723
 3458TIP3    H210332   1.709   1.903   3.606 -1.4329 -0.5916 -1.4381
 3459TIP3   OH210333   2.383   3.642   4.475  0.5038 -0.3910  0.0537
 3459TIP3    H110334   2.325   3.588   4.529  1.8497 -0.7454  1.1856
 3459TIP3    H210335   2.380   3.728   4.516  0.8198 -0.4220  0.1401
 3460TIP3   OH210336   1.807   4.206   3.237  0.2075 -0.1399  0.2665
 3460TIP3    H110337   1.867   4.249   3.176  0.5940 -1.4861 -0.3405
 3460TIP3    H210338   1.855   4.201   3.319  0.6404 -0.4973 -0.0030
 3461TIP3   OH210339   2.019   2.661   3.119  0.0090  0.3086 -0.3931
 3461TIP3    H110340   1.981   2.721   3.055 -1.6853  0.7216  0.9393
 3461TIP3    H210341   2.108   2.644   3.087 -0.1918  1.9026 -1.8787
 3462TIP3   OH210342   1.381   3.268   0.424  0.4032  0.7613  0.1374
 3462TIP3    H110343   1.378   3.222   0.508 -1.3010  1.3859  0.4317
 3462TIP3    H210344   1.384   3.197   0.359  1.1173  0.2711  0.6946
 3463TIP3   OH210345   0.403   2.129   3.491 -0.4843 -0.1461 -0.0490
 3463TIP3    H110346   0.356   2.170   3.564 -0.2539  2.1986 -1.1587
 3463TIP3    H210347   0.409   2.037   3.516 -0.2460  0.6108  2.9746
 3464TIP3   OH210348   1.688   3.870   2.605 -0.1848  0.3035 -0.3336
 3464TIP3    H110349   1.665   3.954   2.644  1.6963  0.6937  0.0249
 3464TIP3    H210350   1.641   3.805   2.656 -1.4377  1.1074 -0.4352
 3465TIP3   OH210351   1.241   3.781   1.985  0.2518 -0.7256  0.3126
 3465TIP3    H110352   1.253   3.735   1.902  0.4678  2.0559 -1.2372
 3465TIP3    H210353   1.166   3.737   2.026  0.0863 -2.0554 -1.3640
 3466TIP3   OH210354   1.377   3.584   1.232  0.4413  0.3747  0.2821
 3466TIP3    H110355   1.357   3.596   1.140  0.0196  1.4674  0.5149
 3466TIP3    H210356   1.315   3.517   1.262  2.3109 -1.9320 -0.8302
 3467TIP3   OH210357   3.875   2.143   2.631 -0.2338 -0.5515  0.2550
 3467TIP3    H110358   3.882   2.226   2.584  1.4682 -1.0398 -0.4022
 3467TIP3    H210359   3.837   2.082   2.568  0.2448 -0.7173  0.1186
 3468TIP3   OH210360   1.588   2.797   0.435 -0.0426 -0.2656  0.2182
 3468TIP3    H110361   1.653   2.868   0.441  0.4612 -0.8171  1.6282
 3468TIP3    H210362   1.638   2.722   0.404 -0.6143  0.0309 -1.4496
 3469TIP3   OH210363   0.197   4.611   4.108  0.7924  0.3106 -0.3492
 3469TIP3    H110364   0.144   4.541   4.069  0.1145  1.1014 -0.8448
 3469TIP3    H210365   0.145   4.641   4.183  1.7553 -0.7067  0.7522
 3470TIP3   OH210366   3.001   3.480   4.103  0.1455  0.0842  0.1983
 3470TIP3    H110367   2.925   3.481   4.163 -1.7530 -1.0804 -2.1196
 3470TIP3    H210368   3.073   3.450   4.157 -1.0126  1.2431  2.4909
 3471TIP3   OH210369   1.557   4.156   4.588 -0.3835  0.5344  0.0375
 3471TIP3    H110370   1.574   4.087   4.524 -1.4103  0.3193 -0.0005
 3471TIP3    H210371   1.627   4.145   4.653 -0.1485 -0.1176 -0.3142
 3472TIP3   OH210372   3.374   3.488   3.284 -0.2859 -0.4868 -0.3590
 3472TIP3    H110373   3.354   3.536   3.365 -1.0665  0.9050 -1.3444
 3472TIP3    H210374   3.376   3.396   3.310 -0.0783 -0.0174  1.3292
 3473TIP3   OH210375   1.387   3.519   4.201  0.0909 -0.6008  0.3396
 3473TIP3    H110376   1.482   3.525   4.214  0.0892  0.9910 -0.2361
 3473TIP3    H210377   1.376   3.447   4.139  0.8389 -1.4984  1.2379
 3474TIP3   OH210378   1.658   3.984   1.513  0.1591 -0.3972  0.4142
 3474TIP3    H110379   1.567   3.999   1.539  0.5270  2.0669  0.3952
 3474TIP3    H210380   1.657   3.991   1.417  0.3246 -0.6434  0.3935
 3475TIP3   OH210381   1.428   2.189   1.972  0.5047 -0.4746  0.0789
 3475TIP3    H110382   1.506   2.173   2.025 -0.3906 -0.7450  1.3529
 3475TIP3    H210383   1.356   2.159   2.027 -0.5327  0.2510 -0.8729
 3476TIP3   OH210384   2.600   4.330   1.280  0.2800  0.3373 -0.4776
 3476TIP3    H110385   2.597   4.365   1.191  0.2827 -0.8082 -0.9417
 3476TIP3    H210386   2.536   4.259   1.280 -2.6075  2.8066  1.5710
 3477TIP3   OH210387   3.828   7.648   6.796  0.0890  0.6886  0.0243
 3477TIP3    H110388   3.883   7.577   6.830 -0.5585  0.3309  0.3113
 3477TIP3    H210389   3.740   7.628   6.827 -0.1878  1.3337 -0.3407
 3478TIP3   OH210390   1.922   3.802   1.294 -0.0582  0.5123 -0.6359
 3478TIP3    H110391   1.902   3.727   1.238  0.5649  0.0880 -0.2886
 3478TIP3    H210392   2.015   3.794   1.313 -0.6934 -0.5036  2.1848
 3479TIP3   OH210393   2.916   2.157   4.994  0.4609  0.0943 -0.2477
 3479TIP3    H110394   2.852   2.142   5.064  1.2800 -1.5751  0.1708
 3479TIP3    H210395   2.896   2.089   4.929  1.2228  0.1587 -0.5456
 3480TIP3   OH210396   0.253   4.747   2.945  0.2386  0.2003  0.4761
 3480TIP3    H110397   0.245   4.832   2.988 -2.0163  0.8706 -1.2100
 3480TIP3    H210398   0.343   4.745   2.912  1.1673  0.7699  2.8351
 3481TIP3   OH210399   1.569   3.653   4.544  0.1820  0.6356  0.2295
 3481TIP3    H110400   1.543   3.691   4.627 -0.7991 -0.5644  0.4773
 3481TIP3    H210401   1.487   3.630   4.500  0.7188  0.2088 -0.5751
 3482TIP3   OH210402   7.216   5.859   3.452  0.0578  0.3176  0.3955
 3482TIP3    H110403   7.258   5.920   3.512 -0.3758 -0.0081  1.0408
 3482TIP3    H210404   7.124   5.858   3.479 -0.0030 -0.3704  0.1929
 3483TIP3   OH210405   2.862   2.923   1.135 -0.1187 -0.3544  0.1341
 3483TIP3    H110406   2.809   2.994   1.098  0.2836  0.9398  1.9506
 3483TIP3    H210407   2.852   2.932   1.229 -0.0896 -2.7765  0.4078
 3484TIP3   OH210408   7.958   4.666   5.904 -0.2681 -0.3712  0.0620
 3484TIP3    H110409   8.042   4.676   5.859 -0.9255 -0.2095 -1.1193
 3484TIP3    H210410   7.938   4.753   5.936 -0.8131 -0.0554 -1.1220
 3485TIP3   OH210411   1.093   4.925   1.234 -0.0418 -0.1949  0.2393
 3485TIP3    H110412   1.097   4.912   1.139 -0.6336  1.0087  0.0391
 3485TIP3    H210413   1.071   4.838   1.269 -0.0930 -0.5870 -0.7498
 3486TIP3   OH210414   1.779   2.075   3.922 -0.1854 -0.4132 -0.4081
 3486TIP3    H110415   1.773   1.984   3.952 -2.0242 -0.6451 -1.3991
 3486TIP3    H210416   1.729   2.125   3.986  0.1293 -0.2132 -0.3203
 3487TIP3   OH210417   0.013   1.990   2.682  0.6280  0.2577  0.3708
 3487TIP3    H110418   0.092   1.961   2.728  0.8699 -0.1268 -0.2807
 3487TIP3    H210419   0.030   2.082   2.660  1.2359 -0.0635 -0.5016
 3488TIP3   OH210420   2.650   3.190   4.938 -0.0223 -0.7165 -0.0757
 3488TIP3    H110421   2.698   3.254   4.884 -1.0757  2.0941  2.1852
 3488TIP3    H210422   2.560   3.222   4.939 -0.7472 -2.7331  0.4002
 3489TIP3   OH210423   0.981   3.221   4.288 -0.1632 -0.0465  0.5710
 3489TIP3    H110424   0.894   3.220   4.329 -0.5419  1.2729 -0.1535
 3489TIP3    H210425   0.963   3.246   4.197  1.2241  3.0261  1.0897
 3490TIP3   OH210426   2.307   4.778   3.793 -0.0074  0.5370  0.8225
 3490TIP3    H110427   2.309   4.741   3.882 -2.2970 -0.4938  0.4647
 3490TIP3    H210428   2.217   4.805   3.780  0.2403  0.3745 -1.3363
 3491TIP3   OH210429   1.129   5.436   4.510  0.4573  0.0689 -0.1433
 3491TIP3    H110430   1.126   5.523   4.469 -0.4350  0.4635  0.7238
 3491TIP3    H210431   1.037   5.416   4.529  0.7434 -0.6860  0.4543
 3492TIP3   OH210432   0.791   3.601   1.918  0.6349 -0.5281  0.3518
 3492TIP3    H110433   0.862   3.551   1.956 -0.1334 -1.2026  0.9269
 3492TIP3    H210434   0.711   3.555   1.946 -0.0391  0.4333  0.0498
 3493TIP3   OH210435   1.866   2.883   2.956  0.0495 -0.0496  0.2156
 3493TIP3    H110436   1.815   2.869   2.876  0.1683 -1.6080  0.4064
 3493TIP3    H210437   1.802   2.874   3.026  0.1818  0.1433  0.3617
 3494TIP3   OH210438   6.818   2.884   2.402  0.2926 -0.4115 -0.7493
 3494TIP3    H110439   6.766   2.815   2.361  1.2594 -0.7391 -1.4484
 3494TIP3    H210440   6.903   2.843   2.420  0.9871  0.6740 -1.4731
 3495TIP3   OH210441   5.136   1.536   3.996  0.2701 -0.4381  0.0225
 3495TIP3    H110442   5.183   1.593   3.936  0.9930 -0.4401  0.5761
 3495TIP3    H210443   5.044   1.547   3.973  0.4764  0.2196 -0.5035
 3496TIP3   OH210444   2.319   1.948   1.291 -0.2409 -0.0852 -0.7391
 3496TIP3    H110445   2.248   1.952   1.226 -0.2801 -0.7139 -0.7375
 3496TIP3    H210446   2.278   1.913   1.370 -0.2175  0.7917 -0.3330
 3497TIP3   OH210447   1.600   4.343   5.087 -0.1668  0.4802  0.2063
 3497TIP3    H110448   1.598   4.435   5.061 -1.9254  0.6294  0.7902
 3497TIP3    H210449   1.689   4.314   5.067  0.5777  2.4601  0.5581
 3498TIP3   OH210450   0.975   4.553   3.951 -0.2323  0.6475  0.2614
 3498TIP3    H110451   1.033   4.622   3.921 -1.4939  2.1607  1.2033
 3498TIP3    H210452   0.937   4.516   3.871  0.6858  0.8433 -0.2624
 3499TIP3   OH210453   1.960   5.447   4.023 -0.3990 -0.1251  0.3750
 3499TIP3    H110454   2.052   5.451   3.998 -0.4046  2.0441  0.5962
 3499TIP3    H210455   1.936   5.355   4.013  0.5856  0.0020 -4.1026
 3500TIP3   OH210456   3.252   3.632   2.778 -0.1632  0.0098  0.4961
 3500TIP3    H110457   3.292   3.715   2.805 -0.0949  0.3254 -0.5368
 3500TIP3    H210458   3.230   3.588   2.860  0.8969  0.5163  1.0580
 3501TIP3   OH210459   2.792   3.556   2.913 -0.2446  0.5702  0.2154
 3501TIP3    H110460   2.867   3.585   2.965 -0.7391 -0.0061  1.2686
 3501TIP3    H210461   2.718   3.560   2.974 -0.6602 -1.0179 -0.1604
 3502TIP3   OH210462   1.801   1.848   5.929 -0.4912  0.0362  0.0757
 3502TIP3    H110463   1.728   1.908   5.941  1.2910  1.8681  2.3267
 3502TIP3    H210464   1.796   1.788   6.004  0.8275  0.7689  0.7735
 3503TIP3   OH210465   1.585   0.435   0.040 -0.1387 -0.1887  0.2263
 3503TIP3    H110466   1.587   0.340   0.048  1.1303 -0.2112 -0.3268
 3503TIP3    H210467   1.655   0.466   0.098 -1.1050  0.4684  1.0783
 3504TIP3   OH210468   4.197   1.960   3.763  0.1640 -0.1292  0.1442
 3504TIP3    H110469   4.157   2.012   3.832  1.5340  0.8485  0.2304
 3504TIP3    H210470   4.267   1.911   3.806  0.8748  0.3078 -0.4812
 3505TIP3   OH210471   8.021   2.437   2.879  0.3691 -0.2282 -0.1668
 3505TIP3    H110472   7.940   2.401   2.915  0.5126 -1.3768 -0.9861
 3505TIP3    H210473   8.006   2.439   2.785  0.3935  1.8037 -0.1540
 3506TIP3   OH210474   3.861   2.390   4.516 -0.2359  0.4789  0.0945
 3506TIP3    H110475   3.800   2.425   4.452 -2.3071 -0.2472  1.6239
 3506TIP3    H210476   3.926   2.342   4.464 -0.7030  1.6155 -1.5732
 3507TIP3   OH210477   1.743   2.465   4.322  0.3016  0.0608 -0.7766
 3507TIP3    H110478   1.821   2.517   4.344  0.5378 -0.7064  0.2328
 3507TIP3    H210479   1.715   2.427   4.405 -1.0261  0.1464 -1.1773
 3508TIP3   OH210480   8.224   2.508   2.068  0.1651 -0.2702 -0.1400
 3508TIP3    H110481   8.300   2.478   2.118  0.0341 -1.4373 -0.6173
 3508TIP3    H210482   8.251   2.592   2.032  1.4473 -0.9351 -0.7787
 3509TIP3   OH210483   2.781   3.376   4.763 -0.2563  0.0448 -0.2370
 3509TIP3    H110484   2.804   3.419   4.681  2.0695 -0.6691  0.0182
 3509TIP3    H210485   2.797   3.443   4.830 -1.9830  0.5680 -0.3104
 3510TIP3   OH210486   8.478   4.325   3.405  0.2086 -0.0392 -0.2885
 3510TIP3    H110487   8.520   4.293   3.484 -2.5372 -0.3632  1.1014
 3510TIP3    H210488   8.466   4.247   3.350 -0.0388 -0.2100  0.0086
 3511TIP3   OH210489   3.773   2.879   1.648 -0.1924  0.0070  0.2332
 3511TIP3    H110490   3.855   2.891   1.601 -0.0026 -0.5778  0.4069
 3511TIP3    H210491   3.762   2.784   1.653 -0.3421  0.0673  1.1331
 3512TIP3   OH210492   1.355   2.513   3.236  0.4791  0.3362 -0.0949
 3512TIP3    H110493   1.328   2.421   3.231 -1.1170  0.7515  0.5262
 3512TIP3    H210494   1.361   2.530   3.330  0.5376  0.9261 -0.2080
 3513TIP3   OH210495   1.570   2.089   2.582  0.0971  0.4044 -0.1268
 3513TIP3    H110496   1.620   2.053   2.655  1.5775  0.1892 -1.2370
 3513TIP3    H210497   1.595   2.181   2.578  1.1719  0.0798 -1.2864
 3514TIP3   OH210498   1.747   3.931   3.359  0.0471  0.1109  0.1450
 3514TIP3    H110499   1.736   4.021   3.329 -0.4253  0.5380  1.5367
 3514TIP3    H210500   1.799   3.939   3.439  0.3310 -0.8896  0.0669
 3515TIP3   OH210501   3.726   4.872   2.423 -0.1660  0.1963  0.1850
 3515TIP3    H110502   3.677   4.904   2.348  1.2089  1.8525 -0.0279
 3515TIP3    H210503   3.710   4.936   2.492  1.2754  0.4684  0.2716
 3516TIP3   OH210504   3.675   2.438   2.528  0.3453  0.4246 -0.3029
 3516TIP3    H110505   3.640   2.464   2.614  0.3916  0.0784 -0.1777
 3516TIP3    H210506   3.770   2.431   2.543  0.1992 -1.1023  0.0092
 3517TIP3   OH210507   1.279   4.904   2.240 -0.4103 -0.1517  0.2266
 3517TIP3    H110508   1.317   4.864   2.162  0.1365  0.7695  0.0216
 3517TIP3    H210509   1.195   4.939   2.211  0.1005  0.8060 -0.1222
 3518TIP3   OH210510   2.227   1.587   1.674 -0.0966 -0.0421  0.2162
 3518TIP3    H110511   2.303   1.587   1.732  0.3395 -1.8142 -0.2999
 3518TIP3    H210512   2.202   1.494   1.669 -1.9556  0.4703 -0.0473
 3519TIP3   OH210513   2.582   3.931   2.260  0.5725 -0.2102 -0.0862
 3519TIP3    H110514   2.604   3.859   2.200 -2.0832  1.3315 -3.0296
 3519TIP3    H210515   2.512   3.895   2.316  0.3996 -0.4471 -0.4529
 3520TIP3   OH210516   2.411   3.015   2.688  0.2143 -0.2178  0.2224
 3520TIP3    H110517   2.396   2.922   2.673 -1.7614  0.3878 -1.7999
 3520TIP3    H210518   2.496   3.032   2.646 -0.3756 -0.7139 -1.2094
 3521TIP3   OH210519   2.407   5.108   2.986 -0.4641  0.1468 -0.6108
 3521TIP3    H110520   2.495   5.094   2.952 -1.1981  0.4019 -2.6328
 3521TIP3    H210521   2.375   5.185   2.940 -1.9687 -0.2867 -0.3075
 3522TIP3   OH210522   1.452   3.026   2.017 -0.4189 -0.2199 -0.3283
 3522TIP3    H110523   1.509   3.100   2.039 -1.2998  0.2239  0.5209
 3522TIP3    H210524   1.477   3.002   1.928  0.2167  0.7891 -0.4284
 3523TIP3   OH210525   1.868   3.818   5.123  0.1620 -0.3407 -0.0867
 3523TIP3    H110526   1.845   3.845   5.034 -1.1996  0.2646  0.4351
 3523TIP3    H210527   1.947   3.764   5.113  0.8550  0.8985 -1.5201
 3524TIP3   OH210528   3.434   1.713   3.687  0.4734 -0.3932 -0.1079
 3524TIP3    H110529   3.498   1.745   3.623  1.6376 -1.1295  0.6670
 3524TIP3    H210530   3.414   1.789   3.742  0.0652  0.0401 -0.8504
 3525TIP3   OH210531   1.474   3.551   2.503 -0.5168  0.5653  0.2152
 3525TIP3    H110532   1.468   3.583   2.593  0.8498 -0.2537  0.6188
 3525TIP3    H210533   1.478   3.630   2.450 -2.1100  1.0593  0.8021
 3526TIP3   OH210534   2.504   4.594   3.126 -0.0406  0.2559 -0.1770
 3526TIP3    H110535   2.426   4.587   3.071 -1.1161 -0.2416  1.3978
 3526TIP3    H210536   2.514   4.688   3.142 -0.3902  0.3087 -0.2680
 3527TIP3   OH210537   3.726   3.400   4.381  0.0945  0.1336  0.2854
 3527TIP3    H110538   3.747   3.477   4.328  1.1578  0.5544  1.2891
 3527TIP3    H210539   3.686   3.338   4.319  0.6487  0.8931 -0.8484
 3528TIP3   OH210540   3.061   3.748   4.360 -0.3993  0.0577  0.4399
 3528TIP3    H110541   2.975   3.732   4.321 -0.7156  0.3111  1.0198
 3528TIP3    H210542   3.083   3.665   4.403  0.5587 -0.6654 -1.3956
 3529TIP3   OH210543   2.123   2.976   2.954 -0.2975 -0.2837 -0.7002
 3529TIP3    H110544   2.108   3.070   2.961 -0.4678 -0.3516 -0.1931
 3529TIP3    H210545   2.038   2.936   2.970  0.1991 -0.6174  1.2166
 3530TIP3   OH210546   6.238   1.989   2.473  0.0540 -0.0804  0.3729
 3530TIP3    H110547   6.332   2.001   2.490 -0.2711 -0.4690  2.5204
 3530TIP3    H210548   6.231   1.897   2.447  0.3901  0.2216 -0.8500
 3531TIP3   OH210549   2.873   0.425   0.143  0.5935 -0.3742  0.4663
 3531TIP3    H110550   2.813   0.477   0.196  1.3475  0.8552  0.1395
 3531TIP3    H210551   2.831   0.419   0.058 -0.0023 -1.2350  0.8142
 3532TIP3   OH210552   8.132   3.210   2.100  0.3896  0.2743 -0.1382
 3532TIP3    H110553   8.045   3.235   2.068 -0.3749 -0.6891  1.1795
 3532TIP3    H210554   8.122   3.122   2.134  1.6496  0.5499  1.0106
 3533TIP3   OH210555   3.774   3.385   3.862  0.5095  0.1764  0.2869
 3533TIP3    H110556   3.790   3.410   3.953 -0.6324 -0.9425  0.8076
 3533TIP3    H210557   3.797   3.463   3.811  0.6080  1.0021  1.5764
 3534TIP3   OH210558   0.745   4.369   1.298 -0.7547  0.0892 -0.1228
 3534TIP3    H110559   0.738   4.454   1.254 -0.5358  0.0864 -0.1659
 3534TIP3    H210560   0.813   4.323   1.249 -2.1475 -0.8113 -1.2604
 3535TIP3   OH210561   0.538   4.900   1.788 -0.4524  0.4674 -0.3058
 3535TIP3    H110562   0.540   4.938   1.876 -0.9573 -0.7434  0.2308
 3535TIP3    H210563   0.629   4.904   1.758 -0.1110 -0.0278  0.6599
 3536TIP3   OH210564   2.230   6.107   3.466  0.6798  0.2418 -0.4224
 3536TIP3    H110565   2.177   6.187   3.468  0.0542 -0.1655 -0.6974
 3536TIP3    H210566   2.178   6.045   3.415  0.9487 -0.4947  0.1941
 3537TIP3   OH210567   1.839   2.723   5.209 -0.4502 -0.0172 -0.2332
 3537TIP3    H110568   1.812   2.657   5.273 -0.2520  0.3607  0.2384
 3537TIP3    H210569   1.757   2.768   5.186 -0.4399  0.1932  0.1436
 3538TIP3   OH210570   1.549   2.938   4.344 -0.2766 -0.4188 -0.1804
 3538TIP3    H110571   1.592   2.913   4.426 -1.5403  1.9296  1.2354
 3538TIP3    H210572   1.611   2.999   4.303 -0.6116  0.1114  0.0965
 3539TIP3   OH210573   2.450   2.411   2.196 -0.3292 -0.2779  0.5212
 3539TIP3    H110574   2.404   2.382   2.274 -1.2328 -2.1923 -0.6775
 3539TIP3    H210575   2.386   2.464   2.149 -0.4364 -0.7252  0.1572
 3540TIP3   OH210576   2.818   3.878   2.030 -0.1781  0.2076 -0.7251
 3540TIP3    H110577   2.760   3.871   1.954  0.0632  0.4602 -0.9341
 3540TIP3    H210578   2.905   3.861   1.994 -0.1264 -0.2412 -0.4027
 3541TIP3   OH210579   1.473   5.560   3.402  0.1108  0.2622  0.1156
 3541TIP3    H110580   1.463   5.651   3.373 -3.2957  0.5688  1.8865
 3541TIP3    H210581   1.520   5.517   3.331 -0.1567  2.9217 -1.7651
 3542TIP3   OH210582   4.049   3.903   3.851  0.3568  0.1517 -0.2217
 3542TIP3    H110583   4.081   3.978   3.800 -0.1443  0.2780 -0.3535
 3542TIP3    H210584   4.115   3.892   3.920 -0.8721  2.3515  1.3674
 3543TIP3   OH210585   1.010   6.814   4.998 -1.1554 -0.1001 -0.2563
 3543TIP3    H110586   1.058   6.896   5.003  0.7011 -1.1679 -0.1166
 3543TIP3    H210587   0.956   6.813   5.077 -0.9094  0.8222 -0.0747
 3544TIP3   OH210588   7.336   5.833   4.378 -0.4226 -0.0030 -0.1631
 3544TIP3    H110589   7.360   5.768   4.444 -0.6706 -1.9210 -1.9180
 3544TIP3    H210590   7.240   5.836   4.382 -0.3173  2.2273  1.7237
 3545TIP3   OH210591   0.956   5.844   3.627  0.0761  0.2467 -0.3596
 3545TIP3    H110592   0.966   5.783   3.700 -2.2477  0.2925  0.0362
 3545TIP3    H210593   1.029   5.905   3.637  0.6865 -0.6765  1.0052
 3546TIP3   OH210594   2.328   5.242   3.246 -0.0034  0.0677 -0.5604
 3546TIP3    H110595   2.279   5.186   3.186  0.0260 -0.4420 -0.1095
 3546TIP3    H210596   2.362   5.182   3.313  3.4203  0.0146 -2.2564
 3547TIP3   OH210597   3.322   2.046   4.481  0.3486  0.4015 -0.1807
 3547TIP3    H110598   3.400   2.077   4.525  0.6691  0.1200 -0.5506
 3547TIP3    H210599   3.251   2.100   4.516  0.8363  1.2556 -0.5139
 3548TIP3   OH210600   0.152   4.342   3.750 -0.6837 -0.1896  0.4789
 3548TIP3    H110601   0.079   4.398   3.724  0.7397  0.7492 -1.6552
 3548TIP3    H210602   0.202   4.329   3.669  1.1779 -1.3123  1.7688
 3549TIP3   OH210603   2.987   4.892   3.139 -0.5157 -0.5966 -0.1708
 3549TIP3    H110604   3.063   4.873   3.083 -0.7843  1.2027 -1.2161
 3549TIP3    H210605   2.911   4.866   3.087 -0.7439  0.5737 -0.4425
 3550TIP3   OH210606   0.402   5.714   2.624 -0.3860  0.5604 -0.2476
 3550TIP3    H110607   0.380   5.644   2.685 -0.5142  0.5703 -0.2829
 3550TIP3    H210608   0.319   5.759   2.608 -0.3035  0.7210 -0.2227
 3551TIP3   OH210609   3.938   3.014   2.572 -0.6139  0.0019 -0.1166
 3551TIP3    H110610   3.913   3.089   2.626 -2.4916 -0.6869 -0.0040
 3551TIP3    H210611   4.033   3.005   2.586 -0.8590  0.5739  2.1100
 3552TIP3   OH210612   1.268   3.717   3.065  0.1810 -0.1017 -0.0132
 3552TIP3    H110613   1.250   3.685   3.154  0.0660  0.1607  0.0568
 3552TIP3    H210614   1.355   3.755   3.071 -0.1063  0.5347  0.1519
 3553TIP3   OH210615   2.395   2.582   2.772 -0.1222 -0.2557  0.0987
 3553TIP3    H110616   2.321   2.636   2.801  0.9573  1.0490  0.4797
 3553TIP3    H210617   2.464   2.645   2.752  0.6248 -1.4128 -1.0495
 3554TIP3   OH210618   7.331   0.723   2.879 -0.0326 -0.4055 -0.8044
 3554TIP3    H110619   7.414   0.678   2.867 -0.5318 -1.5567  0.0333
 3554TIP3    H210620   7.317   0.723   2.974  0.0366  1.6470 -0.7749
 3555TIP3   OH210621   1.489   2.957   2.704  0.4138 -0.3759  0.2636
 3555TIP3    H110622   1.576   2.994   2.717  0.3853 -0.4706  0.7160
 3555TIP3    H210623   1.447   2.964   2.789 -0.5681  1.1039 -0.3131
 3556TIP3   OH210624   5.716   2.541   3.236 -0.3433  0.4963 -0.1240
 3556TIP3    H110625   5.784   2.595   3.196 -0.0928  1.2186  1.2610
 3556TIP3    H210626   5.746   2.451   3.223  0.3500  0.7753 -0.4505
 3557TIP3   OH210627   1.674   1.613   4.357 -0.5130 -0.9377 -0.5942
 3557TIP3    H110628   1.752   1.559   4.367 -1.1249 -1.7414 -0.1172
 3557TIP3    H210629   1.693   1.692   4.408 -0.3436 -1.5007  0.2339
 3558TIP3   OH210630   4.861   3.316   2.034 -0.0123 -0.3340  0.1799
 3558TIP3    H110631   4.791   3.298   1.971  1.4633 -2.0691 -1.0385
 3558TIP3    H210632   4.927   3.363   1.982 -0.1439  1.0975  1.2665
 3559TIP3   OH210633   3.619   1.780   2.548 -0.3522 -0.2711 -0.0722
 3559TIP3    H110634   3.564   1.702   2.551 -1.2027  0.2962 -0.4894
 3559TIP3    H210635   3.581   1.839   2.613 -0.6592  0.3812 -0.8265
 3560TIP3   OH210636   1.305   4.229   2.606 -0.9674  0.3902  0.6819
 3560TIP3    H110637   1.288   4.323   2.606 -2.0078  0.2092 -0.0283
 3560TIP3    H210638   1.220   4.189   2.589 -0.3349 -0.6460 -0.1002
 3561TIP3   OH210639   2.491   3.435   4.707 -0.5008  0.3129  0.4199
 3561TIP3    H110640   2.572   3.486   4.710 -0.3316  0.1071 -0.4309
 3561TIP3    H210641   2.470   3.417   4.798 -0.0818  1.1488  0.6878
 3562TIP3   OH210642   1.019   3.365   0.694  0.1866  0.1525  0.3653
 3562TIP3    H110643   1.086   3.333   0.754  0.9374  0.2303 -0.4214
 3562TIP3    H210644   1.014   3.297   0.626 -2.1389 -0.9627  1.6019
 3563TIP3   OH210645   3.735   0.435   4.627 -0.2389 -0.1680 -0.4853
 3563TIP3    H110646   3.682   0.515   4.625 -0.2627 -0.1979 -1.5860
 3563TIP3    H210647   3.746   0.412   4.534  0.7050 -0.8181 -0.2123
 3564TIP3   OH210648   4.540   2.570   4.088  0.1246  0.0504 -0.0967
 3564TIP3    H110649   4.552   2.628   4.013 -0.7784  2.6744  1.7168
 3564TIP3    H210650   4.445   2.566   4.099  0.2634 -0.0818  1.0575
 3565TIP3   OH210651   1.952   0.318   3.415 -0.0740  0.2424  0.1267
 3565TIP3    H110652   1.942   0.223   3.410 -0.0606  0.2617 -0.2554
 3565TIP3    H210653   1.886   0.352   3.354  0.6003  0.4493 -0.4830
 3566TIP3   OH210654   4.520   2.069   3.763 -0.3860  0.0269 -0.0719
 3566TIP3    H110655   4.442   2.082   3.710 -0.0489  0.0076 -0.5745
 3566TIP3    H210656   4.532   2.151   3.810  0.6035  0.8497 -1.7356
 3567TIP3   OH210657   1.629   4.335   4.114  0.5688  0.1661  0.6321
 3567TIP3    H110658   1.626   4.323   4.209  1.4968 -0.3051  0.6005
 3567TIP3    H210659   1.655   4.250   4.080  2.1361  0.8572  0.0758
 3568TIP3   OH210660   4.142   2.408   2.123  0.5889 -0.1608  0.3288
 3568TIP3    H110661   4.075   2.339   2.120 -0.9457  1.2935  0.6630
 3568TIP3    H210662   4.192   2.389   2.202  0.7494 -1.4195 -0.0663
 3569TIP3   OH210663   2.390   2.556   0.385 -0.4435  0.4681 -0.1413
 3569TIP3    H110664   2.358   2.594   0.467 -1.1081 -1.4395  0.4959
 3569TIP3    H210665   2.310   2.531   0.338 -0.0173  0.0794 -0.6622
 3570TIP3   OH210666   2.540   2.723   3.892  0.6371  0.3329  0.7311
 3570TIP3    H110667   2.544   2.679   3.977  2.1726 -1.1212 -0.0644
 3570TIP3    H210668   2.523   2.653   3.830 -2.0671  1.5921 -0.0453
 3571TIP3   OH210669   4.039   3.461   1.597 -0.3885 -0.6112  0.4850
 3571TIP3    H110670   4.078   3.538   1.638 -1.2238 -0.2621  0.6340
 3571TIP3    H210671   4.113   3.413   1.560  0.2173 -0.1797  1.1416
 3572TIP3   OH210672   3.809   1.925   1.110  0.0020 -0.8078 -0.2124
 3572TIP3    H110673   3.828   1.980   1.034 -0.3434  0.8397  0.8717
 3572TIP3    H210674   3.856   1.844   1.093  0.5615 -0.1692 -1.8177
 3573TIP3   OH210675   2.327   1.683   0.923  0.6603 -0.0238 -0.0794
 3573TIP3    H110676   2.300   1.775   0.918  0.6564  0.0388  1.0203
 3573TIP3    H210677   2.415   1.685   0.960  0.4535 -0.4836  0.4607
 3574TIP3   OH210678   1.726   5.297   1.865  0.0040 -0.8089  0.2644
 3574TIP3    H110679   1.672   5.349   1.924 -0.7437  1.1484 -2.0616
 3574TIP3    H210680   1.816   5.318   1.890 -0.2488  2.6579 -1.4375
 3575TIP3   OH210681   5.887   4.404   2.625  0.4091 -0.0025 -0.3595
 3575TIP3    H110682   5.839   4.459   2.563 -0.3861 -0.5421 -0.2430
 3575TIP3    H210683   5.905   4.324   2.576 -1.2448 -0.9017  0.4338
 3576TIP3   OH210684   5.700   4.639   2.446  0.1672  0.3472 -0.0968
 3576TIP3    H110685   5.619   4.689   2.445  0.6721  1.1900 -0.0107
 3576TIP3    H210686   5.693   4.579   2.372  0.2452  1.6998 -1.2216
 3577TIP3   OH210687   4.866   4.618   1.738 -0.2612 -0.0034  0.7005
 3577TIP3    H110688   4.864   4.692   1.677 -0.4502 -0.2109  0.4576
 3577TIP3    H210689   4.809   4.644   1.810 -2.5520 -1.0798 -0.7038
 3578TIP3   OH210690   1.532   2.586   1.712  0.3628 -0.8400  0.3734
 3578TIP3    H110691   1.608   2.615   1.662 -1.2802 -0.2398 -1.8406
 3578TIP3    H210692   1.510   2.500   1.675 -1.1562 -0.1776 -0.2860
 3579TIP3   OH210693   4.595   3.285   2.293 -0.7941 -0.3204 -0.3285
 3579TIP3    H110694   4.689   3.268   2.281 -0.7976  0.2371 -1.2304
 3579TIP3    H210695   4.555   3.260   2.210 -1.1292  1.6123 -0.7628
 3580TIP3   OH210696   3.586   1.837   1.273  0.1259  0.3365  0.1638
 3580TIP3    H110697   3.631   1.900   1.216 -0.3806 -0.7504 -1.4842
 3580TIP3    H210698   3.602   1.752   1.231 -1.4343 -0.3303  0.8953
 3581TIP3   OH210699   3.129   3.583   3.722 -0.0108 -0.2567 -0.0464
 3581TIP3    H110700   3.107   3.492   3.702 -0.5433 -0.1122 -0.1293
 3581TIP3    H210701   3.097   3.595   3.812  3.4965 -1.2828  1.4283
 3582TIP3   OH210702   7.554   2.324   3.242 -0.6732  0.4329 -0.3034
 3582TIP3    H110703   7.594   2.279   3.168 -1.7956 -1.8515  0.4258
 3582TIP3    H210704   7.614   2.396   3.261  0.3312  0.2289 -2.5507
 3583TIP3   OH210705   1.680   2.954   3.368 -0.2259 -0.2962  0.8677
 3583TIP3    H110706   1.726   3.029   3.329  2.1342 -1.0020  2.2134
 3583TIP3    H210707   1.684   2.886   3.301  1.8747 -0.7738  1.4405
 3584TIP3   OH210708   2.083   3.124   1.520  0.1543  0.1759 -0.6802
 3584TIP3    H110709   2.126   3.048   1.559  1.4248  0.6134 -1.1857
 3584TIP3    H210710   2.146   3.156   1.455 -0.2802  1.7746 -0.3286
 3585TIP3   OH210711   1.884   5.075   2.490 -0.5506  0.3336  0.1382
 3585TIP3    H110712   1.934   5.046   2.414 -0.6387  0.0038  0.2028
 3585TIP3    H210713   1.874   4.996   2.543  0.3868  0.7754  0.9923
 3586TIP3   OH210714   3.589   1.456   3.285 -0.0520  0.2574  0.2401
 3586TIP3    H110715   3.560   1.450   3.375 -0.1932  1.6672  0.2976
 3586TIP3    H210716   3.626   1.369   3.266 -2.1080 -0.8022  0.8958
 3587TIP3   OH210717   4.088   3.106   3.993 -0.0359 -0.6365 -0.5084
 3587TIP3    H110718   4.036   3.154   4.058 -0.4606 -0.8524 -0.6901
 3587TIP3    H210719   4.128   3.175   3.939 -0.5138 -0.4792 -0.6666
 3588TIP3   OH210720   2.420   4.883   3.134 -0.0170  0.5418 -0.7603
 3588TIP3    H110721   2.391   4.963   3.091 -1.4124  1.1494  1.2278
 3588TIP3    H210722   2.501   4.908   3.180  0.0974  0.5496 -0.9681
 3589TIP3   OH210723   2.560   5.559   2.143 -0.0309  0.4587 -0.1532
 3589TIP3    H110724   2.641   5.536   2.098  0.4065  0.5705  0.5764
 3589TIP3    H210725   2.582   5.555   2.236 -0.7179  1.0238  0.0373
 3590TIP3   OH210726   4.222   2.047   2.686  0.0546 -0.0209 -0.2000
 3590TIP3    H110727   4.154   2.112   2.704  1.4689  1.7558 -1.1248
 3590TIP3    H210728   4.231   1.999   2.768 -0.8120  1.1613  0.6130
 3591TIP3   OH210729   5.056   3.669   3.103  0.2724 -0.3835  0.1098
 3591TIP3    H110730   5.036   3.575   3.103 -1.7979  0.0406 -0.3819
 3591TIP3    H210731   4.971   3.712   3.113  1.3093  1.4343  1.4111
 3592TIP3   OH210732   4.042   3.421   2.572 -0.1634 -0.7419 -0.1365
 3592TIP3    H110733   3.973   3.416   2.506 -0.9447 -1.3159  0.7064
 3592TIP3    H210734   4.004   3.380   2.650  1.0284 -0.8047  0.4290
 3593TIP3   OH210735   4.428   4.845   2.989  0.2183  0.2418  0.3218
 3593TIP3    H110736   4.358   4.867   2.928  0.4622 -0.1116 -0.0931
 3593TIP3    H210737   4.386   4.843   3.075  0.4172  3.5418  0.5640
 3594TIP3   OH210738   2.654   2.578   2.114  0.0480 -0.5292  0.5081
 3594TIP3    H110739   2.607   2.651   2.152 -0.8106 -1.0718  0.4951
 3594TIP3    H210740   2.605   2.500   2.142  0.7286 -1.0727  0.2099
 3595TIP3   OH210741   3.270   2.639   2.782 -0.4584 -0.2153 -0.1035
 3595TIP3    H110742   3.319   2.680   2.711 -0.1931 -0.3235  0.0135
 3595TIP3    H210743   3.187   2.612   2.743 -0.8054  0.8012 -0.0835
 3596TIP3   OH210744   3.115   6.639   2.924  0.0025  0.5768 -0.1250
 3596TIP3    H110745   3.054   6.619   2.995  0.9598  1.5747  0.9851
 3596TIP3    H210746   3.079   6.718   2.884 -0.8484 -0.3029 -1.1302
 3597TIP3   OH210747   3.177   3.611   1.239  0.0995  0.2105 -0.2524
 3597TIP3    H110748   3.233   3.545   1.198  0.3864  0.4586 -0.2678
 3597TIP3    H210749   3.238   3.669   1.285 -0.1332  0.5620 -0.3791
 3598TIP3   OH210750   3.903   3.850   1.997  0.3921  0.2293  0.2242
 3598TIP3    H110751   3.879   3.924   2.052  0.8833  2.1536 -2.1100
 3598TIP3    H210752   3.819   3.816   1.965  0.2156  0.1370  0.7610
 3599TIP3   OH210753   2.537   3.006   1.973  0.1690  0.0319 -0.3274
 3599TIP3    H110754   2.560   2.946   1.902 -0.9104  0.8198 -1.3572
 3599TIP3    H210755   2.458   3.050   1.943 -0.7004 -0.1163  1.6562
 3600TIP3   OH210756   5.321   1.778   5.452 -0.2572  0.6079 -0.1606
 3600TIP3    H110757   5.338   1.704   5.394 -1.2589  0.3979 -0.1842
 3600TIP3    H210758   5.315   1.739   5.539 -1.8584  0.5284 -0.3097
 3601TIP3   OH210759   3.391   4.271   0.266 -0.0196  0.0869  0.0249
 3601TIP3    H110760   3.451   4.223   0.209 -1.4070 -2.2067  0.3961
 3601TIP3    H210761   3.438   4.281   0.349  0.2764 -0.7305 -0.0396
 3602TIP3   OH210762   3.249   5.371   2.467 -0.3258  0.3706 -0.5595
 3602TIP3    H110763   3.236   5.305   2.400  0.5193 -0.1729 -0.1886
 3602TIP3    H210764   3.285   5.323   2.542  0.1613  1.2228 -0.2419
 3603TIP3   OH210765   1.659   2.345   2.586  0.8252 -0.1557 -0.5745
 3603TIP3    H110766   1.743   2.362   2.541  0.7429  0.8145 -0.3717
 3603TIP3    H210767   1.607   2.424   2.570  1.1997  0.7150  2.1734
 3604TIP3   OH210768   3.061   4.073   3.016 -0.7671  0.0385 -0.5340
 3604TIP3    H110769   3.128   4.139   3.000  0.6588 -1.8300 -2.5518
 3604TIP3    H210770   3.097   4.018   3.085 -1.6353  0.9056  0.6272
 3605TIP3   OH210771   2.349   2.714   0.627  0.1576  0.2094  0.1540
 3605TIP3    H110772   2.423   2.690   0.682 -0.1749 -1.5613 -0.1314
 3605TIP3    H210773   2.363   2.806   0.606  1.0096  0.5238  2.0519
 3606TIP3   OH210774   7.280   3.726   2.323 -0.4158  0.4065  0.5259
 3606TIP3    H110775   7.189   3.713   2.296 -0.4616 -0.1960  0.9485
 3606TIP3    H210776   7.277   3.798   2.386 -0.8606 -0.8143  1.9226
 3607TIP3   OH210777   3.147   3.393   2.077 -0.0823 -0.2568  0.7046
 3607TIP3    H110778   3.144   3.297   2.075 -0.3361 -0.2350 -0.4185
 3607TIP3    H210779   3.095   3.420   2.002  0.6033  0.7542  0.5833
 3608TIP3   OH210780   2.249   4.527   2.862  0.0642  0.2014  0.0597
 3608TIP3    H110781   2.221   4.593   2.925  2.0382  0.8122  0.3307
 3608TIP3    H210782   2.173   4.513   2.807 -1.4158  0.3163  2.0164
 3609TIP3   OH210783   2.935   3.916   2.611 -0.3097  0.1494 -0.2274
 3609TIP3    H110784   2.860   3.858   2.614 -0.0422 -0.1480  1.3577
 3609TIP3    H210785   3.003   3.865   2.567 -1.1013  0.5198 -1.9081
 3610TIP3   OH210786   2.597   2.371   0.440 -0.4658  0.2847  0.0586
 3610TIP3    H110787   2.655   2.301   0.410 -0.3478 -0.2137  1.4227
 3610TIP3    H210788   2.536   2.384   0.367 -0.8111 -1.5894 -0.0130
 3611TIP3   OH210789   3.520   2.759   2.158  0.3139 -0.0681 -0.3379
 3611TIP3    H110790   3.580   2.759   2.232  2.1886  1.9943 -1.8002
 3611TIP3    H210791   3.535   2.842   2.114 -1.3792 -0.8661 -2.5563
 3612TIP3   OH210792   4.981   2.837   1.056  0.4846  0.4666  0.0766
 3612TIP3    H110793   4.935   2.783   1.121 -0.3378 -1.3882 -1.9468
 3612TIP3    H210794   5.067   2.854   1.094 -0.9117  1.7264  2.7893
 3613TIP3   OH210795   2.392   4.402   2.257 -0.7267 -0.3163  0.4673
 3613TIP3    H110796   2.369   4.383   2.348 -2.1897  0.9095  0.3914
 3613TIP3    H210797   2.365   4.493   2.245  0.8252 -0.0071 -0.7688
 3614TIP3   OH210798   2.416   2.935   5.383  0.1863 -0.4166  0.0156
 3614TIP3    H110799   2.390   2.974   5.300  2.2119 -0.1745 -0.5294
 3614TIP3    H210800   2.511   2.927   5.378  0.1640 -2.1289  1.5703
 3615TIP3   OH210801   2.973   5.580   1.791  0.2336 -0.1756  0.0088
 3615TIP3    H110802   2.955   5.594   1.698 -0.9259  1.8428  0.5134
 3615TIP3    H210803   3.038   5.647   1.813  0.1484 -0.3427  0.7692
 3616TIP3   OH210804   3.600   4.186   1.311 -0.0539  0.5664  0.2606
 3616TIP3    H110805   3.636   4.163   1.397 -2.0681 -1.5358  0.6045
 3616TIP3    H210806   3.527   4.244   1.330  1.3958  2.6241 -0.2665
 3617TIP3   OH210807   2.215   4.923   2.478  0.4335  0.3131  0.5918
 3617TIP3    H110808   2.251   4.995   2.529  0.2797 -0.0076  1.1578
 3617TIP3    H210809   2.231   4.845   2.532  0.2975 -0.0339  0.1401
 3618TIP3   OH210810   2.956   3.474   2.529 -0.1098  1.0188 -0.5232
 3618TIP3    H110811   3.025   3.408   2.532  1.1528  2.2482 -1.5886
 3618TIP3    H210812   2.957   3.505   2.438 -1.2180  1.9204 -0.2338
 3619TIP3   OH210813   3.337   4.875   1.965 -0.2455 -0.1828  0.2439
 3619TIP3    H110814   3.242   4.886   1.968 -0.0724  0.8890  1.8310
 3619TIP3    H210815   3.351   4.784   1.992 -0.7592 -0.0721  0.8978
 3620TIP3   OH210816   4.285   5.367   3.088  0.0465 -0.1488 -0.2460
 3620TIP3    H110817   4.349   5.296   3.093 -0.1698 -0.2719  1.0901
 3620TIP3    H210818   4.204   5.328   3.121 -0.6608  0.0840 -1.6763
 3621TIP3   OH210819   4.257   4.472   2.001 -0.2968  0.0037  0.2744
 3621TIP3    H110820   4.349   4.492   1.985 -0.5214  1.8285  1.1643
 3621TIP3    H210821   4.209   4.535   1.947 -1.0090  0.4844  1.4456
 3622TIP3   OH210822   1.204   3.194   3.093  0.0554  0.1373  0.2070
 3622TIP3    H110823   1.117   3.206   3.132 -0.3309 -0.8973 -0.2943
 3622TIP3    H210824   1.247   3.279   3.102 -1.1469  0.7682  0.1289
 3623TIP3   OH210825   6.401   4.489   2.898 -0.1464  0.3299 -0.1600
 3623TIP3    H110826   6.340   4.418   2.920  1.5374 -0.9181  0.6052
 3623TIP3    H210827   6.402   4.490   2.802  0.2218 -1.0690 -0.1850
 3624TIP3   OH210828   6.277   3.114   4.290  0.2013 -0.6062 -0.1954
 3624TIP3    H110829   6.249   3.194   4.334  0.5366 -0.1412 -0.8267
 3624TIP3    H210830   6.371   3.110   4.303  0.2627 -0.6134 -0.6183
 3625TIP3   OH210831   3.783   5.251   3.647 -0.3982  0.0534  0.0121
 3625TIP3    H110832   3.838   5.221   3.719 -1.3781 -1.4051  0.1581
 3625TIP3    H210833   3.694   5.239   3.677 -0.8223  1.3128 -0.6889
 3626TIP3   OH210834   2.677   4.483   0.821  0.0432  0.1965 -0.0695
 3626TIP3    H110835   2.645   4.443   0.740 -0.5357  2.6787 -1.1126
 3626TIP3    H210836   2.770   4.499   0.804 -0.7731  3.7941 -1.6125
 3627TIP3   OH210837   2.422   3.673   0.253 -0.2437  0.6315  0.1764
 3627TIP3    H110838   2.418   3.764   0.284 -0.8067  1.5725 -2.4830
 3627TIP3    H210839   2.349   3.667   0.192 -0.6843 -1.8784  0.9205
 3628TIP3   OH210840   3.499   1.715   2.257 -0.2567 -0.0152  0.1804
 3628TIP3    H110841   3.579   1.742   2.302  0.0537 -0.9191  0.1786
 3628TIP3    H210842   3.430   1.726   2.323 -0.3339  1.8635 -0.1661
 3629TIP3   OH210843   2.280   3.426   3.393 -0.1126 -0.3910 -0.0616
 3629TIP3    H110844   2.245   3.351   3.442  0.2265 -0.3221  0.2974
 3629TIP3    H210845   2.203   3.479   3.372 -0.3613 -0.8757 -0.3782
 3630TIP3   OH210846   1.911   3.249   2.102  0.1161 -0.2462  0.3559
 3630TIP3    H110847   1.916   3.207   2.188  1.0439 -1.2192 -0.1498
 3630TIP3    H210848   1.878   3.337   2.120 -0.3605 -0.6668  1.6229
 3631TIP3   OH210849   4.996   4.130   3.162 -0.1292 -0.7721  0.3424
 3631TIP3    H110850   5.040   4.136   3.247  0.5358 -2.5079  0.1462
 3631TIP3    H210851   4.918   4.077   3.179 -0.5741 -0.1954  0.0947
 3632TIP3   OH210852   4.466   3.040   2.952 -0.1850  0.4771 -0.2839
 3632TIP3    H110853   4.500   3.002   2.871 -0.3770  0.4235 -0.3410
 3632TIP3    H210854   4.486   3.133   2.945  1.1111  0.2443  0.2785
 3633TIP3   OH210855   3.606   2.132   3.854 -0.0436  0.1110 -0.1851
 3633TIP3    H110856   3.682   2.082   3.823  0.5805  0.4365  0.8206
 3633TIP3    H210857   3.531   2.086   3.816  0.4570 -2.2488  1.5520
 3634TIP3   OH210858   3.452   3.364   0.778 -0.2602 -0.5955 -0.1041
 3634TIP3    H110859   3.538   3.400   0.759 -0.1865 -1.2160 -0.9900
 3634TIP3    H210860   3.458   3.332   0.868 -0.8783  3.1640  1.3640
 3635TIP3   OH210861   4.177   3.181   3.295 -0.2141  0.3277 -0.3140
 3635TIP3    H110862   4.183   3.183   3.200  1.4099  1.4777 -0.2073
 3635TIP3    H210863   4.092   3.219   3.315 -1.1359 -1.1200 -1.3342
 3636TIP3   OH210864   2.164   3.243   2.939  0.2137 -0.1361  0.0324
 3636TIP3    H110865   2.158   3.298   2.861  2.1541  1.4274  0.9298
 3636TIP3    H210866   2.179   3.305   3.011 -0.7377 -1.6035  1.5340
 3637TIP3   OH210867   5.553   5.082   1.379 -0.2708  0.2193 -0.2268
 3637TIP3    H110868   5.551   5.062   1.472  0.2310  0.3064 -0.1948
 3637TIP3    H210869   5.463   5.102   1.356 -0.3971  0.1715  0.2349
 3638TIP3   OH210870   2.596   4.692   2.829 -0.3349  0.4428 -0.0529
 3638TIP3    H110871   2.598   4.734   2.743 -2.7663  2.5753  0.8740
 3638TIP3    H210872   2.552   4.608   2.814 -1.3276  1.0835 -0.7754
 3639TIP3   OH210873   2.120   2.154   0.833 -0.3087 -0.0807  0.6365
 3639TIP3    H110874   2.077   2.123   0.753  0.2810  0.2220  0.1927
 3639TIP3    H210875   2.210   2.122   0.826  0.0645  0.9371  0.6040
 3640TIP3   OH210876   2.217   2.865   3.852  0.4358 -0.3350  0.0003
 3640TIP3    H110877   2.211   2.946   3.903  0.0756 -0.3017 -0.0943
 3640TIP3    H210878   2.274   2.809   3.903  1.4037  0.3080 -0.3704
 3641TIP3   OH210879   5.520   3.610   3.020  0.7404 -0.6776 -0.0276
 3641TIP3    H110880   5.428   3.633   3.034  0.6910  0.0881 -1.5467
 3641TIP3    H210881   5.555   3.682   2.968  1.3492 -2.6337 -2.3943
 3642TIP3   OH210882   2.717   2.882   3.736 -0.1273 -0.1271 -0.6062
 3642TIP3    H110883   2.635   2.885   3.784 -0.3060 -0.5215 -0.8816
 3642TIP3    H210884   2.752   2.795   3.754  0.0866 -0.0668 -0.7282
 3643TIP3   OH210885   6.122   4.193   3.216  1.1951 -0.7349  0.4896
 3643TIP3    H110886   6.114   4.185   3.311 -1.1596  0.6258  0.4543
 3643TIP3    H210887   6.031   4.198   3.185  1.9714  0.4039 -1.6961
 3644TIP3   OH210888   3.676   5.232   5.504 -0.3264  0.0501  0.0647
 3644TIP3    H110889   3.692   5.273   5.589 -0.9512 -0.0194  0.2168
 3644TIP3    H210890   3.747   5.168   5.494  0.9585  1.5193 -0.3976
 3645TIP3   OH210891   3.731   3.049   1.876  0.0021 -0.9071 -0.2684
 3645TIP3    H110892   3.739   2.994   1.798 -0.6317 -0.1666 -0.8628
 3645TIP3    H210893   3.714   3.137   1.842  0.9930 -0.3413  0.6781
 3646TIP3   OH210894   1.617   2.689   3.512  0.1011 -0.1159 -0.2205
 3646TIP3    H110895   1.677   2.651   3.448  1.1289  0.8039  0.1851
 3646TIP3    H210896   1.664   2.764   3.548 -1.2960  0.6227  0.1009
 3647TIP3   OH210897   1.139   1.712   3.159  0.2432 -0.0064  0.1546
 3647TIP3    H110898   1.168   1.631   3.116 -0.2561 -0.6119  0.9319
 3647TIP3    H210899   1.153   1.780   3.093  1.5322 -0.5786 -0.1859
 3648TIP3   OH210900   2.088   5.255   3.483 -0.2234  0.5381  0.3985
 3648TIP3    H110901   2.101   5.327   3.544 -3.1392  0.5630  1.0877
 3648TIP3    H210902   2.008   5.278   3.436 -0.6963 -1.8055 -0.0216
 3649TIP3   OH210903   5.052   3.367   0.166 -0.8834 -0.2216  0.0779
 3649TIP3    H110904   5.062   3.300   0.234  2.8871 -1.1226 -1.2122
 3649TIP3    H210905   5.135   3.414   0.167 -1.6624  1.2955 -2.3235
 3650TIP3   OH210906   4.751   4.199   2.079  0.2784  0.0173  0.5216
 3650TIP3    H110907   4.655   4.206   2.080  0.3598  1.1340  0.4621
 3650TIP3    H210908   4.768   4.125   2.020 -0.5977 -1.1555  1.7028
 3651TIP3   OH210909   3.194   3.500   3.035 -0.1604  0.0259  0.5188
 3651TIP3    H110910   3.239   3.486   3.118 -1.9954 -2.1774  1.2123
 3651TIP3    H210911   3.111   3.541   3.059  0.0986  1.1190 -0.4155
 3652TIP3   OH210912   2.094   3.995   2.561 -0.2351 -0.4058  0.1968
 3652TIP3    H110913   2.163   3.978   2.496 -0.8641 -1.5764 -0.1795
 3652TIP3    H210914   2.061   4.082   2.539 -0.0545 -0.5622 -0.7038
 3653TIP3   OH210915   5.009   2.979   2.316  0.1269  0.0447 -0.1466
 3653TIP3    H110916   5.066   3.055   2.329  0.1756 -0.2913  1.7937
 3653TIP3    H210917   4.980   2.956   2.404  0.7465 -2.6774 -0.6154
 3654TIP3   OH210918   5.479   6.292   6.705 -0.2160  0.6965  0.1578
 3654TIP3    H110919   5.505   6.247   6.786 -1.5053 -0.7609 -0.2225
 3654TIP3    H210920   5.406   6.241   6.671 -0.0144  1.5815 -1.6818
 3655TIP3   OH210921   4.927   3.666   4.149 -0.2007  0.0215 -0.0386
 3655TIP3    H110922   4.963   3.644   4.235  0.4745  0.6371 -0.1594
 3655TIP3    H210923   4.947   3.759   4.138  0.8297 -0.3537 -1.4104
 3656TIP3   OH210924   2.806   3.076   3.569 -0.4839  0.0295  0.3767
 3656TIP3    H110925   2.871   3.023   3.522  0.9333  0.6269  1.6434
 3656TIP3    H210926   2.755   3.012   3.619 -0.8558 -0.4383 -0.5986
 3657TIP3   OH210927   4.333   2.665   1.323  0.1420 -0.3874 -0.0079
 3657TIP3    H110928   4.373   2.626   1.401 -0.0593 -0.6784 -0.0528
 3657TIP3    H210929   4.405   2.714   1.282  0.3251 -0.4847  0.1933
 3658TIP3   OH210930   3.022   3.993   3.513 -0.2032  0.0887 -0.2034
 3658TIP3    H110931   2.971   3.964   3.437  1.3832 -1.8525 -0.5519
 3658TIP3    H210932   2.959   3.994   3.585 -1.1468 -0.5107 -1.0074
 3659TIP3   OH210933   5.383   5.532   2.114  0.4666  0.0067 -0.3603
 3659TIP3    H110934   5.364   5.524   2.208  0.5367  0.5627 -0.2978
 3659TIP3    H210935   5.372   5.443   2.080  0.2158 -0.1544  0.1329
 3660TIP3   OH210936   2.027   5.010   1.417  0.6817  0.0944  0.4196
 3660TIP3    H110937   1.968   4.986   1.488  1.5233 -0.5231  0.9144
 3660TIP3    H210938   2.030   4.933   1.361 -0.4873  0.8090 -0.6413
 3661TIP3   OH210939   2.318   3.568   3.147 -0.6370  1.0030  0.1447
 3661TIP3    H110940   2.342   3.658   3.167  1.0387  0.1653  2.1137
 3661TIP3    H210941   2.322   3.523   3.232  0.3969 -1.3125 -1.0893
 3662TIP3   OH210942   2.397   2.249   1.478  0.3662  0.0764 -0.1422
 3662TIP3    H110943   2.435   2.178   1.530 -1.1375 -1.3446 -0.9384
 3662TIP3    H210944   2.460   2.265   1.408  1.2863  0.3860  0.7404
 3663TIP3   OH210945   3.723   1.336   1.428  0.3029  0.0548  0.4023
 3663TIP3    H110946   3.734   1.288   1.510  0.3617 -1.1943 -0.3383
 3663TIP3    H210947   3.673   1.278   1.371  1.7175  0.2211 -1.0540
 3664TIP3   OH210948   2.628   3.957   2.789 -0.5473  0.4448 -0.0967
 3664TIP3    H110949   2.700   4.018   2.803 -0.3669  0.0043  0.8944
 3664TIP3    H210950   2.666   3.871   2.804 -1.7770  0.3189  2.4765
 3665TIP3   OH210951   5.096   4.192   3.438  0.1197 -0.0162  0.1739
 3665TIP3    H110952   5.031   4.254   3.472  0.3451 -0.4335  1.3767
 3665TIP3    H210953   5.156   4.178   3.510  0.1108 -1.5904 -0.1121
 3666TIP3   OH210954   1.623   4.722   1.953 -0.1703  0.5758  0.5402
 3666TIP3    H110955   1.596   4.631   1.955  0.7855  0.2771  0.1934
 3666TIP3    H210956   1.542   4.772   1.966 -0.8331 -0.2968 -0.1678
 3667TIP3   OH210957   4.451   6.191   2.743 -0.1702 -0.5913 -0.4765
 3667TIP3    H110958   4.385   6.166   2.808  1.1464 -0.6146  0.8519
 3667TIP3    H210959   4.535   6.180   2.787  0.7256 -0.2146 -2.0466
 3668TIP3   OH210960   1.467   6.568   2.316 -0.7942  0.3160 -0.5860
 3668TIP3    H110961   1.472   6.662   2.333  0.3411  0.7253 -2.9818
 3668TIP3    H210962   1.379   6.554   2.280 -1.2359  0.3164  0.4720
 3669TIP3   OH210963   5.514   4.486   1.849  0.3123 -0.0216  0.6574
 3669TIP3    H110964   5.606   4.513   1.837  0.5960 -1.1406  0.2862
 3669TIP3    H210965   5.514   4.393   1.828 -0.9934  0.0653  0.2550
 3670TIP3   OH210966   7.027   1.240   6.055 -0.4307 -1.1330 -0.3586
 3670TIP3    H110967   7.109   1.289   6.068 -0.3080 -1.4444  0.0240
 3670TIP3    H210968   6.964   1.307   6.027  0.4124 -1.1716 -2.4934
 3671TIP3   OH210969   3.948   4.743   2.584  0.1813  0.4008 -0.0513
 3671TIP3    H110970   3.879   4.690   2.544  0.2539  0.3479 -0.1052
 3671TIP3    H210971   3.901   4.799   2.647  0.3258 -1.0712  1.4120
 3672TIP3   OH210972   5.356   6.450   2.256  0.0579 -0.2551 -0.9737
 3672TIP3    H110973   5.296   6.517   2.223 -0.6967 -0.6153 -0.3612
 3672TIP3    H210974   5.422   6.442   2.188 -0.6423  0.0941 -1.7115
 3673TIP3   OH210975   2.892   4.926   3.608 -0.4270 -0.4176  0.0147
 3673TIP3    H110976   2.953   4.886   3.546 -0.1987 -1.8002  1.1067
 3673TIP3    H210977   2.941   4.999   3.646  0.7899 -1.8714  1.3156
 3674TIP3   OH210978   1.311   5.705   1.274 -0.6931  0.4211  0.2313
 3674TIP3    H110979   1.259   5.700   1.193 -0.0860 -3.6992  0.0033
 3674TIP3    H210980   1.247   5.690   1.344 -0.6027  0.2065  0.2670
 3675TIP3   OH210981   5.216   2.656   2.669  0.1143  0.9742 -0.0033
 3675TIP3    H110982   5.235   2.749   2.682  0.5981  0.9067 -0.2403
 3675TIP3    H210983   5.200   2.648   2.575 -0.5183  0.9253  0.1055
 3676TIP3   OH210984   3.531   3.705   2.261 -0.0089  0.6460  0.5736
 3676TIP3    H110985   3.503   3.665   2.344  0.8034 -0.5581  0.2845
 3676TIP3    H210986   3.469   3.671   2.196  0.8544 -0.3898  0.2791
 3677TIP3   OH210987   3.965   5.768   3.633 -0.0564  0.4403  0.6321
 3677TIP3    H110988   3.952   5.684   3.675 -1.5618 -0.2181 -1.0977
 3677TIP3    H210989   3.884   5.816   3.649 -0.1859  0.6135 -0.4973
 3678TIP3   OH210990   3.062   2.313   2.498  0.1240 -0.0861  0.3880
 3678TIP3    H110991   3.154   2.339   2.503  0.1027 -0.1599  1.1457
 3678TIP3    H210992   3.039   2.285   2.587 -0.2151 -1.4846 -0.1266
 3679TIP3   OH210993   4.027   4.288   1.801  0.0072 -0.0160  0.0650
 3679TIP3    H110994   4.121   4.293   1.788  0.2507 -2.8437  0.3883
 3679TIP3    H210995   4.008   4.354   1.868  1.5988  1.1657 -0.6200
 3680TIP3   OH210996   3.241   2.116   1.897  0.3250 -0.1060 -0.0874
 3680TIP3    H110997   3.147   2.125   1.883  0.3899 -1.6867 -1.7031
 3680TIP3    H210998   3.274   2.206   1.896 -0.9713  0.3719 -0.8916
 3681TIP3   OH210999   4.731   2.824   3.569 -0.5102 -0.4959 -0.3041
 3681TIP3    H111000   4.767   2.776   3.494  0.3644  0.6210 -0.6200
 3681TIP3    H211001   4.727   2.915   3.539  1.3215  0.2236  1.5223
 3682TIP3   OH211002   5.900   4.133   0.329 -0.4803 -0.2260 -0.1431
 3682TIP3    H111003   5.992   4.112   0.345 -0.5867 -2.1551 -1.9298
 3682TIP3    H211004   5.895   4.228   0.341  1.2346 -0.4017  2.3272
 3683TIP3   OH211005   1.855   2.799   4.070 -0.3769  0.3206  0.3998
 3683TIP3    H111006   1.775   2.796   4.017  0.6664 -3.0793 -1.0921
 3683TIP3    H211007   1.875   2.893   4.077 -2.1282  1.0197 -2.8250
 3684TIP3   OH211008   2.940   2.046   4.248  0.5788 -0.2012 -0.3305
 3684TIP3    H111009   2.902   1.964   4.215 -2.0962 -0.3547  2.8921
 3684TIP3    H211010   3.005   2.018   4.312 -0.6717  0.1367  1.1251
 3685TIP3   OH211011   4.084   2.655   2.767 -0.0307  0.0113  0.1040
 3685TIP3    H111012   4.065   2.718   2.836 -2.1806 -1.4714  0.9138
 3685TIP3    H211013   4.147   2.595   2.805 -1.3847 -0.9362  0.8742
 3686TIP3   OH211014   4.422   4.823   3.514 -0.4007 -0.1144 -0.3245
 3686TIP3    H111015   4.344   4.877   3.528 -1.1366 -0.9593 -1.1038
 3686TIP3    H211016   4.465   4.822   3.599 -0.8117  1.0267 -0.0940
 3687TIP3   OH211017   2.212   4.550   1.776  0.5051 -0.0597  0.4947
 3687TIP3    H111018   2.304   4.559   1.751  0.0262  0.2428 -1.2292
 3687TIP3    H211019   2.182   4.472   1.728  0.1220 -0.7643  1.8512
 3688TIP3   OH211020   2.527   2.411   3.740  0.5325 -0.4090  0.1304
 3688TIP3    H111021   2.528   2.319   3.766  0.8502 -0.1758  0.9562
 3688TIP3    H211022   2.434   2.435   3.742  0.5250 -0.4634  0.8353
 3689TIP3   OH211023   3.161   5.887   3.381  0.0459 -0.3588 -0.0534
 3689TIP3    H111024   3.216   5.865   3.305 -0.2997 -0.4733 -0.2706
 3689TIP3    H211025   3.130   5.803   3.413 -1.8482 -0.1818 -1.3093
 3690TIP3   OH211026   3.111   2.656   2.293  0.3342  0.6386  0.0437
 3690TIP3    H111027   3.172   2.699   2.232 -0.4912  1.6011 -0.1060
 3690TIP3    H211028   3.055   2.603   2.237  1.7112 -1.1097  0.2769
 3691TIP3   OH211029   4.230   4.868   2.140 -0.6857 -0.1137 -0.0801
 3691TIP3    H111030   4.266   4.953   2.117 -0.5977 -0.6283 -1.8695
 3691TIP3    H211031   4.135   4.882   2.146 -0.4725  0.6549  2.1282
 3692TIP3   OH211032   3.626   3.591   3.618 -0.3424 -0.0893 -0.2479
 3692TIP3    H111033   3.673   3.646   3.555 -1.0139  0.9434  0.1276
 3692TIP3    H211034   3.660   3.618   3.703 -2.0775  1.1876  0.0880
 3693TIP3   OH211035   5.734   2.939   3.418  0.5341 -0.0216  0.2629
 3693TIP3    H111036   5.794   2.893   3.476  1.4548 -1.8141 -2.0474
 3693TIP3    H211037   5.788   3.006   3.377  0.3592 -0.0400  0.0049
 3694TIP3   OH211038   3.193   0.144   6.177 -0.4322  0.4196  0.0265
 3694TIP3    H111039   3.149   0.082   6.119 -0.0600 -1.4963  1.7168
 3694TIP3    H211040   3.149   0.227   6.160 -2.2477 -0.6858 -0.9495
 3695TIP3   OH211041   3.356   4.494   2.616  0.5097  0.1953  0.1057
 3695TIP3    H111042   3.308   4.411   2.622  1.3304 -0.3682 -0.8624
 3695TIP3    H211043   3.323   4.535   2.536 -2.3560  2.4349  2.3144
 3696TIP3   OH211044   2.212   2.450   0.774 -0.1277 -0.2651 -0.7179
 3696TIP3    H111045   2.283   2.400   0.734 -1.3195 -1.9942 -0.7582
 3696TIP3    H211046   2.136   2.393   0.765 -1.4763  1.4679 -0.4909
 3697TIP3   OH211047   4.065   4.710   3.386  0.6337  0.5318 -0.5195
 3697TIP3    H111048   4.069   4.790   3.437  0.5524  0.2015  0.0090
 3697TIP3    H211049   4.117   4.646   3.436  0.1996  0.0908 -0.6230
 3698TIP3   OH211050   2.701   3.712   3.504 -0.1923 -0.2951 -0.3408
 3698TIP3    H111051   2.616   3.667   3.498 -1.0602  1.2087  0.5606
 3698TIP3    H211052   2.687   3.795   3.458  0.4588  0.4401  0.7648
 3699TIP3   OH211053   2.714   4.144   2.373  0.4264 -0.1424  0.2413
 3699TIP3    H111054   2.674   4.178   2.453 -0.9255 -0.1322 -0.4109
 3699TIP3    H211055   2.647   4.086   2.337  0.7505  0.3845 -1.2325
 3700TIP3   OH211056   3.381   3.133   3.029 -0.1633 -0.0401 -0.1927
 3700TIP3    H111057   3.311   3.175   2.980 -1.3726  2.3172  3.3316
 3700TIP3    H211058   3.461   3.176   2.999 -0.9873  2.0780  0.5557
 3701TIP3   OH211059   3.078   1.877   3.730 -0.1650  0.3294 -0.3899
 3701TIP3    H111060   3.112   1.966   3.726  0.5303  0.0368 -1.2663
 3701TIP3    H211061   2.997   1.879   3.680 -0.2748  0.5288 -0.2016
 3702TIP3   OH211062   1.824   4.623   2.970 -0.0514 -0.4335  0.6404
 3702TIP3    H111063   1.784   4.649   2.887  0.0993 -0.0460  0.6896
 3702TIP3    H211064   1.757   4.572   3.015 -0.1394 -0.6292  0.2882
 3703TIP3   OH211065   2.475   3.477   2.695  0.6628  0.0140 -0.7521
 3703TIP3    H111066   2.467   3.487   2.790  0.2418  0.0902 -0.7957
 3703TIP3    H211067   2.569   3.467   2.680  0.5908 -1.7928 -0.1419
 3704TIP3   OH211068   3.369   2.046   3.737  0.1981 -0.0314  0.3558
 3704TIP3    H111069   3.333   2.133   3.718 -2.0224 -1.2964 -1.4435
 3704TIP3    H211070   3.332   2.023   3.822 -0.0631  0.3418  0.3440
 3705TIP3   OH211071   4.600   3.708   1.680  0.4551 -0.0557 -0.0985
 3705TIP3    H111072   4.625   3.653   1.754  0.2472  0.6359  0.4815
 3705TIP3    H211073   4.620   3.797   1.708 -0.2509  0.2706 -0.6186
 3706TIP3   OH211074   3.227   5.923   2.580  0.4298 -0.5513  0.6882
 3706TIP3    H111075   3.239   5.905   2.673 -0.1698 -0.4952  0.7756
 3706TIP3    H211076   3.150   5.873   2.555 -0.4719  0.8374  0.6397
 3707TIP3   OH211077   2.481   4.108   2.088 -0.7828  0.1393 -0.2460
 3707TIP3    H111078   2.469   4.068   2.002  1.3295 -1.6191  0.2509
 3707TIP3    H211079   2.514   4.038   2.143 -3.3127  0.9159  2.3834
 3708TIP3   OH211080   4.379   3.743   2.285  0.1574 -0.0343  0.2761
 3708TIP3    H111081   4.306   3.700   2.329  0.1555 -1.0553 -0.6879
 3708TIP3    H211082   4.417   3.800   2.351  1.5532 -3.1860  2.3054
 3709TIP3   OH211083   2.837   5.275   2.517 -0.3168  0.4806  0.5019
 3709TIP3    H111084   2.911   5.333   2.497  0.3123 -0.3719  0.3557
 3709TIP3    H211085   2.823   5.286   2.611  1.2737 -0.8487  0.9097
 3710TIP3   OH211086   2.697   3.709   3.939 -0.0998  0.1432  0.2735
 3710TIP3    H111087   2.603   3.705   3.921 -0.0731 -0.3237  0.2129
 3710TIP3    H211088   2.729   3.621   3.917  0.3194  0.2473  0.4587
 3711TIP3   OH211089   5.557   3.671   1.490  0.0700  0.5675 -0.1930
 3711TIP3    H111090   5.508   3.639   1.415 -1.3107 -2.2497  1.8289
 3711TIP3    H211091   5.510   3.637   1.566  2.8039  1.3072  1.9170
 3712TIP3   OH211092   6.764   2.064   2.540 -0.1288  0.3724  0.1078
 3712TIP3    H111093   6.776   2.008   2.464 -1.3612 -0.9060  0.8276
 3712TIP3    H211094   6.852   2.090   2.566  0.4400 -1.1499 -0.2980
 3713TIP3   OH211095   4.005   3.887   2.272  0.0769  0.0596 -0.4593
 3713TIP3    H111096   4.009   3.819   2.339 -1.7712  0.5209  0.1349
 3713TIP3    H211097   4.025   3.842   2.190 -2.0270 -1.3730 -0.1974
 3714TIP3   OH211098   2.393   1.863   2.755  0.2034  0.0129  0.3002
 3714TIP3    H111099   2.477   1.882   2.798 -0.6631  1.1125  1.5485
 3714TIP3    H211100   2.362   1.948   2.724  0.0529 -0.5488 -1.0973
 3715TIP3   OH211101   4.396   2.122   2.466  0.0498  0.0784  0.1729
 3715TIP3    H111102   4.323   2.085   2.516 -0.2562  0.3706 -0.0608
 3715TIP3    H211103   4.376   2.100   2.375 -0.0139  0.6052  0.0548
 3716TIP3   OH211104   2.644   2.906   0.862  0.3011 -0.4584  0.5986
 3716TIP3    H111105   2.603   2.972   0.805 -1.4553 -1.5745  0.5416
 3716TIP3    H211106   2.628   2.938   0.951 -0.0883 -0.5389  0.5575
 3717TIP3   OH211107   4.757   3.893   3.483  0.6587 -0.7919  0.0271
 3717TIP3    H111108   4.736   3.955   3.553 -0.0964 -1.1944  0.1556
 3717TIP3    H211109   4.821   3.833   3.523  0.1606 -1.0755  0.3975
 3718TIP3   OH211110   5.586   5.378   6.720 -0.0279 -0.1323  0.0728
 3718TIP3    H111111   5.658   5.316   6.724  0.3226  0.3080  0.6419
 3718TIP3    H211112   5.585   5.420   6.806 -1.3574 -0.5788  0.2878
 3719TIP3   OH211113   2.734   4.503   3.661  0.3623 -0.0249 -0.0444
 3719TIP3    H111114   2.797   4.491   3.590 -0.5486  0.5833 -0.9768
 3719TIP3    H211115   2.756   4.436   3.725  2.1832  0.4037 -0.1911
 3720TIP3   OH211116   4.006   3.424   3.057  0.1545 -0.0717 -0.2898
 3720TIP3    H111117   3.959   3.437   2.974 -0.1519  0.3643 -0.0496
 3720TIP3    H211118   3.962   3.483   3.119  0.5341 -0.2231  0.1245
 3721TIP3   OH211119   4.341   5.023   1.220  0.2940 -0.2051 -0.3423
 3721TIP3    H111120   4.264   5.008   1.274 -0.6024  0.8493 -1.2882
 3721TIP3    H211121   4.351   5.118   1.219  0.9449 -0.2797 -1.1140
 3722TIP3   OH211122   3.752   6.388   2.593  0.6954  0.1688 -0.1335
 3722TIP3    H111123   3.784   6.438   2.668 -3.4680  1.4041  0.9496
 3722TIP3    H211124   3.761   6.447   2.518  2.6460 -0.2231 -0.2494
 3723TIP3   OH211125   1.375   4.004   2.015 -0.1051  0.0205  0.1597
 3723TIP3    H111126   1.436   3.985   1.944  0.7489 -0.0314  0.9046
 3723TIP3    H211127   1.319   3.926   2.020  1.0637 -0.7961  0.8029
 3724TIP3   OH211128   4.673   5.886   2.110  0.1971 -0.2186 -0.6680
 3724TIP3    H111129   4.756   5.865   2.153 -0.5555  1.9841  2.0406
 3724TIP3    H211130   4.612   5.819   2.142  0.3626 -0.4404 -0.8125
 3725TIP3   OH211131   3.196   3.307   3.677 -0.1843 -0.4955  0.0338
 3725TIP3    H111132   3.158   3.276   3.595 -0.2484 -0.7263  0.1523
 3725TIP3    H211133   3.290   3.308   3.662 -0.1155 -1.7534  0.3895
 3726TIP3   OH211134   5.019   3.273   3.648 -0.2406  0.0581 -0.3580
 3726TIP3    H111135   5.102   3.269   3.601 -0.5860 -2.1100 -0.8469
 3726TIP3    H211136   5.043   3.275   3.740  0.3911  1.8352 -0.5471
 3727TIP3   OH211137   3.466   3.372   3.667 -0.3231 -0.2754 -0.0784
 3727TIP3    H111138   3.529   3.304   3.690 -1.1251 -0.7067  0.9224
 3727TIP3    H211139   3.519   3.449   3.647  0.5718 -1.0869 -0.8212
 3728TIP3   OH211140   4.632   5.809   0.728  0.4510 -0.0944 -0.0991
 3728TIP3    H111141   4.608   5.850   0.645  0.7333 -3.3503 -1.9167
 3728TIP3    H211142   4.551   5.806   0.778  0.2028  1.6101 -0.3751
 3729TIP3   OH211143   5.369   4.363   3.144  0.3334  0.4119  0.2060
 3729TIP3    H111144   5.284   4.399   3.170 -0.3831 -0.6031 -0.7090
 3729TIP3    H211145   5.372   4.375   3.049  0.4265 -1.2453 -0.0045
 3730TIP3   OH211146   0.485   0.379   6.484 -0.5952  0.4302 -0.7916
 3730TIP3    H111147   0.430   0.456   6.500  1.8671  1.8326  1.1924
 3730TIP3    H211148   0.517   0.392   6.394  0.1189  1.9464 -0.3369
 3731TIP3   OH211149   5.190   5.418   2.960 -0.6802 -0.3007  0.1058
 3731TIP3    H111150   5.209   5.512   2.962 -0.4930 -0.3242 -0.4476
 3731TIP3    H211151   5.253   5.380   3.022  1.6959 -0.4737 -2.3261
 3732TIP3   OH211152   1.898   0.704   5.889 -0.0862  0.2368  0.3595
 3732TIP3    H111153   1.875   0.785   5.843 -0.7096  0.7109  1.4950
 3732TIP3    H211154   1.911   0.731   5.980 -0.8328 -1.0295  0.8480
 3733TIP3   OH211155   4.265   1.724   2.596 -0.4630  0.1849  0.9803
 3733TIP3    H111156   4.349   1.769   2.585 -0.2788 -0.8578 -2.3899
 3733TIP3    H211157   4.203   1.778   2.546 -0.9777 -1.2283  0.0732
 3734TIP3   OH211158   3.110   4.566   3.125 -0.0585  0.2020 -0.1271
 3734TIP3    H111159   3.041   4.589   3.063  0.8109  0.9473 -0.8348
 3734TIP3    H211160   3.179   4.526   3.071  0.7414  0.9311  0.3382
 3735TIP3   OH211161   2.049   2.765   5.569  0.3067 -0.1424  0.0110
 3735TIP3    H111162   2.139   2.736   5.556  0.1954 -0.0133 -1.0936
 3735TIP3    H211163   1.996   2.695   5.530 -0.0424  0.1363 -0.0103
 3736TIP3   OH211164   7.087   3.594   2.162  0.0665 -0.2779  0.5602
 3736TIP3    H111165   7.101   3.581   2.069 -1.3570  1.8791  0.0198
 3736TIP3    H211166   6.997   3.625   2.170 -0.5940 -2.5790  2.8756
 3737TIP3   OH211167   3.667   4.239   2.536 -0.1961 -0.1923  0.1716
 3737TIP3    H111168   3.723   4.202   2.468  0.0563 -1.8816  1.2582
 3737TIP3    H211169   3.578   4.228   2.503 -0.0678 -0.9352  0.0709
 3738TIP3   OH211170   2.691   3.255   3.001 -0.2136  0.2271 -0.4082
 3738TIP3    H111171   2.779   3.279   2.971  0.0672  1.0791  1.0504
 3738TIP3    H211172   2.655   3.203   2.930  1.5376 -0.2622 -0.9630
 3739TIP3   OH211173   5.218   2.851   0.435 -0.3381  0.4979 -0.2858
 3739TIP3    H111174   5.287   2.854   0.368  0.6791  0.5600  0.7445
 3739TIP3    H211175   5.237   2.926   0.491 -0.7616  0.0372  0.4717
 3740TIP3   OH211176   4.693   4.709   1.950  0.5364  0.1665  0.0479
 3740TIP3    H111177   4.613   4.760   1.938  0.4065  0.0917  0.6156
 3740TIP3    H211178   4.695   4.687   2.043  0.5553 -0.9401 -0.2104
 3741TIP3   OH211179   4.131   3.956   1.275  0.0193  0.0800  0.3490
 3741TIP3    H111180   4.092   3.932   1.191  0.8336  0.4569 -0.1416
 3741TIP3    H211181   4.057   3.958   1.336 -0.5777 -0.1686 -0.3633
 3742TIP3   OH211182   4.027   1.334   3.155  0.1656 -0.1525 -0.4444
 3742TIP3    H111183   4.034   1.329   3.251  0.5062  1.4769 -0.3597
 3742TIP3    H211184   4.104   1.286   3.123  1.4637  1.4516  0.1711
 3743TIP3   OH211185   5.349   4.076   2.518 -0.1266 -0.4545 -0.0809
 3743TIP3    H111186   5.256   4.072   2.496  0.0314  1.1320 -1.1458
 3743TIP3    H211187   5.354   4.038   2.605 -2.0770  1.1347  0.7906
 3744TIP3   OH211188   4.207   2.626   3.528 -0.0851  0.1632 -0.0605
 3744TIP3    H111189   4.276   2.636   3.462  1.0232  0.8004  1.1781
 3744TIP3    H211190   4.146   2.564   3.489  1.5259 -0.9226 -0.9297
 3745TIP3   OH211191   3.724   2.214   3.349  0.2877 -0.0786 -0.0538
 3745TIP3    H111192   3.771   2.231   3.431 -0.7549  0.1148  0.5244
 3745TIP3    H211193   3.638   2.184   3.378 -0.8087  1.9728 -1.0477
 3746TIP3   OH211194   2.375   2.221   2.449  0.7992  0.5208 -0.2292
 3746TIP3    H111195   2.377   2.154   2.381  0.5966  0.3168 -0.0362
 3746TIP3    H211196   2.396   2.174   2.529 -1.5296  0.2332  0.2579
 3747TIP3   OH211197   5.511   2.321   2.740 -0.2702 -0.0659  0.3142
 3747TIP3    H111198   5.542   2.232   2.722 -0.2166 -0.4060  2.0554
 3747TIP3    H211199   5.479   2.318   2.830 -0.8699  1.5229  0.1709
 3748TIP3   OH211200   3.882   1.261   2.436  0.1012 -0.7105  0.2983
 3748TIP3    H111201   3.963   1.290   2.395  1.2947 -2.9237  0.9953
 3748TIP3    H211202   3.815   1.271   2.368  1.3290 -0.7457 -0.9281
 3749TIP3   OH211203   4.379   0.542   2.165 -0.2933 -0.2867 -0.3686
 3749TIP3    H111204   4.474   0.546   2.175 -0.3344  1.5727 -0.6679
 3749TIP3    H211205   4.344   0.592   2.239 -0.9817  0.6410 -1.3006
 3750TIP3   OH211206   3.936   4.766   1.515  0.0088  0.5230 -0.6589
 3750TIP3    H111207   3.884   4.689   1.536 -0.4179  0.3443 -2.2493
 3750TIP3    H211208   3.906   4.833   1.575 -1.0651  0.0152 -0.6139
 3751TIP3   OH211209   4.157   1.470   2.579  0.4327  0.1578 -0.0133
 3751TIP3    H111210   4.152   1.561   2.607  0.7264 -0.4924  2.3049
 3751TIP3    H211211   4.081   1.428   2.619 -1.5383  0.0096 -3.7528
 3752TIP3   OH211212   1.974   4.400   3.072  1.4692  0.1064  0.2828
 3752TIP3    H111213   2.033   4.423   3.143 -1.4786  1.9121  2.2405
 3752TIP3    H211214   1.960   4.481   3.024  1.9150 -0.6885 -1.2504
 3753TIP3   OH211215   1.651   6.288   2.058 -0.3441  0.5650  0.4389
 3753TIP3    H111216   1.722   6.280   1.994 -0.2667  1.7146  0.3681
 3753TIP3    H211217   1.577   6.244   2.017 -0.0257  0.4649 -0.0362
 3754TIP3   OH211218   3.313   5.916   3.668  0.2314  0.0252 -0.5791
 3754TIP3    H111219   3.354   5.830   3.675 -0.3125 -0.3226 -1.4277
 3754TIP3    H211220   3.221   5.897   3.651 -0.2452  0.7899  1.0578
 3755TIP3   OH211221   5.103   4.988   4.317  0.2998 -0.1906 -0.5307
 3755TIP3    H111222   5.104   4.961   4.225  0.6288  0.0988 -0.6125
 3755TIP3    H211223   5.160   4.925   4.361 -0.8439 -1.0824 -0.3116
 3756TIP3   OH211224   4.790   1.911   3.566 -0.3748  0.1205 -0.1530
 3756TIP3    H111225   4.703   1.872   3.571 -0.5506  0.3466 -1.2872
 3756TIP3    H211226   4.783   1.993   3.615 -0.3886 -0.5835  1.0283
 3757TIP3   OH211227   3.864   1.798   2.918  0.2753  0.1200  0.0780
 3757TIP3    H111228   3.844   1.759   3.003 -1.6089  1.5324  0.2922
 3757TIP3    H211229   3.957   1.819   2.923  0.3833 -0.6165  1.4418
 3758TIP3   OH211230   3.701   3.587   0.734  0.0800  0.1679 -0.2727
 3758TIP3    H111231   3.618   3.618   0.770  0.4924  0.3908  0.4894
 3758TIP3    H211232   3.764   3.597   0.806  0.3438 -1.9117 -0.1882
 3759TIP3   OH211233   3.406   4.115   2.425  0.7224 -0.2792  0.3207
 3759TIP3    H111234   3.356   4.190   2.391 -0.1446 -0.9258  0.1291
 3759TIP3    H211235   3.350   4.080   2.494  0.6127 -1.3983 -0.3257
 3760TIP3   OH211236   2.809   2.146   2.864 -0.0503  0.3724 -0.4298
 3760TIP3    H111237   2.851   2.080   2.919  0.1131 -0.5912 -1.6726
 3760TIP3    H211238   2.832   2.230   2.904  0.2688 -0.2981  0.8045
 3761TIP3   OH211239   4.213   4.521   3.539 -0.6900 -0.0035  0.2217
 3761TIP3    H111240   4.306   4.543   3.540 -0.4253 -1.1079  0.3361
 3761TIP3    H211241   4.211   4.426   3.532 -1.7781 -0.1353  1.9089
 3762TIP3   OH211242   4.528   3.377   2.575  0.4198  0.1955 -0.0456
 3762TIP3    H111243   4.500   3.303   2.522 -0.6166  0.4625  0.1181
 3762TIP3    H211244   4.614   3.400   2.540  1.4023 -1.9791  0.8521
 3763TIP3   OH211245   2.480   3.030   3.988  0.4120 -0.3489 -0.2001
 3763TIP3    H111246   2.404   3.089   3.994  0.5042 -0.2994  0.5169
 3763TIP3    H211247   2.468   2.967   4.060  0.7837 -0.6524 -0.4002
 3764TIP3   OH211248   3.271   3.842   3.742  0.4825 -0.4700  0.1455
 3764TIP3    H111249   3.320   3.834   3.661  0.5416  0.1223  0.1183
 3764TIP3    H211250   3.210   3.768   3.741  2.0810 -1.8173  0.6809
 3765TIP3   OH211251   2.300   3.256   2.595 -0.1961  0.0122 -0.3957
 3765TIP3    H111252   2.328   3.170   2.626  1.4152  0.6333 -0.0702
 3765TIP3    H211253   2.370   3.315   2.622 -0.6824  1.2221 -1.7225
 3766TIP3   OH211254   4.640   4.120   0.515  0.8666 -0.2080  0.4154
 3766TIP3    H111255   4.571   4.112   0.449  0.8472 -0.1453  0.4284
 3766TIP3    H211256   4.718   4.084   0.473  1.4658  2.1097 -0.5472
 3767TIP3   OH211257   5.858   2.374   0.596  0.1278 -0.5172 -0.0727
 3767TIP3    H111258   5.803   2.377   0.674 -0.5237 -0.0625 -0.5368
 3767TIP3    H211259   5.893   2.285   0.595 -1.7118 -1.2743 -0.5017
 3768TIP3   OH211260   4.224   2.281   1.505  0.1791  0.0739 -0.0130
 3768TIP3    H111261   4.266   2.330   1.435  0.5436 -0.3407 -0.0819
 3768TIP3    H211262   4.130   2.299   1.493  0.3036  0.6953 -0.0786
 3769TIP3   OH211263   4.286   1.738   3.955 -0.4444  0.3553 -0.8562
 3769TIP3    H111264   4.249   1.710   3.872 -0.1261  1.0968 -1.2500
 3769TIP3    H211265   4.381   1.732   3.943 -0.3940  0.6263 -0.6063
 3770TIP3   OH211266   5.280   1.640   1.638 -0.0306 -0.2426  0.2005
 3770TIP3    H111267   5.318   1.658   1.552  2.3355 -2.1780  0.7997
 3770TIP3    H211268   5.251   1.725   1.670  0.5904  0.7403 -1.8157
 3771TIP3   OH211269   3.028   4.241   2.421 -0.5085  0.0035  0.3020
 3771TIP3    H111270   2.955   4.269   2.366 -0.7416 -0.5142  0.3399
 3771TIP3    H211271   3.001   4.155   2.454 -0.7014  0.6345  1.8167
 3772TIP3   OH211272   5.010   2.754   2.952 -0.1020  0.2115 -0.2343
 3772TIP3    H111273   5.052   2.669   2.938  1.6268  0.9416  0.3859
 3772TIP3    H211274   5.006   2.794   2.865  0.3564  0.0717 -0.3196
 3773TIP3   OH211275   0.952   5.112   1.543 -0.7815  0.3782 -0.2519
 3773TIP3    H111276   0.924   5.163   1.620  1.4985  2.4757 -0.7192
 3773TIP3    H211277   1.035   5.073   1.571 -0.1866  0.7613 -1.4706
 3774TIP3   OH211278   2.899   0.937   4.233  0.1785 -0.1201 -0.0740
 3774TIP3    H111279   2.970   0.912   4.175 -0.2425 -1.2082 -0.1479
 3774TIP3    H211280   2.899   1.033   4.233 -0.7037 -0.0604 -2.9927
 3775TIP3   OH211281   4.058   2.828   2.003  0.2783 -0.2837 -0.9584
 3775TIP3    H111282   4.023   2.740   2.020  2.1844 -0.5460  1.9247
 3775TIP3    H211283   4.006   2.885   2.060  2.1832 -0.2210  0.7550
 3776TIP3   OH211284   2.149   6.092   2.367  0.0683 -0.0408  0.3059
 3776TIP3    H111285   2.236   6.129   2.381 -0.3618  0.0297  3.0761
 3776TIP3    H211286   2.093   6.167   2.346  0.1583  0.2862  1.2014
 3777TIP3   OH211287   4.641   4.691   3.139  0.2765  0.0328  0.0086
 3777TIP3    H111288   4.612   4.695   3.047 -0.7733 -0.2945  0.3211
 3777TIP3    H211289   4.677   4.779   3.156 -1.1716  0.6709 -0.1802
 3778TIP3   OH211290   4.115   4.518   4.920 -0.0772 -0.2348  0.5970
 3778TIP3    H111291   4.030   4.562   4.927 -0.4411 -0.7243 -0.5114
 3778TIP3    H211292   4.178   4.589   4.908 -0.3962  0.1002  0.9136
 3779TIP3   OH211293   4.043   2.914   2.901 -0.3532  0.8797  0.2590
 3779TIP3    H111294   3.954   2.949   2.904 -1.2460 -1.2215 -0.6662
 3779TIP3    H211295   4.059   2.883   2.990 -0.9991  0.2543  0.1686
 3780TIP3   OH211296   3.567   4.677   2.224 -0.0570 -0.6962 -0.1494
 3780TIP3    H111297   3.580   4.588   2.255  1.4108 -1.2371 -2.2268
 3780TIP3    H211298   3.510   4.668   2.147  1.3657 -0.0475 -1.3129
 3781TIP3   OH211299   6.315   3.048   1.067  0.3362 -0.7648 -0.1179
 3781TIP3    H111300   6.350   3.034   1.154  0.9063 -1.4665 -0.4623
 3781TIP3    H211301   6.301   2.961   1.031 -3.2340 -0.5471  0.5847
 3782TIP3   OH211302   3.334   4.231   3.244 -0.0056  0.3299  0.1243
 3782TIP3    H111303   3.372   4.247   3.157  2.0910 -1.7112  0.6022
 3782TIP3    H211304   3.294   4.145   3.237  0.1743  0.1518  1.1888
 3783TIP3   OH211305   4.325   5.075   1.555 -0.2617  0.5303  0.2162
 3783TIP3    H111306   4.411   5.091   1.516  0.6126 -0.1459  1.8160
 3783TIP3    H211307   4.264   5.124   1.500  1.1064  0.7493 -1.1280
 3784TIP3   OH211308   7.557   4.224   1.771  0.5367  0.2190 -0.2368
 3784TIP3    H111309   7.600   4.143   1.746  0.0149 -0.1754  0.1307
 3784TIP3    H211310   7.463   4.204   1.766  0.3642  1.4278 -2.2586
 3785TIP3   OH211311   3.271   3.806   1.388  0.7937 -0.3853  0.4315
 3785TIP3    H111312   3.268   3.826   1.482  1.9393  1.3177  0.1356
 3785TIP3    H211313   3.345   3.858   1.355 -0.4784  0.1528 -1.6793
 3786TIP3   OH211314   5.100   4.633   2.049 -0.0879 -0.0621  0.2861
 3786TIP3    H111315   5.135   4.609   2.135 -0.6823  0.8572  0.7912
 3786TIP3    H211316   5.080   4.726   2.056  2.5934  0.7312 -1.7788
 3787TIP3   OH211317   4.246   6.076   2.377  0.1947  0.0415  0.3946
 3787TIP3    H111318   4.224   5.995   2.332 -1.1521 -0.2096  1.4967
 3787TIP3    H211319   4.166   6.128   2.374  0.8164  1.0167  0.3814
 3788TIP3   OH211320   5.102   2.850   2.063  0.2136 -0.2164 -0.2208
 3788TIP3    H111321   5.105   2.911   2.137 -2.3697 -1.1557  0.6853
 3788TIP3    H211322   5.114   2.764   2.101  0.6202 -0.5819 -1.1398
 3789TIP3   OH211323   5.046   5.648   1.324  0.6800  0.1646  0.0516
 3789TIP3    H111324   4.984   5.695   1.380  1.2191  0.0154  0.7845
 3789TIP3    H211325   5.083   5.716   1.267  1.5169  0.6672  1.1623
 3790TIP3   OH211326   4.431   5.581   3.696  0.1175 -0.4899  0.0804
 3790TIP3    H111327   4.403   5.512   3.636 -0.6366 -0.3763  0.2980
 3790TIP3    H211328   4.362   5.647   3.691  0.3715 -0.1807  0.5815
 3791TIP3   OH211329   4.386   2.065   3.510  0.0506 -0.2262  0.9482
 3791TIP3    H111330   4.460   2.086   3.453 -0.7046  1.9651  0.7329
 3791TIP3    H211331   4.334   2.002   3.460  0.2640  0.4047 -0.0748
 3792TIP3   OH211332   8.173   4.307   2.744  0.3374  0.2579 -0.1843
 3792TIP3    H111333   8.256   4.262   2.764  0.1866 -0.2781 -0.7357
 3792TIP3    H211334   8.180   4.391   2.789  0.7800 -0.1728  0.5760
 3793TIP3   OH211335   6.828   4.512   2.846  0.0582  0.3680  0.5098
 3793TIP3    H111336   6.842   4.459   2.924  0.7616  0.0409  0.1658
 3793TIP3    H211337   6.838   4.602   2.876  1.6942  0.1910  0.5282
 3794TIP3   OH211338   4.220   3.781   2.015 -0.5391  0.1294 -0.0542
 3794TIP3    H111339   4.171   3.859   1.989  1.1932  0.8074 -1.4500
 3794TIP3    H211340   4.279   3.812   2.084 -0.3371 -0.0799 -0.1303
 3795TIP3   OH211341   5.531   3.561   2.559  0.0990  0.2113  0.2678
 3795TIP3    H111342   5.514   3.611   2.479 -2.3807 -1.2149 -0.1498
 3795TIP3    H211343   5.455   3.578   2.614  0.1265 -1.5544  0.8882
 3796TIP3   OH211344   2.379   0.079   6.724  0.0592 -0.1414  0.6158
 3796TIP3    H111345   2.445   0.011   6.719 -1.4659 -1.7308  1.4733
 3796TIP3    H211346   2.402   0.130   6.801  1.5126  0.6745 -0.3320
 3797TIP3   OH211347   5.669   3.138   1.240 -0.4329 -0.2775 -0.3718
 3797TIP3    H111348   5.731   3.205   1.270  0.2315 -1.2630  0.4829
 3797TIP3    H211349   5.629   3.176   1.162  1.0812  0.4658 -0.8110
 3798TIP3   OH211350   3.195   6.957   6.220  0.7006  0.2334  0.2934
 3798TIP3    H111351   3.218   6.923   6.307 -3.0092 -0.2547  1.1823
 3798TIP3    H211352   3.121   7.016   6.236  1.4732  1.9845 -2.2885
 3799TIP3   OH211353   5.158   1.936   2.231 -0.0814  0.3610 -0.0563
 3799TIP3    H111354   5.169   1.841   2.228 -0.4544  0.3423 -0.8189
 3799TIP3    H211355   5.149   1.956   2.325 -0.3165 -0.3899  0.0842
 3800TIP3   OH211356   6.247   3.582   2.448  0.2838 -0.1155 -0.3019
 3800TIP3    H111357   6.335   3.555   2.476  0.4161 -0.0981 -0.6980
 3800TIP3    H211358   6.254   3.677   2.439 -0.9612  0.4860  3.9142
 3801TIP3   OH211359   7.464   3.632   2.523  0.2956 -0.7083 -0.2731
 3801TIP3    H111360   7.397   3.609   2.458  0.7306 -2.1028 -0.2439
 3801TIP3    H211361   7.527   3.685   2.474 -0.6656  0.3684 -0.3699
 3802TIP3   OH211362   6.717   3.108   3.104  0.1981 -0.0353 -0.2603
 3802TIP3    H111363   6.752   3.020   3.121  0.4569  0.2892  0.8981
 3802TIP3    H211364   6.713   3.150   3.190 -0.7823  0.7757 -0.6890
 3803TIP3   OH211365   4.465   3.350   3.770  0.6349  0.1245 -0.6673
 3803TIP3    H111366   4.554   3.358   3.804  0.0115 -2.5170  1.8501
 3803TIP3    H211367   4.426   3.437   3.781  1.9358  0.4909  1.1741
 3804TIP3   OH211368   4.330   4.844   2.478  0.0609  0.1090  0.0017
 3804TIP3    H111369   4.375   4.761   2.492 -2.4616 -1.5238 -0.9683
 3804TIP3    H211370   4.342   4.862   2.384 -1.0482 -0.2176 -0.2130
 3805TIP3   OH211371   4.758   3.897   0.813  0.2714 -0.6474  0.0186
 3805TIP3    H111372   4.736   3.956   0.885  0.4280 -0.4653 -0.0850
 3805TIP3    H211373   4.675   3.882   0.768  0.6922  1.5617 -1.5318
 3806TIP3   OH211374   6.017   4.604   1.532 -0.1387 -0.4663  0.0085
 3806TIP3    H111375   6.087   4.662   1.502  0.8591 -1.7424 -0.1953
 3806TIP3    H211376   6.062   4.534   1.578 -1.4958  0.0834  2.2222
 3807TIP3   OH211377   7.478   2.193   2.847  0.0152  0.1592  0.2555
 3807TIP3    H111378   7.482   2.133   2.773  0.0758  1.0119 -0.4391
 3807TIP3    H211379   7.563   2.186   2.890  1.0894  1.8686 -1.5104
 3808TIP3   OH211380   4.317   2.724   2.081 -0.4426 -0.3947 -0.0894
 3808TIP3    H111381   4.231   2.751   2.049 -0.6699 -0.5572  0.3803
 3808TIP3    H211382   4.304   2.709   2.174  0.3083  0.4658  0.1605
 3809TIP3   OH211383   6.574   3.172   2.239  0.4915 -0.5560  0.3656
 3809TIP3    H111384   6.646   3.114   2.213  1.0065  0.1174  0.2779
 3809TIP3    H211385   6.597   3.257   2.201 -0.0982 -0.2167  0.7688
 3810TIP3   OH211386   5.126   2.607   0.566  0.2854 -0.0913  0.0397
 3810TIP3    H111387   5.180   2.686   0.559  1.4215 -0.9416 -1.1269
 3810TIP3    H211388   5.187   2.536   0.545 -0.5543 -1.3388  1.7061
 3811TIP3   OH211389   2.930   4.546   0.704 -0.3206  0.0415  0.1815
 3811TIP3    H111390   2.915   4.532   0.611  0.7105 -0.3490  0.0733
 3811TIP3    H211391   3.005   4.606   0.708  0.4084 -0.8974  0.7801
 3812TIP3   OH211392   4.571   4.233   2.699 -0.2933 -0.1355  0.1992
 3812TIP3    H111393   4.499   4.292   2.724 -0.1491 -0.1597  0.6716
 3812TIP3    H211394   4.544   4.147   2.732 -1.7389 -0.9026 -2.7316
 3813TIP3   OH211395   0.561   6.618   6.565 -0.3229 -0.0770 -0.6242
 3813TIP3    H111396   0.655   6.600   6.553  0.0452  0.3454  1.3988
 3813TIP3    H211397   0.526   6.621   6.476  1.2859 -1.8296 -1.3612
 3814TIP3   OH211398   5.277   3.891   2.226  0.0325  0.2379 -0.0341
 3814TIP3    H111399   5.184   3.906   2.238  0.2548  1.0542  0.6770
 3814TIP3    H211400   5.309   3.971   2.184  0.2465 -0.4080 -1.1202
 3815TIP3   OH211401   5.580   5.032   2.076  0.1280 -0.2616  0.0231
 3815TIP3    H111402   5.506   4.973   2.087 -0.4070  0.1707 -1.2998
 3815TIP3    H211403   5.627   4.999   2.000 -0.0570  0.8902 -0.6059
 3816TIP3   OH211404   6.084   3.798   3.147  0.3666 -0.1210 -0.2351
 3816TIP3    H111405   6.047   3.777   3.233  0.2263 -0.8948 -0.4811
 3816TIP3    H211406   6.008   3.820   3.094  0.5436  1.4834  0.1373
 3817TIP3   OH211407   4.371   4.001   0.974  0.2383 -0.1474 -0.2954
 3817TIP3    H111408   4.443   3.995   1.037  0.4990  1.2474 -0.4414
 3817TIP3    H211409   4.322   3.920   0.985 -0.7827  0.8678  3.0073
 3818TIP3   OH211410   4.705   6.278   1.705  0.2371  0.2969  0.3648
 3818TIP3    H111411   4.705   6.218   1.630  2.3861  0.2692  0.3669
 3818TIP3    H211412   4.637   6.242   1.763 -0.0933 -0.8090 -0.6687
 3819TIP3   OH211413   4.218   6.108   2.096  0.2715  0.1591  0.2043
 3819TIP3    H111414   4.204   6.015   2.077  0.1015  0.3170 -0.4459
 3819TIP3    H211415   4.239   6.110   2.189  1.9587 -0.7182 -0.1178
 3820TIP3   OH211416   6.201   4.657   1.907  0.4173 -0.1198  0.8551
 3820TIP3    H111417   6.168   4.579   1.953  2.3362 -1.6611 -0.3119
 3820TIP3    H211418   6.288   4.673   1.944  0.8475  0.2753 -0.2852
 3821TIP3   OH211419   5.394   4.247   0.809 -0.0797 -0.9393 -0.2681
 3821TIP3    H111420   5.392   4.338   0.778 -0.8938 -0.9959 -0.3943
 3821TIP3    H211421   5.463   4.206   0.758  0.6938 -0.2431  0.2036
 3822TIP3   OH211422   3.626   1.259   6.724  0.1123 -0.5733  0.3800
 3822TIP3    H111423   3.673   1.328   6.676 -1.5981  0.6950  0.4883
 3822TIP3    H211424   3.580   1.306   6.793 -0.2551 -1.9767  1.1026
 3823TIP3   OH211425   6.841   3.332   2.371 -0.0419  0.5497 -0.3275
 3823TIP3    H111426   6.920   3.296   2.331 -0.9294  0.7901 -2.3989
 3823TIP3    H211427   6.851   3.316   2.465  1.0708 -2.0984 -0.8713
 3824TIP3   OH211428   5.741   5.371   3.930 -0.6166  0.4133  0.2059
 3824TIP3    H111429   5.817   5.420   3.900 -0.8262  0.6354  0.0429
 3824TIP3    H211430   5.717   5.315   3.855 -1.4805  1.3727 -0.2406
 3825TIP3   OH211431   5.999   3.156   1.720  0.1222 -0.3123  0.1554
 3825TIP3    H111432   6.046   3.237   1.738 -0.2329 -0.1519  0.3764
 3825TIP3    H211433   5.994   3.151   1.624  0.0009  0.0070  0.1470
 3826TIP3   OH211434   6.660   4.918   2.917  0.0177  0.1431  0.2781
 3826TIP3    H111435   6.740   4.889   2.873 -1.3534 -1.2785 -1.3110
 3826TIP3    H211436   6.690   4.986   2.977  1.8957  2.2491 -2.9249
 3827TIP3   OH211437   6.592   1.504   0.986 -0.5856  0.5369 -0.4270
 3827TIP3    H111438   6.678   1.546   0.984 -0.7019  0.7493 -2.0306
 3827TIP3    H211439   6.564   1.510   1.077 -0.0758  2.8998 -0.3902
 3828TIP3   OH211440   6.070   3.950   2.466 -0.1367 -0.1277 -0.0800
 3828TIP3    H111441   5.984   3.908   2.466 -0.0115 -0.4683  2.3664
 3828TIP3    H211442   6.128   3.885   2.427 -0.7423 -0.4271 -0.4896
 3829TIP3   OH211443   4.872   4.444   2.075  0.1742 -0.0883 -0.2205
 3829TIP3    H111444   4.921   4.468   1.996  1.2204 -2.0786 -0.2120
 3829TIP3    H211445   4.844   4.354   2.060 -0.0344 -0.3331  1.4721
 3830TIP3   OH211446   5.491   4.675   2.051 -0.0903  0.2691  0.0456
 3830TIP3    H111447   5.454   4.619   1.982  0.4205 -0.6381  0.5033
 3830TIP3    H211448   5.569   4.628   2.080 -0.1564  0.7878  1.0611
 3831TIP3   OH211449   0.234   0.549   3.730  0.0608  1.2724 -0.9250
 3831TIP3    H111450   0.188   0.631   3.747  1.0286  2.1349 -2.3708
 3831TIP3    H211451   0.255   0.514   3.816 -2.2125  1.4643 -0.2479
 3832TIP3   OH211452   5.640   2.865   3.102 -0.4327  0.3305  0.3458
 3832TIP3    H111453   5.560   2.816   3.122  1.3345 -2.3789  1.0159
 3832TIP3    H211454   5.649   2.927   3.173 -1.6460  0.2934  0.5461
 3833TIP3   OH211455   3.716   5.455   2.304 -0.2410 -0.1402 -0.1916
 3833TIP3    H111456   3.641   5.402   2.331  0.1028  0.0588  1.1987
 3833TIP3    H211457   3.700   5.540   2.344  0.6548 -0.0518 -0.0261
 3834TIP3   OH211458   7.115   7.436   6.910 -0.1460 -0.0522 -0.1080
 3834TIP3    H111459   7.110   7.422   7.005  2.7243  1.4948  0.3279
 3834TIP3    H211460   7.166   7.362   6.877  1.6393  1.0581  0.0580
 3835TIP3   OH211461   3.259   0.339   6.439  0.1167 -0.2643  0.0216
 3835TIP3    H111462   3.348   0.366   6.417  0.3205 -0.3574  0.7147
 3835TIP3    H211463   3.267   0.245   6.455 -0.0815 -0.2465  0.2167
 3836TIP3   OH211464   4.830   4.019   3.721  0.2136 -0.0941  0.4325
 3836TIP3    H111465   4.795   4.003   3.808 -0.2518 -1.0557  0.0779
 3836TIP3    H211466   4.925   4.024   3.734  0.2599 -1.5871  0.8132
 3837TIP3   OH211467   6.762   3.917   2.663 -0.0984  0.3060  0.2828
 3837TIP3    H111468   6.735   3.876   2.745 -0.7525 -0.2983 -0.2306
 3837TIP3    H211469   6.857   3.926   2.671  0.0049 -0.9967  0.5429
 3838TIP3   OH211470   5.384   5.363   3.464  0.2478  0.2023  0.4370
 3838TIP3    H111471   5.388   5.269   3.483  2.3967  0.3799  1.0067
 3838TIP3    H211472   5.393   5.405   3.549 -0.8992  0.9398  0.2036
 3839TIP3   OH211473   5.364   3.389   2.399 -0.3505  0.3391 -0.0933
 3839TIP3    H111474   5.358   3.431   2.312 -0.1825  0.5836  0.0106
 3839TIP3    H211475   5.383   3.462   2.458 -0.3658  0.1546  0.1350
 3840TIP3   OH211476   6.234   2.479   1.084  0.4292  0.1887  0.0349
 3840TIP3    H111477   6.283   2.430   1.019  0.2119  0.5537 -0.4030
 3840TIP3    H211478   6.290   2.479   1.162 -0.6015 -2.8767  0.8597
 3841TIP3   OH211479   6.696   5.818   4.305 -0.4002 -0.4927  0.6711
 3841TIP3    H111480   6.689   5.723   4.306 -0.6471 -0.4850 -0.0894
 3841TIP3    H211481   6.607   5.848   4.324 -0.3778 -0.4123  0.6512
 3842TIP3   OH211482   5.462   5.172   0.949 -0.5592 -0.0773  0.2651
 3842TIP3    H111483   5.547   5.184   0.990 -0.8705  0.7186  0.6939
 3842TIP3    H211484   5.429   5.261   0.936 -0.7714 -0.3384 -1.0731
 3843TIP3   OH211485   5.716   3.601   0.535 -0.1003 -0.0679 -0.1941
 3843TIP3    H111486   5.630   3.561   0.521  0.2517 -0.5675 -0.9734
 3843TIP3    H211487   5.778   3.529   0.524  0.3428 -0.0114  1.8248
 3844TIP3   OH211488   5.015   5.148   1.652 -0.2354 -0.8280  0.3726
 3844TIP3    H111489   4.946   5.201   1.613 -0.8440 -2.0079 -0.1652
 3844TIP3    H211490   4.973   5.065   1.674  1.0189 -1.5692  0.0131
 3845TIP3   OH211491   3.750   3.925   0.908  0.2171  0.5764  0.1891
 3845TIP3    H111492   3.782   3.903   0.995 -1.6536 -0.7139  0.5764
 3845TIP3    H211493   3.676   3.983   0.923  0.5527  1.2090 -0.5812
 3846TIP3   OH211494   0.726   3.328   1.314 -0.0005  0.7382 -0.3141
 3846TIP3    H111495   0.673   3.311   1.392 -1.5095  1.0088 -1.2740
 3846TIP3    H211496   0.663   3.352   1.246  1.3558  1.1528 -1.4511
 3847TIP3   OH211497   7.119   3.474   4.769 -0.0260  0.3655 -0.1173
 3847TIP3    H111498   7.162   3.490   4.684  1.1375  1.1884  0.6192
 3847TIP3    H211499   7.032   3.513   4.759  0.3417  1.0536 -0.7035
 3848TIP3   OH211500   4.586   5.364   2.875  0.4471  0.0411  0.2606
 3848TIP3    H111501   4.551   5.293   2.930  0.3757  0.1025  0.2954
 3848TIP3    H211502   4.522   5.435   2.885  1.0974  0.5237  1.1329
 3849TIP3   OH211503   5.662   5.342   2.319 -0.4530 -0.2440 -0.8920
 3849TIP3    H111504   5.578   5.304   2.344  0.6695 -2.1350  0.1091
 3849TIP3    H211505   5.647   5.436   2.320 -2.2638 -0.5213  0.3444
 3850TIP3   OH211506   1.143   5.655   6.286 -0.3411 -0.2732  0.1370
 3850TIP3    H111507   1.096   5.585   6.331  0.7994 -0.9429  0.3218
 3850TIP3    H211508   1.198   5.610   6.222  1.4526  0.3252  1.2082
 3851TIP3   OH211509   5.898   2.338   0.195 -0.0248 -0.2108  0.0848
 3851TIP3    H111510   5.878   2.294   0.278 -0.6278 -0.4134 -0.1646
 3851TIP3    H211511   5.990   2.318   0.179  0.0902 -0.1984  0.6900
 3852TIP3   OH211512   4.465   3.854   3.041 -0.4203  0.0801 -0.0400
 3852TIP3    H111513   4.492   3.762   3.044 -0.4457  0.0812  0.2945
 3852TIP3    H211514   4.535   3.900   3.087 -0.9638  0.0911  0.7857
 3853TIP3   OH211515   6.458   3.780   2.487  0.5089 -0.5906  0.3231
 3853TIP3    H111516   6.534   3.721   2.494  1.8303  1.2590  1.9005
 3853TIP3    H211517   6.496   3.866   2.470 -1.3365  0.1491 -0.1712
 3854TIP3   OH211518   6.254   3.609   4.227  0.0257  0.4222  0.8117
 3854TIP3    H111519   6.320   3.677   4.235  0.1540  0.4042  0.0093
 3854TIP3    H211520   6.190   3.645   4.165  0.3113 -0.3453  0.0540
 3855TIP3   OH211521   4.551   2.630   1.165  0.3260  0.4047  0.0575
 3855TIP3    H111522   4.615   2.578   1.214  1.8279  2.2963  0.1401
 3855TIP3    H211523   4.555   2.596   1.076 -0.0464 -0.8487  0.5046
 3856TIP3   OH211524   5.581   2.695   0.919  0.1830 -0.0319  0.0412
 3856TIP3    H111525   5.578   2.770   0.979 -0.2780  0.0093 -0.0302
 3856TIP3    H211526   5.666   2.655   0.934 -0.5983 -1.0237  1.9208
 3857TIP3   OH211527   7.796   3.262   2.601 -0.0235 -0.1843 -0.2393
 3857TIP3    H111528   7.754   3.236   2.518 -0.7452 -1.1162  0.4061
 3857TIP3    H211529   7.723   3.285   2.659  0.4014 -0.9693  0.6138
 3858TIP3   OH211530   7.124   3.204   1.892  0.0217 -0.5361 -0.0681
 3858TIP3    H111531   7.122   3.221   1.986  0.7713 -1.2818  0.0877
 3858TIP3    H211532   7.087   3.116   1.883 -0.3454 -0.3378 -0.5012
 3859TIP3   OH211533   6.296   4.980   1.709 -0.0536  0.2626  0.5313
 3859TIP3    H111534   6.337   4.909   1.661 -1.4562 -0.9455  1.0969
 3859TIP3    H211535   6.350   4.991   1.787 -0.3052 -0.7379  0.8503
 3860TIP3   OH211536   5.036   5.669   2.132 -0.2475  0.0823 -0.1578
 3860TIP3    H111537   5.127   5.691   2.154 -0.4088  0.2524  0.3277
 3860TIP3    H211538   4.983   5.729   2.184 -0.6172  0.9107 -1.4410
 3861TIP3   OH211539   5.876   4.291   0.573  0.3631  0.5286  0.5409
 3861TIP3    H111540   5.846   4.292   0.665  1.5329  1.0382  0.9218
 3861TIP3    H211541   5.970   4.277   0.579  0.5016  0.9859 -0.5853
 3862TIP3   OH211542   5.030   3.619   2.190  0.1067 -0.7999 -0.1850
 3862TIP3    H111543   5.070   3.658   2.267 -0.5350  0.2522 -0.3849
 3862TIP3    H211544   5.095   3.555   2.159  0.3567 -1.2319  1.2209
 3863TIP3   OH211545   3.929   4.411   2.306 -1.2868 -0.2167  0.0908
 3863TIP3    H111546   3.975   4.494   2.294 -0.2337 -0.7309  0.5040
 3863TIP3    H211547   3.918   4.404   2.401 -1.2144 -0.6409  0.0667
 3864TIP3   OH211548   5.461   4.854   2.655  0.2553 -0.4942  0.1397
 3864TIP3    H111549   5.377   4.817   2.684  0.7081 -2.2863 -0.8149
 3864TIP3    H211550   5.461   4.842   2.560  1.2287  0.2830  0.0359
 3865TIP3   OH211551   7.412   6.386   3.170 -0.4354 -0.5549 -0.8067
 3865TIP3    H111552   7.325   6.354   3.192 -0.4821 -0.0989 -0.3069
 3865TIP3    H211553   7.428   6.456   3.234  0.1676 -0.4321 -1.0925
 3866TIP3   OH211554   4.387   1.405   3.105  0.0716  0.3363 -0.1165
 3866TIP3    H111555   4.353   1.316   3.095  1.8139 -0.6315  2.1228
 3866TIP3    H211556   4.471   1.404   3.058  1.7203 -0.2669  2.6696
 3867TIP3   OH211557   6.670   3.861   0.942 -0.1136  0.3314 -0.7657
 3867TIP3    H111558   6.761   3.838   0.922 -0.2698 -0.7133 -0.3142
 3867TIP3    H211559   6.635   3.894   0.859  0.4499 -0.0117 -1.1458
 3868TIP3   OH211560   8.006   2.845   2.033 -0.0785  0.2580  0.2000
 3868TIP3    H111561   7.989   2.833   2.127  0.9784  1.1768  0.5139
 3868TIP3    H211562   7.954   2.777   1.991 -0.9065  0.1034  1.4272
 3869TIP3   OH211563   4.341   4.254   1.211  0.0138  0.0225  0.2609
 3869TIP3    H111564   4.274   4.300   1.161  0.5616 -0.1148 -0.5991
 3869TIP3    H211565   4.292   4.206   1.278 -0.6411  0.9972  0.4836
 3870TIP3   OH211566   7.081   5.476   1.829 -0.3015  0.5286 -0.4932
 3870TIP3    H111567   7.065   5.555   1.778 -0.8476 -0.2575 -1.5804
 3870TIP3    H211568   7.106   5.410   1.763  0.8968 -0.0068  0.4646
 3871TIP3   OH211569   3.892   2.611   0.522 -0.5908  0.3306 -0.1833
 3871TIP3    H111570   3.833   2.667   0.472 -0.9108 -0.0020 -0.1789
 3871TIP3    H211571   3.969   2.602   0.466 -0.5833  0.6833 -0.2322
 3872TIP3   OH211572   4.648   1.889   1.631  0.4468 -0.1740 -0.3965
 3872TIP3    H111573   4.675   1.979   1.614 -1.5754  0.1829 -1.8619
 3872TIP3    H211574   4.553   1.892   1.635  0.3115 -2.3316 -1.0868
 3873TIP3   OH211575   4.990   5.263   2.009 -0.4006 -0.6519  0.3045
 3873TIP3    H111576   4.967   5.230   2.096 -0.4630  0.0484  0.5539
 3873TIP3    H211577   5.052   5.198   1.974  0.2289 -0.5314  1.1832
 3874TIP3   OH211578   5.432   0.489   6.230 -0.0686  0.4227  0.0563
 3874TIP3    H111579   5.466   0.574   6.256 -0.2377  0.8369 -1.0603
 3874TIP3    H211580   5.435   0.436   6.310  0.7563  1.2419  0.5712
 3875TIP3   OH211581   5.756   5.997   2.300  0.5668  0.6450  0.2050
 3875TIP3    H111582   5.725   6.032   2.216  1.6037  0.6015 -0.2128
 3875TIP3    H211583   5.843   6.036   2.311  0.4577  0.6027  1.2360
 3876TIP3   OH211584   6.972   2.159   1.220  0.0756  0.5274  0.2870
 3876TIP3    H111585   6.988   2.219   1.147  1.0072  0.5226  0.4863
 3876TIP3    H211586   6.915   2.092   1.183 -0.0994  0.9556 -0.2266
 3877TIP3   OH211587   4.880   5.199   3.755  0.8642 -0.8237  0.0695
 3877TIP3    H111588   4.788   5.225   3.749  0.9990 -0.3579  0.0295
 3877TIP3    H211589   4.884   5.115   3.709  0.1811 -1.5519  1.2945
 3878TIP3   OH211590   5.342   4.911   2.089  0.3487 -0.0993 -0.0603
 3878TIP3    H111591   5.369   4.821   2.106 -0.2166 -0.6456 -1.9206
 3878TIP3    H211592   5.289   4.905   2.010 -2.3043  1.4368  1.5407
 3879TIP3   OH211593   5.032   3.469   1.867  0.3168 -0.6180  0.2395
 3879TIP3    H111594   5.100   3.537   1.866 -0.7128  0.4295 -0.0074
 3879TIP3    H211595   5.046   3.421   1.785  1.6804 -1.3417  0.8980
 3880TIP3   OH211596   4.096   4.391   2.987 -0.0241  0.2317 -0.7084
 3880TIP3    H111597   4.035   4.327   2.951  1.2148 -1.3791 -0.0169
 3880TIP3    H211598   4.053   4.476   2.974 -2.8416 -0.9339  0.7313
 3881TIP3   OH211599   3.287   4.708   0.935  0.2987 -0.2335  0.2717
 3881TIP3    H111600   3.307   4.750   1.019  0.5819  0.4401 -0.1265
 3881TIP3    H211601   3.192   4.703   0.933  0.3253 -1.1835  1.0806
 3882TIP3   OH211602   2.307   3.707   2.668 -0.3634 -0.3858 -0.6555
 3882TIP3    H111603   2.332   3.621   2.701  1.2276  0.2950 -0.0690
 3882TIP3    H211604   2.222   3.725   2.710  0.2835 -0.7687  0.8402
 3883TIP3   OH211605   4.638   4.994   2.144  0.4535 -0.0089  0.1237
 3883TIP3    H111606   4.699   4.976   2.072  0.6140  1.1147 -0.0350
 3883TIP3    H211607   4.554   4.963   2.112  1.1827 -2.8931  0.8989
 3884TIP3   OH211608   5.878   3.886   1.544  0.4308 -0.0362 -0.2293
 3884TIP3    H111609   5.843   3.873   1.456  0.0069  0.8175 -0.1862
 3884TIP3    H211610   5.940   3.814   1.555 -0.6279 -1.0241 -0.6490
 3885TIP3   OH211611   0.612   4.246   2.705  0.0767 -0.1381 -0.2357
 3885TIP3    H111612   0.536   4.238   2.762 -0.1948 -0.2006 -0.6010
 3885TIP3    H211613   0.581   4.215   2.620  0.0972  1.1884 -0.7396
 3886TIP3   OH211614   4.874   4.865   0.428 -0.5421  0.0702  0.4681
 3886TIP3    H111615   4.879   4.825   0.514  0.0987  0.5862  0.6833
 3886TIP3    H211616   4.944   4.931   0.428  0.1064 -0.5887 -0.7820
 3887TIP3   OH211617   4.198   5.882   2.758 -0.0459  0.4841 -0.4362
 3887TIP3    H111618   4.109   5.847   2.753  1.0820 -2.5627 -0.4748
 3887TIP3    H211619   4.237   5.834   2.831  1.2324  2.6286  0.3152
 3888TIP3   OH211620   6.010   4.377   0.230  0.0709  0.0747 -0.3711
 3888TIP3    H111621   5.982   4.448   0.288  0.9995  0.1692 -0.0320
 3888TIP3    H211622   6.104   4.369   0.246 -0.3058 -2.3008  0.7255
 3889TIP3   OH211623   5.548   3.374   3.338 -0.3023 -0.3168 -0.6534
 3889TIP3    H111624   5.461   3.355   3.305 -1.2544  0.2791  1.3952
 3889TIP3    H211625   5.550   3.470   3.346 -0.4468 -0.4792  1.7710
 3890TIP3   OH211626   6.700   3.690   1.525  0.1838  0.1348  0.3965
 3890TIP3    H111627   6.746   3.737   1.595 -0.2934 -0.3925  1.0756
 3890TIP3    H211628   6.615   3.735   1.518  0.1114 -0.0058  0.3752
 3891TIP3   OH211629   5.353   6.001   1.729 -0.0642 -0.4224 -0.1891
 3891TIP3    H111630   5.302   5.946   1.670  0.6890 -0.2731 -0.9890
 3891TIP3    H211631   5.302   6.081   1.737 -0.3918 -0.6211 -0.2636
 3892TIP3   OH211632   2.860   5.779   3.072 -0.1666  0.3526  0.0529
 3892TIP3    H111633   2.887   5.859   3.027 -1.3318  1.3697  1.1160
 3892TIP3    H211634   2.778   5.754   3.029 -0.5969  0.5970  0.7182
 3893TIP3   OH211635   7.268   4.132   3.958 -0.4253  0.7875  0.0026
 3893TIP3    H111636   7.268   4.098   4.047  0.6758  0.0782 -0.2596
 3893TIP3    H211637   7.214   4.070   3.908  0.7489 -0.0430 -0.2636
 3894TIP3   OH211638   6.435   1.635   1.700  0.0359 -0.4985  0.3213
 3894TIP3    H111639   6.468   1.717   1.664  0.1541 -0.0717  1.3733
 3894TIP3    H211640   6.379   1.661   1.773 -1.9646 -1.2591 -0.9060
 3895TIP3   OH211641   3.951   5.075   1.603 -0.1762 -0.2040 -0.4445
 3895TIP3    H111642   4.044   5.067   1.582  0.9291  1.8100  3.1686
 3895TIP3    H211643   3.925   5.160   1.566 -0.4575 -0.5179 -0.9774
 3896TIP3   OH211644   4.181   3.730   3.124  0.1050  0.7597  0.3325
 3896TIP3    H111645   4.183   3.757   3.032 -0.1595 -2.3839 -0.6361
 3896TIP3    H211646   4.242   3.656   3.129 -1.4583 -0.4445  2.2290
 3897TIP3   OH211647   6.596   1.845   3.744 -0.5464 -0.0706  0.4776
 3897TIP3    H111648   6.612   1.938   3.761  0.5348 -0.1099 -0.2877
 3897TIP3    H211649   6.605   1.835   3.649  0.6448 -1.1913  0.6891
 3898TIP3   OH211650   7.727   3.034   2.052 -0.2317 -0.2028  0.6591
 3898TIP3    H111651   7.731   2.973   2.126 -2.1284  0.6557  1.5129
 3898TIP3    H211652   7.714   2.979   1.975  1.9050 -1.1184  0.9220
 3899TIP3   OH211653   6.395   1.952   0.934 -0.6172  0.0844 -0.4788
 3899TIP3    H111654   6.331   1.882   0.945 -0.6438  0.0338 -0.9345
 3899TIP3    H211655   6.356   2.010   0.869 -1.0214  1.0345  0.5859
 3900TIP3   OH211656   7.125   3.132   1.556 -0.4056 -0.4079 -0.0591
 3900TIP3    H111657   7.102   3.222   1.576 -2.3584 -0.9996  0.4850
 3900TIP3    H211658   7.165   3.099   1.637  0.9698  0.1692 -0.4952
 3901TIP3   OH211659   7.154   4.451   0.938  0.8967  0.0695  0.4723
 3901TIP3    H111660   7.105   4.529   0.968 -1.5995 -2.0293  2.0734
 3901TIP3    H211661   7.095   4.410   0.875  1.4337 -1.4595  0.9601
 3902TIP3   OH211662   6.916   4.135   0.573  0.2197 -0.0207  0.4103
 3902TIP3    H111663   6.954   4.220   0.552 -1.3338  0.7711  0.7232
 3902TIP3    H211664   6.958   4.074   0.512  1.6703  0.8769  0.4748
 3903TIP3   OH211665   6.582   5.006   3.472  0.5253 -0.2636  0.1618
 3903TIP3    H111666   6.613   4.954   3.398  2.2014 -1.7405  1.8458
 3903TIP3    H211667   6.644   4.986   3.543 -1.3100  0.7342  2.1035
 3904TIP3   OH211668   6.882   4.906   3.895  0.1702 -0.7077 -0.0807
 3904TIP3    H111669   6.966   4.947   3.874  0.2072 -0.6964  0.0854
 3904TIP3    H211670   6.901   4.812   3.900  0.2658 -0.6645  0.3924
 3905TIP3   OH211671   6.218   4.241   1.351 -0.1875  0.0761  0.2515
 3905TIP3    H111672   6.183   4.330   1.354 -0.2121  0.1284 -1.1175
 3905TIP3    H211673   6.159   4.195   1.290  0.1617 -0.7161  0.5089
 3906TIP3   OH211674   2.616   5.284   3.625  0.0167  0.1126 -0.3088
 3906TIP3    H111675   2.592   5.195   3.601  0.1073 -0.2273  0.8129
 3906TIP3    H211676   2.697   5.301   3.578  0.1104 -0.4745 -0.3596
 3907TIP3   OH211677   1.839   4.794   2.515  0.2433 -0.8265  0.0459
 3907TIP3    H111678   1.876   4.715   2.477 -0.4695 -1.6831  1.0934
 3907TIP3    H211679   1.748   4.794   2.484 -0.5369 -1.8953  2.2647
 3908TIP3   OH211680   3.736   4.684   2.851 -0.1453 -0.6183 -0.3943
 3908TIP3    H111681   3.770   4.763   2.810 -0.8552  0.0704  0.3125
 3908TIP3    H211682   3.641   4.690   2.840 -0.1342 -1.9185 -1.2874
 3909TIP3   OH211683   0.208   6.917   5.985 -0.1752  0.4774 -0.0099
 3909TIP3    H111684   0.252   6.849   5.934 -0.8925  0.6971 -0.9203
 3909TIP3    H211685   0.223   6.891   6.077  2.0828  0.6889 -0.2776
 3910TIP3   OH211686   5.441   4.726   1.073  0.2318  0.2678  0.6622
 3910TIP3    H111687   5.459   4.727   1.167  2.4958 -0.0678  0.2724
 3910TIP3    H211688   5.526   4.708   1.032 -0.9306 -0.8541 -1.3962
 3911TIP3   OH211689   1.167   7.431   6.699  0.4100  0.2090 -0.0134
 3911TIP3    H111690   1.244   7.486   6.682  1.5743 -1.7231 -1.2533
 3911TIP3    H211691   1.186   7.349   6.653 -1.7025 -0.8843  0.9919
 3912TIP3   OH211692   5.871   3.477   1.881  0.4066  0.2809  0.4061
 3912TIP3    H111693   5.957   3.514   1.897  0.2030 -0.7121  4.3244
 3912TIP3    H211694   5.840   3.449   1.967 -3.0045 -1.2003 -1.1823
 3913TIP3   OH211695   2.635   0.521   6.390  0.1389 -0.0050  0.1581
 3913TIP3    H111696   2.550   0.486   6.415  0.1176 -0.8987 -1.1829
 3913TIP3    H211697   2.677   0.451   6.340  1.2983  0.7624  0.0393
 3914TIP3   OH211698   4.769   3.785   3.092  0.2497  0.2081 -0.1941
 3914TIP3    H111699   4.750   3.730   3.168 -1.7359 -0.0500 -0.8643
 3914TIP3    H211700   4.762   3.874   3.125 -1.1905  0.1058 -0.1916
 3915TIP3   OH211701   7.339   2.903   0.509  0.5333  0.6010 -0.6419
 3915TIP3    H111702   7.364   2.887   0.418 -1.7718 -3.1519 -0.7046
 3915TIP3    H211703   7.378   2.830   0.557 -1.0996  0.7237  0.8735
 3916TIP3   OH211704   6.538   5.291   1.178 -0.2337 -0.4501 -0.5020
 3916TIP3    H111705   6.487   5.372   1.178 -0.6643 -0.6859  1.5729
 3916TIP3    H211706   6.625   5.317   1.150 -0.4769  0.6508 -0.2647
 3917TIP3   OH211707   4.946   2.586   3.770  0.2646  0.0359  0.2779
 3917TIP3    H111708   4.910   2.650   3.833 -0.1025 -1.6900  1.8551
 3917TIP3    H211709   5.036   2.571   3.799 -0.7401 -2.8192  2.0917
 3918TIP3   OH211710   5.671   3.840   1.720 -0.1871  0.2718  0.0280
 3918TIP3    H111711   5.612   3.807   1.653  0.0164 -0.6485  0.3028
 3918TIP3    H211712   5.726   3.903   1.674 -0.4028  0.0437 -0.5495
 3919TIP3   OH211713   5.462   4.369   2.890 -0.0303  0.7684 -0.1238
 3919TIP3    H111714   5.541   4.399   2.936  0.7540 -1.6646  0.1927
 3919TIP3    H211715   5.475   4.396   2.799  1.9664 -1.0345 -0.4130
 3920TIP3   OH211716   5.099   1.477   0.257  0.7139 -0.1083  0.4092
 3920TIP3    H111717   5.183   1.431   0.252  1.0485  0.6166 -1.1827
 3920TIP3    H211718   5.102   1.525   0.339  0.7244 -2.2133  1.6838
 3921TIP3   OH211719   6.059   3.675   1.231  0.3163  0.3093 -0.1048
 3921TIP3    H111720   6.015   3.675   1.146 -0.6982  1.5409  0.3920
 3921TIP3    H211721   6.006   3.617   1.285  0.6300 -0.0214 -0.1530
 3922TIP3   OH211722   4.819   3.980   1.938  0.0888  0.7012  0.4497
 3922TIP3    H111723   4.733   3.938   1.943 -0.3507  1.6254  0.7643
 3922TIP3    H211724   4.881   3.908   1.933 -0.7158  0.0248  0.0857
 3923TIP3   OH211725   6.439   3.099   2.479 -0.1609 -0.2674 -0.1541
 3923TIP3    H111726   6.357   3.147   2.466 -0.7712 -1.3815 -0.4580
 3923TIP3    H211727   6.487   3.111   2.397  0.7859  1.8793  0.6683
 3924TIP3   OH211728   0.082   5.324   4.099  0.6193 -0.0823  0.0171
 3924TIP3    H111729   0.000   5.357   4.136  0.9338 -0.9294  1.5512
 3924TIP3    H211730   0.072   5.333   4.005 -2.0777 -2.0260  0.0510
 3925TIP3   OH211731   6.966   4.927   4.457 -0.2970  0.1245  0.7897
 3925TIP3    H111732   6.891   4.869   4.472 -1.0706  0.5172 -1.3584
 3925TIP3    H211733   6.974   4.930   4.362  1.8321  0.9044  0.9916
 3926TIP3   OH211734   4.919   5.113   1.339  0.2905 -0.1141  0.7135
 3926TIP3    H111735   4.887   5.075   1.258  1.3134 -0.6843  0.5722
 3926TIP3    H211736   4.842   5.115   1.397 -0.6503  1.1295 -0.5592
 3927TIP3   OH211737   6.320   3.676   2.758 -0.3061  0.5215  0.2632
 3927TIP3    H111738   6.321   3.585   2.729 -0.3220  0.6242 -0.0724
 3927TIP3    H211739   6.388   3.718   2.706 -0.1245  0.6471  0.6025
 3928TIP3   OH211740   6.719   2.487   2.119  0.1627 -0.0448  0.3213
 3928TIP3    H111741   6.746   2.577   2.101 -0.0239  0.1245  0.8698
 3928TIP3    H211742   6.723   2.443   2.034 -2.2153  1.1229 -0.4538
 3929TIP3   OH211743   4.507   3.854   2.516  0.1091  0.1713 -0.1517
 3929TIP3    H111744   4.499   3.785   2.583  0.4739  0.7392  0.4797
 3929TIP3    H211745   4.586   3.831   2.468 -0.0712 -0.1549 -0.2983
 3930TIP3   OH211746   7.399   3.962   3.614 -0.8611  0.2529 -0.3196
 3930TIP3    H111747   7.321   4.010   3.588 -1.3937 -1.0205 -1.1473
 3930TIP3    H211748   7.384   3.873   3.582  0.9910  0.0270 -0.6239
 3931TIP3   OH211749   7.892   3.744   2.731 -0.1619 -0.3090 -0.2931
 3931TIP3    H111750   7.862   3.718   2.644 -1.5804 -0.7630  0.3279
 3931TIP3    H211751   7.944   3.670   2.762 -0.9174 -0.7661 -0.1283
 3932TIP3   OH211752   7.319   2.375   4.755  0.0130 -0.3967  0.1889
 3932TIP3    H111753   7.338   2.282   4.746  0.9967 -0.1811  0.0673
 3932TIP3    H211754   7.363   2.416   4.681 -0.2104  0.1974  0.3852
 3933TIP3   OH211755   2.878   4.931   2.787  0.5788  0.7128 -0.3329
 3933TIP3    H111756   2.836   4.906   2.869  0.9294 -0.2539 -0.4437
 3933TIP3    H211757   2.888   4.849   2.738 -0.3388  1.3801 -1.6798
 3934TIP3   OH211758   5.769   4.573   1.777 -0.0970 -0.0042  0.0076
 3934TIP3    H111759   5.816   4.618   1.707 -0.2193 -0.7768 -0.5807
 3934TIP3    H211760   5.833   4.564   1.847 -0.0366  0.9670  0.0799
 3935TIP3   OH211761   7.889   3.350   5.777 -0.5287 -0.3680  0.2599
 3935TIP3    H111762   7.897   3.362   5.872  1.6842 -0.2430  0.0973
 3935TIP3    H211763   7.957   3.286   5.756  1.8194  2.6945 -1.7818
 3936TIP3   OH211764   4.992   5.393   1.476  0.0014  0.5278  0.4398
 3936TIP3    H111765   5.058   5.324   1.465 -0.9172 -0.2415 -0.4407
 3936TIP3    H211766   5.018   5.461   1.413 -0.5452 -0.1818 -0.5746
 3937TIP3   OH211767   5.177   4.709   0.385 -0.2247 -0.2027  0.5074
 3937TIP3    H111768   5.143   4.787   0.341 -1.2005 -0.3767  0.9367
 3937TIP3    H211769   5.250   4.742   0.438 -0.8488  0.4826  0.9472
 3938TIP3   OH211770   4.302   4.256   1.566  0.1824  0.1504  0.7189
 3938TIP3    H111771   4.311   4.176   1.515 -1.1050 -0.9721  2.2152
 3938TIP3    H211772   4.392   4.281   1.588  0.8992  1.5229 -3.3247
 3939TIP3   OH211773   5.184   4.044   2.970  0.2046  0.3742  0.0239
 3939TIP3    H111774   5.253   4.038   3.035  2.5678  0.5673 -2.3816
 3939TIP3    H211775   5.104   4.061   3.021  2.0613  1.1570  2.7723
 3940TIP3   OH211776   7.803   6.045   0.528 -0.2972  0.1393 -0.6585
 3940TIP3    H111777   7.894   6.074   0.528 -0.4570  0.6690 -1.3850
 3940TIP3    H211778   7.794   5.991   0.607  0.1812  1.5538  0.3794
 3941TIP3   OH211779   5.313   4.962   2.361  0.3039  0.3699  0.3604
 3941TIP3    H111780   5.224   4.949   2.394  0.3703 -1.8098 -0.2264
 3941TIP3    H211781   5.303   4.964   2.266  1.0743 -2.0727  0.1730
 3942TIP3   OH211782   8.147   5.643   0.892 -0.2133  0.3456 -0.2069
 3942TIP3    H111783   8.075   5.588   0.862 -1.0525  0.6641  1.1405
 3942TIP3    H211784   8.179   5.599   0.971  0.6268  0.5713 -0.4195
 3943TIP3   OH211785   6.425   6.477   0.288  0.7666 -0.2655  0.0229
 3943TIP3    H111786   6.374   6.480   0.208 -0.9907 -3.1344  1.0038
 3943TIP3    H211787   6.492   6.411   0.272  0.8594 -0.3347  0.6839
 3944TIP3   OH211788   6.687   2.838   0.454  0.2898  0.3862  0.6610
 3944TIP3    H111789   6.640   2.757   0.435  1.7912 -0.6695  1.2692
 3944TIP3    H211790   6.665   2.858   0.545 -0.2543  0.7850  0.4423
 3945TIP3   OH211791   6.399   6.091   1.411  0.1988 -0.2433  0.2134
 3945TIP3    H111792   6.478   6.040   1.426  1.3957  0.8140 -2.2416
 3945TIP3    H211793   6.429   6.181   1.401 -1.3212  0.2209 -0.4088
 3946TIP3   OH211794   5.112   3.872   2.731  0.0406  0.4127 -0.6357
 3946TIP3    H111795   5.066   3.954   2.750 -0.4989 -0.3166  1.3345
 3946TIP3    H211796   5.045   3.813   2.698  0.0627  0.1890 -0.2895
 3947TIP3   OH211797   7.928   5.396   1.022 -0.1062  0.0853  0.0199
 3947TIP3    H111798   7.887   5.438   1.097  1.2049  1.4163  0.0051
 3947TIP3    H211799   7.991   5.335   1.060  1.1658  1.3752  0.0101
 3948TIP3   OH211800   4.248   4.570   0.405 -0.1696  0.5928  0.0777
 3948TIP3    H111801   4.237   4.601   0.495 -2.2762 -1.7507  0.6729
 3948TIP3    H211802   4.174   4.608   0.358 -0.8695 -0.7439  0.0710
 3949TIP3   OH211803   3.096   5.830   2.841 -0.6090 -0.0631 -0.3826
 3949TIP3    H111804   3.019   5.887   2.853  0.0921  0.6691  0.7397
 3949TIP3    H211805   3.155   5.855   2.912 -0.0345 -1.7988 -0.2324
 3950TIP3   OH211806   6.573   4.452   1.264  0.4181  0.0168  0.1162
 3950TIP3    H111807   6.492   4.497   1.286 -0.7267 -3.0770  2.7950
 3950TIP3    H211808   6.638   4.488   1.324 -0.0265 -0.5032  0.9179
 3951TIP3   OH211809   6.478   3.192   3.008  0.2322 -0.1396 -0.3465
 3951TIP3    H111810   6.549   3.176   3.071  0.7151  2.3889 -0.2172
 3951TIP3    H211811   6.512   3.159   2.925  0.7953 -0.7150  0.1016
 3952TIP3   OH211812   4.563   4.601   2.507  0.4583  0.4383  0.2254
 3952TIP3    H111813   4.484   4.569   2.463  0.7911  2.0430 -1.6059
 3952TIP3    H211814   4.633   4.543   2.477  0.1951 -0.2357  0.8996
 3953TIP3   OH211815   1.123   3.657   1.399  0.2351  0.3493  0.2015
 3953TIP3    H111816   1.112   3.682   1.307 -2.2156 -0.5325  0.2325
 3953TIP3    H211817   1.162   3.569   1.395 -0.4465  0.0516 -0.0204
 3954TIP3   OH211818   5.038   4.397   2.703 -0.6706 -0.0084 -0.0927
 3954TIP3    H111819   5.105   4.392   2.771 -1.0015 -1.6205  0.1374
 3954TIP3    H211820   4.959   4.423   2.749 -0.8118 -0.7515  0.1014
 3955TIP3   OH211821   7.717   5.221   4.001 -0.2323  0.3921 -0.8623
 3955TIP3    H111822   7.740   5.148   4.058 -1.3542  1.2917  0.7715
 3955TIP3    H211823   7.645   5.187   3.947  1.3693 -0.7232 -2.3557
 3956TIP3   OH211824   4.790   3.474   2.528 -0.0125 -0.3250 -0.2564
 3956TIP3    H111825   4.853   3.537   2.563  1.9236 -2.6121  0.5407
 3956TIP3    H211826   4.837   3.427   2.460 -0.4304 -2.8044  1.0707
 3957TIP3   OH211827   6.283   5.426   2.053 -0.2370  0.2226  0.0540
 3957TIP3    H111828   6.304   5.451   2.143  0.4416 -1.9897  0.5461
 3957TIP3    H211829   6.254   5.335   2.059 -2.0648  0.6356 -1.7271
 3958TIP3   OH211830   4.863   4.582   0.901 -0.2904  0.5117  0.2252
 3958TIP3    H111831   4.880   4.489   0.919 -1.9897  0.4631  1.6595
 3958TIP3    H211832   4.876   4.590   0.806 -0.1428 -1.1962  0.0747
 3959TIP3   OH211833   6.574   3.893   3.250 -0.1716 -0.4895 -0.1633
 3959TIP3    H111834   6.648   3.910   3.192  0.3406 -1.3785  0.2255
 3959TIP3    H211835   6.545   3.980   3.277 -0.2299 -0.0693 -1.5014
 3960TIP3   OH211836   5.511   4.177   1.816 -0.3562 -0.0815 -0.2344
 3960TIP3    H111837   5.472   4.112   1.757 -2.3425 -0.7579  1.7483
 3960TIP3    H211838   5.563   4.124   1.877 -1.2713  0.2765  0.8533
 3961TIP3   OH211839   5.802   4.084   2.822 -0.2654 -0.0091  0.6155
 3961TIP3    H111840   5.715   4.073   2.783 -0.6918  0.4224  1.4431
 3961TIP3    H211841   5.788   4.079   2.916  0.4658  1.0122  0.7940
 3962TIP3   OH211842   6.736   2.242   3.091 -0.6427 -0.4513 -0.2148
 3962TIP3    H111843   6.658   2.296   3.085  0.4535  1.1872 -0.1353
 3962TIP3    H211844   6.742   2.198   3.007 -1.3568 -0.1675 -0.4116
 3963TIP3   OH211845   8.164   3.083   3.106 -0.0140 -0.2428  0.4542
 3963TIP3    H111846   8.153   3.021   3.033  0.0523 -1.1791  1.2361
 3963TIP3    H211847   8.206   3.159   3.066  1.2666 -1.2848 -0.2198
 3964TIP3   OH211848   6.867   3.575   1.820  0.4864  0.4082  0.2900
 3964TIP3    H111849   6.875   3.578   1.724 -1.1563 -2.1982  0.0073
 3964TIP3    H211850   6.940   3.521   1.848  2.4994  3.3051  0.8019
 3965TIP3   OH211851   7.771   1.754   2.981 -0.0554  0.0287 -0.2670
 3965TIP3    H111852   7.726   1.671   2.962  1.2560 -0.8993  0.5199
 3965TIP3    H211853   7.839   1.759   2.915 -0.8288  1.0496 -0.9913
 3966TIP3   OH211854   3.974   5.779   1.486  0.1808  0.0621  0.3016
 3966TIP3    H111855   4.046   5.792   1.425 -0.1429 -1.9336 -0.5256
 3966TIP3    H211856   4.015   5.777   1.572  1.1101 -0.9580 -0.1570
 3967TIP3   OH211857   4.805   4.035   2.746 -0.1126 -0.1664  0.4732
 3967TIP3    H111858   4.788   4.076   2.662  2.7471  0.1968  0.0316
 3967TIP3    H211859   4.779   4.101   2.811 -1.1044  0.0376 -0.1195
 3968TIP3   OH211860   5.944   4.317   4.351 -0.3678 -0.1324  0.3027
 3968TIP3    H111861   5.878   4.333   4.284 -0.7448  0.8527  0.8944
 3968TIP3    H211862   5.962   4.223   4.346  0.5203  0.1502 -2.0002
 3969TIP3   OH211863   6.217   6.312   3.291  0.6762  0.0714 -0.4476
 3969TIP3    H111864   6.195   6.319   3.384  1.3241  1.2786 -0.3802
 3969TIP3    H211865   6.254   6.224   3.282  0.7584  0.0054  0.4731
 3970TIP3   OH211866   7.568   3.508   1.502  0.0928 -0.2065  0.1068
 3970TIP3    H111867   7.627   3.503   1.577 -0.1423  1.6034  0.4280
 3970TIP3    H211868   7.597   3.437   1.444 -0.3923 -2.3340  2.3599
 3971TIP3   OH211869   2.070   5.934   2.596  0.0556 -0.1073 -0.1859
 3971TIP3    H111870   2.109   5.940   2.509 -1.2817 -2.4341 -0.9956
 3971TIP3    H211871   1.976   5.945   2.581  0.0566  2.3820  1.3532
 3972TIP3   OH211872   4.073   5.335   2.864  0.3772  0.0245 -0.2460
 3972TIP3    H111873   4.154   5.293   2.833  1.6134  0.9719  1.5818
 3972TIP3    H211874   4.036   5.272   2.925 -0.6906 -0.7380 -1.6618
 3973TIP3   OH211875   6.461   6.245   1.900  0.3391  0.0198 -0.3334
 3973TIP3    H111876   6.522   6.187   1.855 -0.4807 -0.9342 -0.2339
 3973TIP3    H211877   6.381   6.240   1.848 -0.6786 -1.2290  1.2905
 3974TIP3   OH211878   6.821   5.755   1.963  0.0170 -0.3185 -0.1006
 3974TIP3    H111879   6.891   5.788   1.907  0.0876 -0.7986 -0.2927
 3974TIP3    H211880   6.826   5.811   2.041 -0.2505  0.5144 -0.6720
 3975TIP3   OH211881   6.340   3.999   3.941  0.7136 -0.7685 -0.2780
 3975TIP3    H111882   6.299   3.974   4.023  0.8962  0.2340  0.1358
 3975TIP3    H211883   6.335   3.921   3.885  0.4971 -1.4157  0.6465
 3976TIP3   OH211884   4.964   5.604   4.156 -0.5189  0.1416  0.0650
 3976TIP3    H111885   5.048   5.559   4.147 -0.6089 -0.0810  0.3171
 3976TIP3    H211886   4.981   5.673   4.220 -0.2450  0.8114 -0.7199
 3977TIP3   OH211887   3.945   2.438   2.591  0.1627  0.1037 -0.1659
 3977TIP3    H111888   4.012   2.400   2.535 -0.4014  0.7266 -1.2913
 3977TIP3    H211889   3.994   2.485   2.659  0.8610 -0.1435 -0.4933
 3978TIP3   OH211890   1.862   2.903   2.084  0.0067  0.6734  0.0013
 3978TIP3    H111891   1.906   2.979   2.121  0.6976 -0.1956  1.0225
 3978TIP3    H211892   1.863   2.838   2.155 -0.5679 -0.2795 -0.8457
 3979TIP3   OH211893   5.837   3.521   2.919  0.6065  0.8951  0.2937
 3979TIP3    H111894   5.834   3.612   2.950 -0.8302  0.3266  1.8456
 3979TIP3    H211895   5.746   3.493   2.917  0.9179 -0.0187 -1.7046
 3980TIP3   OH211896   6.255   5.804   2.210  0.2367 -0.6592  0.1902
 3980TIP3    H111897   6.346   5.823   2.185  0.2494 -1.7490 -0.5987
 3980TIP3    H211898   6.252   5.709   2.221 -0.9101 -0.6751 -0.1953
 3981TIP3   OH211899   6.461   3.495   1.133  0.1475 -0.1398 -0.1973
 3981TIP3    H111900   6.442   3.587   1.115  2.5745  0.4423  0.0638
 3981TIP3    H211901   6.466   3.490   1.228 -1.3337 -0.8537 -0.1396
 3982TIP3   OH211902   6.185   3.571   3.311 -0.4790  0.3524  0.2505
 3982TIP3    H111903   6.181   3.506   3.382  2.0440  1.5240  1.5747
 3982TIP3    H211904   6.129   3.642   3.341 -0.2892  0.3747  0.5569
 3983TIP3   OH211905   2.368   5.339   2.848 -0.0668  0.1346 -0.3995
 3983TIP3    H111906   2.285   5.385   2.833 -0.4611 -0.7896 -1.0862
 3983TIP3    H211907   2.419   5.357   2.769 -1.1482 -2.5786 -1.7845
 3984TIP3   OH211908   3.600   4.939   2.181 -0.6570 -0.1798 -0.1759
 3984TIP3    H111909   3.584   4.844   2.177  0.4910 -0.3781 -0.2342
 3984TIP3    H211910   3.642   4.959   2.098  0.1011  0.1899  0.2975
 3985TIP3   OH211911   5.405   5.227   2.364  0.0385  0.1164  0.7920
 3985TIP3    H111912   5.422   5.143   2.407 -0.7467 -0.5599 -0.1972
 3985TIP3    H211913   5.370   5.204   2.278  1.0260  1.4529  0.0041
 3986TIP3   OH211914   8.017   3.824   4.516  0.6254 -0.4610  0.4262
 3986TIP3    H111915   8.088   3.777   4.560  2.1715  0.3230 -1.1484
 3986TIP3    H211916   7.952   3.757   4.497  1.2780 -1.3340  1.2369
 3987TIP3   OH211917   3.845   4.851   1.935  0.1722  0.0314 -0.0652
 3987TIP3    H111918   3.857   4.759   1.913 -1.1103 -0.1771  0.0861
 3987TIP3    H211919   3.920   4.895   1.894  1.7923 -1.2918  1.3803
 3988TIP3   OH211920   5.311   2.845   0.727  0.5047 -0.0906  0.2566
 3988TIP3    H111921   5.323   2.933   0.763 -0.3999 -0.6919  2.1259
 3988TIP3    H211922   5.400   2.814   0.708  0.8348  1.1579 -0.2752
 3989TIP3   OH211923   5.330   1.828   2.715  0.1858  0.1676 -0.3390
 3989TIP3    H111924   5.309   1.833   2.621  0.4500 -0.9360 -0.4558
 3989TIP3    H211925   5.284   1.903   2.753 -2.5435 -1.1557 -0.8839
 3990TIP3   OH211926   3.584   4.662   1.088  0.1362  0.3050 -0.5107
 3990TIP3    H111927   3.523   4.700   1.151  0.6663  2.1316 -1.0921
 3990TIP3    H211928   3.537   4.586   1.053 -1.1530  0.7344  0.2587
 3991TIP3   OH211929   5.824   5.430   0.730 -0.5416 -0.8045 -0.0127
 3991TIP3    H111930   5.801   5.358   0.671 -1.0758  0.8755 -1.9382
 3991TIP3    H211931   5.902   5.399   0.776 -0.2802 -2.3104 -1.3865
 3992TIP3   OH211932   5.938   4.206   1.644 -0.3149 -0.5683  0.1524
 3992TIP3    H111933   5.920   4.171   1.556 -0.0793 -1.1667  0.3390
 3992TIP3    H211934   6.034   4.204   1.651 -0.3444 -0.6924  0.4960
 3993TIP3   OH211935   5.419   4.467   1.486 -0.2765 -0.3383  0.5206
 3993TIP3    H111936   5.429   4.544   1.430  0.7656  0.4235  1.7384
 3993TIP3    H211937   5.500   4.417   1.473  0.3804  0.2995  2.0052
 3994TIP3   OH211938   7.001   2.567   4.272 -0.4789  0.1932  0.0466
 3994TIP3    H111939   6.957   2.568   4.187 -1.9540  0.0149  0.7914
 3994TIP3    H211940   6.957   2.636   4.323 -0.0854 -0.1664  0.8949
 3995TIP3   OH211941   5.588   5.742   3.034 -0.2320 -0.8487  0.5132
 3995TIP3    H111942   5.653   5.672   3.029  0.9123  0.2284  0.1319
 3995TIP3    H211943   5.539   5.724   3.115  2.4407 -0.0277  2.3796
 3996TIP3   OH211944   7.762   3.485   1.712  0.4041 -0.5044 -0.5164
 3996TIP3    H111945   7.690   3.497   1.774  2.2651  2.3015  1.2571
 3996TIP3    H211946   7.794   3.397   1.730 -0.3259 -0.4513  1.2059
 3997TIP3   OH211947   6.170   5.423   0.595  0.6047  0.6901 -0.0534
 3997TIP3    H111948   6.205   5.404   0.508 -2.5876 -1.4222 -0.9465
 3997TIP3    H211949   6.098   5.485   0.579 -1.6090 -1.6134  0.7558
 3998TIP3   OH211950   7.048   4.674   1.543 -0.3443 -0.2283  0.5663
 3998TIP3    H111951   7.072   4.670   1.450  1.3441 -0.5702  0.9933
 3998TIP3    H211952   7.117   4.727   1.583 -2.3744  2.0350  1.2329
 3999TIP3   OH211953   1.013   5.884   0.694 -0.1762 -0.4288 -0.4482
 3999TIP3    H111954   1.025   5.790   0.681  0.8479  0.0503 -3.1514
 3999TIP3    H211955   1.099   5.916   0.719 -0.5735 -0.2056  0.6924
 4000TIP3   OH211956   7.579   4.159   0.989 -0.4870  0.3411 -0.0437
 4000TIP3    H111957   7.531   4.185   1.068 -1.3312  2.1327 -1.1055
 4000TIP3    H211958   7.670   4.185   1.006 -0.2745 -1.0844  1.1062
 4001TIP3   OH211959   7.283   2.556   0.457  0.3047 -0.2083  0.0359
 4001TIP3    H111960   7.217   2.607   0.503 -1.4231 -1.7664 -0.6468
 4001TIP3    H211961   7.367   2.587   0.492 -0.8194  1.0830  1.6419
 4002TIP3   OH211962   7.641   3.592   1.212 -0.0730  0.2191 -0.6533
 4002TIP3    H111963   7.722   3.642   1.223  0.5363 -0.8231 -0.2993
 4002TIP3    H211964   7.670   3.505   1.185 -1.1087  0.0028 -1.0951
 4003TIP3   OH211965   6.916   1.148   6.304 -0.4348  0.6190 -0.5883
 4003TIP3    H111966   6.980   1.168   6.236  2.2731 -0.6568  1.5298
 4003TIP3    H211967   6.871   1.231   6.320  1.4761  1.8028 -1.2913
 4004TIP3   OH211968   4.335   0.054   6.850  0.4436 -0.0040 -0.4241
 4004TIP3    H111969   4.343  -0.029   6.803  1.0314 -0.1919  0.0015
 4004TIP3    H211970   4.256   0.094   6.815  1.0111 -0.0199 -1.7674
 4005TIP3   OH211971   7.890   4.600   3.024 -0.1839 -0.3961 -0.2340
 4005TIP3    H111972   7.812   4.637   3.066  1.2844  0.0867  2.2013
 4005TIP3    H211973   7.941   4.676   2.996 -0.5366 -0.7090 -1.7604
 4006TIP3   OH211974   5.922   4.206   1.932  0.0226  0.3472  0.2423
 4006TIP3    H111975   5.911   4.113   1.947  2.0528  0.2048  0.9713
 4006TIP3    H211976   5.885   4.221   1.844 -0.5547 -1.0645  0.2357
 4007TIP3   OH211977   1.362   7.920   6.387  0.1423 -0.3270 -0.4096
 4007TIP3    H111978   1.377   7.875   6.304  0.1937 -1.3748  0.1570
 4007TIP3    H211979   1.400   8.007   6.374 -0.8826 -0.0793 -1.8740
 4008TIP3   OH211980   7.701   5.939   0.985 -0.9186 -0.0161  0.7339
 4008TIP3    H111981   7.677   6.027   0.955  2.1644 -0.2406 -2.6992
 4008TIP3    H211982   7.791   5.949   1.018 -1.7882 -1.2293  3.7042
 4009TIP3   OH211983   6.456   4.825   1.547 -0.3401 -0.3876 -0.4785
 4009TIP3    H111984   6.518   4.869   1.489  1.0014  2.0919  2.6440
 4009TIP3    H211985   6.506   4.751   1.584  1.4274  2.4441  3.1343
 4010TIP3   OH211986   6.462   4.429   3.272 -0.4859 -0.1592 -0.3278
 4010TIP3    H111987   6.532   4.443   3.335 -2.8380  1.7430  2.0121
 4010TIP3    H211988   6.452   4.514   3.228 -2.9221  0.3881  1.1619
 4011TIP3   OH211989   6.147   4.211   0.460  0.2489 -0.0314 -0.1793
 4011TIP3    H111990   6.228   4.193   0.509  0.2304 -2.3767 -0.9302
 4011TIP3    H211991   6.162   4.297   0.420  2.0526 -0.0683  0.3570
 4012TIP3   OH211992   5.333   3.506   1.595 -0.3770  0.5810 -0.0690
 4012TIP3    H111993   5.335   3.411   1.599  1.2878  0.5896 -0.3368
 4012TIP3    H211994   5.341   3.534   1.686  3.2832  0.4779 -0.3071
 4013TIP3   OH211995   7.645   5.432   2.212 -0.1791 -0.2833  0.0398
 4013TIP3    H111996   7.591   5.506   2.242 -0.1332 -0.8925  1.7220
 4013TIP3    H211997   7.581   5.368   2.181 -0.2218  0.4380 -1.3842
 4014TIP3   OH211998   8.012   3.105   2.451  0.0517  0.1435  0.6204
 4014TIP3    H111999   7.976   3.161   2.383  1.3607 -1.0375 -1.0847
 4014TIP3    H212000   8.027   3.164   2.525  0.9477  1.9664 -0.9774
 4015TIP3   OH212001   6.857   3.944   3.426  0.4623 -0.6266  0.5770
 4015TIP3    H112002   6.786   3.996   3.463  0.4531 -0.1032 -0.1638
 4015TIP3    H212003   6.913   3.922   3.501 -0.3616 -0.8650  1.1288
 4016TIP3   OH212004   7.891   5.910   0.288  0.0097 -0.3749  0.6538
 4016TIP3    H112005   7.845   5.936   0.367 -2.5237 -1.2007 -0.5047
 4016TIP3    H212006   7.883   5.986   0.230  1.1234 -0.0929  0.8546
 4017TIP3   OH212007   5.473   4.719   3.074 -0.3415 -0.1250 -0.0614
 4017TIP3    H112008   5.539   4.776   3.112  1.1486 -2.1388  0.4511
 4017TIP3    H212009   5.472   4.742   2.981 -0.3429  1.2720  0.2717
 4018TIP3   OH212010   5.884   0.565   5.752 -0.0020 -0.6791 -0.2478
 4018TIP3    H112011   5.796   0.574   5.716  0.3576  1.5405 -0.6145
 4018TIP3    H212012   5.938   0.624   5.701  0.8326  1.3567  2.8311
 4019TIP3   OH212013   5.835   4.325   0.856  0.1031 -0.6597  0.1317
 4019TIP3    H112014   5.765   4.378   0.893 -0.8240 -0.8243 -1.3328
 4019TIP3    H212015   5.914   4.355   0.899 -0.5982  0.9602  0.3191
 4020TIP3   OH212016   0.259   4.071   1.604  0.1927 -0.2652  0.3980
 4020TIP3    H112017   0.202   4.146   1.583 -0.3948 -0.3646  1.5839
 4020TIP3    H212018   0.337   4.084   1.550 -0.0453  1.0267  0.3498
 4021TIP3   OH212019   7.927   3.045   0.606  0.2575  0.4956  0.5566
 4021TIP3    H112020   7.890   3.129   0.635 -0.7371  0.1744  0.2499
 4021TIP3    H212021   7.867   3.016   0.537  1.9299  0.6898 -1.0183
 4022TIP3   OH212022   5.259   1.803   6.585 -0.2060  0.3132  0.6937
 4022TIP3    H112023   5.240   1.713   6.560  0.2425  0.7556 -1.3407
 4022TIP3    H212024   5.189   1.827   6.646 -1.0282 -0.9977  0.2752
 4023TIP3   OH212025   7.179   3.096   1.217 -0.3570  0.4013 -0.3655
 4023TIP3    H112026   7.155   3.097   1.309 -2.0255 -0.9659 -0.7598
 4023TIP3    H212027   7.105   3.054   1.173  0.6966  0.4374 -2.2384
 4024TIP3   OH212028   7.338   3.955   2.161  0.5551  0.2537 -0.2051
 4024TIP3    H112029   7.251   3.988   2.186  0.2992  0.5496 -1.4496
 4024TIP3    H212030   7.396   3.987   2.230 -0.2635  0.3967  0.4282
 4025TIP3   OH212031   6.995   4.376   3.894  0.5665  0.1998 -0.0755
 4025TIP3    H112032   6.955   4.290   3.877 -0.9598  0.8166  0.2594
 4025TIP3    H212033   7.050   4.362   3.971 -0.8898 -0.1386  0.9273
 4026TIP3   OH212034   8.193   3.502   2.580 -0.0106 -0.1092  0.1226
 4026TIP3    H112035   8.269   3.448   2.603 -0.2393 -0.2442  0.5711
 4026TIP3    H212036   8.138   3.501   2.659  0.0349  0.8693  0.1678
 4027TIP3   OH212037   4.328   3.946   1.465  0.2998 -0.6422 -0.0018
 4027TIP3    H112038   4.368   3.861   1.448 -0.6601 -1.3738  1.3172
 4027TIP3    H212039   4.258   3.953   1.400  0.1515 -1.0183  0.1145
 4028TIP3   OH212040   6.899   6.224   2.722  0.0114  0.0361 -0.2355
 4028TIP3    H112041   6.947   6.147   2.753 -0.6503 -0.3088 -0.0466
 4028TIP3    H212042   6.807   6.202   2.737 -0.3065  0.0121 -2.0860
 4029TIP3   OH212043   7.643   2.870   0.736 -0.1879 -0.4810  0.0943
 4029TIP3    H112044   7.618   2.958   0.707 -0.6160 -0.7011 -0.2249
 4029TIP3    H212045   7.664   2.880   0.828 -1.6787 -0.3110  0.4381
 4030TIP3   OH212046   0.995   3.437   1.682  0.1630 -0.2935  0.3356
 4030TIP3    H112047   1.065   3.501   1.700  0.3037 -1.0622  2.8388
 4030TIP3    H212048   1.028   3.385   1.609  1.8271 -0.0586  0.8947
 4031TIP3   OH212049   0.172   2.772   0.244 -0.6427 -0.6776 -0.0859
 4031TIP3    H112050   0.173   2.840   0.177  1.1040 -0.2856  0.3280
 4031TIP3    H212051   0.083   2.775   0.279 -0.8798  0.7130 -0.7725
 4032TIP3   OH212052   6.076   3.419   0.676 -0.2441 -0.1097  0.7177
 4032TIP3    H112053   6.044   3.470   0.751  0.7484 -0.2528  1.2525
 4032TIP3    H212054   6.139   3.476   0.633 -0.3600 -0.2587  0.3491
 4033TIP3   OH212055   5.187   5.384   4.122  1.0018  0.2869  0.2344
 4033TIP3    H112056   5.130   5.367   4.048 -1.1220  1.3316  1.5688
 4033TIP3    H212057   5.273   5.400   4.083  0.7155 -2.6359 -1.7179
 4034TIP3   OH212058   1.700   7.358   6.294  0.3639  0.0093  0.0175
 4034TIP3    H112059   1.749   7.416   6.236  0.6622  0.6366  0.9015
 4034TIP3    H212060   1.637   7.415   6.338 -1.1455 -0.7757 -1.0618
 4035TIP3   OH212061   8.018   4.794   0.806  0.0157  0.2010  0.6689
 4035TIP3    H112062   8.014   4.699   0.791 -1.5537  0.1794  1.1394
 4035TIP3    H212063   7.928   4.823   0.796  0.9093  2.1586 -2.7032
 4036TIP3   OH212064   5.684   6.780   1.063 -0.0990 -0.0706  0.4555
 4036TIP3    H112065   5.646   6.858   1.103 -2.8106 -0.3195 -1.5280
 4036TIP3    H212066   5.765   6.812   1.022 -0.9988  1.6492 -0.0358
 4037TIP3   OH212067   7.139   4.619   1.287  0.6860  0.6753  0.2291
 4037TIP3    H112068   7.171   4.529   1.276 -0.0235  0.3873  0.4191
 4037TIP3    H212069   7.217   4.673   1.287  1.1758 -0.0218  0.8281
 4038TIP3   OH212070   4.570   2.584   5.627  0.3755 -0.7365 -0.1986
 4038TIP3    H112071   4.632   2.649   5.659  0.9404 -0.5971 -1.5468
 4038TIP3    H212072   4.484   2.621   5.646  0.6956 -0.1933  0.2084
 4039TIP3   OH212073   7.260   5.187   1.942  0.1648 -0.2442  0.1812
 4039TIP3    H112074   7.290   5.273   1.970  0.8078 -0.7998  1.2224
 4039TIP3    H212075   7.340   5.139   1.921 -0.2944  0.1648 -2.6709
 4040TIP3   OH212076   7.496   5.188   0.983  0.3011 -1.0341 -0.2724
 4040TIP3    H112077   7.471   5.139   1.062  0.5452 -0.9969 -0.1722
 4040TIP3    H212078   7.589   5.169   0.971  1.1763  1.7575  1.4996
 4041TIP3   OH212079   0.130   4.331   0.127 -0.5999 -0.1614  0.2647
 4041TIP3    H112080   0.050   4.363   0.168  0.2245  0.4231  1.4934
 4041TIP3    H212081   0.186   4.409   0.119 -0.8644 -0.2000 -2.3493
 4042TIP3   OH212082   4.896   0.581   6.535  0.0743  0.3517 -0.2144
 4042TIP3    H112083   4.970   0.542   6.490  0.3733  0.5624  0.0892
 4042TIP3    H212084   4.906   0.554   6.626 -0.9835 -0.7556 -0.4131
 4043TIP3   OH212085   1.152   4.752   3.509  0.2165  0.6266  0.4438
 4043TIP3    H112086   1.129   4.845   3.510  0.4704  0.6945  0.0873
 4043TIP3    H212087   1.137   4.725   3.418  0.3357  0.3666  0.5014
 4044TIP3   OH212088   7.777   6.219   2.796  0.2681 -0.2004 -0.0974
 4044TIP3    H112089   7.762   6.125   2.792  0.8488 -0.3120  0.2543
 4044TIP3    H212090   7.870   6.229   2.775 -0.5515  0.5831 -3.8319
 4045TIP3   OH212091   8.267   5.439   0.410  0.5048 -0.4204 -0.0601
 4045TIP3    H112092   8.316   5.358   0.396  0.5037 -0.7878  1.9086
 4045TIP3    H212093   8.241   5.436   0.502 -1.6969  0.6108 -0.6000
 4046TIP3   OH212094  -0.014   4.533   2.678 -0.2354 -0.2007  0.0290
 4046TIP3    H112095  -0.062   4.462   2.634 -1.5428  0.1881  0.7933
 4046TIP3    H212096   0.078   4.509   2.668 -0.5727 -0.9274 -1.5577
 4047TIP3   OH212097   4.626   1.825   5.907 -0.5568 -0.1373 -0.1566
 4047TIP3    H112098   4.611   1.745   5.857 -1.3605 -0.9145  1.2882
 4047TIP3    H212099   4.720   1.826   5.923 -0.4348 -0.3991 -0.8063
 4048TIP3   OH212100   2.531   7.077   6.806  0.2504 -0.1301 -0.0791
 4048TIP3    H112101   2.502   7.156   6.852 -1.3767 -0.2114 -0.9408
 4048TIP3    H212102   2.606   7.106   6.754  0.9384  0.3767  1.1809
 4049TIP3   OH212103   7.010   3.722   0.057  0.4468 -0.4965 -0.5569
 4049TIP3    H112104   6.994   3.693   0.147  0.7381  1.4977  0.1569
 4049TIP3    H212105   7.065   3.653   0.019 -1.1081 -2.2062  0.2365
 4050TIP3   OH212106   5.924   3.059   2.186  0.0510 -0.0905 -0.5920
 4050TIP3    H112107   5.888   3.069   2.098  1.1213  3.4379 -0.7166
 4050TIP3    H212108   6.006   3.108   2.184  1.2589 -1.9117  1.7397
 4051TIP3   OH212109   5.133   0.071   6.838 -0.4859 -0.3606  0.6373
 4051TIP3    H112110   5.121   0.044   6.747  0.7823  0.9581  0.0571
 4051TIP3    H212111   5.224   0.102   6.842 -1.0080  1.0465  1.9826
 4052TIP3   OH212112   6.464   4.143   2.602  0.1938 -0.3256 -0.2413
 4052TIP3    H112113   6.426   4.102   2.679 -1.6861  1.9054  0.0728
 4052TIP3    H212114   6.394   4.141   2.537  1.3519 -1.0571 -1.4719
 4053TIP3   OH212115   7.377   4.754   1.306 -0.6409  0.4273 -0.5353
 4053TIP3    H112116   7.335   4.794   1.383 -0.8338 -0.6528 -0.0628
 4053TIP3    H212117   7.438   4.690   1.343 -0.4172  0.2060 -1.2783
 4054TIP3   OH212118   3.078   0.474   6.670  0.3266 -0.1102 -0.5721
 4054TIP3    H112119   3.144   0.418   6.629  0.4469 -0.8811  0.6680
 4054TIP3    H212120   3.110   0.487   6.759 -0.5210  0.6153 -0.3667
 4055TIP3   OH212121   6.561   6.272   3.218  0.3355 -0.3559  0.2047
 4055TIP3    H112122   6.481   6.237   3.179 -0.7732  0.5827  1.6280
 4055TIP3    H212123   6.628   6.256   3.151 -1.1234 -0.6731 -1.2274
 4056TIP3   OH212124   7.194   3.171   0.887  0.1103  0.1837 -0.0979
 4056TIP3    H112125   7.230   3.111   0.822 -0.1215 -0.2081  0.1347
 4056TIP3    H212126   7.176   3.116   0.963  0.7083  0.6991  0.4242
 4057TIP3   OH212127   8.348   3.906   3.027 -0.0016  0.3214 -0.4499
 4057TIP3    H112128   8.423   3.859   2.992 -1.2974 -1.2849 -1.1418
 4057TIP3    H212129   8.300   3.840   3.078 -1.5109  1.0514 -0.9065
 4058TIP3   OH212130   0.423   5.576   0.202 -0.2340 -0.1029 -0.3305
 4058TIP3    H112131   0.493   5.564   0.267 -1.3295 -0.4824  0.8128
 4058TIP3    H212132   0.347   5.602   0.254 -0.8346  0.7198 -1.6053
 4059TIP3   OH212133   6.537   4.742   0.523  0.0233  0.0782 -0.3787
 4059TIP3    H112134   6.480   4.813   0.552  0.7814 -0.4370  2.5635
 4059TIP3    H212135   6.621   4.759   0.566  0.2264 -2.5612  0.3659
 4060TIP3   OH212136   7.420   4.525   1.834  0.2427 -0.2091  0.2033
 4060TIP3    H112137   7.369   4.580   1.893 -0.5423 -0.5217 -0.1761
 4060TIP3    H212138   7.386   4.436   1.848  0.8126 -0.4477  0.0893
 4061TIP3   OH212139   6.752   4.907   3.643 -0.1064  0.2499  0.3284
 4061TIP3    H112140   6.832   4.879   3.598  0.1939  0.0124  1.0182
 4061TIP3    H212141   6.776   4.915   3.735 -1.0011 -0.3105  0.6241
 4062TIP3   OH212142   4.776   4.358   1.769 -0.0881  0.3359  0.4002
 4062TIP3    H112143   4.792   4.438   1.721  2.2447 -0.0914  0.3861
 4062TIP3    H212144   4.854   4.304   1.752 -1.0116 -1.3751  1.4696
 4063TIP3   OH212145   5.315   1.487   5.377  0.1299 -0.0772 -0.0712
 4063TIP3    H112146   5.259   1.411   5.384  0.4129 -0.2922 -0.1359
 4063TIP3    H212147   5.267   1.548   5.320  0.5571 -0.8034 -1.2396
 4064TIP3   OH212148   2.327   6.941   6.656 -0.4733  0.4840 -0.5093
 4064TIP3    H112149   2.356   6.921   6.567 -1.1660  1.0018 -0.8575
 4064TIP3    H212150   2.402   6.985   6.696 -0.7387  1.7862 -1.3947
 4065TIP3   OH212151   7.304   3.328   0.545  0.1325 -0.0654  0.4058
 4065TIP3    H112152   7.248   3.333   0.622  0.3604  0.2128  0.5557
 4065TIP3    H212153   7.328   3.419   0.527  1.9618 -0.3401  1.3979
 4066TIP3   OH212154   7.804   5.108   0.130  0.0835 -0.4365 -0.9887
 4066TIP3    H112155   7.764   5.138   0.048 -0.2739  1.5674 -0.1066
 4066TIP3    H212156   7.838   5.187   0.171  1.8314 -1.6603 -0.0292
 4067TIP3   OH212157   6.937   4.501   2.019 -0.2363  0.1927 -0.2280
 4067TIP3    H112158   6.855   4.453   2.031 -1.3378  1.8298 -1.1159
 4067TIP3    H212159   6.945   4.514   1.925 -0.1230  2.0300  0.0145
 4068TIP3   OH212160   8.240   3.631   1.197  0.5498 -0.1251  0.2659
 4068TIP3    H112161   8.212   3.610   1.286  0.0626 -0.4288  0.0427
 4068TIP3    H212162   8.260   3.546   1.158 -0.3855 -0.0977 -0.2957
 4069TIP3   OH212163   0.789   7.667   6.209 -0.5070 -0.2617  0.0458
 4069TIP3    H112164   0.796   7.694   6.301  2.0988 -0.2138 -0.1202
 4069TIP3    H212165   0.856   7.719   6.164 -0.5634 -1.5655 -1.5683
 4070TIP3   OH212166   0.366   3.198   0.315  0.3082  0.3659  0.4936
 4070TIP3    H112167   0.321   3.139   0.376  0.4911  1.6640  1.8923
 4070TIP3    H212168   0.336   3.285   0.339  1.7289  1.0390 -0.1309
 4071TIP3   OH212169   3.531   0.768   6.853 -0.5142  0.0743 -0.5465
 4071TIP3    H112170   3.522   0.674   6.839  1.6511 -0.4028  1.0133
 4071TIP3    H212171   3.531   0.778   6.948 -1.5414  1.7626 -0.6975
 4072TIP3   OH212172   6.748   6.938   1.792 -0.2906  0.1753 -0.1340
 4072TIP3    H112173   6.755   6.843   1.784  1.2200  0.2424  0.0782
 4072TIP3    H212174   6.838   6.967   1.812 -0.5660  1.7217 -0.9953
 4073TIP3   OH212175   7.412   5.621   1.370 -0.2030  0.1415  0.0175
 4073TIP3    H112176   7.473   5.694   1.360 -1.0938  0.8187 -0.5690
 4073TIP3    H212177   7.466   5.548   1.400  0.9350  0.6566 -0.7477
 4074TIP3   OH212178   7.804   5.284   0.640 -0.5853  1.0275 -0.1106
 4074TIP3    H112179   7.778   5.353   0.579  0.8400  0.9221 -0.8636
 4074TIP3    H212180   7.839   5.215   0.584  0.7065  0.9164  0.8242
 4075TIP3   OH212181   3.469   4.395   1.652 -0.2066  0.1416 -0.5116
 4075TIP3    H112182   3.416   4.447   1.713 -1.0695 -0.7214 -0.5188
 4075TIP3    H212183   3.489   4.456   1.581  0.5039  1.0534  0.4459
 4076TIP3   OH212184   0.470   4.529   1.365  0.0172 -0.2511  0.0667
 4076TIP3    H112185   0.565   4.520   1.353 -0.1109 -0.9928 -0.4224
 4076TIP3    H212186   0.453   4.622   1.347  0.8115  0.1447  1.3304
 4077TIP3   OH212187   7.493   4.475   1.099 -0.3599 -0.3251  0.1332
 4077TIP3    H112188   7.488   4.463   1.194 -0.5421  0.8160  0.2775
 4077TIP3    H212189   7.587   4.479   1.080 -0.2736 -2.4564 -0.0001
 4078TIP3   OH212190   6.686   4.428   2.610 -0.1945 -0.1143  0.4712
 4078TIP3    H112191   6.601   4.456   2.576  0.0526 -0.4084 -0.4169
 4078TIP3    H212192   6.683   4.447   2.704 -1.1011  0.2093  0.3754
 4079TIP3   OH212193   3.051   0.714   6.497 -0.0555  0.0010 -0.7985
 4079TIP3    H112194   3.074   0.645   6.559 -0.6399 -0.3490 -0.9667
 4079TIP3    H212195   3.125   0.775   6.501 -0.9413  1.0035  1.6949
 4080TIP3   OH212196   0.265   3.282   1.988  0.5769 -0.0903  0.6015
 4080TIP3    H112197   0.235   3.203   2.034  2.0959 -0.2096  1.3819
 4080TIP3    H212198   0.209   3.352   2.022 -1.0118 -0.8721 -0.3440
 4081TIP3   OH212199   7.246   4.757   3.426  0.2984  0.5555  0.2188
 4081TIP3    H112200   7.273   4.825   3.364  0.1964 -0.3889 -0.8877
 4081TIP3    H212201   7.323   4.744   3.482  0.0325  2.1523  0.9711
 4082TIP3   OH212202   6.503   3.473   2.546 -0.1846  0.2365  0.2095
 4082TIP3    H112203   6.444   3.429   2.607 -0.7159 -1.4014 -1.4162
 4082TIP3    H212204   6.591   3.449   2.575 -0.3699  1.0630  1.4668
 4083TIP3   OH212205   1.131   4.399   0.022  0.7774 -0.0470 -0.2329
 4083TIP3    H112206   1.213   4.360  -0.009  1.0188  0.9114 -0.8011
 4083TIP3    H212207   1.142   4.407   0.117  0.4106 -2.0977  0.0138
 4084TIP3   OH212208   6.157   7.622   1.038 -0.2442  0.4449 -0.0110
 4084TIP3    H112209   6.185   7.631   0.947 -1.3227  0.1148 -0.3790
 4084TIP3    H212210   6.064   7.641   1.036 -0.5029 -0.7185  0.8409
 4085TIP3   OH212211   7.464   4.475   1.369  0.2123  0.0940  0.3219
 4085TIP3    H112212   7.388   4.433   1.409 -0.0004  0.9870  0.8789
 4085TIP3    H212213   7.534   4.462   1.433  0.0594  0.8752  0.6550
 4086TIP3   OH212214   8.319   3.351   1.560 -0.0686 -0.2764 -0.2843
 4086TIP3    H112215   8.279   3.434   1.533 -0.8402 -0.2619  0.8899
 4086TIP3    H212216   8.412   3.362   1.539 -0.2005  0.7938 -0.3551
 4087TIP3   OH212217   2.930   1.137   6.651 -0.5667  0.2147 -0.7452
 4087TIP3    H112218   2.908   1.065   6.592 -0.4183  0.3157 -0.9227
 4087TIP3    H212219   3.025   1.134   6.659 -0.6507 -0.3504  0.1843
 4088TIP3   OH212220   0.803   7.145   6.824  0.6357 -0.3677  0.0297
 4088TIP3    H112221   0.838   7.141   6.735  0.5524  2.4654 -0.1725
 4088TIP3    H212222   0.716   7.104   6.818  0.1669  0.8363 -1.4288
 4089TIP3   OH212223   4.760   2.463   1.124 -0.4697  0.2426  0.1765
 4089TIP3    H112224   4.800   2.413   1.196  0.6160  0.6661 -0.1121
 4089TIP3    H212225   4.828   2.465   1.057 -1.6586 -0.5734 -1.0741
 4090TIP3   OH212226   5.209   5.937   0.547 -0.2592  0.4498 -0.1771
 4090TIP3    H112227   5.212   5.939   0.642 -1.8008  0.2616 -0.1203
 4090TIP3    H212228   5.217   5.844   0.524  0.9810  0.5698 -0.2766
 4091TIP3   OH212229   2.337   7.417   6.706 -0.0643 -0.4143 -0.1823
 4091TIP3    H112230   2.256   7.370   6.684 -0.6382  0.2049  0.5544
 4091TIP3    H212231   2.404   7.376   6.651 -0.8830 -0.9109 -0.8360
 4092TIP3   OH212232   7.299   4.713   2.464  0.4931 -1.0835  0.1358
 4092TIP3    H112233   7.233   4.700   2.532 -0.2189 -1.1406 -0.5583
 4092TIP3    H212234   7.334   4.800   2.481 -0.7923 -0.4613 -0.3595
 4093TIP3   OH212235   7.724   5.958   2.789 -0.0431 -0.0010  0.5112
 4093TIP3    H112236   7.669   5.922   2.860  0.9662  0.9102  1.7866
 4093TIP3    H212237   7.795   5.895   2.780  0.1744  0.2021  0.7701
 4094TIP3   OH212238   1.666   7.062   6.737  0.5759 -0.8501 -0.2739
 4094TIP3    H112239   1.595   7.042   6.798  0.2500 -2.2585 -1.0860
 4094TIP3    H212240   1.622   7.096   6.660  0.8755 -0.4861 -0.2807
 4095TIP3   OH212241   3.572   7.681   2.188 -0.2757  0.0515  0.0223
 4095TIP3    H112242   3.495   7.693   2.133 -0.9228  2.8930  1.4424
 4095TIP3    H212243   3.622   7.762   2.176  1.7671 -1.1461  0.2583
 4096TIP3   OH212244   6.434   4.084   1.397 -0.0265  0.3442  0.0495
 4096TIP3    H112245   6.348   4.125   1.389  0.7187  1.9720  0.2336
 4096TIP3    H212246   6.482   4.113   1.320  0.7628  0.4108  0.5695
 4097TIP3   OH212247   6.781   3.404   2.869 -0.0946  0.1103  0.0209
 4097TIP3    H112248   6.777   3.316   2.906  2.3011  0.2583  0.6646
 4097TIP3    H212249   6.874   3.420   2.852 -0.4989  2.4792 -0.2131
 4098TIP3   OH212250   6.214   3.849   2.253  0.2042  0.1301  0.3477
 4098TIP3    H112251   6.299   3.808   2.240  0.5245  0.5308  1.1013
 4098TIP3    H212252   6.172   3.847   2.167  0.2668 -1.6207  0.3422
 4099TIP3   OH212253   5.982   0.495   6.269 -0.5735 -0.0208 -0.4832
 4099TIP3    H112254   5.940   0.561   6.213  0.0920 -1.1278 -2.3209
 4099TIP3    H212255   6.065   0.535   6.294 -0.6780  0.3107 -0.6553
 4100TIP3   OH212256   6.942   1.678   1.238 -0.0762 -0.6551  0.0659
 4100TIP3    H112257   7.012   1.645   1.182  1.2993  0.6146  0.9959
 4100TIP3    H212258   6.887   1.602   1.256  2.2126 -2.1309  0.9925
 4101TIP3   OH212259   6.712   2.442   2.538  0.0586 -0.2669 -0.7266
 4101TIP3    H112260   6.666   2.511   2.586 -0.3443  0.2607 -1.8580
 4101TIP3    H212261   6.770   2.402   2.604 -2.6916 -1.6091  0.9854
 4102TIP3   OH212262   5.760   4.924   1.539  0.2419  0.4246  0.4209
 4102TIP3    H112263   5.841   4.961   1.574  0.8190  0.0151 -0.4464
 4102TIP3    H212264   5.693   4.949   1.602  1.2872 -0.5328  1.9428
 4103TIP3   OH212265   6.748   3.862   1.737  0.5725 -0.0729  0.2144
 4103TIP3    H112266   6.760   3.956   1.727  1.7920 -0.2311  0.1132
 4103TIP3    H212267   6.795   3.840   1.817 -2.2019 -0.1457  1.9159
 4104TIP3   OH212268   3.819   0.810   6.858  0.4074 -0.3083  0.2748
 4104TIP3    H112269   3.730   0.775   6.858 -0.6398  2.2418  1.0523
 4104TIP3    H212270   3.819   0.876   6.788  1.1623  0.9489  1.4415
 4105TIP3   OH212271   6.413   4.958   2.826  0.5749  0.1568 -0.1359
 4105TIP3    H112272   6.493   4.923   2.865  0.4059 -0.5870 -0.4648
 4105TIP3    H212273   6.418   5.052   2.845  1.1665  0.0114  0.4782
 4106TIP3   OH212274   1.142   7.065   6.267  0.2615  0.0059  0.1042
 4106TIP3    H112275   1.173   7.019   6.345  1.3964 -0.2345 -0.4757
 4106TIP3    H212276   1.214   7.123   6.243  0.3699 -0.7011 -1.3879
 4107TIP3   OH212277   7.673   6.352   3.054 -0.1656  0.7804 -0.6016
 4107TIP3    H112278   7.685   6.309   2.970 -2.0443 -1.5518  0.2346
 4107TIP3    H212279   7.580   6.373   3.057 -0.1591  0.6745  0.9241
 4108TIP3   OH212280   8.500   4.850   0.260 -0.5784  0.2189  0.1130
 4108TIP3    H112281   8.545   4.774   0.295  0.9753  1.4950  0.9460
 4108TIP3    H212282   8.408   4.839   0.286 -0.5007 -1.6844 -0.3755
 4109TIP3   OH212283   8.330   5.436   1.955 -0.6953  0.1845 -0.8198
 4109TIP3    H112284   8.276   5.404   2.027 -1.5632  0.1958 -1.4575
 4109TIP3    H212285   8.369   5.357   1.917  2.3722  0.3951  1.6552
 4110TIP3   OH212286   5.510   3.642   3.290  0.7531  0.0785 -0.2330
 4110TIP3    H112287   5.513   3.621   3.197 -1.3758 -2.3772  0.1939
 4110TIP3    H212288   5.449   3.715   3.296 -1.1617 -1.4437 -0.5435
 4111TIP3   OH212289   8.439   4.826   2.618 -0.5953  0.1893 -0.5227
 4111TIP3    H112290   8.347   4.842   2.639  0.0041  0.3922  2.2500
 4111TIP3    H212291   8.452   4.734   2.642 -0.2587 -0.0353 -1.5812
 4112TIP3   OH212292   7.766   4.557   1.049 -0.3399 -0.1231 -0.2052
 4112TIP3    H112293   7.839   4.530   1.104 -0.4412 -1.2823 -0.6214
 4112TIP3    H212294   7.805   4.577   0.964 -0.1850  1.6594  0.2731
 4113TIP3   OH212295   3.832   0.711   5.847 -0.5454  0.2970  0.1784
 4113TIP3    H112296   3.885   0.641   5.886  0.8419 -0.2992 -2.6214
 4113TIP3    H212297   3.770   0.735   5.915  0.2443 -2.3036  1.8907
 4114TIP3   OH212298   7.010   4.689   2.259  0.4165  0.0386 -0.1768
 4114TIP3    H112299   6.951   4.629   2.304  0.7491 -0.1459  0.0189
 4114TIP3    H212300   7.022   4.761   2.322 -1.8973  1.5298 -1.3400
 4115TIP3   OH212301   0.707   4.635   1.196  0.8661  0.3386  0.2553
 4115TIP3    H112302   0.643   4.652   1.126 -0.6250 -0.9837  1.2503
 4115TIP3    H212303   0.791   4.661   1.158 -0.3054  2.6522 -0.8981
 4116TIP3   OH212304   0.890   3.409   0.270 -0.0746 -0.6616  0.2264
 4116TIP3    H112305   0.960   3.347   0.290 -0.9973 -1.6292  0.5121
 4116TIP3    H212306   0.857   3.380   0.185 -0.9892 -1.0028  0.6959
 4117TIP3   OH212307   0.773   5.653   0.354  0.2909  0.0559 -0.6197
 4117TIP3    H112308   0.847   5.681   0.300  0.1794  1.1231 -0.2195
 4117TIP3    H212309   0.765   5.720   0.422  1.5177 -2.1406  1.7760
 4118TIP3   OH212310   7.784   5.222   2.639  0.1808  0.1516  0.3107
 4118TIP3    H112311   7.860   5.280   2.632  0.0082  0.4431  0.8365
 4118TIP3    H212312   7.758   5.205   2.549  1.2219 -0.4089  0.1027
 4119TIP3   OH212313   8.168   4.703   2.690 -0.5578  0.7348 -0.5560
 4119TIP3    H112314   8.113   4.648   2.634  0.7129 -0.9930 -0.1496
 4119TIP3    H212315   8.193   4.646   2.763  2.6024  1.1257 -1.2702
 4120TIP3   OH212316   6.620   4.428   0.890  0.0695 -0.4896  0.1759
 4120TIP3    H112317   6.527   4.429   0.867 -0.7583 -1.2815  3.3169
 4120TIP3    H212318   6.651   4.516   0.868 -1.3368 -0.2893 -1.1089
 4121TIP3   OH212319   7.482   5.031   1.227 -0.5707 -0.2597  0.2941
 4121TIP3    H112320   7.460   4.940   1.246  0.3047 -0.2030  1.5881
 4121TIP3    H212321   7.501   5.070   1.312 -1.0197  1.1627 -0.2401
 4122TIP3   OH212322   6.571   5.707   1.238  0.3791  0.1423 -0.2082
 4122TIP3    H112323   6.509   5.639   1.213  1.9983 -1.3994 -0.1735
 4122TIP3    H212324   6.533   5.746   1.317 -0.6063 -0.6781 -0.2688
 4123TIP3   OH212325   0.063   4.068   4.709  0.0498  0.0692  0.2057
 4123TIP3    H112326   0.016   4.108   4.636  0.8633 -0.3764 -0.5887
 4123TIP3    H212327   0.084   3.980   4.678  0.9707  0.0978  0.7164
 4124TIP3   OH212328   8.429   4.130   3.259 -0.6984  0.6720  0.0163
 4124TIP3    H112329   8.355   4.136   3.199 -1.6487 -0.7441  1.0013
 4124TIP3    H212330   8.440   4.036   3.275  1.2742  0.8583 -0.0533
 4125TIP3   OH212331   7.518   3.815   1.585 -0.2171 -0.7195  0.4306
 4125TIP3    H112332   7.424   3.814   1.565  0.2227 -0.6136 -1.8096
 4125TIP3    H212333   7.546   3.724   1.574  0.1330 -0.5740  0.1042
 4126TIP3   OH212334   6.166   4.728   2.589 -0.1678  0.4107 -0.3461
 4126TIP3    H112335   6.144   4.782   2.665 -2.5606 -0.4781 -0.3524
 4126TIP3    H212336   6.119   4.646   2.604  1.6288 -0.8393 -1.4175
 4127TIP3   OH212337   7.879   3.233   2.224  0.1993  0.1513  0.4773
 4127TIP3    H112338   7.825   3.184   2.162  0.4433 -1.1173  1.2483
 4127TIP3    H212339   7.819   3.254   2.296  0.2139  0.5528  0.3690
 4128TIP3   OH212340   3.056   3.962   1.913  0.1772  0.4797  0.2337
 4128TIP3    H112341   3.079   4.035   1.856 -1.8685  0.7217 -0.3306
 4128TIP3    H212342   3.108   3.975   1.992 -0.6929  2.9527  0.4255
 4129TIP3   OH212343   4.721   0.239   6.716  0.1495  0.3785  0.2105
 4129TIP3    H112344   4.660   0.301   6.676  0.1698  0.6052  0.5361
 4129TIP3    H212345   4.680   0.214   6.798  0.3842  0.3482  0.3183
 4130TIP3   OH212346   2.615  -0.006   6.813  0.6198  0.2830  0.1415
 4130TIP3    H112347   2.636   0.043   6.734  1.7167  0.5371  0.5839
 4130TIP3    H212348   2.699  -0.036   6.846  0.1559  0.0240  1.1141
 4131TIP3   OH212349   6.737   4.024   2.972  0.2075 -0.2183 -0.1460
 4131TIP3    H112350   6.659   4.050   2.923  0.7587 -1.1379 -1.5357
 4131TIP3    H212351   6.734   4.077   3.052 -0.0670  2.2273 -1.7308
 4132TIP3   OH212352   1.625   5.719   2.445  0.5271 -0.1592  0.2496
 4132TIP3    H112353   1.678   5.700   2.522  0.2409  1.4127  0.8479
 4132TIP3    H212354   1.535   5.719   2.477  0.2494 -1.5354 -0.5019
 4133TIP3   OH212355   7.814   3.801   1.467  0.3259  0.8392  0.6233
 4133TIP3    H112356   7.819   3.831   1.376  1.3304  0.3913  0.5193
 4133TIP3    H212357   7.782   3.877   1.516 -1.9566  0.5461 -0.3511
 4134TIP3   OH212358   6.343   5.391   0.027  0.2927  0.7442 -0.1771
 4134TIP3    H112359   6.249   5.372   0.036  0.4325 -0.3846 -0.9619
 4134TIP3    H212360   6.348   5.486   0.022 -0.7366  0.8501  0.7181
 4135TIP3   OH212361   8.064   2.456   1.812 -0.6665 -0.1005  0.7445
 4135TIP3    H112362   8.104   2.445   1.898  0.5420  0.4941  0.2889
 4135TIP3    H212363   8.138   2.447   1.751 -1.5901 -0.9973 -0.2539
 4136TIP3   OH212364   6.355   2.962   0.797  0.0314 -0.3552 -0.3359
 4136TIP3    H112365   6.292   2.890   0.794 -2.4328  1.7700 -0.4369
 4136TIP3    H212366   6.303   3.041   0.786  2.5216  1.5683  1.1493
 4137TIP3   OH212367   5.942   4.106   1.369  1.1764 -0.3686  0.3660
 4137TIP3    H112368   5.961   4.014   1.389 -0.8544 -1.2151 -1.4848
 4137TIP3    H212369   5.915   4.106   1.277  0.4624  1.9827  0.5451
 4138TIP3   OH212370   4.944   4.481   2.327  0.1443  0.1896  0.0621
 4138TIP3    H112371   4.859   4.487   2.370  1.0490  0.9135  1.8150
 4138TIP3    H212372   4.925   4.448   2.240 -1.8689 -0.2033  0.6319
 4139TIP3   OH212373   7.992   4.822   1.489  0.3623 -0.3851 -0.4146
 4139TIP3    H112374   7.920   4.807   1.551  0.3434 -1.0593 -0.5925
 4139TIP3    H212375   8.045   4.890   1.530 -0.1074 -0.2321 -0.0500
 4140TIP3   OH212376   0.184   2.910   1.592  0.7006  0.2580  0.6911
 4140TIP3    H112377   0.172   2.940   1.682 -1.0928 -0.4901  0.7319
 4140TIP3    H212378   0.097   2.918   1.552  0.6014 -2.8253  0.1173
 4141TIP3   OH212379   5.514   2.714   6.130  0.5654  0.1654  0.6018
 4141TIP3    H112380   5.562   2.745   6.207  2.6652  0.1903 -0.6810
 4141TIP3    H212381   5.582   2.687   6.069 -1.0825 -0.1674 -1.1261
 4142TIP3   OH212382   6.501   4.728   1.923 -0.0149  0.0965  0.3165
 4142TIP3    H112383   6.529   4.696   1.837  0.4557 -0.7228  0.7741
 4142TIP3    H212384   6.545   4.671   1.985 -0.3795  0.6754  1.1070
 4143TIP3   OH212385   7.127   5.323   2.616 -0.2482  0.7832 -0.5132
 4143TIP3    H112386   7.198   5.380   2.590  0.6722 -0.5779 -1.0568
 4143TIP3    H212387   7.055   5.345   2.556  0.6240  0.2784 -1.7683
 4144TIP3   OH212388   6.070   5.114   3.209  0.2485 -0.5560  0.1403
 4144TIP3    H112389   6.115   5.136   3.127 -0.1148 -0.4713 -0.0386
 4144TIP3    H212390   6.099   5.180   3.271  1.1891 -1.1282  0.3073
 4145TIP3   OH212391   7.548   5.475   4.188 -0.3686  0.5080  0.1484
 4145TIP3    H112392   7.465   5.456   4.233 -0.5157 -0.9234 -0.6883
 4145TIP3    H212393   7.615   5.459   4.255 -0.6239 -0.9902  0.0722
 4146TIP3   OH212394   6.202   6.262   2.814  0.2403  0.0376  0.0576
 4146TIP3    H112395   6.152   6.207   2.754  0.9041 -1.0093  0.4438
 4146TIP3    H212396   6.275   6.296   2.761  1.7246 -2.1598  0.6489
 4147TIP3   OH212397   7.487   3.348   2.179  0.4703 -0.6587  0.9693
 4147TIP3    H112398   7.473   3.295   2.100  1.0331 -0.8396  0.9939
 4147TIP3    H212399   7.569   3.393   2.163 -0.3710  0.7801  0.6326
 4148TIP3   OH212400   6.486   0.491   6.429 -0.9623 -0.3868 -0.1635
 4148TIP3    H112401   6.404   0.450   6.403 -0.2012 -2.0582 -0.0414
 4148TIP3    H212402   6.519   0.533   6.349 -0.6579 -1.9607 -0.8898
 4149TIP3   OH212403   6.259   5.927   1.909  0.3678  0.3841  0.3209
 4149TIP3    H112404   6.269   5.876   1.989 -3.4184 -1.8977 -0.5247
 4149TIP3    H212405   6.211   6.005   1.936  0.2103  0.2218  0.5144
 4150TIP3   OH212406   7.556   5.876   1.652 -0.0379 -0.5302  0.1523
 4150TIP3    H112407   7.647   5.849   1.661 -0.3863 -1.6581  0.3276
 4150TIP3    H212408   7.557   5.939   1.579  0.8125 -0.8292 -0.0994
 4151TIP3   OH212409   7.687   3.998   2.019  0.1828  0.0089  0.2096
 4151TIP3    H112410   7.687   4.094   2.020 -1.1847  0.0114  1.8536
 4151TIP3    H212411   7.603   3.974   1.982  1.5308 -0.6050 -2.6141
 4152TIP3   OH212412   3.352   2.059   6.133  0.4279  0.0551 -0.2437
 4152TIP3    H112413   3.289   1.988   6.147  1.2390 -0.6945 -0.2724
 4152TIP3    H212414   3.312   2.116   6.069 -0.3074 -0.3036 -0.1042
 4153TIP3   OH212415   7.335   6.022   1.301  0.0470  0.3631 -0.6951
 4153TIP3    H112416   7.299   6.009   1.389 -1.2885  1.3689 -1.0685
 4153TIP3    H212417   7.370   6.111   1.302  1.5539 -0.2174 -0.6796
 4154TIP3   OH212418   6.206   2.983   1.454 -0.0250  0.2458 -0.0177
 4154TIP3    H112419   6.261   3.027   1.519 -0.5399  0.1863  0.4656
 4154TIP3    H212420   6.146   3.050   1.423 -1.9803 -0.4825  2.0011
 4155TIP3   OH212421   7.454   3.900   1.196 -0.1126 -0.2963  0.2491
 4155TIP3    H112422   7.423   3.883   1.108  1.1832  0.3090 -0.3368
 4155TIP3    H212423   7.404   3.839   1.251 -0.6476 -0.9500 -0.9349
 4156TIP3   OH212424   6.387   5.058   1.234 -0.4946  0.1155 -0.6055
 4156TIP3    H112425   6.446   5.123   1.195 -1.5873  0.5144 -1.6097
 4156TIP3    H212426   6.443   5.007   1.292  1.4302 -1.2754 -3.5778
 4157TIP3   OH212427   7.741   4.909   0.689 -0.1127 -0.2477  0.1939
 4157TIP3    H112428   7.661   4.892   0.640 -1.2881  1.7262  1.3799
 4157TIP3    H212429   7.721   4.880   0.778  0.0383  1.3843  0.7789
 4158TIP3   OH212430   5.930   4.404   2.888  0.1958  0.0614 -0.2201
 4158TIP3    H112431   5.851   4.456   2.904 -0.0954 -0.7963  1.2240
 4158TIP3    H212432   5.933   4.395   2.793  1.0675  3.9545 -0.6605
 4159TIP3   OH212433   0.494   2.574   0.130  0.1509 -0.1569 -0.0318
 4159TIP3    H112434   0.527   2.663   0.119 -0.5067  0.1758  0.6605
 4159TIP3    H212435   0.418   2.569   0.072  0.1574 -0.2515 -0.0324
 4160TIP3   OH212436   3.626   2.320   6.493  0.4611 -0.3199  0.7280
 4160TIP3    H112437   3.649   2.326   6.585  2.1742 -0.5680  0.3404
 4160TIP3    H212438   3.694   2.370   6.448 -0.5692  0.1130 -0.3682
 4161TIP3   OH212439   5.060   3.843   0.096  0.1195  0.0604 -0.0409
 4161TIP3    H112440   5.006   3.769   0.122  1.7426 -0.6935  1.2496
 4161TIP3    H212441   5.117   3.809   0.027 -0.2987  0.5661 -0.6448
 4162TIP3   OH212442   8.259   3.549   0.364 -0.2864  0.2396  0.0592
 4162TIP3    H112443   8.203   3.609   0.315  0.3553  1.3178  0.6376
 4162TIP3    H212444   8.241   3.463   0.325 -0.4667  0.9353 -1.4523
 4163TIP3   OH212445   6.778   5.512   3.764 -0.2902 -0.3535  0.1639
 4163TIP3    H112446   6.731   5.521   3.847  0.3725  1.1656  0.4011
 4163TIP3    H212447   6.717   5.465   3.706 -1.1720 -0.4719  1.1738
 4164TIP3   OH212448   7.433   4.314   2.243  0.2128 -0.4376 -0.3007
 4164TIP3    H112449   7.406   4.293   2.332  2.1364 -0.5066  0.2677
 4164TIP3    H212450   7.351   4.340   2.199 -0.9817 -1.8358  1.0478
 4165TIP3   OH212451   6.152   4.178   0.821 -0.2046 -0.2428 -0.2435
 4165TIP3    H112452   6.139   4.267   0.856  1.1879 -0.9045  2.0976
 4165TIP3    H212453   6.141   4.121   0.897  2.4755 -1.7975 -0.9551
 4166TIP3   OH212454   5.334   1.012   6.360  0.4092 -0.2938  0.0116
 4166TIP3    H112455   5.303   1.004   6.450  0.9589  0.8400  0.3179
 4166TIP3    H212456   5.429   1.011   6.367  0.4983  2.1581 -0.2797
 4167TIP3   OH212457   8.479   5.474   2.406  0.1701 -0.3657  0.2730
 4167TIP3    H112458   8.475   5.569   2.413 -0.4209 -0.4622  1.4279
 4167TIP3    H212459   8.522   5.457   2.322 -0.6909  0.9127 -0.4348
 4168TIP3   OH212460   6.621   5.255   1.482 -0.0509 -0.2521  0.1452
 4168TIP3    H112461   6.535   5.298   1.485 -0.0680 -0.1291 -1.8143
 4168TIP3    H212462   6.633   5.231   1.390  2.9072  1.5229  0.0286
 4169TIP3   OH212463   0.016   5.312   2.653  0.0304 -0.1119  0.0788
 4169TIP3    H112464   0.005   5.360   2.570 -2.2483  0.5015  0.7027
 4169TIP3    H212465   0.039   5.380   2.716  0.9763 -0.4671  0.1188
 4170TIP3   OH212466   8.204   6.394   2.670  0.4788 -0.0643  0.4139
 4170TIP3    H112467   8.139   6.465   2.670 -0.2517 -0.7230 -0.4032
 4170TIP3    H212468   8.154   6.316   2.646  1.3330 -0.8149  1.0575
 4171TIP3   OH212469   0.040   5.294   3.140 -0.2211  0.7976 -0.5481
 4171TIP3    H112470   0.055   5.235   3.214 -0.0860 -1.7017 -2.5119
 4171TIP3    H212471   0.116   5.353   3.139  0.7641 -0.4588  0.0830
 4172TIP3   OH212472   7.416   4.024   5.300 -0.0426  0.1758  0.0198
 4172TIP3    H112473   7.380   3.935   5.297 -0.4044  0.3488 -0.9965
 4172TIP3    H212474   7.339   4.081   5.300  0.1924  0.4887  0.4654
 4173TIP3   OH212475   1.601   5.021   4.598  0.6477  0.7049 -0.0636
 4173TIP3    H112476   1.630   5.086   4.662  0.4894  0.6076  0.1042
 4173TIP3    H212477   1.509   5.008   4.617  0.5731  0.7614 -0.3835
 4174TIP3   OH212478   0.865   3.030   3.372 -0.1615  0.0973 -0.4314
 4174TIP3    H112479   0.891   2.998   3.458  1.5656  0.6758 -0.7177
 4174TIP3    H212480   0.777   2.994   3.358 -0.6611  0.3905  1.7693
 4175TIP3   OH212481   1.799   4.216   3.762 -0.6635 -0.6588 -0.0424
 4175TIP3    H112482   1.821   4.211   3.669 -0.3534 -0.3007  0.0107
 4175TIP3    H212483   1.820   4.306   3.787 -3.7039  0.1959 -0.3636
 4176TIP3   OH212484   8.095   5.045   1.889  0.1628  0.8107  0.1271
 4176TIP3    H112485   8.037   5.114   1.923  0.1584 -0.1763  2.2362
 4176TIP3    H212486   8.172   5.051   1.946  2.5091  2.5775 -3.0603
 4177TIP3   OH212487   7.595   4.226   2.786 -0.0826  0.2054 -0.4006
 4177TIP3    H112488   7.628   4.136   2.788  1.7806  0.7927 -2.7960
 4177TIP3    H212489   7.501   4.217   2.770 -0.1737 -1.3358  0.8796
 4178TIP3   OH212490   0.007   6.036   2.514 -0.1787 -0.2927 -0.1231
 4178TIP3    H112491   0.084   6.087   2.540 -0.3230 -0.1359  0.0017
 4178TIP3    H212492  -0.038   6.092   2.451 -0.8550  0.1535  0.7430
 4179TIP3   OH212493   1.956   5.846   5.004 -0.5367  0.3316 -0.1729
 4179TIP3    H112494   1.960   5.890   5.089  1.3088 -0.4991  0.1888
 4179TIP3    H212495   1.889   5.779   5.014 -1.3194  1.1602  0.1791
 4180TIP3   OH212496   0.559   3.777   4.188 -0.1638 -0.5997  0.5515
 4180TIP3    H112497   0.531   3.716   4.119  0.1457  0.7515 -0.7817
 4180TIP3    H212498   0.607   3.722   4.250 -0.7132 -1.8873 -0.1400
 4181TIP3   OH212499   8.435   5.767   5.306 -0.6210  0.0258 -0.9617
 4181TIP3    H112500   8.376   5.823   5.355 -0.7907 -0.0710 -1.0516
 4181TIP3    H212501   8.378   5.722   5.243 -0.4038  0.1721 -1.2662
 4182TIP3   OH212502   7.774   6.091   2.451  0.5337  0.2258  0.0278
 4182TIP3    H112503   7.840   6.160   2.452  1.7004 -0.8580 -0.4477
 4182TIP3    H212504   7.824   6.010   2.449 -0.8156 -0.6544  0.9747
 4183TIP3   OH212505   7.164   5.349   3.299 -0.2258  0.4465  0.6591
 4183TIP3    H112506   7.069   5.350   3.287 -0.0866 -1.2881 -0.7848
 4183TIP3    H212507   7.183   5.427   3.350 -2.3817  1.0497  0.5587
 4184TIP3   OH212508   0.051   6.398   2.912 -0.1826  0.1874 -0.2241
 4184TIP3    H112509  -0.036   6.375   2.944  0.2103  0.5028  1.1248
 4184TIP3    H212510   0.046   6.492   2.895 -0.7873 -0.2131 -2.4537
 4185TIP3   OH212511   7.962   2.972   3.254  0.4468 -0.8685 -0.2270
 4185TIP3    H112512   7.955   3.037   3.324 -0.6342 -1.3906  0.1512
 4185TIP3    H212513   8.027   3.010   3.193  0.9273 -0.1349  0.7311
 4186TIP3   OH212514   2.664   3.308   3.654 -0.5985 -0.7079  0.3594
 4186TIP3    H112515   2.699   3.352   3.731 -1.0260 -0.2224  0.2804
 4186TIP3    H212516   2.727   3.238   3.635  0.1820 -0.0056  0.3614
 4187TIP3   OH212517   0.317   7.261   3.765 -1.2369  0.1470 -0.0883
 4187TIP3    H112518   0.288   7.352   3.771  0.5502  0.6830  0.4605
 4187TIP3    H212519   0.281   7.219   3.843  2.6024  1.7173  2.6689
 4188TIP3   OH212520   7.691   5.973   4.337 -0.2705 -0.2669 -0.0710
 4188TIP3    H112521   7.666   6.035   4.269  0.3623  0.2620  0.1711
 4188TIP3    H212522   7.787   5.968   4.331 -0.3311 -1.4001 -0.2476
 4189TIP3   OH212523   6.186   5.609   2.580 -0.7414  0.6132  0.3708
 4189TIP3    H112524   6.099   5.601   2.541 -1.3594  1.4508  1.5553
 4189TIP3    H212525   6.187   5.696   2.621  0.5728  0.5273  0.5624
 4190TIP3   OH212526   7.580   7.350   2.738 -0.2815  0.6123 -0.0848
 4190TIP3    H112527   7.588   7.444   2.721  3.5263  0.1037 -1.4628
 4190TIP3    H212528   7.654   7.329   2.795 -0.8881 -1.6090 -0.0689
 4191TIP3   OH212529   1.485   2.589   2.990 -0.1180  0.3942 -0.5053
 4191TIP3    H112530   1.514   2.508   2.949 -0.2723  0.6293 -1.0823
 4191TIP3    H212531   1.431   2.561   3.064  0.0981 -0.0269 -0.5045
 4192TIP3   OH212532   8.260   5.331   2.461 -0.1914  0.4733 -0.6660
 4192TIP3    H112533   8.331   5.385   2.426  0.5655 -0.3121 -0.3728
 4192TIP3    H212534   8.281   5.322   2.554 -1.1162  0.8923 -0.4054
 4193TIP3   OH212535   6.558   6.389   3.521  0.4857  0.4034 -0.5255
 4193TIP3    H112536   6.548   6.464   3.580  0.5287  0.7917 -1.0105
 4193TIP3    H212537   6.588   6.427   3.439  2.2230 -0.3294 -0.2528
 4194TIP3   OH212538   7.439   6.748   2.414  0.1191 -0.0118  0.4940
 4194TIP3    H112539   7.461   6.705   2.497 -1.2051 -1.5207  0.0783
 4194TIP3    H212540   7.421   6.676   2.353  2.5572  1.0221 -1.5606
 4195TIP3   OH212541   7.401   5.748   2.795  0.3976  0.3964  0.2201
 4195TIP3    H112542   7.451   5.766   2.875 -0.1659  0.4614  0.5625
 4195TIP3    H212543   7.327   5.696   2.825  0.6104 -0.2579 -0.3792
 4196TIP3   OH212544   7.666   5.279   3.237 -0.2579  0.2686  0.0927
 4196TIP3    H112545   7.652   5.363   3.280 -0.1584  0.3487 -0.0337
 4196TIP3    H212546   7.690   5.219   3.308 -1.6363  0.0325  0.3844
 4197TIP3   OH212547   0.154   3.151   5.985 -0.1669 -0.3244  0.2434
 4197TIP3    H112548   0.080   3.211   5.970  1.1016  1.2455  0.1757
 4197TIP3    H212549   0.136   3.113   6.072  0.7219  2.7196  1.8241
 4198TIP3   OH212550   1.361   5.027   1.293  0.0830 -0.1478  0.6888
 4198TIP3    H112551   1.273   5.028   1.254  1.0240  0.7925 -1.5146
 4198TIP3    H212552   1.357   5.095   1.360 -0.8905 -0.1321  0.6330
 4199TIP3   OH212553   0.195   4.785   2.461  0.4127  0.1007  0.4057
 4199TIP3    H112554   0.129   4.792   2.530 -0.9848 -1.2940 -0.7712
 4199TIP3    H212555   0.169   4.850   2.395  0.2778 -0.3796 -0.0161
 4200TIP3   OH212556   1.007   5.501   2.662 -0.3109 -0.1543  0.0933
 4200TIP3    H112557   0.920   5.532   2.638 -1.1622 -1.3985  1.4297
 4200TIP3    H212558   1.052   5.579   2.695  0.0134  1.0365 -2.9687
 4201TIP3   OH212559   0.152   7.274   3.228  0.5599  0.1280  0.3082
 4201TIP3    H112560   0.190   7.257   3.314  0.8391 -0.6082  0.0393
 4201TIP3    H212561   0.149   7.370   3.222 -1.2033  0.2174  1.9038
 4202TIP3   OH212562   0.872   6.134   1.668  0.9205 -0.2765 -0.3649
 4202TIP3    H112563   0.861   6.077   1.744  0.4791 -0.3800 -0.5081
 4202TIP3    H212564   0.897   6.219   1.705  0.9636 -0.3950 -0.1187
 4203TIP3   OH212565   6.979   4.925   4.195  0.8702 -0.0960  0.2857
 4203TIP3    H112566   7.016   4.838   4.180  1.8598  0.5784 -1.1860
 4203TIP3    H212567   6.897   4.925   4.146  1.4751  0.2189 -0.7453
 4204TIP3   OH212568   0.164   4.303   6.448 -0.2606  0.6342 -0.1245
 4204TIP3    H112569   0.098   4.336   6.509  0.7727 -0.0479  1.3936
 4204TIP3    H212570   0.218   4.245   6.501  1.6792  1.3365 -1.2864
 4205TIP3   OH212571   7.460   4.751   3.615 -0.9070  1.0753 -0.4648
 4205TIP3    H112572   7.432   4.744   3.707 -1.1181  0.5191 -0.5649
 4205TIP3    H212573   7.553   4.776   3.620 -0.1490 -1.5879 -0.0227
 4206TIP3   OH212574   0.811   3.489   2.626  0.0791 -0.1543  0.3452
 4206TIP3    H112575   0.721   3.522   2.615 -0.3141 -0.8329  1.4047
 4206TIP3    H212576   0.810   3.403   2.584  0.3388  0.0025  0.0196
 4207TIP3   OH212577   7.970   5.929   4.280  0.0667  0.3286  0.1178
 4207TIP3    H112578   8.008   6.001   4.230 -0.1149  0.0748 -0.3918
 4207TIP3    H212579   8.043   5.868   4.293  0.3249  0.8051  0.9273
 4208TIP3   OH212580   2.603   2.575   4.176  0.0498 -0.0422  0.1570
 4208TIP3    H112581   2.612   2.658   4.223 -0.2497  0.1143 -0.0632
 4208TIP3    H212582   2.693   2.546   4.163  0.1251 -0.4265  1.4189
 4209TIP3   OH212583   8.244   2.336   4.957  0.5124  0.0740  0.0500
 4209TIP3    H112584   8.321   2.282   4.939 -1.3915 -2.3331 -1.2209
 4209TIP3    H212585   8.257   2.367   5.047  2.0681 -1.8246  0.5148
 4210TIP3   OH212586   8.156   5.325   5.145  0.3400 -0.3303 -0.4894
 4210TIP3    H112587   8.061   5.324   5.129  0.2544  0.2076 -0.0147
 4210TIP3    H212588   8.195   5.341   5.059 -0.0319  0.3710 -0.5267
 4211TIP3   OH212589   8.262   6.047   3.219 -0.1888 -0.7361  0.4271
 4211TIP3    H112590   8.260   6.142   3.209 -2.0588 -0.6911  1.1335
 4211TIP3    H212591   8.355   6.025   3.214  0.2431  1.0952 -0.0068
 4212TIP3   OH212592   0.123   6.798   4.519 -0.9191 -0.3582 -0.0896
 4212TIP3    H112593   0.197   6.745   4.489 -1.1215 -0.6060 -0.1630
 4212TIP3    H212594   0.051   6.773   4.460 -0.2768  2.1259 -2.0011
 4213TIP3   OH212595   0.145   6.274   5.017 -0.0236 -0.7902 -0.3197
 4213TIP3    H112596   0.240   6.265   5.013 -0.0760 -1.4217 -0.2204
 4213TIP3    H212597   0.118   6.282   4.926  0.1971  0.2254 -0.3040
 4214TIP3   OH212598   7.722   4.663   0.349 -0.1247 -0.1892  0.5307
 4214TIP3    H112599   7.652   4.601   0.369 -0.3130 -0.2835 -0.4269
 4214TIP3    H212600   7.678   4.746   0.333  0.0727  0.0229  1.0739
 4215TIP3   OH212601   1.903   6.279   4.227  0.1707  0.2287 -0.1621
 4215TIP3    H112602   1.907   6.184   4.216  1.3216  0.2625 -0.0929
 4215TIP3    H212603   1.832   6.292   4.290  1.0752 -0.7084  1.1065
 4216TIP3   OH212604   6.656   5.346   1.968 -0.0898  0.7407  0.2386
 4216TIP3    H112605   6.747   5.358   1.993  0.4675  0.6043 -1.6247
 4216TIP3    H212606   6.660   5.300   1.884 -1.8594  1.1729 -0.1068
 4217TIP3   OH212607   7.765   5.122   4.293  0.1346 -0.2813  0.1263
 4217TIP3    H112608   7.749   5.215   4.308  0.1087 -0.2868  0.1332
 4217TIP3    H212609   7.678   5.086   4.274  0.2374 -0.1941 -0.4838
 4218TIP3   OH212610   1.304   6.603   4.773 -0.4428  0.2275 -0.2988
 4218TIP3    H112611   1.215   6.581   4.745 -0.4444  0.3592 -0.3984
 4218TIP3    H212612   1.294   6.683   4.823 -0.5602 -0.5025  0.8529
 4219TIP3   OH212613   1.245   4.209   1.265 -0.2743  0.3148 -0.0872
 4219TIP3    H112614   1.203   4.134   1.306 -1.3270  1.5822  1.2398
 4219TIP3    H212615   1.338   4.189   1.264 -0.1037  0.5886  3.7497
 4220TIP3   OH212616   7.709   6.472   4.016 -0.2082  0.3769  0.2712
 4220TIP3    H112617   7.750   6.486   4.101  0.2229  0.8601 -0.0144
 4220TIP3    H212618   7.619   6.446   4.037  0.0324  0.0391  0.8815
 4221TIP3   OH212619   0.581   5.903   3.311 -0.2043  0.0491 -0.7501
 4221TIP3    H112620   0.640   5.828   3.315  0.9805  1.0688  2.2494
 4221TIP3    H212621   0.495   5.868   3.331  0.1710 -0.6878 -0.4222
 4222TIP3   OH212622   8.236   6.025   1.137  0.3198 -0.2474  0.0882
 4222TIP3    H112623   8.172   5.973   1.184  0.6731  0.4300  1.3347
 4222TIP3    H212624   8.314   5.969   1.134  0.3624 -0.2055  0.4731
 4223TIP3   OH212625   6.919   5.892   4.080 -0.3249  0.1749  0.1379
 4223TIP3    H112626   6.850   5.890   4.146 -0.0301 -0.2927  0.4336
 4223TIP3    H212627   6.949   5.983   4.080  0.9042 -0.2035  1.9360
 4224TIP3   OH212628   6.903   7.008   2.987 -0.0328  0.0212 -0.0926
 4224TIP3    H112629   6.934   6.926   2.947  0.0512  0.7747 -1.5844
 4224TIP3    H212630   6.819   6.984   3.027  1.6102 -1.6359  2.5539
 4225TIP3   OH212631   1.302   6.199   2.842 -0.1987  0.2378 -0.3347
 4225TIP3    H112632   1.319   6.109   2.813  0.8134  0.1589  0.5030
 4225TIP3    H212633   1.319   6.253   2.764 -0.4066 -0.2434 -0.7204
 4226TIP3   OH212634   1.033   4.735   4.930  0.4568 -0.2788 -0.3861
 4226TIP3    H112635   1.029   4.729   4.835 -1.2813  0.4106 -0.3663
 4226TIP3    H212636   1.086   4.813   4.948  1.0340 -0.5777 -0.7703
 4227TIP3   OH212637   1.568   4.770   2.429  0.6535 -0.1029 -0.4600
 4227TIP3    H112638   1.573   4.836   2.359  3.1893 -0.2735 -0.4867
 4227TIP3    H212639   1.523   4.696   2.389  0.0599  0.6483 -1.2060
 4228TIP3   OH212640   7.668   5.038   4.667  0.6966 -0.1388  0.5669
 4228TIP3    H112641   7.711   5.122   4.652 -0.3161  0.1523 -0.8559
 4228TIP3    H212642   7.582   5.061   4.703 -0.0232 -0.4912 -0.8769
 4229TIP3   OH212643   7.347   4.935   3.241  0.0517  0.0836 -0.1118
 4229TIP3    H112644   7.311   4.935   3.152  0.3134 -0.5438 -0.2244
 4229TIP3    H212645   7.437   4.964   3.231  0.1072 -0.0700 -0.0670
 4230TIP3   OH212646   1.866   4.190   4.021 -0.0812  0.1110 -0.0614
 4230TIP3    H112647   1.813   4.126   4.069 -0.7589  0.6280 -0.1071
 4230TIP3    H212648   1.840   4.179   3.929 -0.5508  0.7747 -0.0111
 4231TIP3   OH212649   0.153   2.662   2.339 -0.4935 -0.1758 -0.0996
 4231TIP3    H112650   0.224   2.613   2.297  1.0562  1.1013  0.9690
 4231TIP3    H212651   0.141   2.617   2.423  0.5677  0.9008  0.6533
 4232TIP3   OH212652   6.299   5.321   4.110 -0.3622 -0.5196  0.2202
 4232TIP3    H112653   6.328   5.408   4.136 -1.2318 -0.2045  0.1376
 4232TIP3    H212654   6.239   5.336   4.037 -2.2057 -1.0258  1.5881
 4233TIP3   OH212655   7.826   7.137   2.532  0.4205  0.4045 -0.3284
 4233TIP3    H112656   7.790   7.205   2.475  0.5314  1.0131  0.3263
 4233TIP3    H212657   7.895   7.181   2.582  1.3172 -0.4748 -0.7538
 4234TIP3   OH212658   0.739   3.462   4.209 -0.3148  0.4173  0.3147
 4234TIP3    H112659   0.761   3.455   4.116 -0.8744  0.8735  0.1388
 4234TIP3    H212660   0.753   3.374   4.244  0.2846  0.3398 -0.1163
 4235TIP3   OH212661   8.264   7.234   2.767  0.6414 -0.3349 -0.4267
 4235TIP3    H112662   8.329   7.170   2.738  2.7250  2.0616 -1.2767
 4235TIP3    H212663   8.315   7.304   2.807 -1.6863  0.1038  1.9588
 4236TIP3   OH212664   0.851   4.486   0.158 -0.1248 -0.6836 -0.5244
 4236TIP3    H112665   0.864   4.547   0.230 -0.5474 -0.9330 -0.2332
 4236TIP3    H212666   0.832   4.402   0.201  0.4525 -1.0178 -0.9194
 4237TIP3   OH212667   0.512   5.745   4.940 -0.2128  0.3550 -0.0211
 4237TIP3    H112668   0.546   5.660   4.911  2.2016  0.8227  1.3623
 4237TIP3    H212669   0.450   5.723   5.010 -0.1204 -0.3083 -0.1457
 4238TIP3   OH212670   6.543   5.428   2.582 -0.1369  0.3313 -0.1232
 4238TIP3    H112671   6.573   5.349   2.536  0.4260  0.1902  0.4769
 4238TIP3    H212672   6.510   5.485   2.513 -0.0188 -0.1967 -0.6228
 4239TIP3   OH212673   1.436   6.240   6.499  0.3914 -0.1351 -0.9343
 4239TIP3    H112674   1.515   6.186   6.494  0.1849 -0.6487  0.8546
 4239TIP3    H212675   1.390   6.223   6.417  1.3077 -1.1427 -1.2517
 4240TIP3   OH212676   6.993   5.159   1.965 -0.0648  0.3433  0.1003
 4240TIP3    H112677   6.966   5.247   1.994  0.1181  0.0042  1.3122
 4240TIP3    H212678   7.084   5.170   1.937  0.0052  0.5102  0.3910
 4241TIP3   OH212679   1.756   4.483   3.380 -0.5201  0.2547  0.3748
 4241TIP3    H112680   1.767   4.579   3.382  1.2388  0.1738 -2.7809
 4241TIP3    H212681   1.828   4.450   3.434  0.1123  0.6576 -0.2095
 4242TIP3   OH212682   1.537   6.476   4.586  0.2313  0.8501 -0.2186
 4242TIP3    H112683   1.592   6.493   4.662  1.1661 -1.9603 -0.2356
 4242TIP3    H212684   1.449   6.466   4.621  0.5382  0.3116  0.3923
 4243TIP3   OH212685   1.011   6.269   4.283 -0.0446 -0.2465 -0.2975
 4243TIP3    H112686   0.952   6.194   4.271 -0.0258 -0.3052 -0.0253
 4243TIP3    H212687   1.088   6.231   4.326  1.0678 -0.5695 -2.4988
 4244TIP3   OH212688   7.940   5.795   4.950 -0.0573 -0.0610  0.3078
 4244TIP3    H112689   8.011   5.815   4.889 -0.8150  1.1820 -0.1923
 4244TIP3    H212690   7.921   5.702   4.935 -0.3265  0.2588 -1.4773
 4245TIP3   OH212691   0.170   4.994   3.052 -0.1890  0.1185 -0.0239
 4245TIP3    H112692   0.184   4.956   3.138 -0.8195  0.3432  0.1852
 4245TIP3    H212693   0.083   4.964   3.026 -1.0249  2.0099  0.4718
 4246TIP3   OH212694   1.695   5.720   5.273  0.4150  0.2862  0.0558
 4246TIP3    H112695   1.676   5.672   5.354  1.7997 -3.6514 -1.8390
 4246TIP3    H212696   1.609   5.736   5.234 -0.0556 -1.0504  0.5184
 4247TIP3   OH212697   6.564   5.564   5.924  0.2346 -0.4417 -0.0651
 4247TIP3    H112698   6.570   5.641   5.867  0.0418 -0.1147  0.3599
 4247TIP3    H212699   6.502   5.589   5.992 -0.1908 -1.1438 -0.1937
 4248TIP3   OH212700   1.177   3.991   4.121 -0.1050 -0.4285  0.4218
 4248TIP3    H112701   1.111   4.004   4.052  0.8714 -1.3152 -0.6975
 4248TIP3    H212702   1.249   3.946   4.077 -0.1186 -2.4401  2.3912
 4249TIP3   OH212703   0.335   5.169   4.995 -0.2506 -0.1512  0.3203
 4249TIP3    H112704   0.411   5.186   4.941 -2.2398  1.0650 -2.1999
 4249TIP3    H212705   0.320   5.075   4.988  0.0334 -0.1341 -0.5582
 4250TIP3   OH212706   4.804   1.708   0.832  0.4549 -0.5390  0.2962
 4250TIP3    H112707   4.711   1.699   0.812 -0.4031  0.7815  3.3164
 4250TIP3    H212708   4.813   1.799   0.862  2.7840 -0.5660 -0.2154
 4251TIP3   OH212709   3.642   0.459   3.127 -0.1023 -0.1821  0.0760
 4251TIP3    H112710   3.638   0.520   3.201 -0.2643 -0.2901  0.1568
 4251TIP3    H212711   3.663   0.374   3.166 -0.2742 -0.2575  0.0101
 4252TIP3   OH212712   8.313   3.169   1.354 -0.7229 -0.6124 -0.2729
 4252TIP3    H112713   8.274   3.183   1.267 -1.3275 -0.9802 -0.0661
 4252TIP3    H212714   8.288   3.247   1.404  0.6715  0.1806 -0.7904
 4253TIP3   OH212715   1.513   6.671   5.572 -0.3439  0.2787  0.7168
 4253TIP3    H112716   1.464   6.652   5.653 -0.2274 -1.5878  0.3882
 4253TIP3    H212717   1.597   6.627   5.584 -1.2148 -2.0965 -1.3657
 4254TIP3   OH212718   1.948   5.708   4.129  0.0409 -0.2164 -0.2840
 4254TIP3    H112719   1.946   5.620   4.092  0.8102 -0.8977  1.2701
 4254TIP3    H212720   2.011   5.703   4.201  1.2547  1.9882 -1.1351
 4255TIP3   OH212721   7.231   4.460   3.328 -0.8980  0.0891  0.3222
 4255TIP3    H112722   7.250   4.422   3.414  3.9713  1.3902 -0.0122
 4255TIP3    H212723   7.213   4.553   3.346 -1.1440  0.0972  0.0446
 4256TIP3   OH212724   7.358   6.891   3.131  0.4386  0.3927  0.4979
 4256TIP3    H112725   7.354   6.983   3.105  0.1530  0.2094 -0.1171
 4256TIP3    H212726   7.268   6.868   3.153  0.2822 -0.0893 -0.5916
 4257TIP3   OH212727   6.969   6.090   1.656 -0.7580  0.1609  0.0320
 4257TIP3    H112728   6.875   6.105   1.669 -0.6580 -0.7667  1.9951
 4257TIP3    H212729   7.007   6.178   1.652 -1.5218  0.5258  0.6996
 4258TIP3   OH212730   0.619   6.331   3.443 -0.2262  0.0076 -0.0363
 4258TIP3    H112731   0.562   6.287   3.379 -0.0218  0.4388 -0.5240
 4258TIP3    H212732   0.559   6.387   3.493  0.0333  2.0584 -1.9308
 4259TIP3   OH212733   7.513   5.684   3.131 -0.8099  0.1286  0.3902
 4259TIP3    H112734   7.527   5.615   3.195  0.1119  1.8119  2.0798
 4259TIP3    H212735   7.451   5.744   3.174 -2.6167 -0.2955 -1.5533
 4260TIP3   OH212736   6.919   7.840   3.897 -0.3087 -0.3193 -0.0941
 4260TIP3    H112737   6.931   7.789   3.817 -0.9342 -0.4475 -0.1078
 4260TIP3    H212738   6.889   7.926   3.865  0.5531 -0.0084 -0.0619
 4261TIP3   OH212739   7.648   4.395   1.575  0.0808 -0.1312 -0.0140
 4261TIP3    H112740   7.598   4.338   1.634 -0.3780  0.7088  0.4195
 4261TIP3    H212741   7.730   4.410   1.621 -0.5276  1.0353  0.7086
 4262TIP3   OH212742   8.257   6.640   2.305 -0.3858  0.1198  0.1593
 4262TIP3    H112743   8.261   6.716   2.247 -0.9739 -0.2460 -0.3726
 4262TIP3    H212744   8.289   6.672   2.389 -0.2959  0.8636 -0.1508
 4263TIP3   OH212745   0.593   2.937   1.338 -0.2523  0.1317 -0.4876
 4263TIP3    H112746   0.656   2.972   1.402 -0.4913  0.1434 -0.2565
 4263TIP3    H212747   0.602   2.842   1.346 -1.8816  0.0795  1.1914
 4264TIP3   OH212748   8.022   6.490   4.443 -0.1815  0.6977  0.5405
 4264TIP3    H112749   8.086   6.490   4.515  0.2170 -2.4229  0.2710
 4264TIP3    H212750   8.076   6.481   4.364 -0.8283  0.4101  0.1301
 4265TIP3   OH212751   7.127   5.034   2.780  0.2616  0.0412  0.5921
 4265TIP3    H112752   7.059   5.099   2.764  0.2995 -0.6018 -2.4895
 4265TIP3    H212753   7.209   5.077   2.753  0.4508 -0.8100 -0.2307
 4266TIP3   OH212754   0.177   3.313   3.024 -0.2211 -0.1609  0.2204
 4266TIP3    H112755   0.133   3.336   2.942 -0.3599  0.2776  0.4210
 4266TIP3    H212756   0.195   3.396   3.066 -2.7833 -0.4443  2.0210
 4267TIP3   OH212757   2.417   5.714   4.481 -0.2030  0.0928  0.3249
 4267TIP3    H112758   2.455   5.641   4.529 -1.2925 -0.0908  0.9381
 4267TIP3    H212759   2.459   5.792   4.518 -0.9848 -0.0513  1.5523
 4268TIP3   OH212760   8.090   5.403   3.959  0.0427 -0.0045 -0.5736
 4268TIP3    H112761   8.116   5.318   3.995 -0.0686 -0.0292 -0.5514
 4268TIP3    H212762   8.172   5.447   3.938  0.1090  0.0325 -0.2379
 4269TIP3   OH212763   0.995   5.277   3.357  0.5329  0.1716  0.3040
 4269TIP3    H112764   1.086   5.271   3.386  0.4877 -0.2473  0.3594
 4269TIP3    H212765   0.958   5.350   3.407  0.7490  0.1326  0.5180
 4270TIP3   OH212766   1.648   5.970   0.657 -0.5559  0.3813 -0.0846
 4270TIP3    H112767   1.615   5.922   0.733 -2.5972 -0.4718 -1.4731
 4270TIP3    H212768   1.725   5.920   0.629  0.3052  0.7887  1.4837
 4271TIP3   OH212769   0.419   7.678   1.441  0.1769  0.0216  0.0115
 4271TIP3    H112770   0.436   7.672   1.535 -0.8902 -1.3553  0.1338
 4271TIP3    H212771   0.343   7.736   1.434 -0.5712 -0.9248  0.1138
 4272TIP3   OH212772   0.121   5.302   3.836 -0.1410  0.0463  0.0403
 4272TIP3    H112773   0.131   5.210   3.811 -0.1628  0.2737 -0.8182
 4272TIP3    H212774   0.188   5.348   3.785 -0.0825  0.4952  0.5224
 4273TIP3   OH212775   0.577   4.930   5.117  0.4606 -0.5100 -0.0468
 4273TIP3    H112776   0.506   4.882   5.074  0.7784 -1.1049  0.0865
 4273TIP3    H212777   0.613   4.868   5.181  0.6059  0.0462  0.4222
 4274TIP3   OH212778   8.209   7.050   4.842 -0.1253  0.1157  0.1819
 4274TIP3    H112779   8.174   7.007   4.921 -0.4756 -1.2388 -0.6992
 4274TIP3    H212780   8.152   7.126   4.829 -2.0905 -1.4570 -0.5976
 4275TIP3   OH212781   0.810   6.497   3.385 -0.7232  0.3377  0.6136
 4275TIP3    H112782   0.780   6.536   3.467  0.1723 -0.9762  1.5836
 4275TIP3    H212783   0.746   6.429   3.366 -0.0807 -0.3876  1.0401
 4276TIP3   OH212784   7.403   5.181   4.725 -0.0463  0.0444  0.0961
 4276TIP3    H112785   7.318   5.166   4.684 -0.1432  0.4844  0.1316
 4276TIP3    H212786   7.391   5.155   4.816 -0.2754  0.5359  0.2099
 4277TIP3   OH212787   0.480   6.636   3.943 -0.1116  0.3436  0.0456
 4277TIP3    H112788   0.525   6.691   4.007 -0.9852  0.1343  0.8397
 4277TIP3    H212789   0.387   6.649   3.961 -0.3620  0.1233 -1.0467
 4278TIP3   OH212790   8.258   1.452   2.675 -1.1816 -0.1978 -0.4128
 4278TIP3    H112791   8.222   1.534   2.640 -0.2520  0.3298 -0.1458
 4278TIP3    H212792   8.264   1.395   2.599  1.0120  1.0068 -1.1733
 4279TIP3   OH212793   7.842   3.012   3.512 -0.0691 -0.3040 -0.2128
 4279TIP3    H112794   7.873   3.021   3.602 -0.4463  0.7203 -0.1755
 4279TIP3    H212795   7.882   3.085   3.465 -2.3416  1.0116 -0.1681
 4280TIP3   OH212796   0.573   3.436   3.138 -0.3096  0.1637 -0.3195
 4280TIP3    H112797   0.607   3.438   3.228 -2.6461  2.2795  0.5789
 4280TIP3    H212798   0.647   3.465   3.084  0.6412  0.4124  1.0738
 4281TIP3   OH212799   0.931   1.248   4.365  0.1348  0.0572  0.2174
 4281TIP3    H112800   0.956   1.299   4.288 -0.2496 -0.1282 -0.0325
 4281TIP3    H212801   0.854   1.292   4.400  0.0492 -0.1109  0.2414
 4282TIP3   OH212802   0.665   4.834   2.638  0.4924 -0.1235 -0.1958
 4282TIP3    H112803   0.711   4.791   2.711  0.3283  0.0207 -0.0083
 4282TIP3    H212804   0.572   4.822   2.658  0.4419 -0.7286 -0.7569
 4283TIP3   OH212805   5.727   6.558   2.534  0.3979 -0.4298 -0.1099
 4283TIP3    H112806   5.640   6.567   2.495  0.6310 -0.4282 -0.6339
 4283TIP3    H212807   5.779   6.513   2.467  0.6849 -0.8220  0.3702
 4284TIP3   OH212808   0.752   3.250   4.676 -0.4086  0.4040 -0.0957
 4284TIP3    H112809   0.699   3.199   4.615 -1.7467  0.4501  1.0125
 4284TIP3    H212810   0.693   3.271   4.748  0.8020  1.4410  0.6212
 4285TIP3   OH212811   8.442   4.951   4.554 -0.0245 -0.0814 -1.0340
 4285TIP3    H112812   8.370   5.007   4.523 -0.4468 -1.3836 -2.4326
 4285TIP3    H212813   8.509   4.959   4.486  1.2849  1.2849  0.3547
 4286TIP3   OH212814   1.955   3.379   4.293 -0.2559  0.1128 -0.6572
 4286TIP3    H112815   1.930   3.457   4.342  2.2313 -0.8003  2.2114
 4286TIP3    H212816   1.898   3.310   4.328  0.1217 -0.1213 -0.4992
 4287TIP3   OH212817   3.925   6.358   4.164 -0.0984  0.0195 -0.2897
 4287TIP3    H112818   3.902   6.448   4.144 -0.5271 -0.2038 -0.7814
 4287TIP3    H212819   4.003   6.366   4.220 -0.5338  0.7125  0.2338
 4288TIP3   OH212820   8.324   6.942   4.609 -0.4279 -0.3978  0.1216
 4288TIP3    H112821   8.419   6.935   4.609 -0.3007  0.9593 -1.4201
 4288TIP3    H212822   8.301   6.959   4.701  0.9139  0.4462  0.3142
 4289TIP3   OH212823   2.359   6.632   3.410  0.0532  0.6331  0.1434
 4289TIP3    H112824   2.366   6.708   3.468  0.7280  0.9245 -0.3194
 4289TIP3    H212825   2.367   6.557   3.469 -1.8807  0.8939  0.7802
 4290TIP3   OH212826   0.984   6.141   4.007 -0.0412  0.2908 -0.2878
 4290TIP3    H112827   0.938   6.173   4.085 -0.6271 -2.6131  0.6166
 4290TIP3    H212828   0.919   6.148   3.937  0.0829  1.7299 -0.2826
 4291TIP3   OH212829   7.738   7.203   2.177  0.6865 -0.0423  0.4034
 4291TIP3    H112830   7.832   7.197   2.163  0.4722  2.0737 -2.4131
 4291TIP3    H212831   7.725   7.286   2.222  0.2906 -1.0565  2.1763
 4292TIP3   OH212832   8.142   7.476   3.097  0.4846  0.5697 -0.3866
 4292TIP3    H112833   8.149   7.551   3.157 -0.0325  0.3820 -0.0892
 4292TIP3    H212834   8.227   7.433   3.103  0.8564  1.2458 -0.7084
 4293TIP3   OH212835   2.407   7.752   3.070 -0.0782 -0.7080 -0.4438
 4293TIP3    H112836   2.489   7.800   3.084 -0.4574 -0.3672  0.6520
 4293TIP3    H212837   2.355   7.810   3.013  0.2448 -0.7043 -0.7373
 4294TIP3   OH212838   1.870   6.308   3.892 -0.5890  0.2102 -0.2995
 4294TIP3    H112839   1.800   6.305   3.957  0.5960  1.2042  1.0698
 4294TIP3    H212840   1.825   6.329   3.809 -2.1097 -1.0662  0.1837
 4295TIP3   OH212841   2.188   3.286   2.353  0.0196  0.8470 -0.3884
 4295TIP3    H112842   2.099   3.318   2.362 -0.8865 -1.3573 -1.2552
 4295TIP3    H212843   2.207   3.244   2.437 -0.0893  0.4568 -0.5633
 4296TIP3   OH212844   1.211   6.756   4.127  0.3150 -0.1312 -0.4400
 4296TIP3    H112845   1.300   6.777   4.156  0.1317  0.5118 -0.3358
 4296TIP3    H212846   1.207   6.660   4.130  0.3987 -0.0987  1.4002
 4297TIP3   OH212847   7.557   5.813   3.447  0.4785 -0.1025 -0.0568
 4297TIP3    H112848   7.540   5.818   3.541  0.1346 -2.6319  0.0472
 4297TIP3    H212849   7.544   5.902   3.416  1.2006  0.9161  2.3906
 4298TIP3   OH212850   1.572   6.720   2.952 -0.3361  0.5533 -0.1949
 4298TIP3    H112851   1.628   6.760   2.886  0.5331  1.1205  0.8603
 4298TIP3    H212852   1.566   6.785   3.022  0.7312 -0.9444  1.3489
 4299TIP3   OH212853   1.480   6.848   3.382  0.3989 -0.2534  0.0103
 4299TIP3    H112854   1.486   6.899   3.301  2.6570  0.1892  0.4107
 4299TIP3    H212855   1.433   6.768   3.358  1.8764 -0.5561 -1.9780
 4300TIP3   OH212856   8.050   3.356   4.535 -0.2078  0.3573  0.0452
 4300TIP3    H112857   8.061   3.449   4.512  0.8958  0.1695 -0.2073
 4300TIP3    H212858   7.966   3.353   4.580 -0.3112  1.4689 -0.0469
 4301TIP3   OH212859   6.063   0.895   3.700 -0.3270 -0.0770  0.3829
 4301TIP3    H112860   6.024   0.900   3.787 -2.0153 -2.7870 -0.1570
 4301TIP3    H212861   5.989   0.894   3.640  0.8078  1.2205 -1.0952
 4302TIP3   OH212862   0.329   4.354   4.151 -0.6666 -0.5105  0.0947
 4302TIP3    H112863   0.422   4.378   4.152 -0.9173  0.6822 -2.1358
 4302TIP3    H212864   0.287   4.416   4.210 -0.2353 -0.2573  0.1379
 4303TIP3   OH212865   1.184   3.731   2.441  0.0277  0.3966  0.2616
 4303TIP3    H112866   1.116   3.753   2.505  0.3457 -0.0293  0.7494
 4303TIP3    H212867   1.236   3.811   2.432 -0.8869  0.9135 -0.5612
 4304TIP3   OH212868   1.339   6.414   3.543  0.4302 -0.4943 -0.0367
 4304TIP3    H112869   1.347   6.454   3.630 -1.1061 -0.5852  0.1602
 4304TIP3    H212870   1.399   6.339   3.546 -0.6066 -1.2799  1.4157
 4305TIP3   OH212871   1.797   6.152   2.244  0.0150  0.1845  0.2148
 4305TIP3    H112872   1.720   6.176   2.192 -0.3836 -0.9807  0.2517
 4305TIP3    H212873   1.774   6.068   2.283  0.9134  0.3210  1.0539
 4306TIP3   OH212874   8.362   7.354   3.501 -0.9173  0.3963 -0.1822
 4306TIP3    H112875   8.324   7.273   3.533 -0.5542  0.3911  0.2391
 4306TIP3    H212876   8.444   7.327   3.458  0.2957  0.7462  1.8219
 4307TIP3   OH212877   1.176   6.463   4.156  0.4655 -0.0030 -0.0619
 4307TIP3    H112878   1.262   6.422   4.173  0.6422  1.1136  1.8616
 4307TIP3    H212879   1.113   6.405   4.198  0.4407  0.1946  0.1683
 4308TIP3   OH212880   0.362   6.018   3.162  0.2472  0.1749 -0.1735
 4308TIP3    H112881   0.381   6.106   3.195 -1.5799  0.3674  0.4052
 4308TIP3    H212882   0.446   5.972   3.168  1.0955  1.7112  0.0214
 4309TIP3   OH212883   2.139   6.550   2.498  0.3413  0.3475 -0.0012
 4309TIP3    H112884   2.184   6.585   2.575 -0.0883  0.2812  0.2797
 4309TIP3    H212885   2.102   6.467   2.528 -0.6405  0.7745 -0.0092
 4310TIP3   OH212886   2.885   2.331   4.167 -0.5557 -0.6555 -0.5797
 4310TIP3    H112887   2.921   2.386   4.236  0.6917 -1.5965 -0.4594
 4310TIP3    H212888   2.923   2.245   4.183 -0.7085 -1.0225 -2.1030
 4311TIP3   OH212889   0.542   5.560   4.584 -0.0392  0.0483 -0.3104
 4311TIP3    H112890   0.527   5.493   4.517  1.5404  1.0404 -1.6878
 4311TIP3    H212891   0.504   5.640   4.548  2.1534  0.9317 -0.7116
 4312TIP3   OH212892   2.793   6.370   0.570 -0.3266  0.1135 -0.2454
 4312TIP3    H112893   2.704   6.335   0.571 -0.1228 -0.4783 -1.8788
 4312TIP3    H212894   2.811   6.388   0.478  1.5205 -0.4847 -0.0257
 4313TIP3   OH212895   1.932   4.652   3.577 -0.6012 -0.2824  1.0553
 4313TIP3    H112896   1.880   4.701   3.513 -2.3213 -1.8304  1.2175
 4313TIP3    H212897   2.018   4.642   3.536 -1.5064 -0.7641 -0.7721
 4314TIP3   OH212898   2.261   5.747   4.079 -0.6689 -0.5651  0.1541
 4314TIP3    H112899   2.200   5.797   4.024 -0.9843 -2.0823 -0.9220
 4314TIP3    H212900   2.339   5.802   4.084 -0.3476 -0.7056 -2.4918
 4315TIP3   OH212901   2.689   6.136   2.840 -0.0664  0.0281  0.5071
 4315TIP3    H112902   2.628   6.158   2.769 -0.4992 -1.7973  0.3024
 4315TIP3    H212903   2.770   6.181   2.816 -0.3194 -0.2583 -0.9552
 4316TIP3   OH212904   1.132   5.917   4.115  0.4933 -0.0798 -0.4507
 4316TIP3    H112905   1.081   5.973   4.174  0.6293 -0.8684  0.4350
 4316TIP3    H212906   1.137   5.966   4.033  0.3145  1.0462  0.1986
 4317TIP3   OH212907   1.573   6.652   3.683  0.0411  0.4863 -0.0093
 4317TIP3    H112908   1.667   6.639   3.683 -0.1733 -1.2015  0.0762
 4317TIP3    H212909   1.552   6.683   3.595  0.7403  1.4331  0.1548
 4318TIP3   OH212910   1.730   6.519   2.216 -0.5498 -0.8425 -0.2272
 4318TIP3    H112911   1.647   6.520   2.264 -1.6433  0.6895 -2.1014
 4318TIP3    H212912   1.724   6.441   2.160 -1.2637 -0.0486 -1.2653
 4319TIP3   OH212913   1.663   6.331   4.402 -0.4286 -0.2764 -0.2151
 4319TIP3    H112914   1.633   6.359   4.489  0.0735 -1.1050  0.2266
 4319TIP3    H212915   1.634   6.240   4.394  1.5803 -0.9668  0.0567
 4320TIP3   OH212916   1.759   5.944   1.999  0.1506  0.1145  0.3800
 4320TIP3    H112917   1.807   5.925   2.080  0.1027  0.7396  0.5584
 4320TIP3    H212918   1.667   5.947   2.026  0.1550  0.5607  0.3459
 4321TIP3   OH212919   0.750   5.610   2.864 -0.2256 -0.4995 -0.4256
 4321TIP3    H112920   0.797   5.537   2.905  1.0615  0.0914 -0.8281
 4321TIP3    H212921   0.697   5.569   2.796 -0.7194 -1.2364  0.3878
 4322TIP3   OH212922   1.975   7.200   5.074  0.1790  0.2327 -0.3354
 4322TIP3    H112923   2.006   7.178   4.986  1.1317 -0.9011  0.2755
 4322TIP3    H212924   2.008   7.289   5.090  0.7599  0.0917 -0.7682
 4323TIP3   OH212925   2.850   3.966   3.305 -0.4443 -1.1241  0.1521
 4323TIP3    H112926   2.766   4.011   3.312 -0.4366 -1.1933  0.7677
 4323TIP3    H212927   2.886   3.995   3.221 -0.5650 -0.1861  0.4183
 4324TIP3   OH212928   2.996   4.807   3.395 -0.1328 -0.4139 -0.2122
 4324TIP3    H112929   3.042   4.727   3.368  0.6070 -0.6525  1.7277
 4324TIP3    H212930   2.953   4.837   3.315  2.2384 -0.9518 -1.7413
 4325TIP3   OH212931   8.449   7.457   2.825 -0.0306 -0.2314  0.1864
 4325TIP3    H112932   8.504   7.535   2.815  1.5982 -1.5637 -1.7900
 4325TIP3    H212933   8.464   7.428   2.915  2.0654 -0.2433 -0.1540
 4326TIP3   OH212934   2.627   5.496   3.816  0.0971  0.0268  0.1181
 4326TIP3    H112935   2.535   5.524   3.820  0.6330  1.9100  0.0898
 4326TIP3    H212936   2.627   5.421   3.757 -1.2542  0.7685 -0.8511
 4327TIP3   OH212937   0.630   3.724   3.390  0.2829 -0.0979  0.3172
 4327TIP3    H112938   0.629   3.779   3.469 -1.0968  0.7165 -0.2392
 4327TIP3    H212939   0.538   3.703   3.375  0.4547  0.4610 -1.5584
 4328TIP3   OH212940   2.892   6.282   2.755  0.2247 -0.3866  0.4249
 4328TIP3    H112941   2.886   6.284   2.659 -1.5817  0.3974  0.5471
 4328TIP3    H212942   2.984   6.261   2.772  0.5115 -0.7958 -1.4803
 4329TIP3   OH212943   0.326   5.454   2.675  0.0655 -0.5108 -0.1249
 4329TIP3    H112944   0.240   5.472   2.714  0.2390  0.4303 -0.1682
 4329TIP3    H212945   0.318   5.366   2.639 -1.4467  0.2669 -1.7214
 4330TIP3   OH212946   8.419   6.680   2.517 -0.2428  0.1291 -0.1255
 4330TIP3    H112947   8.423   6.590   2.548 -1.4339  0.5688  1.3748
 4330TIP3    H212948   8.405   6.732   2.596 -0.8870  1.4996 -1.1154
 4331TIP3   OH212949   6.019   0.619   2.155  0.0872  0.0398 -0.1166
 4331TIP3    H112950   6.025   0.554   2.085 -0.3718 -0.1856  0.0520
 4331TIP3    H212951   6.108   0.629   2.187  0.2549 -0.0487 -0.5625
 4332TIP3   OH212952   1.156   4.747   6.151  0.3177 -0.1034 -0.5718
 4332TIP3    H112953   1.072   4.702   6.142  0.3015 -0.1701 -0.1001
 4332TIP3    H212954   1.133   4.835   6.182  0.4361 -0.1859 -0.2511
 4333TIP3   OH212955   7.490   6.747   3.977 -0.1406  0.4905 -0.5682
 4333TIP3    H112956   7.557   6.815   3.975 -0.7117  1.0701 -0.1549
 4333TIP3    H212957   7.413   6.788   3.937 -1.2861  0.9687  2.0517
 4334TIP3   OH212958   1.968   7.400   1.820  0.7415 -0.0401 -0.5611
 4334TIP3    H112959   1.908   7.426   1.890  0.2315 -0.3892 -0.8666
 4334TIP3    H212960   1.977   7.305   1.831 -0.1466 -0.2501 -1.5965
 4335TIP3   OH212961   1.654   6.040   2.858  0.1882 -0.1236 -0.2980
 4335TIP3    H112962   1.721   5.992   2.906 -0.4630  0.0641  0.8017
 4335TIP3    H212963   1.607   5.972   2.809 -0.6672 -0.6099  1.1777
 4336TIP3   OH212964   2.300   5.668   2.362 -0.2352 -0.4603 -0.3005
 4336TIP3    H112965   2.308   5.575   2.385 -1.3657 -0.9098 -1.6678
 4336TIP3    H212966   2.328   5.673   2.271 -1.4205  0.3395 -0.6283
 4337TIP3   OH212967   1.134   6.850   2.807 -0.4265 -0.3758  0.5681
 4337TIP3    H112968   1.173   6.928   2.768 -0.4089 -1.0813 -0.8474
 4337TIP3    H212969   1.048   6.880   2.839  0.1497  0.5382  1.2918
 4338TIP3   OH212970   1.748   5.270   1.586  0.2996  0.2423 -0.2847
 4338TIP3    H112971   1.731   5.278   1.680  0.6449  1.2529 -0.3023
 4338TIP3    H212972   1.841   5.248   1.580  1.0458  3.2278 -0.4750
 4339TIP3   OH212973   1.167   6.505   2.374  0.0854 -1.0833  0.2546
 4339TIP3    H112974   1.086   6.551   2.355  0.9009 -0.5842 -2.1640
 4339TIP3    H212975   1.165   6.428   2.316  1.2193 -1.2113  0.3754
 4340TIP3   OH212976   4.383   6.369   4.103  0.0315  0.2160  0.3249
 4340TIP3    H112977   4.415   6.422   4.176 -1.1635  1.0366  0.2641
 4340TIP3    H212978   4.293   6.348   4.127  0.4773 -1.8008  0.3453
 4341TIP3   OH212979   3.416   6.097   3.183 -0.0807  0.0400  0.3148
 4341TIP3    H112980   3.502   6.138   3.194  0.1343 -0.2186 -0.3395
 4341TIP3    H212981   3.375   6.103   3.269  0.6536  0.0353  0.6731
 4342TIP3   OH212982   2.121   2.152   2.913 -0.3514  0.5035 -0.0748
 4342TIP3    H112983   2.091   2.225   2.967  3.2479  0.4130  2.1936
 4342TIP3    H212984   2.073   2.076   2.946 -0.6530  1.0299  0.7037
 4343TIP3   OH212985   3.841   3.715   3.484 -0.0136 -0.1069 -0.0696
 4343TIP3    H112986   3.891   3.795   3.493 -0.6265  0.1920  0.7371
 4343TIP3    H212987   3.853   3.669   3.568  2.2492 -1.9843 -1.3540
 4344TIP3   OH212988   3.343   6.250   3.689  0.1931  0.1306 -0.4264
 4344TIP3    H112989   3.390   6.329   3.663 -0.4004  0.7723  0.4252
 4344TIP3    H212990   3.295   6.223   3.611 -1.0023  1.6183 -0.2070
 4345TIP3   OH212991   0.289   5.678   2.986 -0.6218 -0.3986 -0.6205
 4345TIP3    H112992   0.376   5.679   3.025 -0.1225  1.2658 -1.7621
 4345TIP3    H212993   0.268   5.770   2.970 -2.7127 -0.7563 -0.0848
 4346TIP3   OH212994   0.816   4.708   2.834  0.6946 -0.0297  0.1393
 4346TIP3    H112995   0.894   4.660   2.806  0.1945 -0.3394 -0.7250
 4346TIP3    H212996   0.851   4.779   2.888  1.5458 -0.4073  0.1054
 4347TIP3   OH212997   0.374   4.109   5.125 -0.7694  0.3278  0.0793
 4347TIP3    H112998   0.375   4.030   5.179  2.2229  0.5557  0.4592
 4347TIP3    H212999   0.340   4.080   5.041  3.6052 -2.2717 -0.9490
 4348TIP3   OH213000   7.942   3.951   2.143 -0.2909 -0.3262 -0.1337
 4348TIP3    H113001   7.928   3.984   2.232 -1.9259 -0.9356 -0.1381
 4348TIP3    H213002   7.871   3.991   2.092 -0.7643 -1.7907 -0.6678
 4349TIP3   OH213003   2.349   4.643   4.565  0.2557  0.4872  0.4396
 4349TIP3    H113004   2.318   4.592   4.640 -0.0597 -0.9881 -0.6681
 4349TIP3    H213005   2.269   4.672   4.522  0.4311  0.8056  0.3302
 4350TIP3   OH213006   1.771   4.651   3.997  0.0868 -0.0418  0.5533
 4350TIP3    H113007   1.719   4.731   3.988  0.4821  0.0647 -0.8639
 4350TIP3    H213008   1.738   4.610   4.078 -2.2140  0.0069 -0.3067
 4351TIP3   OH213009   2.163   6.178   2.771  0.3198 -0.0923  0.2582
 4351TIP3    H113010   2.162   6.109   2.705 -3.0479 -1.3852  1.5502
 4351TIP3    H213011   2.157   6.259   2.721  0.5684 -0.9092 -1.1268
 4352TIP3   OH213012   1.762   3.088   4.731 -0.1710  0.1406 -0.5664
 4352TIP3    H113013   1.799   3.058   4.815 -1.7009  0.2929  0.1808
 4352TIP3    H213014   1.795   3.177   4.721 -0.0136  0.1394 -0.0992
 4353TIP3   OH213015   1.242   4.463   3.495  0.5204  0.9224 -0.0690
 4353TIP3    H113016   1.336   4.474   3.509  0.0654  0.2991  3.8252
 4353TIP3    H213017   1.204   4.548   3.518  0.0346  1.0581 -1.2737
 4354TIP3   OH213018   2.306   6.495   2.293  0.5772 -0.4356  0.4367
 4354TIP3    H113019   2.263   6.531   2.370 -0.8242  0.3287 -0.6904
 4354TIP3    H213020   2.258   6.531   2.219  1.1787 -2.0697 -0.7902
 4355TIP3   OH213021   8.173   7.417   4.538 -0.3279 -0.2202  0.3340
 4355TIP3    H113022   8.096   7.385   4.490  0.1427  0.4466 -0.8888
 4355TIP3    H213023   8.166   7.375   4.624 -0.6580 -2.2502 -0.6425
 4356TIP3   OH213024   0.219   5.291   4.377 -0.3766  0.3628 -0.3709
 4356TIP3    H113025   0.147   5.293   4.313 -1.4325  2.2593  0.8353
 4356TIP3    H213026   0.191   5.226   4.441  0.6465 -1.4853 -1.7357
 4357TIP3   OH213027   2.491   4.424   1.984  0.3248  0.4865 -0.1618
 4357TIP3    H113028   2.584   4.436   1.964  0.1040  1.4373 -0.6094
 4357TIP3    H213029   2.445   4.480   1.922 -0.5723 -0.2971 -0.2103
 4358TIP3   OH213030   0.177   4.215   3.159 -0.4211  0.7140 -0.1168
 4358TIP3    H113031   0.084   4.210   3.181 -0.2708 -1.3499  0.1499
 4358TIP3    H213032   0.209   4.125   3.169  1.7108  1.4821  0.2686
 4359TIP3   OH213033   1.972   4.068   1.357 -0.5382 -0.2567 -0.2614
 4359TIP3    H113034   1.951   3.978   1.333 -0.7741 -0.1861 -0.3116
 4359TIP3    H213035   1.927   4.122   1.293 -0.2466 -0.1071 -0.3426
 4360TIP3   OH213036   1.554   4.441   2.046 -0.0139 -0.0969  0.1533
 4360TIP3    H113037   1.630   4.446   2.104 -0.5157  1.3212  0.7119
 4360TIP3    H213038   1.481   4.424   2.104 -0.6402  2.1199  0.0812
 4361TIP3   OH213039   1.471   5.167   3.417  0.0014 -0.3988  0.2788
 4361TIP3    H113040   1.487   5.112   3.494  1.1250 -0.2826  0.1375
 4361TIP3    H213041   1.551   5.161   3.366 -0.0714  0.9388 -0.0156
 4362TIP3   OH213042   1.263   5.843   0.430 -0.3793  0.0225 -0.2252
 4362TIP3    H113043   1.198   5.907   0.459 -0.6209 -0.5802  0.6021
 4362TIP3    H213044   1.212   5.779   0.380 -0.5219 -0.7336  0.8682
 4363TIP3   OH213045   1.816   5.841   3.223  0.3254  0.1284  0.5097
 4363TIP3    H113046   1.748   5.881   3.278  0.8459  0.6633  0.7602
 4363TIP3    H213047   1.870   5.914   3.195  1.1006 -0.3597  0.7204
 4364TIP3   OH213048   2.816   4.801   4.109 -0.4993 -0.2133 -0.3759
 4364TIP3    H113049   2.792   4.860   4.181  1.0730 -0.9020  0.7471
 4364TIP3    H213050   2.843   4.859   4.038  1.8930  0.4773  1.0175
 4365TIP3   OH213051   0.947   5.522   3.538  0.1233 -0.4044  0.2655
 4365TIP3    H113052   0.934   5.547   3.630 -0.9555 -1.3476  0.3872
 4365TIP3    H213053   1.034   5.554   3.517  0.1759  0.2897  1.4699
 4366TIP3   OH213054   0.949   4.905   2.990 -0.4350  0.0624 -0.3153
 4366TIP3    H113055   0.946   4.989   3.035  0.2957 -1.0050  1.8265
 4366TIP3    H213056   1.033   4.905   2.945 -0.0568  0.1384  0.3840
 4367TIP3   OH213057   3.780   3.700   3.005  0.1086  0.2435  0.3568
 4367TIP3    H113058   3.692   3.678   3.037 -0.2781  0.4627 -0.5189
 4367TIP3    H213059   3.828   3.727   3.082 -0.9902  1.3805  0.6589
 4368TIP3   OH213060   2.147   7.217   3.102 -0.1520  0.1952  0.0935
 4368TIP3    H113061   2.213   7.285   3.113 -1.9873  1.7441  1.8775
 4368TIP3    H213062   2.082   7.255   3.043 -0.8717 -0.2369  0.5933
 4369TIP3   OH213063   2.676   5.751   2.581  0.3588 -0.0020  0.2193
 4369TIP3    H113064   2.586   5.720   2.566  1.0093 -2.2552  0.6631
 4369TIP3    H213065   2.681   5.835   2.536 -2.3775  0.8276  1.3447
 4370TIP3   OH213066   0.615   6.585   2.919 -0.8053  0.2229 -1.0058
 4370TIP3    H113067   0.678   6.638   2.967 -0.4731 -0.0470 -1.1423
 4370TIP3    H213068   0.548   6.647   2.890  0.4886  0.8640 -2.6958
 4371TIP3   OH213069   1.309   5.273   1.792 -0.1682 -0.1849 -0.5402
 4371TIP3    H113070   1.245   5.321   1.740 -0.2117  1.0468  0.6222
 4371TIP3    H213071   1.341   5.337   1.856  1.1694 -1.1822 -0.1908
 4372TIP3   OH213072   6.653   6.127   4.897 -0.8890  0.2647  0.0110
 4372TIP3    H113073   6.589   6.131   4.826 -2.0270 -1.1572  0.9175
 4372TIP3    H213074   6.602   6.145   4.976  0.7729  4.1845  0.3199
 4373TIP3   OH213075   0.365   4.438   0.428  0.2318 -0.2787  0.0817
 4373TIP3    H113076   0.450   4.459   0.389  0.9106  0.8980  2.0784
 4373TIP3    H213077   0.357   4.343   0.419  1.7590 -0.4078 -0.1344
 4374TIP3   OH213078   1.276   4.677   5.849  0.4546 -0.4609 -0.4485
 4374TIP3    H113079   1.208   4.721   5.901 -0.0835  1.1811 -2.4766
 4374TIP3    H213080   1.264   4.584   5.867 -0.6725 -0.0148  1.1980
 4375TIP3   OH213081   2.005   5.199   3.806  0.2955  0.4127 -0.6598
 4375TIP3    H113082   1.934   5.144   3.772  1.5644 -1.1863 -0.8227
 4375TIP3    H213083   1.998   5.280   3.756 -0.4320 -0.3417 -1.8136
 4376TIP3   OH213084   2.609   5.416   5.489  0.2123 -0.6586  0.2742
 4376TIP3    H113085   2.526   5.458   5.512  0.4409  0.5403 -1.0147
 4376TIP3    H213086   2.675   5.466   5.537  0.4368  0.1431 -0.8596
 4377TIP3   OH213087   3.048   2.755   3.081 -0.8394 -0.1002  0.0419
 4377TIP3    H113088   3.113   2.692   3.052 -1.0222 -0.2534 -0.0291
 4377TIP3    H213089   2.981   2.754   3.014 -0.9915 -0.0537  0.1930
 4378TIP3   OH213090   2.804   6.752   1.757  0.1918 -0.2933 -0.4791
 4378TIP3    H113091   2.813   6.777   1.665  0.8057  1.5319  0.0427
 4378TIP3    H213092   2.871   6.685   1.771  1.1265  0.5199 -0.9993
 4379TIP3   OH213093   3.400   5.293   2.710  0.8497  0.6199 -0.1333
 4379TIP3    H113094   3.380   5.273   2.802  1.4973  3.1295  0.6061
 4379TIP3    H213095   3.453   5.219   2.680  0.4123 -0.3572  1.4362
 4380TIP3   OH213096   1.452   6.774   3.891  0.0921  0.2245 -0.2355
 4380TIP3    H113097   1.506   6.736   3.960 -0.9552  0.4963  0.7396
 4380TIP3    H213098   1.494   6.745   3.810  0.7310 -0.9556  0.5011
 4381TIP3   OH213099   1.848   4.288   1.833 -0.9300 -0.4062 -0.0401
 4381TIP3    H113100   1.898   4.358   1.791  0.0021 -1.5944 -0.9390
 4381TIP3    H213101   1.859   4.212   1.775 -3.0393 -0.9352  0.2027
 4382TIP3   OH213102   0.061   5.660   3.595  0.1081 -0.3537  0.1057
 4382TIP3    H113103  -0.005   5.596   3.570  1.7715 -1.5287 -1.4061
 4382TIP3    H213104   0.057   5.727   3.527 -0.4168  0.2583  0.7297
 4383TIP3   OH213105   0.574   6.370   3.935 -0.4850  0.6253  0.2088
 4383TIP3    H113106   0.655   6.405   3.972 -0.7252  0.8916  0.4888
 4383TIP3    H213107   0.512   6.443   3.940 -0.5786  0.5993 -0.5303
 4384TIP3   OH213108   0.901   5.310   1.732 -0.2635  0.1022 -0.3485
 4384TIP3    H113109   0.885   5.294   1.825 -0.6295  0.8387 -0.2773
 4384TIP3    H213110   0.855   5.393   1.714  1.0533  0.7372 -0.8264
 4385TIP3   OH213111   6.945   0.501   6.068 -0.2176  0.1225  0.2156
 4385TIP3    H113112   6.969   0.593   6.060  0.0360  0.0510  0.1399
 4385TIP3    H213113   6.855   0.497   6.037 -0.0071  0.2348 -0.4103
 4386TIP3   OH213114   5.831   0.412   3.350  0.2646  0.0627 -0.5567
 4386TIP3    H113115   5.771   0.406   3.424 -0.3476  0.1130 -1.0407
 4386TIP3    H213116   5.899   0.347   3.368  1.2333  1.4817  1.0398
 4387TIP3   OH213117   0.594   5.748   3.039 -0.1777  0.0678 -0.2419
 4387TIP3    H113118   0.640   5.690   2.978 -0.1352 -0.1156 -0.0370
 4387TIP3    H213119   0.602   5.835   2.999  0.4519  0.0569 -0.1484
 4388TIP3   OH213120   7.973   3.632   1.596 -0.1393 -0.1688 -0.0402
 4388TIP3    H113121   7.902   3.591   1.646 -1.3961  0.1460 -1.5400
 4388TIP3    H213122   7.929   3.696   1.541  1.2515 -0.3869 -1.4226
 4389TIP3   OH213123   3.691   6.257   3.264  0.2132 -0.2001 -0.0533
 4389TIP3    H113124   3.740   6.240   3.345 -0.2007  2.0366  0.7045
 4389TIP3    H213125   3.731   6.199   3.199  1.5111 -0.9796  1.3975
 4390TIP3   OH213126   2.724   7.254   2.765  0.1841 -0.5843  0.4074
 4390TIP3    H113127   2.671   7.218   2.836 -1.6149 -0.2683 -0.7372
 4390TIP3    H213128   2.692   7.343   2.753 -0.0306 -0.8576 -1.2416
 4391TIP3   OH213129   1.480   4.877   0.815 -0.2287  0.3364 -0.4367
 4391TIP3    H113130   1.407   4.927   0.777  0.5555 -0.0447 -2.5033
 4391TIP3    H213131   1.533   4.852   0.740  1.6320 -0.0598  0.9873
 4392TIP3   OH213132   2.100   7.114   3.595  0.0320 -0.5655  0.0230
 4392TIP3    H113133   2.122   7.176   3.525 -0.0918 -0.1505  0.3513
 4392TIP3    H213134   2.179   7.107   3.647 -0.6772  1.1745  1.3916
 4393TIP3   OH213135   2.300   1.137   0.424  0.2147 -0.3455  0.1106
 4393TIP3    H113136   2.275   1.218   0.380 -1.8437 -1.8646 -1.5952
 4393TIP3    H213137   2.387   1.117   0.390  0.8024  1.2068  0.6638
 4394TIP3   OH213138   0.789   5.139   3.958  0.2779  0.4928  0.4015
 4394TIP3    H113139   0.858   5.081   3.988  1.0664  0.8696 -0.6572
 4394TIP3    H213140   0.708   5.093   3.979  0.8563 -0.1619  1.2168
 4395TIP3   OH213141   1.328   6.001   5.036  0.7401 -0.6054 -0.4216
 4395TIP3    H113142   1.366   6.089   5.036  1.3979 -0.8831 -1.2390
 4395TIP3    H213143   1.330   5.974   5.128  0.1026  0.4135 -0.1020
 4396TIP3   OH213144   0.094   5.496   2.165 -0.4046  0.5118  0.1572
 4396TIP3    H113145   0.052   5.513   2.080 -0.3150 -0.2045 -0.0314
 4396TIP3    H213146   0.155   5.569   2.176  2.1851 -1.2727 -2.0616
 4397TIP3   OH213147   1.445   7.532   1.062 -0.0242  0.1535  0.0230
 4397TIP3    H113148   1.428   7.447   1.101 -0.7169  1.2361  2.1873
 4397TIP3    H213149   1.372   7.546   1.001  0.1916 -0.8708 -0.4681
 4398TIP3   OH213150   1.246   5.958   2.694 -0.1763  0.0330  0.5830
 4398TIP3    H113151   1.244   5.949   2.789 -0.1881 -0.8348  0.5112
 4398TIP3    H213152   1.163   5.920   2.664 -1.2642  2.4697  0.3703
 4399TIP3   OH213153   0.755   4.932   6.110  0.1801 -0.8636 -0.6921
 4399TIP3    H113154   0.790   4.978   6.186  0.5645 -2.2588 -0.0083
 4399TIP3    H213155   0.769   4.992   6.036  1.5664 -0.3067  0.0113
 4400TIP3   OH213156   0.962   5.536   0.854  0.1042  0.4165  0.3105
 4400TIP3    H113157   0.938   5.543   0.762 -0.9934  2.6738  0.7282
 4400TIP3    H213158   1.006   5.451   0.861  0.5612  0.3944 -2.3477
 4401TIP3   OH213159   0.926   4.000   1.870 -0.8089  0.2592  0.4635
 4401TIP3    H113160   1.000   4.039   1.824 -1.3882  1.9722  0.9666
 4401TIP3    H213161   0.918   3.912   1.832  0.1137  0.8466 -1.1309
 4402TIP3   OH213162   3.912   5.794   2.848  0.0329 -0.8389 -0.5360
 4402TIP3    H113163   3.861   5.870   2.877 -0.6549 -1.2318 -0.7043
 4402TIP3    H213164   3.847   5.734   2.812  0.5440 -1.6205 -0.1636
 4403TIP3   OH213165   2.543   5.446   3.312  0.1720  0.2988  0.1728
 4403TIP3    H113166   2.458   5.409   3.287  1.5055 -1.4302 -1.8951
 4403TIP3    H213167   2.544   5.533   3.272  0.3086 -0.5789 -1.7725
 4404TIP3   OH213168   2.593   6.472   0.361 -0.8015  0.1739 -0.4767
 4404TIP3    H113169   2.650   6.546   0.341 -1.1009  0.6714  0.4920
 4404TIP3    H213170   2.605   6.411   0.288  0.4888  0.5585 -0.5817
 4405TIP3   OH213171   7.806   7.346   2.890 -0.0977 -0.0833 -0.1556
 4405TIP3    H113172   7.797   7.273   2.950  0.3682 -1.1990 -1.4051
 4405TIP3    H213173   7.826   7.422   2.945 -1.3826 -0.7300  1.2112
 4406TIP3   OH213174   3.177   5.594   3.138 -0.2343 -0.7082 -0.0724
 4406TIP3    H113175   3.149   5.601   3.229 -1.1227 -0.2895 -0.3625
 4406TIP3    H213176   3.206   5.683   3.115 -1.1682 -0.5190 -0.5490
 4407TIP3   OH213177   2.422   5.040   3.716  0.3007 -0.0010  0.6181
 4407TIP3    H113178   2.382   4.955   3.735  1.4218 -0.6114  0.2591
 4407TIP3    H213179   2.373   5.102   3.770 -0.1355 -0.9491  1.3152
 4408TIP3   OH213180   0.321   7.667   2.638  0.1142  0.2259 -0.1821
 4408TIP3    H113181   0.248   7.698   2.692 -0.1823 -0.4944 -0.1546
 4408TIP3    H213182   0.279   7.614   2.571  0.5882  0.0942 -0.3745
 4409TIP3   OH213183   6.657   7.328   3.320 -0.0154  0.3414 -0.4279
 4409TIP3    H113184   6.701   7.258   3.366  0.7076  1.0066 -0.0948
 4409TIP3    H213185   6.572   7.337   3.364  0.7415  1.0926  0.8991
 4410TIP3   OH213186   2.136   0.795   3.617  0.1824 -0.1462 -0.1197
 4410TIP3    H113187   2.162   0.828   3.531 -0.3256  1.4432  0.3052
 4410TIP3    H213188   2.042   0.816   3.623  0.2308 -0.1844  0.8409
 4411TIP3   OH213189   0.591   4.210   3.923  0.5469  0.1542 -0.1530
 4411TIP3    H113190   0.520   4.183   3.981 -1.0881  2.0940 -1.2058
 4411TIP3    H213191   0.634   4.282   3.968  2.1641 -1.2825  0.6718
 4412TIP3   OH213192   2.756   6.282   3.884  0.5936  0.4814 -0.5413
 4412TIP3    H113193   2.743   6.325   3.800 -1.4903 -1.4782 -1.2887
 4412TIP3    H213194   2.671   6.290   3.928  1.0695 -0.2760  0.5311
 4413TIP3   OH213195   0.401   5.203   2.153 -0.3396 -0.3846 -0.4527
 4413TIP3    H113196   0.481   5.207   2.205 -0.5314  0.7386 -0.2326
 4413TIP3    H213197   0.394   5.289   2.112 -1.8082 -0.2107  0.1020
 4414TIP3   OH213198   0.730   5.622   2.524  0.0320  0.2441 -0.1238
 4414TIP3    H113199   0.715   5.713   2.549  2.8874  1.1081 -1.3637
 4414TIP3    H213200   0.674   5.572   2.584 -1.9145  2.7968  0.2907
 4415TIP3   OH213201   0.488   5.731   3.998 -0.1197  0.3317  0.0409
 4415TIP3    H113202   0.482   5.643   3.962  1.3491  0.6052 -0.9467
 4415TIP3    H213203   0.531   5.719   4.083  2.0330  0.2673 -1.0097
 4416TIP3   OH213204   2.800   5.811   4.983 -0.7692  0.2921 -0.0635
 4416TIP3    H113205   2.799   5.716   4.976 -1.1655  0.3814 -1.1846
 4416TIP3    H213206   2.738   5.842   4.917  0.5559  1.3899 -0.8268
 4417TIP3   OH213207   1.836   5.952   1.749 -0.6133  0.3660 -0.7515
 4417TIP3    H113208   1.790   6.020   1.700  0.0718  0.8940 -0.6850
 4417TIP3    H213209   1.811   5.968   1.840 -0.3781  0.5943 -0.7253
 4418TIP3   OH213210   1.205   7.736   3.260 -0.0462 -0.2251  0.0072
 4418TIP3    H113211   1.294   7.723   3.229  0.0213  0.4458 -0.0963
 4418TIP3    H213212   1.190   7.831   3.251 -0.7137 -0.3123  0.1570
 4419TIP3   OH213213   2.364   5.557   3.729  0.2647 -0.2603  0.8287
 4419TIP3    H113214   2.322   5.639   3.703  1.2558  0.4505  1.4780
 4419TIP3    H213215   2.341   5.496   3.659 -2.5858 -0.1410  1.5672
 4420TIP3   OH213216   0.822   3.901   2.112 -0.1124  0.0298  0.2070
 4420TIP3    H113217   0.751   3.854   2.068  0.1528 -0.6189  0.4623
 4420TIP3    H213218   0.827   3.861   2.199  1.7539 -1.1952 -0.4238
 4421TIP3   OH213219   2.590   3.836   1.361  0.1346 -0.1460  0.1663
 4421TIP3    H113220   2.663   3.831   1.423  1.5506  1.6322 -1.3023
 4421TIP3    H213221   2.522   3.780   1.399  1.4935 -0.2054  2.5897
 4422TIP3   OH213222   2.415   5.103   3.460  0.1296 -0.2237  0.3219
 4422TIP3    H113223   2.402   5.083   3.553  0.1975 -2.8585 -0.1738
 4422TIP3    H213224   2.502   5.068   3.440  0.2350  0.5768 -0.6603
 4423TIP3   OH213225   1.766   6.446   3.405  0.1248  0.6178 -0.3892
 4423TIP3    H113226   1.778   6.356   3.376  0.1623  0.1568  1.0246
 4423TIP3    H213227   1.688   6.476   3.358 -0.3359 -0.4076 -0.2859
 4424TIP3   OH213228   4.027   5.702   3.348 -0.2610  0.7411  0.2779
 4424TIP3    H113229   4.010   5.766   3.418  1.9455  1.1807  0.4360
 4424TIP3    H213230   4.006   5.748   3.267  1.9843  1.9255  0.3484
 4425TIP3   OH213231   5.698   5.022   2.936  0.8517  0.8082  0.5752
 4425TIP3    H113232   5.672   4.930   2.932  1.8419  0.4121  2.8686
 4425TIP3    H213233   5.740   5.039   2.851 -0.6415 -0.4214 -0.4409
 4426TIP3   OH213234   0.912   3.930   3.307 -0.2148 -0.2108  0.7192
 4426TIP3    H113235   0.926   3.948   3.400 -0.6823  0.1707  0.7136
 4426TIP3    H213236   0.938   4.011   3.262 -1.6199  0.2043  0.6454
 4427TIP3   OH213237   2.897   6.533   4.016 -0.4698 -0.0058 -0.5178
 4427TIP3    H113238   2.986   6.507   4.043 -0.3205 -3.3497 -3.7917
 4427TIP3    H213239   2.841   6.505   4.089  0.5983 -2.9677 -0.7524
 4428TIP3   OH213240   2.868   5.478   3.121  0.3299 -0.5159  0.1204
 4428TIP3    H113241   2.922   5.556   3.108 -0.5651  0.1727  0.4917
 4428TIP3    H213242   2.821   5.494   3.203 -2.7393  0.2462 -1.7184
 4429TIP3   OH213243   1.308   6.045   4.627 -0.2272 -0.2198 -0.1164
 4429TIP3    H113244   1.316   5.981   4.698  1.7373  0.3816  0.2324
 4429TIP3    H213245   1.343   6.126   4.663 -0.4232  0.4325 -1.3598
 4430TIP3   OH213246   7.935   7.772   1.881 -0.4809  0.3418 -0.4624
 4430TIP3    H113247   7.990   7.835   1.928  0.5716 -1.2601  0.4865
 4430TIP3    H213248   7.853   7.770   1.931 -0.8022  1.4898 -0.9216
 4431TIP3   OH213249   3.962   4.877   3.979 -0.4314  0.0360  0.6608
 4431TIP3    H113250   3.940   4.896   4.070 -0.2835 -0.8482  0.8791
 4431TIP3    H213251   4.033   4.813   3.984 -0.7215 -0.3459 -0.0776
 4432TIP3   OH213252   2.520   6.178   2.616 -0.1674  0.5072 -0.1724
 4432TIP3    H113253   2.581   6.118   2.573 -2.3093 -1.8498 -0.0387
 4432TIP3    H213254   2.462   6.207   2.546 -0.2964  0.9425  0.1159
 4433TIP3   OH213255   2.881   7.383   2.040  0.4826 -0.8383 -0.2526
 4433TIP3    H113256   2.944   7.314   2.020  1.1571 -0.1707 -0.4507
 4433TIP3    H213257   2.847   7.360   2.127  2.0517 -0.4443  0.4862
 4434TIP3   OH213258   2.114   6.223   4.974  0.1400 -0.8799  0.4638
 4434TIP3    H113259   2.161   6.160   5.029  0.7861 -0.3122  0.5569
 4434TIP3    H213260   2.032   6.177   4.951 -0.7511 -0.6320  2.9664
 4435TIP3   OH213261   1.458   5.037   3.939 -0.2432  0.5530 -0.6618
 4435TIP3    H113262   1.421   4.957   3.904 -1.8439  1.3584 -0.8537
 4435TIP3    H213263   1.388   5.076   3.991  1.0983  0.9150  0.9283
 4436TIP3   OH213264   2.160   6.972   4.017 -0.3412  0.1314 -0.1841
 4436TIP3    H113265   2.088   7.032   3.997  1.4885  2.3476 -0.3380
 4436TIP3    H213266   2.206   7.014   4.090  0.3692 -1.6235  0.4022
 4437TIP3   OH213267   1.035   4.583   4.693  0.3048 -0.5106  0.1617
 4437TIP3    H113268   1.090   4.585   4.614  0.1079 -0.3783  0.0286
 4437TIP3    H213269   0.959   4.530   4.669  0.6239 -1.1349  0.5108
 4438TIP3   OH213270   0.385   6.290   0.534 -0.4231  0.0481  0.0013
 4438TIP3    H113271   0.413   6.223   0.471 -2.1444 -0.2283 -0.4958
 4438TIP3    H213272   0.290   6.279   0.540 -0.0941 -1.6976  4.6109
 4439TIP3   OH213273   1.030   5.037   2.322  0.0656  0.6737 -0.0638
 4439TIP3    H113274   1.009   5.035   2.415  0.5811  1.6568  0.0722
 4439TIP3    H213275   1.086   5.113   2.311  1.0244 -0.1508 -0.9707
 4440TIP3   OH213276   0.411   5.706   1.639  0.4657 -0.4249 -0.1833
 4440TIP3    H113277   0.399   5.616   1.669 -0.1388 -0.5835 -0.8857
 4440TIP3    H213278   0.367   5.759   1.706 -1.1168 -0.7907 -0.9081
 4441TIP3   OH213279   7.208   6.500   3.919  0.3892 -0.2144 -0.1761
 4441TIP3    H113280   7.231   6.579   3.870 -0.2232 -0.2770 -0.5749
 4441TIP3    H213281   7.213   6.429   3.854 -0.9630 -0.2197 -0.2914
 4442TIP3   OH213282   1.536   7.160   5.148  0.3897  0.1742 -0.1065
 4442TIP3    H113283   1.580   7.161   5.063  1.7185  0.5335  0.5659
 4442TIP3    H213284   1.527   7.067   5.169 -2.1927 -0.0118 -1.7386
 4443TIP3   OH213285   0.915   7.164   1.649  0.4184 -0.3195 -0.3612
 4443TIP3    H113286   1.010   7.173   1.654  0.5229 -0.6874 -1.6807
 4443TIP3    H213287   0.900   7.108   1.574 -0.7930 -1.3417  0.6217
 4444TIP3   OH213288   3.089   5.293   4.713 -0.1188 -0.8811 -0.1853
 4444TIP3    H113289   3.139   5.250   4.782 -0.0985  0.7553  0.8569
 4444TIP3    H213290   3.032   5.225   4.679  0.2973 -1.8724  1.0427
 4445TIP3   OH213291   1.588   3.905   4.441 -0.4873  0.3333 -0.1528
 4445TIP3    H113292   1.587   3.833   4.504 -1.6393 -0.2606 -0.8426
 4445TIP3    H213293   1.681   3.919   4.422 -0.2443 -0.8217  0.1378
 4446TIP3   OH213294   1.260   5.737   1.841 -0.3291 -0.1326  0.4128
 4446TIP3    H113295   1.337   5.688   1.811 -1.4845 -2.6719  1.4588
 4446TIP3    H213296   1.229   5.784   1.764  0.9248 -0.8866 -0.5629
 4447TIP3   OH213297   4.211   0.567   2.551 -0.2842 -0.7869 -0.3027
 4447TIP3    H113298   4.122   0.538   2.571 -1.3722  2.9627  0.8601
 4447TIP3    H213299   4.262   0.545   2.628 -0.7471 -1.0081 -0.0555
 4448TIP3   OH213300   2.575   5.692   3.559 -0.2072  0.5556 -0.3029
 4448TIP3    H113301   2.599   5.685   3.651  1.4545 -1.7556 -0.8840
 4448TIP3    H213302   2.488   5.731   3.560 -0.2908  0.3665  2.2454
 4449TIP3   OH213303   1.396   5.562   1.685 -0.1470 -0.0953  0.2134
 4449TIP3    H113304   1.449   5.601   1.616 -0.9904 -0.6182 -0.7441
 4449TIP3    H213305   1.440   5.480   1.706 -0.4457 -0.4251 -0.4294
 4450TIP3   OH213306   1.275   5.370   0.652  0.0452  0.2450 -0.2350
 4450TIP3    H113307   1.337   5.297   0.656  1.0847  1.1621  0.8536
 4450TIP3    H213308   1.320   5.436   0.599  0.3579  1.2356  1.2435
 4451TIP3   OH213309   2.856   6.272   0.135 -0.0017 -0.2692 -0.1985
 4451TIP3    H113310   2.896   6.188   0.157 -0.6278 -0.3750  0.5824
 4451TIP3    H213311   2.771   6.248   0.097 -1.1340  0.0414  2.0374
 4452TIP3   OH213312   1.721   6.197   1.651  0.0783  0.9782 -0.2880
 4452TIP3    H113313   1.652   6.240   1.601 -0.4609  1.1686  0.6083
 4452TIP3    H213314   1.787   6.265   1.664 -0.4418  1.3470  0.4962
 4453TIP3   OH213315   8.230   5.412   5.684  0.1653  0.7127 -0.2375
 4453TIP3    H113316   8.186   5.488   5.721  1.6472  1.8425 -0.7927
 4453TIP3    H213317   8.302   5.447   5.633  0.9982 -1.0754 -0.3418
 4454TIP3   OH213318   4.551   0.123   3.002 -0.1139  0.8901 -0.6409
 4454TIP3    H113319   4.461   0.147   2.979  0.1138  1.1845 -1.2628
 4454TIP3    H213320   4.605   0.190   2.959  0.4586  0.0818 -1.2187
 4455TIP3   OH213321   1.080   4.242   2.878 -0.4014 -0.2986 -0.3938
 4455TIP3    H113322   0.990   4.219   2.899  0.1481 -0.8147  1.5118
 4455TIP3    H213323   1.127   4.159   2.880  0.0905 -0.0635 -1.6153
 4456TIP3   OH213324   3.481   4.737   3.197  0.3318  0.4041  0.6692
 4456TIP3    H113325   3.493   4.732   3.292  0.6235 -0.2711  0.6051
 4456TIP3    H213326   3.516   4.823   3.173  0.2602  0.5775  1.1737
 4457TIP3   OH213327   2.667   4.865   3.823  0.1274  0.1840 -0.2264
 4457TIP3    H113328   2.616   4.799   3.871  0.0908  2.0692  2.4109
 4457TIP3    H213329   2.647   4.848   3.731 -0.1116 -3.2922  0.3964
 4458TIP3   OH213330   3.228   4.802   3.046  0.3522 -0.3127 -0.3229
 4458TIP3    H113331   3.321   4.807   3.068  0.1526 -0.1823  0.4873
 4458TIP3    H213332   3.198   4.720   3.083 -0.5284  1.0257  1.9915
 4459TIP3   OH213333   2.095   6.459   3.823 -0.2575  0.3761  0.0254
 4459TIP3    H113334   2.091   6.551   3.849 -0.1195  0.3588  0.1098
 4459TIP3    H213335   2.015   6.420   3.859 -0.7908  0.6703 -0.8244
 4460TIP3   OH213336   2.793   6.605   3.750 -0.6321  1.1683  0.0781
 4460TIP3    H113337   2.754   6.518   3.760  2.1902 -0.1778 -0.1949
 4460TIP3    H213338   2.825   6.627   3.838 -1.6295  2.0828  0.2172
 4461TIP3   OH213339   1.408   5.830   3.336 -0.2585 -0.8754 -0.1033
 4461TIP3    H113340   1.428   5.856   3.426  0.6119  2.5830 -1.2031
 4461TIP3    H213341   1.336   5.888   3.311  1.2869  0.0747 -2.4874
 4462TIP3   OH213342   7.445   3.939   4.395  0.3871 -0.3467  0.6462
 4462TIP3    H113343   7.431   3.850   4.428 -1.5108 -0.0985  0.6001
 4462TIP3    H213344   7.448   3.993   4.474  0.0419 -0.2654  0.6028
 4463TIP3   OH213345   2.884   3.837   3.712 -0.0674 -0.4556 -0.2557
 4463TIP3    H113346   2.859   3.753   3.674  1.1621 -0.0912 -1.9428
 4463TIP3    H213347   2.962   3.818   3.764  1.5696  0.0118 -2.4855
 4464TIP3   OH213348   2.814   2.994   3.020  0.8813 -0.0146  0.1356
 4464TIP3    H113349   2.750   2.935   2.980  1.4392 -0.6844  0.2295
 4464TIP3    H213350   2.845   2.947   3.097  0.5873  0.8310  0.7820
 4465TIP3   OH213351   2.320   7.297   2.727  0.1004 -0.7378  0.1392
 4465TIP3    H113352   2.306   7.378   2.777 -0.8211 -1.8475  1.7307
 4465TIP3    H213353   2.237   7.250   2.735 -0.6634 -0.2594 -3.8343
 4466TIP3   OH213354   1.090   5.986   2.189 -0.6511 -0.0246  0.1534
 4466TIP3    H113355   1.024   5.921   2.212  0.9463 -1.2271  1.5191
 4466TIP3    H213356   1.145   5.994   2.268  1.9049 -0.4321 -1.5157
 4467TIP3   OH213357   1.832   5.958   2.510 -0.1410 -0.1502  0.1947
 4467TIP3    H113358   1.798   6.033   2.557 -0.3965  0.2576 -0.6364
 4467TIP3    H213359   1.754   5.907   2.486 -0.2103  0.8163 -1.7606
 4468TIP3   OH213360   3.596   4.000   2.705  0.2658  0.2146  0.2274
 4468TIP3    H113361   3.642   4.041   2.632  1.3027  0.1029  0.8099
 4468TIP3    H213362   3.534   4.066   2.735  0.9135  0.8256  0.2326
 4469TIP3   OH213363   7.824   4.925   2.732  0.6266 -0.7590  0.0757
 4469TIP3    H113364   7.827   4.847   2.677 -0.1229 -0.4140 -0.4541
 4469TIP3    H213365   7.828   4.998   2.671  1.6228 -0.3684  0.5886
 4470TIP3   OH213366   1.549   4.541   2.980 -0.4546 -0.4131  0.2344
 4470TIP3    H113367   1.516   4.491   2.905 -0.1578 -0.9455  0.4474
 4470TIP3    H213368   1.482   4.607   2.997 -0.1898  0.1663 -0.9415
 4471TIP3   OH213369   0.322   4.244   3.551 -0.1091  0.5024 -0.0246
 4471TIP3    H113370   0.314   4.296   3.471 -0.3579 -1.0858 -1.0530
 4471TIP3    H213371   0.297   4.156   3.524  1.1292 -0.3211  1.4924
 4472TIP3   OH213372   1.718   6.355   3.675 -0.5973  1.0175 -0.0830
 4472TIP3    H113373   1.645   6.300   3.648  0.0454 -0.1831  0.5629
 4472TIP3    H213374   1.743   6.402   3.596 -0.8831  0.0398 -0.7720
 4473TIP3   OH213375   0.608   4.674   3.832 -0.4168  0.7618 -0.6148
 4473TIP3    H113376   0.542   4.712   3.891  0.9105  2.2678 -0.0796
 4473TIP3    H213377   0.557   4.636   3.761 -1.9259  1.0648  0.2810
 4474TIP3   OH213378   0.998   6.289   3.679 -0.4316  0.5238  0.1120
 4474TIP3    H113379   0.940   6.266   3.751  1.3521 -2.1288  0.7534
 4474TIP3    H213380   1.034   6.374   3.704 -1.2720  0.5115  1.4068
 4475TIP3   OH213381   0.664   7.876   3.599 -0.0582  0.4170  0.2598
 4475TIP3    H113382   0.736   7.841   3.548  0.1481  1.4009 -0.1458
 4475TIP3    H213383   0.705   7.921   3.673 -0.2419  1.1389 -0.0722
 4476TIP3   OH213384   4.205   0.140   3.693  0.8180  0.1901 -0.0596
 4476TIP3    H113385   4.238   0.228   3.711  1.8119 -0.0221 -0.8452
 4476TIP3    H213386   4.232   0.121   3.603 -0.0836 -0.6054 -0.1763
 4477TIP3   OH213387   1.552   6.066   3.294  0.0738  0.1097 -0.2478
 4477TIP3    H113388   1.493   5.992   3.303 -0.2945  0.4688  0.3034
 4477TIP3    H213389   1.527   6.107   3.210 -0.2514  0.0806 -0.1653
 4478TIP3   OH213390   2.349   5.845   3.324  0.0947  0.4153 -0.2447
 4478TIP3    H113391   2.401   5.914   3.282  1.1240  0.6220  1.3304
 4478TIP3    H213392   2.333   5.781   3.255  2.2896  0.4487 -0.8059
 4479TIP3   OH213393   2.193   6.845   3.040 -0.4877 -0.1510 -0.2411
 4479TIP3    H113394   2.112   6.890   3.064 -1.7467 -2.0075 -0.8387
 4479TIP3    H213395   2.196   6.769   3.099 -0.1156 -1.0732 -1.4405
 4480TIP3   OH213396   1.302   6.614   2.891 -0.2595  0.3916  0.1322
 4480TIP3    H113397   1.243   6.630   2.964  1.3830 -0.4016  1.6860
 4480TIP3    H213398   1.389   6.634   2.926  0.7142 -1.4848 -1.1121
 4481TIP3   OH213399   1.815   6.700   3.516 -0.8189 -0.1597  0.1702
 4481TIP3    H113400   1.850   6.780   3.475 -2.0516  1.1512  1.6441
 4481TIP3    H213401   1.792   6.644   3.442  1.2713  0.3021 -0.8690
 4482TIP3   OH213402   1.739   4.984   1.307  0.2152 -0.0088  0.1392
 4482TIP3    H113403   1.799   5.048   1.269  0.8646 -0.7273 -0.0631
 4482TIP3    H213404   1.675   4.966   1.238 -0.3115  0.8568  0.4007
 4483TIP3   OH213405   3.707   4.938   3.378 -0.2279  0.1592 -0.1992
 4483TIP3    H113406   3.774   4.873   3.359  0.0398  0.2596  0.3895
 4483TIP3    H213407   3.630   4.887   3.403  0.7363  0.0710  2.8055
 4484TIP3   OH213408   1.681   3.599   5.207  0.2459 -0.1813 -0.0845
 4484TIP3    H113409   1.739   3.649   5.148  1.8924 -0.2716  1.4402
 4484TIP3    H213410   1.674   3.513   5.165  1.1346 -0.1427 -0.3344
 4485TIP3   OH213411   1.680   5.782   4.286 -0.4601 -0.4856  0.3132
 4485TIP3    H113412   1.636   5.747   4.363  0.1337  0.3967  1.0705
 4485TIP3    H213413   1.747   5.717   4.265 -0.0433 -0.3146  1.0865
 4486TIP3   OH213414   0.358   5.656   2.344 -0.1732  0.5319 -0.1122
 4486TIP3    H113415   0.398   5.644   2.430  0.6187  0.7507 -0.4512
 4486TIP3    H213416   0.283   5.713   2.361 -0.4510 -0.0172  0.5504
 4487TIP3   OH213417   2.027   4.833   2.936  0.1411  0.2275  0.5726
 4487TIP3    H113418   1.958   4.770   2.957  0.1163 -1.0443 -3.0078
 4487TIP3    H213419   1.980   4.908   2.899  0.6089 -0.1910 -0.8606
 4488TIP3   OH213420   2.084   3.156   3.500 -0.1002 -0.1009  0.0794
 4488TIP3    H113421   2.036   3.081   3.467 -0.3036 -0.4524  1.1504
 4488TIP3    H213422   2.168   3.120   3.528 -0.8148 -0.2473  2.1334
 4489TIP3   OH213423   2.886   2.740   1.821 -0.6266 -0.1057 -0.0216
 4489TIP3    H113424   2.879   2.812   1.758  0.5486  2.6222  2.7996
 4489TIP3    H213425   2.961   2.689   1.792  1.0653  2.2075  0.1836
 4490TIP3   OH213426   0.397   7.685   0.981  0.3347 -0.4013 -0.3508
 4490TIP3    H113427   0.310   7.645   0.983  0.1909 -0.1417 -1.2576
 4490TIP3    H213428   0.440   7.653   1.061 -0.0492 -1.7464 -0.6692
 4491TIP3   OH213429   1.174   5.079   3.621 -0.1859  0.4751 -0.4351
 4491TIP3    H113430   1.213   5.135   3.554  0.9215  0.1875 -0.0360
 4491TIP3    H213431   1.247   5.051   3.676 -1.0242  0.3717  0.6598
 4492TIP3   OH213432   2.595   3.919   3.706  0.6045 -0.2955  0.2086
 4492TIP3    H113433   2.673   3.863   3.701  0.3593 -0.5512 -1.0291
 4492TIP3    H213434   2.577   3.926   3.800  2.1695 -0.1470  0.5209
 4493TIP3   OH213435   1.062   4.670   1.380 -0.4293  0.1222  0.6754
 4493TIP3    H113436   1.041   4.670   1.473  1.2804  0.5461  1.0818
 4493TIP3    H213437   1.130   4.602   1.371 -1.6056 -0.9301 -0.5140
 4494TIP3   OH213438   2.798   4.788   2.190 -0.7192 -0.1192  0.5229
 4494TIP3    H113439   2.761   4.836   2.116 -0.7226 -0.0134  0.5938
 4494TIP3    H213440   2.877   4.838   2.214  0.6388 -1.4686 -0.9498
 4495TIP3   OH213441   6.432   6.825   4.097 -0.3951  0.0974 -0.6326
 4495TIP3    H113442   6.523   6.798   4.084 -0.1011 -0.5972  2.3279
 4495TIP3    H213443   6.439   6.911   4.140 -1.0496 -0.6296  0.9946
 4496TIP3   OH213444   3.122   6.169   2.787 -0.2430  0.2738 -0.9123
 4496TIP3    H113445   3.178   6.224   2.843 -0.3801  0.5887 -1.0881
 4496TIP3    H213446   3.184   6.121   2.733  0.0010 -1.6630  1.0101
 4497TIP3   OH213447   1.848   6.195   3.334  0.3212  0.1166 -0.3600
 4497TIP3    H113448   1.827   6.119   3.389  0.6422  0.1257 -0.2258
 4497TIP3    H213449   1.922   6.166   3.281 -0.4991 -0.1659 -1.3677
 4498TIP3   OH213450   1.837   5.957   3.506 -0.5843  1.3553 -0.0242
 4498TIP3    H113451   1.869   5.982   3.592  0.5041 -0.6122  0.1797
 4498TIP3    H213452   1.877   5.872   3.489 -1.5348  1.2718 -2.0680
 4499TIP3   OH213453   0.294   4.864   4.695 -0.1989  0.6410 -0.3739
 4499TIP3    H113454   0.341   4.924   4.637 -0.5683  2.1173  0.8146
 4499TIP3    H213455   0.219   4.915   4.727 -1.2692 -0.8948 -0.3753
 4500TIP3   OH213456   2.703   6.010   2.450  0.9257 -0.3578 -0.8105
 4500TIP3    H113457   2.699   5.976   2.361  1.1666 -0.8754 -0.6273
 4500TIP3    H213458   2.778   6.070   2.450  1.5756 -1.1598 -0.6878
 4501TIP3   OH213459   1.205   6.822   3.799  0.2023  0.0043  0.1656
 4501TIP3    H113460   1.291   6.837   3.839 -0.6342 -0.1238  2.1069
 4501TIP3    H213461   1.194   6.727   3.804  0.0792 -0.0076 -0.3656
 4502TIP3   OH213462   2.068   7.947   3.058 -0.5181 -0.1278  0.0855
 4502TIP3    H113463   2.035   7.961   3.146  0.4522  0.5861  0.3393
 4502TIP3    H213464   2.079   7.852   3.051  0.2979 -0.1082  1.0593
 4503TIP3   OH213465   4.270   4.347   0.224 -0.4513 -0.2229 -0.0642
 4503TIP3    H113466   4.341   4.351   0.160 -0.3767  1.6348  0.1280
 4503TIP3    H213467   4.288   4.418   0.285 -0.5148 -1.9845  2.0612
 4504TIP3   OH213468   8.230   5.665   2.097  0.8281  0.0139 -0.4492
 4504TIP3    H113469   8.249   5.579   2.135  0.1051  0.1224  0.1544
 4504TIP3    H213470   8.141   5.658   2.063  1.4855 -0.1101 -2.2426
 4505TIP3   OH213471   4.131   6.459   0.808 -0.4898  0.4000 -0.2786
 4505TIP3    H113472   4.168   6.382   0.765  0.3706  1.6937 -1.8773
 4505TIP3    H213473   4.147   6.443   0.901  0.4529 -0.9448 -0.6458
 4506TIP3   OH213474   1.379   4.819   1.962 -0.0266  0.5001 -0.2587
 4506TIP3    H113475   1.338   4.901   1.935 -1.1542  0.0451  0.0347
 4506TIP3    H213476   1.375   4.763   1.884 -1.3312 -0.0602  0.1927
 4507TIP3   OH213477   7.303   2.662   6.376 -1.0884  0.1407 -0.6150
 4507TIP3    H113478   7.210   2.659   6.396 -0.7796 -0.5340  0.8004
 4507TIP3    H213479   7.343   2.698   6.455  0.0251 -1.2867 -0.4954
 4508TIP3   OH213480   3.490   5.251   1.805  0.6245 -0.0423 -0.1307
 4508TIP3    H113481   3.551   5.205   1.863 -1.1751 -0.3737  1.5479
 4508TIP3    H213482   3.544   5.281   1.732  2.7268 -0.6508  1.1366
 4509TIP3   OH213483   3.480   6.853   3.944  0.0190 -0.6456 -0.1389
 4509TIP3    H113484   3.516   6.830   3.859  1.5488 -2.1677  0.9029
 4509TIP3    H213485   3.530   6.930   3.971 -0.7398  0.0815 -0.7758
 4510TIP3   OH213486   2.785   5.600   2.820 -0.3061  0.0817 -0.0683
 4510TIP3    H113487   2.709   5.582   2.876  0.9719 -1.1709  1.3113
 4510TIP3    H213488   2.751   5.658   2.752 -2.3488  0.0794  0.8979
 4511TIP3   OH213489   2.710   3.319   1.297 -0.5159  0.2021  0.5284
 4511TIP3    H113490   2.771   3.392   1.283 -0.2272 -0.3584 -1.2832
 4511TIP3    H213491   2.689   3.323   1.390  0.0523  2.1625  0.5988
 4512TIP3   OH213492   5.725   4.890   1.275 -0.3105 -0.3627  0.2860
 4512TIP3    H113493   5.755   4.867   1.363 -0.3024 -0.1455  0.3401
 4512TIP3    H213494   5.654   4.952   1.289 -0.0661 -0.0436  0.1349
 4513TIP3   OH213495   1.200   5.939   3.001  0.2932  0.0617 -0.2807
 4513TIP3    H113496   1.107   5.915   2.998  0.4745 -0.5886 -0.8971
 4513TIP3    H213497   1.210   5.982   3.085 -1.3692  3.5397 -1.7374
 4514TIP3   OH213498   3.032   5.499   2.572  0.3335 -0.1260 -0.7000
 4514TIP3    H113499   3.108   5.460   2.528  0.9252  0.4047 -0.1600
 4514TIP3    H213500   3.050   5.487   2.665 -0.7323 -0.8970 -0.5834
 4515TIP3   OH213501   3.814   4.939   2.743  0.4171  0.1696  0.2903
 4515TIP3    H113502   3.795   4.968   2.832 -4.0964  0.2638 -0.5559
 4515TIP3    H213503   3.814   5.019   2.691 -0.3324 -0.1833 -0.2685
 4516TIP3   OH213504   3.589   6.368   4.720 -0.3863 -0.5490  1.1883
 4516TIP3    H113505   3.665   6.311   4.721 -0.8681 -1.2115  0.4687
 4516TIP3    H213506   3.616   6.444   4.668 -0.3835 -1.0090  0.5191
 4517TIP3   OH213507   3.798   5.595   0.009 -0.4876  0.0727  0.3112
 4517TIP3    H113508   3.842   5.672   0.047 -1.7125  0.2535  1.4180
 4517TIP3    H213509   3.838   5.520   0.054 -1.0027  0.2158  1.0279
 4518TIP3   OH213510   3.148   6.668   2.496  0.0994 -0.0433 -0.5794
 4518TIP3    H113511   3.181   6.633   2.578 -2.5831 -0.5663  0.3384
 4518TIP3    H213512   3.178   6.758   2.493 -1.4808  0.5991  1.9890
 4519TIP3   OH213513   3.084   5.311   1.394 -0.3224  0.3861  0.5759
 4519TIP3    H113514   3.024   5.255   1.443 -0.0522  0.7434  1.3147
 4519TIP3    H213515   3.132   5.360   1.461  0.8683  0.0329  0.0005
 4520TIP3   OH213516   1.371   7.337   3.781  0.4314  0.5513  0.2008
 4520TIP3    H113517   1.377   7.256   3.832  2.0130  0.9738  0.7210
 4520TIP3    H213518   1.282   7.368   3.796 -0.2594 -1.1959 -0.1741
 4521TIP3   OH213519   4.258   7.160   2.719  0.0967 -0.3344 -0.0741
 4521TIP3    H113520   4.280   7.233   2.777 -0.5049 -1.7453  2.0011
 4521TIP3    H213521   4.291   7.083   2.765 -2.5152 -1.7368 -0.4481
 4522TIP3   OH213522   7.675   4.777   2.147  0.4183  0.4651 -0.2081
 4522TIP3    H113523   7.761   4.739   2.163 -0.6465 -1.3983  1.3342
 4522TIP3    H213524   7.658   4.831   2.224 -0.5858 -0.7360  0.4409
 4523TIP3   OH213525   4.052   6.666   0.612 -0.4559 -0.2046  0.2352
 4523TIP3    H113526   4.107   6.588   0.621  0.8724  0.5863 -0.8781
 4523TIP3    H213527   3.984   6.654   0.678 -0.7151 -2.6668 -0.4083
 4524TIP3   OH213528   2.221   6.050   4.200 -0.1754  0.1888  0.2834
 4524TIP3    H113529   2.229   6.110   4.126 -0.2202 -0.8109 -0.5468
 4524TIP3    H213530   2.291   5.986   4.187 -0.2909 -0.0951  1.0202
 4525TIP3   OH213531   1.743   5.171   3.701 -0.2211  0.0102 -0.1030
 4525TIP3    H113532   1.694   5.168   3.619 -0.8906  1.0154  0.2556
 4525TIP3    H213533   1.723   5.088   3.744 -0.7621 -0.0352 -0.4433
 4526TIP3   OH213534   2.556   7.008   2.584  0.0123  0.2377  0.2628
 4526TIP3    H113535   2.572   7.102   2.594  1.8687  0.0520 -0.6499
 4526TIP3    H213536   2.642   6.968   2.596 -1.2459 -1.6866  4.0092
 4527TIP3   OH213537   0.118   0.995   6.694 -0.2781 -0.6159  0.3028
 4527TIP3    H113538   0.144   0.905   6.715 -0.8102 -1.0695 -0.9659
 4527TIP3    H213539   0.181   1.023   6.628 -0.8903 -0.4986 -0.2328
 4528TIP3   OH213540   3.811   6.679   2.832  0.8104  0.2584 -0.0154
 4528TIP3    H113541   3.871   6.716   2.895  2.7123  0.5113 -1.9178
 4528TIP3    H213542   3.765   6.754   2.794  0.0855  0.1522  0.6407
 4529TIP3   OH213543   3.072   4.947   2.222  0.0704  0.4397  0.4124
 4529TIP3    H113544   3.093   4.958   2.129 -1.5974 -2.2286 -0.3315
 4529TIP3    H213545   3.153   4.917   2.262 -0.1373 -2.0125 -0.9172
 4530TIP3   OH213546   4.553   4.480   1.884  0.0796  0.0789 -0.6687
 4530TIP3    H113547   4.625   4.416   1.888 -0.3960 -0.5152 -1.5778
 4530TIP3    H213548   4.589   4.558   1.925  0.7955 -0.6537  0.1257
 4531TIP3   OH213549   4.141   4.694   2.828 -0.1251 -0.2808 -0.0170
 4531TIP3    H113550   4.148   4.622   2.765  1.7274  0.0180 -0.1747
 4531TIP3    H213551   4.146   4.773   2.774 -1.0925 -0.0172  0.2643
 4532TIP3   OH213552   0.543   6.700   3.248  0.8362  0.1106 -0.1884
 4532TIP3    H113553   0.572   6.701   3.340  0.3547  0.8456 -0.0411
 4532TIP3    H213554   0.580   6.780   3.211 -1.3671  1.2854  0.1156
 4533TIP3   OH213555   4.327   3.863   3.335  0.5435  0.2875 -0.4877
 4533TIP3    H113556   4.274   3.832   3.262  0.7494 -1.0748 -0.0725
 4533TIP3    H213557   4.303   3.955   3.346 -0.1690  0.2393 -1.6652
 4534TIP3   OH213558   2.817   7.535   3.118  0.5574  0.1889 -0.2337
 4534TIP3    H113559   2.732   7.532   3.075  1.1890  2.5612 -1.7613
 4534TIP3    H213560   2.868   7.467   3.075 -1.0293 -2.3788  1.8329
 4535TIP3   OH213561   3.989   5.849   3.135 -0.3712 -0.2696  0.0258
 4535TIP3    H113562   4.027   5.933   3.161  0.3322 -0.7272  0.5063
 4535TIP3    H213563   3.994   5.850   3.039  1.1104 -0.4241  0.0857
 4536TIP3   OH213564   3.734   3.952   1.723 -0.4770 -0.0560  0.2623
 4536TIP3    H113565   3.710   4.043   1.705 -3.2076 -1.0818 -1.5951
 4536TIP3    H213566   3.726   3.908   1.638  0.6894 -2.0659  1.1570
 4537TIP3   OH213567   5.034   0.249   3.592  0.6125  0.5255  0.0756
 4537TIP3    H113568   5.039   0.160   3.628  2.1629  0.1759 -0.9414
 4537TIP3    H213569   4.988   0.239   3.509 -0.6455  0.9254  0.7255
 4538TIP3   OH213570   2.848   7.934   2.911  0.2468  0.1107  0.0758
 4538TIP3    H113571   2.928   7.980   2.938  0.7483 -0.6462 -0.1087
 4538TIP3    H213572   2.830   7.967   2.823  0.2629  0.4001  0.1777
 4539TIP3   OH213573   3.639   3.750   1.910  0.2270  0.1129  0.2210
 4539TIP3    H113574   3.552   3.711   1.908  0.8714 -1.3168 -1.4491
 4539TIP3    H213575   3.639   3.812   1.836 -0.0468  1.6969  1.5049
 4540TIP3   OH213576   2.143   5.709   2.083  0.2073 -0.8677  0.2815
 4540TIP3    H113577   2.089   5.746   2.152  1.4422  0.0932  0.7379
 4540TIP3    H213578   2.228   5.752   2.092  0.6581 -1.3801 -1.2623
 4541TIP3   OH213579   8.154   3.049   6.538  0.0847  0.1739  0.4263
 4541TIP3    H113580   8.072   3.013   6.503 -0.6104  0.3766  1.7897
 4541TIP3    H213581   8.206   3.070   6.461 -0.8851 -0.5877 -0.4501
 4542TIP3   OH213582   6.394   0.817   4.304 -0.3754  0.2337  0.2048
 4542TIP3    H113583   6.357   0.855   4.224  0.1578 -0.1519 -0.2237
 4542TIP3    H213584   6.354   0.730   4.310  1.8060 -0.9075 -1.2332
 4543TIP3   OH213585   3.886   3.153   2.109 -0.1472  0.4357 -0.1219
 4543TIP3    H113586   3.875   3.075   2.163  0.4890  1.0891  0.9761
 4543TIP3    H213587   3.846   3.131   2.025 -1.4542 -0.4797  0.7324
 4544TIP3   OH213588   3.033   5.302   2.044  0.0971  0.0352  0.4995
 4544TIP3    H113589   2.946   5.266   2.062  0.1952 -0.0557  0.7931
 4544TIP3    H213590   3.060   5.258   1.963  0.6996 -1.4368  1.4700
 4545TIP3   OH213591   3.245   4.292   2.940  0.2094  0.4080  0.2048
 4545TIP3    H113592   3.237   4.387   2.930  1.9942  0.8483  2.5528
 4545TIP3    H213593   3.310   4.267   2.874 -1.1834  0.6010 -1.2704
 4546TIP3   OH213594   4.417   0.092   2.228 -0.2814  0.7487 -0.4757
 4546TIP3    H113595   4.508   0.086   2.200 -0.7071  1.3585 -2.0323
 4546TIP3    H213596   4.403   0.186   2.244 -1.2022  0.9348 -2.2536
 4547TIP3   OH213597   1.516   7.148   1.784 -0.1813 -0.2633  0.3894
 4547TIP3    H113598   1.492   7.175   1.696  0.4707  0.7818  0.5246
 4547TIP3    H213599   1.601   7.189   1.800  0.1905 -1.2818  1.1226
 4548TIP3   OH213600   3.619   6.708   3.755 -0.5107  0.1932  0.2466
 4548TIP3    H113601   3.631   6.619   3.787  3.9057  0.7265  0.3298
 4548TIP3    H213602   3.616   6.700   3.660  1.1417  0.0712  0.2025
 4549TIP3   OH213603   4.411   5.411   5.096  0.5819  0.0561 -0.3782
 4549TIP3    H113604   4.348   5.415   5.169  0.4897 -0.2447 -0.4370
 4549TIP3    H213605   4.497   5.416   5.138  0.5083  0.8289 -0.3293
 4550TIP3   OH213606   4.037   5.801   1.742  0.5100  0.6479 -0.3346
 4550TIP3    H113607   3.960   5.798   1.799 -1.5955  0.1842 -3.1004
 4550TIP3    H213608   4.098   5.860   1.787 -1.2476  0.6401  2.1501
 4551TIP3   OH213609   3.556   5.812   3.345 -0.4490 -0.2749  0.2382
 4551TIP3    H113610   3.587   5.782   3.431 -0.7031  1.5962  1.0103
 4551TIP3    H213611   3.555   5.734   3.291  1.6889 -1.1161  1.3737
 4552TIP3   OH213612   4.262   6.219   0.789  0.0696  0.2538 -0.5768
 4552TIP3    H113613   4.299   6.182   0.869 -0.4992 -0.3595 -0.5933
 4552TIP3    H213614   4.318   6.187   0.719 -0.5760 -0.8226 -0.6207
 4553TIP3   OH213615   1.171   3.173   5.735  0.4824 -0.1689 -0.2998
 4553TIP3    H113616   1.141   3.198   5.648 -0.3792 -1.0851 -0.2714
 4553TIP3    H213617   1.173   3.254   5.785  0.2835  0.2444 -0.9634
 4554TIP3   OH213618   3.747   6.166   3.528  0.5417  0.5387 -0.3539
 4554TIP3    H113619   3.755   6.201   3.617  1.5673  0.7919 -0.5441
 4554TIP3    H213620   3.681   6.097   3.536  0.6347  0.5486  0.6114
 4555TIP3   OH213621   3.973   7.233   3.687 -0.5404  0.2336 -0.1109
 4555TIP3    H113622   4.007   7.185   3.763 -0.9892 -1.2629 -0.8265
 4555TIP3    H213623   3.878   7.224   3.694 -0.5481 -0.8923 -1.4479
 4556TIP3   OH213624   0.960   5.960   3.360 -0.4959 -0.6346  0.0681
 4556TIP3    H113625   0.953   5.924   3.448 -0.3833  0.6380  0.6125
 4556TIP3    H213626   0.928   6.050   3.369  2.8602  0.7003 -0.4032
 4557TIP3   OH213627   5.161   5.711   3.739 -0.3451  0.1093  0.3662
 4557TIP3    H113628   5.086   5.665   3.777  0.3587 -0.5079  1.0457
 4557TIP3    H213629   5.128   5.750   3.658 -2.2500  2.5732  2.2480
 4558TIP3   OH213630   2.915   4.266   0.129 -0.6647  0.5287 -0.4229
 4558TIP3    H113631   2.979   4.227   0.189 -1.1346  0.1351 -0.1758
 4558TIP3    H213632   2.956   4.347   0.101 -0.8950  1.2800  1.3021
 4559TIP3   OH213633   1.173   4.912   1.580 -0.2954 -0.1489 -0.3444
 4559TIP3    H113634   1.154   4.843   1.644 -2.3987 -0.7381 -1.5431
 4559TIP3    H213635   1.202   4.865   1.502  1.0316  0.5002 -0.2526
 4560TIP3   OH213636   1.942   3.360   0.257  0.4983  0.2706  0.0244
 4560TIP3    H113637   1.973   3.432   0.312  1.9951 -1.3397  1.3190
 4560TIP3    H213638   1.944   3.283   0.313 -1.0044 -0.8415 -1.3715
 4561TIP3   OH213639   2.050   5.430   1.080 -0.4135 -0.0464 -0.5541
 4561TIP3    H113640   2.045   5.368   1.152  0.0550 -0.0354 -0.5153
 4561TIP3    H213641   2.013   5.511   1.115  0.4801  0.1641 -0.1105
 4562TIP3   OH213642   3.571   7.539   6.872  0.0640 -0.5177  0.4104
 4562TIP3    H113643   3.565   7.445   6.890 -1.1534 -0.2932  1.1996
 4562TIP3    H213644   3.534   7.549   6.784 -2.0684 -0.4740  1.2814
 4563TIP3   OH213645   1.244   3.148   2.601  0.0750  0.1905  0.0650
 4563TIP3    H113646   1.223   3.238   2.574  3.0297  0.6561 -0.8686
 4563TIP3    H213647   1.318   3.157   2.661 -0.4619 -1.5403  1.0284
 4564TIP3   OH213648   2.573   6.936   3.376  0.4980  0.5873  0.0502
 4564TIP3    H113649   2.615   7.012   3.415  1.8111 -0.1561  0.1181
 4564TIP3    H213650   2.618   6.860   3.414 -1.0002 -0.2474  0.2311
 4565TIP3   OH213651   2.509   4.204   3.014 -0.5770  0.0956  0.0482
 4565TIP3    H113652   2.447   4.248   2.956 -1.4003 -0.4546  0.4854
 4565TIP3    H213653   2.483   4.112   3.010 -0.0285 -0.0802  0.5434
 4566TIP3   OH213654   0.226   0.382   6.823  0.1771 -0.4149  0.1324
 4566TIP3    H113655   0.307   0.372   6.874 -1.3388 -0.2957  2.6450
 4566TIP3    H213656   0.180   0.454   6.866 -1.0473 -0.1410 -1.5967
 4567TIP3   OH213657   1.966   2.404   2.607  0.1878  0.2260 -0.0427
 4567TIP3    H113658   2.059   2.416   2.592  0.1999  1.3009  0.8391
 4567TIP3    H213659   1.934   2.490   2.634 -1.1829  0.0252 -0.9342
 4568TIP3   OH213660   1.811   2.522   2.203  0.4034 -0.2670  0.2067
 4568TIP3    H113661   1.872   2.583   2.244 -0.2520  0.2270  0.4500
 4568TIP3    H213662   1.733   2.575   2.183 -0.2892 -1.0846  0.7038
 4569TIP3   OH213663   3.183   3.869   2.242  0.0969  0.5655  0.2831
 4569TIP3    H113664   3.093   3.901   2.251 -0.4415 -0.7957 -0.0523
 4569TIP3    H213665   3.201   3.823   2.324 -0.2477 -0.8947 -0.4456
 4570TIP3   OH213666   4.226   6.754   3.354 -0.0839 -0.0912  0.1076
 4570TIP3    H113667   4.257   6.691   3.289 -4.3159 -3.0491  0.7408
 4570TIP3    H213668   4.267   6.726   3.436 -1.3788 -1.5828  0.2497
 4571TIP3   OH213669   2.239   4.657   2.280 -0.1195  0.1749  0.1106
 4571TIP3    H113670   2.229   4.742   2.237  1.0889  0.2230 -0.0876
 4571TIP3    H213671   2.279   4.678   2.365 -1.5330 -0.0213  0.8390
 4572TIP3   OH213672   8.425   2.255   1.607 -0.3495 -0.1056  0.2761
 4572TIP3    H113673   8.389   2.175   1.569  1.0930 -0.5201 -0.2397
 4572TIP3    H213674   8.516   2.257   1.577  0.0213  0.9998  1.4346
 4573TIP3   OH213675   0.668   6.602   1.705  0.1861 -0.4005 -0.4673
 4573TIP3    H113676   0.610   6.594   1.781  1.0404 -2.8116 -0.0222
 4573TIP3    H213677   0.610   6.621   1.632 -0.6435  2.1779  0.7927
 4574TIP3   OH213678   2.565   3.460   1.922  0.3870  0.3018 -0.1380
 4574TIP3    H113679   2.556   3.536   1.980  0.1262  0.3605 -0.2571
 4574TIP3    H213680   2.477   3.443   1.890  0.5405  0.3071 -0.5697
 4575TIP3   OH213681   2.194   3.884   2.114 -0.0884 -0.4452  0.1270
 4575TIP3    H113682   2.113   3.836   2.100  0.0237 -0.5804 -0.0472
 4575TIP3    H213683   2.216   3.868   2.206 -0.7686  0.3634  0.4424
 4576TIP3   OH213684   4.249   6.153   2.933  0.1285 -0.1097  0.7512
 4576TIP3    H113685   4.251   6.089   3.005  0.6025  0.6674  1.4348
 4576TIP3    H213686   4.185   6.118   2.872 -0.0007 -0.9774  1.3763
 4577TIP3   OH213687   3.679   5.768   4.264 -0.1764  0.2603 -0.1718
 4577TIP3    H113688   3.584   5.769   4.253 -0.1603 -1.0980 -0.5227
 4577TIP3    H213689   3.696   5.835   4.330 -1.4553 -0.0179  0.4515
 4578TIP3   OH213690   3.283   5.347   3.063  0.5659 -0.5409  0.0832
 4578TIP3    H113691   3.264   5.429   3.108  1.2533 -0.3015 -0.0422
 4578TIP3    H213692   3.265   5.279   3.127 -0.5002 -0.3168  0.0192
 4579TIP3   OH213693   2.839   4.336   2.238  0.4140 -0.2090 -0.4280
 4579TIP3    H113694   2.856   4.312   2.147 -1.7131 -0.4143 -0.7916
 4579TIP3    H213695   2.794   4.259   2.275  0.0748  0.3918  0.4270
 4580TIP3   OH213696   3.262   5.850   2.038  0.1922  0.3235  0.5790
 4580TIP3    H113697   3.279   5.782   1.973 -1.5475  0.2705  0.1578
 4580TIP3    H213698   3.206   5.808   2.102  2.1228  0.2939  2.3122
 4581TIP3   OH213699   2.792   7.236   1.630 -0.2667  0.0908 -0.2616
 4581TIP3    H113700   2.812   7.287   1.708  0.7485 -0.9735  0.1893
 4581TIP3    H213701   2.698   7.220   1.634 -0.2659  0.3136  0.5850
 4582TIP3   OH213702   2.382   4.658   1.468  0.1223 -0.5087 -0.2551
 4582TIP3    H113703   2.300   4.610   1.466  0.4763 -1.0881 -1.4780
 4582TIP3    H213704   2.423   4.640   1.383  1.4157 -0.0628  0.2526
 4583TIP3   OH213705   2.944   3.549   3.471  0.5843  0.3562  0.4913
 4583TIP3    H113706   2.869   3.608   3.464  0.8902  0.4608 -2.1889
 4583TIP3    H213707   2.907   3.461   3.466  0.5301  0.3807  0.4692
 4584TIP3   OH213708   2.854   6.278   3.443 -0.1779  0.5251  0.2898
 4584TIP3    H113709   2.853   6.369   3.414  1.8515  0.7380  0.8205
 4584TIP3    H213710   2.946   6.260   3.462 -0.2996 -2.2156 -1.5614
 4585TIP3   OH213711   1.113   4.617   2.198 -0.1268  0.2504  0.2558
 4585TIP3    H113712   1.066   4.665   2.129  0.7749  1.6456  0.5916
 4585TIP3    H213713   1.059   4.627   2.276 -0.3963 -0.0621  0.1116
 4586TIP3   OH213714   1.624   7.893   3.067  0.0013  0.2241  0.2644
 4586TIP3    H113715   1.679   7.969   3.048 -2.1871  2.0022  0.7741
 4586TIP3    H213716   1.620   7.889   3.162 -2.4986  1.4953  0.2628
 4587TIP3   OH213717   0.835   4.522   3.733 -0.0991  0.0047 -0.1703
 4587TIP3    H113718   0.840   4.530   3.638 -3.3679 -2.3368 -0.5992
 4587TIP3    H213719   0.765   4.582   3.759 -2.2454 -2.5448  0.1847
 4588TIP3   OH213720   2.270   6.503   2.981 -0.5490  0.1062  0.3168
 4588TIP3    H113721   2.309   6.589   2.995 -1.7417  0.3886  2.0471
 4588TIP3    H213722   2.325   6.462   2.914  0.9659  1.6032  0.6198
 4589TIP3   OH213723   2.954   7.300   3.536  0.1183  0.5101  0.9017
 4589TIP3    H113724   3.030   7.356   3.550  0.2927  0.7796 -0.9975
 4589TIP3    H213725   2.897   7.351   3.478 -0.6833 -0.4265  0.8530
 4590TIP3   OH213726   2.328   6.422   3.610 -0.3727  0.1146  0.3894
 4590TIP3    H113727   2.361   6.344   3.566 -1.8200 -0.0395 -0.4603
 4590TIP3    H213728   2.259   6.389   3.668  1.2831  0.3586  2.5476
 4591TIP3   OH213729   2.425   7.379   4.701  0.4923 -0.3572 -0.3835
 4591TIP3    H113730   2.400   7.448   4.763 -0.4100 -0.7866 -0.2609
 4591TIP3    H213731   2.392   7.299   4.740  2.3398 -0.9840 -0.0843
 4592TIP3   OH213732   3.081   4.624   4.690 -0.7128 -0.5011 -0.1159
 4592TIP3    H113733   3.115   4.650   4.776  0.7484  1.1928 -1.1629
 4592TIP3    H213734   3.015   4.558   4.709  0.5365 -1.1269  2.2414
 4593TIP3   OH213735   3.541   6.203   2.565 -0.4592  0.2145 -0.1075
 4593TIP3    H113736   3.590   6.285   2.574 -1.2661  0.5707  0.9731
 4593TIP3    H213737   3.569   6.150   2.639 -1.4823  0.2950  0.3361
 4594TIP3   OH213738   3.331   5.102   3.398  0.0226 -0.1740 -0.1660
 4594TIP3    H113739   3.305   5.045   3.470  0.2998 -0.5249 -0.3405
 4594TIP3    H213740   3.352   5.185   3.439  1.1037 -0.6561  0.2717
 4595TIP3   OH213741   3.166   6.064   1.465 -0.0626 -0.2001 -0.5711
 4595TIP3    H113742   3.167   5.989   1.405  1.5688 -0.0237 -0.7836
 4595TIP3    H213743   3.225   6.038   1.536 -0.5079  0.3639  0.0000
 4596TIP3   OH213744   0.576   5.933   1.731 -0.3972  0.1061 -0.4362
 4596TIP3    H113745   0.552   6.007   1.676 -0.6614 -0.8767 -1.6688
 4596TIP3    H213746   0.534   5.858   1.690 -0.9020 -0.5924  1.3343
 4597TIP3   OH213747   3.517   5.613   3.163 -0.1297 -0.1692  0.1787
 4597TIP3    H113748   3.599   5.569   3.137 -0.4091 -0.0556 -0.9398
 4597TIP3    H213749   3.472   5.629   3.080 -0.6076  1.1051  0.6800
 4598TIP3   OH213750   2.946   6.576   1.519  0.5204  0.3108 -0.4521
 4598TIP3    H113751   2.929   6.594   1.426 -1.3516 -0.6648 -0.3328
 4598TIP3    H213752   2.955   6.481   1.523  0.9092  0.3797  0.3084
 4599TIP3   OH213753   2.433   7.960   3.543  0.1002  0.0538 -0.3594
 4599TIP3    H113754   2.436   7.980   3.449 -3.0420  0.7996 -0.3768
 4599TIP3    H213755   2.340   7.942   3.560  0.7598 -0.8889  2.4536
 4600TIP3   OH213756   3.376   7.499   2.584 -0.0112  0.1326 -0.2703
 4600TIP3    H113757   3.406   7.452   2.506 -1.4467 -0.1390 -0.6746
 4600TIP3    H213758   3.300   7.549   2.554  0.7862  1.8335  0.4242
 4601TIP3   OH213759   2.044   4.252   2.472  0.0443 -0.1596 -0.0888
 4601TIP3    H113760   2.068   4.215   2.387  0.2657 -0.2005 -0.0101
 4601TIP3    H213761   1.987   4.326   2.451  0.2384 -0.0648 -0.2809
 4602TIP3   OH213762   5.861  -0.003   3.525 -0.4120 -0.0330 -0.5134
 4602TIP3    H113763   5.890   0.007   3.435  0.0073  0.3097 -0.3410
 4602TIP3    H213764   5.928   0.042   3.578 -0.1844 -1.0149  0.0361
 4603TIP3   OH213765   4.229   5.614   1.310  0.0843 -0.3922 -0.0311
 4603TIP3    H113766   4.316   5.586   1.340  0.2604 -1.4614 -1.5074
 4603TIP3    H213767   4.233   5.710   1.312  1.1393 -0.4379  0.3552
 4604TIP3   OH213768   4.134   4.933   3.519  0.4841 -0.0962 -1.0591
 4604TIP3    H113769   4.069   4.983   3.470  0.9273  1.5925  0.0229
 4604TIP3    H213770   4.157   4.990   3.593  2.8075 -0.8772 -1.1488
 4605TIP3   OH213771   1.223   7.058   2.676 -0.1516 -0.2132  0.1262
 4605TIP3    H113772   1.231   7.019   2.589 -1.1054 -0.3401  0.0867
 4605TIP3    H213773   1.223   7.152   2.661  1.0514 -0.2091  0.1189
 4606TIP3   OH213774   3.271   1.357   3.108 -0.1734  0.4042  0.3264
 4606TIP3    H113775   3.182   1.348   3.141  0.1238 -3.0238  0.4022
 4606TIP3    H213776   3.326   1.350   3.187  0.2491 -0.1812 -0.0146
 4607TIP3   OH213777   4.149   6.769   2.852  0.2447 -0.3274 -0.7849
 4607TIP3    H113778   4.202   6.816   2.917  0.2651  1.9562 -2.3851
 4607TIP3    H213779   4.067   6.750   2.898  0.6907  0.2551  0.2814
 4608TIP3   OH213780   3.796   7.790   1.709  0.1711  0.2576  0.4157
 4608TIP3    H113781   3.856   7.717   1.691  0.0516 -0.1783  1.7940
 4608TIP3    H213782   3.717   7.768   1.660  0.5919  0.1063 -0.2120
 4609TIP3   OH213783   2.085   5.104   3.237  0.3802  0.5490  0.0800
 4609TIP3    H113784   2.126   5.152   3.310 -2.5196  0.3240  1.9167
 4609TIP3    H213785   2.076   5.169   3.168  1.7762  1.1608  0.4467
 4610TIP3   OH213786   4.240   5.780   3.696 -0.1958  0.3433 -0.2227
 4610TIP3    H113787   4.147   5.798   3.678 -0.0532  0.3019 -1.0347
 4610TIP3    H213788   4.253   5.808   3.786 -1.1750 -0.3144  0.1297
 4611TIP3   OH213789   3.390   3.309   2.361  0.0944  0.0817 -0.1452
 4611TIP3    H113790   3.423   3.327   2.273 -1.3668  0.9438 -0.5344
 4611TIP3    H213791   3.424   3.222   2.383 -0.2782 -0.5224 -1.9202
 4612TIP3   OH213792   2.797   3.698   4.228 -0.0570  0.0629  0.2184
 4612TIP3    H113793   2.712   3.657   4.244 -0.9415  1.8239  0.1477
 4612TIP3    H213794   2.778   3.772   4.170  1.5538  0.3629  0.0418
 4613TIP3   OH213795   4.311   4.558   3.217  0.1040 -0.1197  0.1830
 4613TIP3    H113796   4.333   4.480   3.166  0.1955  0.7698 -1.1550
 4613TIP3    H213797   4.222   4.581   3.188 -0.2930 -0.2542  1.2567
 4614TIP3   OH213798   3.745   5.595   2.764  0.7926  0.2789  0.9813
 4614TIP3    H113799   3.655   5.615   2.740  1.0513  0.1032 -0.1412
 4614TIP3    H213800   3.740   5.510   2.807  0.6678 -0.5860 -0.7325
 4615TIP3   OH213801   2.962   3.892   1.650 -0.2343  0.6750 -0.3602
 4615TIP3    H113802   2.995   3.875   1.739 -0.7846  0.9551 -0.0971
 4615TIP3    H213803   3.040   3.912   1.599  0.0915  0.4865  0.0589
 4616TIP3   OH213804   0.873   0.101   6.818 -0.5675  0.3180  0.3856
 4616TIP3    H113805   0.781   0.089   6.841 -0.8663  3.7726  1.2678
 4616TIP3    H213806   0.917   0.115   6.902  0.8233 -1.3183 -0.0247
 4617TIP3   OH213807   1.778   5.863   1.351  0.0938 -0.5866 -0.1292
 4617TIP3    H113808   1.691   5.823   1.351  0.1044 -0.6115 -0.7402
 4617TIP3    H213809   1.776   5.925   1.278  0.1765  0.3082  0.6190
 4618TIP3   OH213810   4.469   5.676   3.371  0.2564  0.1253 -0.5893
 4618TIP3    H113811   4.393   5.647   3.320  0.5747  0.0108 -1.0043
 4618TIP3    H213812   4.502   5.596   3.412  0.1669  0.1707 -0.4314
 4619TIP3   OH213813   3.203   4.565   2.394 -0.5084  0.1087  0.1566
 4619TIP3    H113814   3.110   4.580   2.409 -0.3860 -0.0046  1.0850
 4619TIP3    H213815   3.206   4.482   2.347 -0.9051  0.3654 -0.3215
 4620TIP3   OH213816   3.436   6.052   2.916  0.4154  0.1510  0.7000
 4620TIP3    H113817   3.435   6.060   3.012  0.1218  0.8444  0.6450
 4620TIP3    H213818   3.417   6.141   2.885  0.7241 -0.0269 -0.0043
 4621TIP3   OH213819   2.711   4.588   1.368 -0.4182 -0.1416 -0.1451
 4621TIP3    H113820   2.674   4.501   1.351 -0.4571 -0.5548  1.8506
 4621TIP3    H213821   2.689   4.640   1.291 -2.8683 -1.1113 -0.1518
 4622TIP3   OH213822   2.453   5.921   1.665  0.0411 -0.8223  0.6310
 4622TIP3    H113823   2.534   5.934   1.616 -1.0023 -0.0257 -0.9272
 4622TIP3    H213824   2.387   5.970   1.617 -0.5694  2.1347  4.2324
 4623TIP3   OH213825   1.660   6.419   2.959  0.2016  0.5076 -0.5342
 4623TIP3    H113826   1.593   6.447   2.897  0.0422 -1.9445 -1.5186
 4623TIP3    H213827   1.709   6.499   2.979 -2.3052  2.1061 -0.6433
 4624TIP3   OH213828   1.773   7.378   3.560 -0.4062  0.1155 -0.1652
 4624TIP3    H113829   1.742   7.290   3.539  0.5563 -0.1328 -0.5259
 4624TIP3    H213830   1.728   7.400   3.642 -0.2758 -0.8946  0.1776
 4625TIP3   OH213831   4.790   0.304   4.870  0.1343 -0.0786 -0.3754
 4625TIP3    H113832   4.829   0.368   4.930 -0.5373  0.3599 -0.4020
 4625TIP3    H213833   4.721   0.353   4.825 -0.4189 -0.8434 -0.3545
 4626TIP3   OH213834   2.361   7.193   1.294 -0.3917 -0.5360  0.0535
 4626TIP3    H113835   2.400   7.229   1.214  0.2915 -0.0927  0.5783
 4626TIP3    H213836   2.348   7.269   1.351  0.3884 -1.0245  0.8893
 4627TIP3   OH213837   3.254   7.141   1.776 -0.1400  0.1219  0.1413
 4627TIP3    H113838   3.167   7.137   1.736  0.5720 -3.0839 -1.2342
 4627TIP3    H213839   3.244   7.097   1.860  0.4139 -1.5077 -0.6207
 4628TIP3   OH213840   4.278   7.245   3.800  0.0821  0.2022  0.1444
 4628TIP3    H113841   4.192   7.269   3.835  0.4627  1.1219  0.4628
 4628TIP3    H213842   4.289   7.301   3.723  0.4240  0.1371  0.1429
 4629TIP3   OH213843   3.691   6.624   1.414 -0.2055 -0.4286  0.0656
 4629TIP3    H113844   3.709   6.660   1.328 -1.3930 -0.9253 -0.3991
 4629TIP3    H213845   3.776   6.621   1.457  0.0996  1.7202 -0.3371
 4630TIP3   OH213846   2.643   5.742   1.292  0.0747 -0.0117 -0.0130
 4630TIP3    H113847   2.563   5.792   1.276  0.6465  0.7701 -0.5109
 4630TIP3    H213848   2.711   5.793   1.247  1.1001  0.1844  1.7443
 4631TIP3   OH213849   3.442   5.551   2.406 -0.1763 -0.3942  0.3164
 4631TIP3    H113850   3.371   5.487   2.416  0.5969 -1.2361  0.5616
 4631TIP3    H213851   3.434   5.581   2.315 -0.2370 -1.2358  0.0318
 4632TIP3   OH213852   2.694   4.177   3.679  0.1466 -0.0805 -0.1965
 4632TIP3    H113853   2.641   4.224   3.744  1.5575 -0.6811  1.4175
 4632TIP3    H213854   2.646   4.096   3.662 -0.4899  0.3156 -0.3179
 4633TIP3   OH213855   2.015   6.297   2.546 -0.1285  0.4279 -0.3504
 4633TIP3    H113856   1.971   6.215   2.567 -2.9931  2.2895  1.3800
 4633TIP3    H213857   2.004   6.307   2.452  0.0408 -1.0192 -0.5372
 4634TIP3   OH213858   2.974   7.695   2.714 -0.4941 -0.3612 -0.6154
 4634TIP3    H113859   3.055   7.722   2.757 -2.1909  0.7957  1.9782
 4634TIP3    H213860   2.946   7.771   2.663 -1.4821  0.3379  0.9145
 4635TIP3   OH213861   2.053   5.166   4.142 -0.2430  0.2127 -0.2253
 4635TIP3    H113862   2.061   5.203   4.055 -0.2076 -0.2158 -0.4077
 4635TIP3    H213863   1.959   5.167   4.161 -0.1674  1.1413  0.1017
 4636TIP3   OH213864   2.373   5.123   2.578 -0.1310  0.2079  0.3737
 4636TIP3    H113865   2.449   5.073   2.549  0.0612  0.7714 -0.1027
 4636TIP3    H213866   2.344   5.079   2.658  1.3546  0.6298  1.1747
 4637TIP3   OH213867   3.691   5.003   5.186 -0.8363 -0.5873  0.3065
 4637TIP3    H113868   3.597   5.018   5.186 -0.5283  1.3840 -0.2585
 4637TIP3    H213869   3.721   5.035   5.271 -0.5079 -0.1752  0.0354
 4638TIP3   OH213870   1.268   5.989   2.404 -0.2411  0.2150  0.2509
 4638TIP3    H113871   1.314   5.952   2.480  0.4881  0.4665 -0.0593
 4638TIP3    H213872   1.283   6.083   2.410 -1.6044  0.4040  0.7149
 4639TIP3   OH213873   3.172   4.901   4.252  0.0469  0.2157 -0.6339
 4639TIP3    H113874   3.124   4.979   4.280  0.1298  0.7081 -1.8193
 4639TIP3    H213875   3.108   4.830   4.257 -0.5298  0.6852 -1.2371
 4640TIP3   OH213876   6.071   6.329   0.655  0.0943 -0.3324 -0.1487
 4640TIP3    H113877   6.160   6.321   0.620 -0.3268 -2.9051 -0.7317
 4640TIP3    H213878   6.081   6.312   0.749  0.5504  1.8195  0.2044
 4641TIP3   OH213879   1.991   5.728   3.459 -0.1697 -0.2272  0.0521
 4641TIP3    H113880   2.068   5.673   3.472 -2.0230 -2.7056  0.7394
 4641TIP3    H213881   1.963   5.710   3.369 -0.7016 -0.2909  0.2289
 4642TIP3   OH213882   2.923   4.709   2.666  0.2628  0.4637 -0.2224
 4642TIP3    H113883   2.865   4.643   2.704  1.3963 -0.1283  0.5146
 4642TIP3    H213884   2.978   4.661   2.605  0.0568  1.0088 -0.8483
 4643TIP3   OH213885   2.952   3.147   2.381 -0.4482 -0.3784 -0.3893
 4643TIP3    H113886   3.017   3.199   2.428  0.0143 -1.6924  0.4612
 4643TIP3    H213887   2.870   3.195   2.392  0.1185  0.5655 -0.2810
 4644TIP3   OH213888   3.109   5.355   3.352  0.3081  0.2104 -0.1608
 4644TIP3    H113889   3.105   5.289   3.282  0.0044 -2.0246  1.8890
 4644TIP3    H213890   3.201   5.358   3.377  0.1681 -0.1828  0.4150
 4645TIP3   OH213891   5.440   0.587   3.068  0.5048 -0.3187 -0.6417
 4645TIP3    H113892   5.460   0.675   3.098  1.8946 -0.5662 -0.8211
 4645TIP3    H213893   5.366   0.598   3.008  0.8801  0.7580 -0.9103
 4646TIP3   OH213894   4.657   6.049   2.528  0.1447  0.0961 -0.3456
 4646TIP3    H113895   4.653   6.083   2.617  0.8092  0.5654 -0.4914
 4646TIP3    H213896   4.572   6.006   2.515  0.1859 -0.2977  0.6328
 4647TIP3   OH213897   4.568   5.448   2.419  0.1994 -0.1038  0.6984
 4647TIP3    H113898   4.518   5.465   2.499  1.2451  3.1719  0.7261
 4647TIP3    H213899   4.645   5.504   2.427  1.1463 -1.0093 -1.8449
 4648TIP3   OH213900   5.148   5.968   2.733 -0.2217 -0.0824  0.4195
 4648TIP3    H113901   5.232   6.006   2.757 -0.3172  1.0449 -1.0097
 4648TIP3    H213902   5.155   5.948   2.640 -1.4076 -0.2970  0.3625
 4649TIP3   OH213903   1.047   5.414   2.306 -0.4556  0.3406  0.0272
 4649TIP3    H113904   0.973   5.464   2.273 -0.4166  0.7177  0.4971
 4649TIP3    H213905   1.092   5.474   2.366  0.2070  0.1026 -0.2282
 4650TIP3   OH213906   4.904   5.009   3.546 -0.7610  0.2773 -0.1074
 4650TIP3    H113907   4.844   4.939   3.521 -1.4486  1.2018 -1.0765
 4650TIP3    H213908   4.954   5.027   3.467 -0.9096  1.1963  0.0049
 4651TIP3   OH213909   2.007   4.580   2.434 -0.1988  0.1743  0.5332
 4651TIP3    H113910   2.041   4.555   2.520 -0.0113  0.7150  0.6135
 4651TIP3    H213911   2.080   4.622   2.390 -0.9066  1.7957  0.8903
 4652TIP3   OH213912   3.071   2.732   1.626 -0.0218 -0.0900  0.6407
 4652TIP3    H113913   3.073   2.794   1.553  0.9746  0.0807  0.8050
 4652TIP3    H213914   3.082   2.646   1.585  0.6091  0.0114  0.5940
 4653TIP3   OH213915   3.282   4.405   4.066  0.2959 -0.0226  0.3119
 4653TIP3    H113916   3.258   4.396   3.974 -2.3226  0.4792  0.8957
 4653TIP3    H213917   3.340   4.481   4.068 -0.5218  0.6431 -0.7838
 4654TIP3   OH213918   1.173   5.704   0.955 -0.0102  0.4358  0.6098
 4654TIP3    H113919   1.262   5.667   0.952 -0.1223  0.1382  0.8622
 4654TIP3    H213920   1.119   5.640   0.910 -0.2902  0.0336  1.4962
 4655TIP3   OH213921   0.517   6.231   2.963  0.7108 -0.2537 -0.1999
 4655TIP3    H113922   0.423   6.237   2.946  0.5808  0.2096  0.6305
 4655TIP3    H213923   0.559   6.260   2.883  0.1551 -1.4914 -0.9640
 4656TIP3   OH213924   1.446   6.182   1.860  0.1936  0.2548  0.2449
 4656TIP3    H113925   1.401   6.123   1.920  1.3412 -0.5486  0.3280
 4656TIP3    H213926   1.485   6.124   1.794 -0.9423  1.1028 -1.2274
 4657TIP3   OH213927   1.408   7.878   3.465 -0.0774  0.3070  0.5930
 4657TIP3    H113928   1.377   7.835   3.545 -0.7677 -2.6639 -1.1750
 4657TIP3    H213929   1.330   7.915   3.425 -0.2436 -0.8880 -0.2199
 4658TIP3   OH213930   3.303   7.887   2.367  0.2368 -0.4864 -0.5028
 4658TIP3    H113931   3.216   7.890   2.326  0.2270  0.2943 -0.4368
 4658TIP3    H213932   3.286   7.904   2.460  0.4809 -0.0570 -0.5320
 4659TIP3   OH213933   3.542   7.387   2.003  0.1843  0.7198  0.5503
 4659TIP3    H113934   3.512   7.434   2.081  1.5717  0.2494  1.3875
 4659TIP3    H213935   3.564   7.299   2.035  0.1790  0.3260 -0.4928
 4660TIP3   OH213936   2.357   7.052   2.987 -0.1390  0.0235 -1.1628
 4660TIP3    H113937   2.295   7.124   2.997  0.5485  0.5904 -0.9593
 4660TIP3    H213938   2.302   6.974   2.977 -0.9045  0.0447  2.3918
 4661TIP3   OH213939   5.485   6.719   2.439 -0.0260 -0.4281  0.6211
 4661TIP3    H113940   5.454   6.800   2.480 -0.4369 -1.1621  1.7953
 4661TIP3    H213941   5.550   6.747   2.375  1.0928  0.7028  2.2433
 4662TIP3   OH213942   0.131   1.712   6.206 -0.3826  0.7354 -0.2144
 4662TIP3    H113943   0.150   1.731   6.298 -0.1871 -0.0153 -0.0908
 4662TIP3    H213944   0.217   1.712   6.164 -0.4816  1.1754 -0.4174
 4663TIP3   OH213945   3.947   5.452   3.361  0.0734  0.5306 -0.1326
 4663TIP3    H113946   3.998   5.440   3.280  1.3502  1.1805  0.5587
 4663TIP3    H213947   3.945   5.547   3.374  1.1989  0.3488  1.4299
 4664TIP3   OH213948   5.132   6.423   4.012 -0.7408  0.2418  0.3297
 4664TIP3    H113949   5.044   6.459   4.004 -0.7000  0.5274  1.0805
 4664TIP3    H213950   5.188   6.499   4.023 -0.6183 -0.0159  1.6138
 4665TIP3   OH213951   4.450   6.071   0.637 -0.3900 -0.4335  0.8576
 4665TIP3    H113952   4.542   6.099   0.638 -0.7527  0.8732 -0.4633
 4665TIP3    H213953   4.441   6.022   0.556 -1.2638  0.9231  0.1167
 4666TIP3   OH213954   4.351   7.159   0.924  0.0695 -0.0952 -0.1901
 4666TIP3    H113955   4.358   7.145   1.018 -1.8688 -0.1199 -0.0373
 4666TIP3    H213956   4.297   7.087   0.892  2.0468 -1.0251 -1.6008
 4667TIP3   OH213957   4.064   4.683   3.082  0.0762  0.3400  0.0396
 4667TIP3    H113958   4.107   4.700   2.998 -0.2452  0.2470 -0.1452
 4667TIP3    H213959   3.974   4.713   3.070 -0.3566 -1.0090 -0.1237
 4668TIP3   OH213960   2.080   3.525   2.970 -0.6832 -0.4625  0.6530
 4668TIP3    H113961   2.072   3.526   2.875  2.1207  0.4267  0.3732
 4668TIP3    H213962   2.173   3.509   2.986 -0.8601  0.7940  3.2196
 4669TIP3   OH213963   2.332   5.486   1.161 -0.0758  0.0327  0.0613
 4669TIP3    H113964   2.260   5.477   1.099 -0.6303 -1.4515  0.9086
 4669TIP3    H213965   2.290   5.516   1.242  0.4686  0.6432  0.1236
 4670TIP3   OH213966   3.673   6.604   2.137  0.0999  0.1815  0.0787
 4670TIP3    H113967   3.583   6.578   2.118 -0.2050  0.4735  1.0981
 4670TIP3    H213968   3.713   6.525   2.175  0.1881  0.1410 -0.0975
 4671TIP3   OH213969   4.365   5.249   0.674 -0.0554 -0.0322  0.4955
 4671TIP3    H113970   4.289   5.307   0.666  1.4525  2.1183  1.1288
 4671TIP3    H213971   4.402   5.245   0.586 -0.2220 -0.0900  0.4294
 4672TIP3   OH213972   1.916   6.687   2.368  0.4941  0.2681 -0.4709
 4672TIP3    H113973   1.861   6.618   2.332 -2.0285  0.8690  2.0836
 4672TIP3    H213974   1.986   6.641   2.415 -0.2919 -0.5388 -0.0889
 4673TIP3   OH213975   5.924   5.776   2.844 -0.0287 -0.4064 -0.1698
 4673TIP3    H113976   5.945   5.752   2.934  1.8595 -0.1280 -0.5169
 4673TIP3    H213977   5.851   5.838   2.851 -1.6135 -2.3478  0.9985
 4674TIP3   OH213978   3.360   6.556   2.640 -0.4164  0.2570 -0.1462
 4674TIP3    H113979   3.403   6.567   2.725 -2.6551  0.9275  0.9395
 4674TIP3    H213980   3.423   6.592   2.577  1.0792  0.2016  1.2546
 4675TIP3   OH213981   2.625   1.940   2.917  0.0854  0.7388  0.2843
 4675TIP3    H113982   2.700   1.999   2.916  0.9849 -0.3699  0.1368
 4675TIP3    H213983   2.564   1.979   2.979  2.1379  0.0387  2.8264
 4676TIP3   OH213984   4.949   4.423   3.547 -0.2595  0.1125  0.0139
 4676TIP3    H113985   5.023   4.466   3.589 -0.3942 -0.5043  0.9085
 4676TIP3    H213986   4.907   4.491   3.495  0.9980  0.4351 -0.5783
 4677TIP3   OH213987   3.749   5.159   0.873  0.5536 -0.1133 -0.7748
 4677TIP3    H113988   3.838   5.189   0.893  0.5271 -0.6408  0.2021
 4677TIP3    H213989   3.761   5.071   0.836  0.4584 -0.0602 -0.9327
 4678TIP3   OH213990   3.828   5.038   2.985 -0.1844 -0.0177  0.3689
 4678TIP3    H113991   3.775   5.002   3.056 -1.6208  0.0985 -0.6176
 4678TIP3    H213992   3.838   5.131   3.008 -0.7627  0.0508  0.3475
 4679TIP3   OH213993   1.040   6.602   4.803  1.3396 -0.0566  0.5167
 4679TIP3    H113994   1.010   6.664   4.868 -0.7275 -0.2448 -0.2173
 4679TIP3    H213995   1.043   6.518   4.849  1.3859  0.0838  0.7694
 4680TIP3   OH213996   4.747   4.192   2.968  0.4976  0.3802 -0.2904
 4680TIP3    H113997   4.732   4.257   3.037 -0.9021 -0.4284  0.1996
 4680TIP3    H213998   4.797   4.123   3.011 -2.0520 -1.0535  0.5132
 4681TIP3   OH213999   2.803   4.015   0.314 -0.1261 -0.4834 -0.2217
 4681TIP3    H114000   2.747   4.054   0.381 -0.0609  0.1381 -0.5243
 4681TIP3    H214001   2.858   4.087   0.283  0.4376 -0.9586 -0.3392
 4682TIP3   OH214002   0.778   6.282   5.199  0.1507 -0.0178  1.0384
 4682TIP3    H114003   0.857   6.238   5.166 -0.2425 -0.5577  0.8124
 4682TIP3    H214004   0.811   6.364   5.237  0.7736 -0.0260  0.5414
 4683TIP3   OH214005   3.328   6.508   3.008  0.0416  0.5479 -0.0436
 4683TIP3    H114006   3.256   6.552   2.963  0.0584  0.2298 -0.3912
 4683TIP3    H214007   3.292   6.481   3.092 -0.4184 -0.0955 -0.4370
 4684TIP3   OH214008   2.919   6.014   2.939  0.4390  0.4333 -0.2884
 4684TIP3    H114009   2.955   6.096   2.906  0.8826  0.0384 -0.8094
 4684TIP3    H214010   2.827   6.033   2.957  1.6180  2.4626  4.4460
 4685TIP3   OH214011   2.989   7.330   2.704  0.3989 -0.3222 -0.1215
 4685TIP3    H114012   2.959   7.244   2.733  0.1159 -0.3318 -0.4403
 4685TIP3    H214013   2.922   7.391   2.735  0.8929 -0.1459  0.6090
 4686TIP3   OH214014   2.603   7.170   2.984 -0.2182 -0.2628 -0.0384
 4686TIP3    H114015   2.533   7.105   2.983 -0.4309 -0.0825  1.3006
 4686TIP3    H214016   2.610   7.195   3.076  0.7369  0.6645 -0.3564
 4687TIP3   OH214017   5.352   5.918   3.626  0.6903  0.3814 -0.0676
 4687TIP3    H114018   5.260   5.895   3.613  0.6068  1.1302 -0.8012
 4687TIP3    H214019   5.380   5.953   3.542  1.4752  0.7596  0.3521
 4688TIP3   OH214020   2.709   6.030   4.073  0.2550  0.0030  0.0625
 4688TIP3    H114021   2.788   6.079   4.052  0.6486 -0.9970 -0.7986
 4688TIP3    H214022   2.657   6.033   3.993  0.1269 -0.7022  0.1235
 4689TIP3   OH214023   5.963   3.724   0.951 -0.4481  0.3759 -0.3969
 4689TIP3    H114024   5.920   3.744   0.868 -1.4042  0.2314  0.0576
 4689TIP3    H214025   6.018   3.647   0.932 -0.6070  0.3884 -0.9086
 4690TIP3   OH214026   0.096   7.578   3.217  0.0013  0.4621  0.2298
 4690TIP3    H114027   0.023   7.637   3.197  1.0831  0.6925 -3.2241
 4690TIP3    H214028   0.097   7.575   3.313 -5.0514 -0.2249  0.4185
 4691TIP3   OH214029   2.953   7.584   3.824 -0.2604 -1.0945 -0.6744
 4691TIP3    H114030   2.876   7.623   3.782 -0.0732 -0.4593 -0.4454
 4691TIP3    H214031   3.017   7.655   3.825 -0.0262 -1.3134  0.0614
 4692TIP3   OH214032   4.429   6.627   2.535 -0.4474 -0.3269  0.1109
 4692TIP3    H114033   4.427   6.585   2.620 -1.4599 -0.6515 -0.0636
 4692TIP3    H214034   4.362   6.696   2.541 -1.2108 -0.9826 -0.7312
 4693TIP3   OH214035   2.823   6.870   1.468 -0.3606  0.6029 -0.4244
 4693TIP3    H114036   2.804   6.950   1.420  0.1029  0.5474 -0.7002
 4693TIP3    H214037   2.738   6.826   1.476 -0.8496  1.7503  0.8862
 4694TIP3   OH214038   3.510   5.021   3.177  0.2030 -0.6869 -0.0543
 4694TIP3    H114039   3.596   5.028   3.218 -0.5170 -0.4368  1.4273
 4694TIP3    H214040   3.448   5.042   3.247 -1.0466 -0.4789 -1.2098
 4695TIP3   OH214041   4.123   0.046   4.520 -0.1405  0.0539 -0.5458
 4695TIP3    H114042   4.053   0.079   4.576  0.3111 -1.1558  0.7579
 4695TIP3    H214043   4.117   0.099   4.440  0.1169  2.8044  1.2004
 4696TIP3   OH214044   3.670   5.417   3.447 -0.7921 -0.3329  0.3923
 4696TIP3    H114045   3.708   5.347   3.499  0.1936  0.6558  1.0391
 4696TIP3    H214046   3.740   5.443   3.387 -1.8519 -1.3267 -1.3059
 4697TIP3   OH214047   3.729   5.992   3.172  0.0238 -0.0990  0.1848
 4697TIP3    H114048   3.676   5.921   3.211  0.0823 -0.2425  0.0035
 4697TIP3    H214049   3.798   6.007   3.236  0.0328 -0.2320  0.2081
 4698TIP3   OH214050   2.257   5.200   2.039 -0.2646 -0.1115 -0.2927
 4698TIP3    H114051   2.334   5.176   1.988 -1.2582  1.4892 -2.6141
 4698TIP3    H214052   2.265   5.295   2.052 -1.2803 -0.1152  0.4123
 4699TIP3   OH214053   3.841   3.725   2.608 -0.4798 -0.3331 -0.0148
 4699TIP3    H114054   3.875   3.747   2.521  1.2817  0.8404  0.9432
 4699TIP3    H214055   3.858   3.803   2.661 -1.5988 -1.0070  1.3719
 4700TIP3   OH214056   3.103   4.383   1.988 -0.5961 -0.1575 -0.4645
 4700TIP3    H114057   3.009   4.399   1.989 -0.7857 -1.2088 -0.1514
 4700TIP3    H214058   3.114   4.309   1.927 -0.2623 -1.6103  1.3060
 4701TIP3   OH214059   2.067   3.638   3.360 -0.4347  0.8264 -0.2246
 4701TIP3    H114060   2.049   3.661   3.269 -0.8139 -0.9719 -0.6275
 4701TIP3    H214061   1.981   3.625   3.399 -0.2360 -0.1277 -0.0879
 4702TIP3   OH214062   4.367   5.247   4.873  0.2906 -0.5125 -0.0746
 4702TIP3    H114063   4.417   5.286   4.944 -0.5850  0.6048 -0.0613
 4702TIP3    H214064   4.286   5.216   4.914  1.2275 -2.9100  0.0290
 4703TIP3   OH214065   3.347   1.149   3.285 -0.3375  0.0873  0.1477
 4703TIP3    H114066   3.283   1.104   3.230  0.8806 -0.7114 -0.6397
 4703TIP3    H214067   3.294   1.197   3.349 -1.7524  0.3604 -1.1844
 4704TIP3   OH214068   1.739   3.047   2.742  0.2656  0.1890  0.0700
 4704TIP3    H114069   1.779   3.065   2.656  2.2217  0.9686  1.1181
 4704TIP3    H214070   1.721   3.134   2.778  2.4457 -0.0246  1.7949
 4705TIP3   OH214071   3.226   5.100   1.579 -0.1516 -0.0975 -0.0271
 4705TIP3    H114072   3.316   5.108   1.612 -0.7668  1.0526  1.4024
 4705TIP3    H214073   3.210   5.005   1.577  0.5600 -0.2551  1.1783
 4706TIP3   OH214074   0.901   6.947   2.896  0.3064 -0.0459  0.1813
 4706TIP3    H114075   0.842   6.919   2.826  1.3865  1.4952 -1.3924
 4706TIP3    H214076   0.843   6.983   2.964 -0.5815  1.2925 -1.2616
 4707TIP3   OH214077   1.242   5.584   3.562  0.0969 -0.5244 -0.5282
 4707TIP3    H114078   1.323   5.563   3.515 -0.2032 -3.6070  0.2008
 4707TIP3    H214079   1.267   5.583   3.655 -0.9879 -2.7843 -0.2276
 4708TIP3   OH214080   2.942   4.391   1.516  0.9658 -0.4608 -0.0492
 4708TIP3    H114081   2.923   4.403   1.423  0.1935  1.1085  0.3012
 4708TIP3    H214082   2.951   4.296   1.526 -0.2845 -0.7502 -1.4702
 4709TIP3   OH214083   3.194   5.797   0.407  0.1094 -0.3372  0.0969
 4709TIP3    H114084   3.147   5.876   0.433 -1.3428 -0.7439 -1.2415
 4709TIP3    H214085   3.245   5.824   0.331 -0.0128 -0.5797 -0.0684
 4710TIP3   OH214086   7.791   2.427   6.601 -0.1181 -0.5723 -0.5976
 4710TIP3    H114087   7.702   2.427   6.636 -0.4191  0.8322 -1.3481
 4710TIP3    H214088   7.839   2.491   6.655 -0.3246  0.8437 -2.0603
 4711TIP3   OH214089   4.582   3.740   3.300  0.3769 -0.1434  0.6041
 4711TIP3    H114090   4.630   3.798   3.359  0.6472  0.1907  0.0595
 4711TIP3    H214091   4.491   3.767   3.309  0.6420  1.2043 -0.5738
 4712TIP3   OH214092   2.783   4.536   2.006 -0.0497 -0.1258  0.4975
 4712TIP3    H114093   2.796   4.613   1.952  1.0763  0.0322  0.9825
 4712TIP3    H214094   2.815   4.561   2.093 -2.3261 -0.1917  1.4056
 4713TIP3   OH214095   2.777   5.565   0.775  0.1198  0.4920  0.1572
 4713TIP3    H114096   2.718   5.498   0.810  0.2643  0.1923 -0.1651
 4713TIP3    H214097   2.757   5.644   0.825  0.5022  0.0026  1.0891
 4714TIP3   OH214098   4.421   3.629   2.632 -0.2018  0.8824 -0.2019
 4714TIP3    H114099   4.455   3.548   2.594  1.1648  1.5029 -0.3214
 4714TIP3    H214100   4.339   3.603   2.675  0.7427 -0.7433  0.6320
 4715TIP3   OH214101   3.147   3.705   3.348  0.1531  0.1979 -0.3907
 4715TIP3    H114102   3.092   3.634   3.381 -0.8423  1.1543  0.0458
 4715TIP3    H214103   3.222   3.707   3.408  0.0648 -0.3173 -0.2583
 4716TIP3   OH214104   4.144   6.541   2.484  0.1559  0.4015 -0.3950
 4716TIP3    H114105   4.174   6.607   2.547 -0.7583  0.5316 -0.0868
 4716TIP3    H214106   4.190   6.461   2.509 -1.0086  0.1823  1.1230
 4717TIP3   OH214107   4.802   4.575   3.372  0.2801 -0.3186  0.1256
 4717TIP3    H114108   4.789   4.616   3.287  0.6513 -0.3789  0.0416
 4717TIP3    H214109   4.713   4.562   3.406  0.0916 -1.1795 -0.6682
 4718TIP3   OH214110   3.534   7.278   2.419  0.0737 -0.5109 -0.1182
 4718TIP3    H114111   3.472   7.320   2.359 -0.1558 -0.9030 -0.1548
 4718TIP3    H214112   3.620   7.294   2.380  0.1722  1.6778  0.8992
 4719TIP3   OH214113   4.222   5.867   1.936 -0.0349  0.2351  0.2610
 4719TIP3    H114114   4.245   5.821   2.017  0.4349  1.4946  0.8598
 4719TIP3    H214115   4.292   5.844   1.875 -2.0155 -3.2914 -0.8663
 4720TIP3   OH214116   3.837   5.691   0.756  0.2461  0.0401 -0.4809
 4720TIP3    H114117   3.762   5.634   0.775  0.0114  0.3601 -0.4373
 4720TIP3    H214118   3.913   5.638   0.777  0.0764 -0.9219 -2.3006
 4721TIP3   OH214119   2.905   4.444   1.216 -0.3116  0.2216  0.3004
 4721TIP3    H114120   2.875   4.404   1.134 -0.1659 -0.3726  0.5351
 4721TIP3    H214121   2.913   4.537   1.195  3.4234 -0.4201 -1.4811
 4722TIP3   OH214122   3.008   6.774   3.873  0.3927 -0.1084 -0.7269
 4722TIP3    H114123   3.002   6.726   3.956 -0.7904  0.5239 -0.4358
 4722TIP3    H214124   3.095   6.815   3.875  0.1536  0.3714  0.4613
 4723TIP3   OH214125   6.321   7.431   1.157  0.1146  0.5773 -0.1798
 4723TIP3    H114126   6.261   7.496   1.119 -1.1178 -1.0765 -1.1853
 4723TIP3    H214127   6.342   7.465   1.244 -1.3775  1.7771 -0.2600
 4724TIP3   OH214128   3.927   6.203   3.081 -0.5967 -0.2043 -0.1229
 4724TIP3    H114129   3.990   6.201   3.153 -1.7418 -0.3062  0.8978
 4724TIP3    H214130   3.935   6.290   3.044 -2.8957  1.3124  2.7675
 4725TIP3   OH214131   4.431   6.318   3.052  0.5369  0.3520  0.1282
 4725TIP3    H114132   4.383   6.397   3.076  0.8157  0.8257 -0.8404
 4725TIP3    H214133   4.364   6.260   3.015  0.2545 -0.0459  1.2637
 4726TIP3   OH214134   4.934   6.048   3.913 -0.1592 -0.1406  0.0884
 4726TIP3    H114135   4.989   6.075   3.987 -3.0194  1.3707  1.7549
 4726TIP3    H214136   4.888   5.971   3.944  1.5910 -1.9229 -1.6153
 4727TIP3   OH214137   3.342   4.609   2.070  0.1752 -0.2332  0.2672
 4727TIP3    H114138   3.265   4.583   2.121  0.6405  1.3827  1.8142
 4727TIP3    H214139   3.352   4.539   2.005 -0.0921 -2.6445  2.7274
 4728TIP3   OH214140   4.798   4.825   2.311  0.2662 -0.0961  0.1024
 4728TIP3    H114141   4.750   4.894   2.265  2.0815  0.7676 -0.5318
 4728TIP3    H214142   4.743   4.748   2.302 -0.3568  0.5467 -1.7809
 4729TIP3   OH214143   2.463   6.794   3.141 -0.9270 -0.2066  0.5287
 4729TIP3    H114144   2.506   6.836   3.215  1.9235 -0.3275 -0.9963
 4729TIP3    H214145   2.392   6.854   3.118 -1.4627  0.1400  2.9282
 4730TIP3   OH214146   3.974   3.884   0.738 -0.6563  0.6707  0.4234
 4730TIP3    H114147   3.931   3.917   0.659 -0.5164  2.2425  0.9917
 4730TIP3    H214148   3.911   3.901   0.808 -0.3661  0.1822  0.8079
 4731TIP3   OH214149   7.014   3.841   2.394  0.2617 -0.0372 -0.3494
 4731TIP3    H114150   6.993   3.769   2.453 -1.6768  1.0199  0.2735
 4731TIP3    H214151   6.939   3.847   2.336  1.8686 -0.6475 -2.5566
 4732TIP3   OH214152   4.254   6.363   2.007  0.1681  0.4452  0.2559
 4732TIP3    H114153   4.240   6.272   2.033  1.1209  0.3003  0.2908
 4732TIP3    H214154   4.175   6.409   2.035 -1.3694 -0.8041 -1.8786
 4733TIP3   OH214155   3.601   6.074   4.106  0.2764  0.3356  0.2858
 4733TIP3    H114156   3.623   6.149   4.161  0.8756  0.3972 -0.0332
 4733TIP3    H214157   3.672   6.011   4.120  0.1202  0.0998  0.0448
 4734TIP3   OH214158   5.193   6.363   2.585 -0.1061 -0.8716 -0.3594
 4734TIP3    H114159   5.190   6.358   2.680 -1.6139  0.3119 -0.3300
 4734TIP3    H214160   5.213   6.455   2.566  0.3190 -1.1273 -1.1882
 4735TIP3   OH214161   5.323   5.164   0.284 -0.0330 -0.4773 -0.1363
 4735TIP3    H114162   5.367   5.082   0.264  0.7094  0.2628 -1.5589
 4735TIP3    H214163   5.332   5.217   0.205 -1.0744  0.7331  0.5312
 4736TIP3   OH214164   2.889   5.889   3.305 -0.0653 -0.2818 -0.7473
 4736TIP3    H114165   2.980   5.888   3.334 -0.5911 -2.5587  0.9845
 4736TIP3    H214166   2.887   5.831   3.229 -0.4447 -2.0061  0.5507
 4737TIP3   OH214167   2.521   6.454   3.219 -0.0894 -0.0972  0.0284
 4737TIP3    H114168   2.509   6.543   3.253 -2.4195 -1.3538  2.6294
 4737TIP3    H214169   2.454   6.445   3.152  0.5349  0.2750 -0.6598
 4738TIP3   OH214170   2.649   6.067   1.540 -0.0319  0.2555 -0.3968
 4738TIP3    H114171   2.672   6.121   1.615  0.3887 -0.7743  0.2177
 4738TIP3    H214172   2.575   6.112   1.499 -0.3161  0.7630  0.6807
 4739TIP3   OH214173   8.276   7.004   1.959  0.4360  0.2301 -0.1951
 4739TIP3    H114174   8.315   7.091   1.957  0.4538  0.2153 -0.9173
 4739TIP3    H214175   8.289   6.972   2.048  0.9818  0.7184 -0.1037
 4740TIP3   OH214176   6.073   5.279   1.750  0.3333 -0.2794  0.2834
 4740TIP3    H114177   6.135   5.220   1.795  0.1450 -0.3485  0.4538
 4740TIP3    H214178   5.991   5.266   1.797  1.1323  2.8169  2.7071
 4741TIP3   OH214179   3.021   5.432   4.986 -0.1797 -0.2282 -0.3208
 4741TIP3    H114180   3.104   5.391   4.960 -1.1678 -1.6273 -1.3746
 4741TIP3    H214181   2.969   5.360   5.021 -1.2989  0.4634 -0.5347
 4742TIP3   OH214182   4.856   6.465   2.847 -0.4988  0.8025 -0.1332
 4742TIP3    H114183   4.923   6.398   2.840 -0.2640  0.9320  0.7830
 4742TIP3    H214184   4.861   6.514   2.765  2.2527  2.3967  0.9091
 4743TIP3   OH214185   5.999   6.599   1.952  0.3255  0.0070  0.3821
 4743TIP3    H114186   5.961   6.685   1.939 -1.4886 -0.4952  2.1483
 4743TIP3    H214187   5.963   6.546   1.881 -0.0985  0.2101  0.4460
 4744TIP3   OH214188   7.486   5.955   2.617 -0.1984  0.4216  0.2081
 4744TIP3    H114189   7.573   5.966   2.653  0.6789 -1.2056 -1.3125
 4744TIP3    H214190   7.440   5.901   2.681 -0.2779  1.7021  1.2545
 4745TIP3   OH214191   5.521   6.669   2.860 -0.8027 -0.1894 -0.3326
 4745TIP3    H114192   5.590   6.678   2.796 -2.0809  1.2690 -1.5433
 4745TIP3    H214193   5.547   6.594   2.914  2.1175  0.8590 -0.2145
 4746TIP3   OH214194   3.504   4.551   1.405  0.0402  0.1767  0.3173
 4746TIP3    H114195   3.462   4.630   1.373  0.8146  0.8543  0.9496
 4746TIP3    H214196   3.463   4.480   1.356  1.6919  1.2304 -2.7031
 4747TIP3   OH214197   5.188   4.966   2.913 -0.0658 -0.4934  0.0828
 4747TIP3    H114198   5.190   5.041   2.854 -1.8011 -0.7089 -0.2608
 4747TIP3    H214199   5.211   4.891   2.858 -0.6336 -0.5441 -0.0844
 4748TIP3   OH214200   5.999   5.437   1.993  0.5559 -0.4688 -0.2053
 4748TIP3    H114201   6.085   5.467   1.963  0.6728 -0.5960  0.0023
 4748TIP3    H214202   5.939   5.507   1.968  0.7691 -0.2387 -0.0679
 4749TIP3   OH214203   6.099   5.527   1.329  0.3224 -0.1434  0.3588
 4749TIP3    H114204   6.100   5.435   1.303 -1.6931 -0.2604  0.5568
 4749TIP3    H214205   6.063   5.526   1.418  0.7116  0.8010  0.5369
 4750TIP3   OH214206   5.023   5.534   0.651 -0.3100  0.2256 -0.2362
 4750TIP3    H114207   4.951   5.562   0.707  0.6251 -0.6940  1.4949
 4750TIP3    H214208   5.043   5.445   0.682  0.9261  0.1130 -1.3306
 4751TIP3   OH214209   4.300   0.081   0.562  0.2914 -0.5699  0.1662
 4751TIP3    H114210   4.379   0.130   0.583  0.9469 -1.6713  0.3574
 4751TIP3    H214211   4.269   0.049   0.647  1.1085 -2.3034 -0.1679
 4752TIP3   OH214212   2.148   4.076   0.534 -0.0493  0.0549 -0.4383
 4752TIP3    H114213   2.155   4.127   0.453  1.6327 -0.5539 -0.7067
 4752TIP3    H214214   2.228   4.023   0.535 -0.3329 -0.3556  1.3422
 4753TIP3   OH214215   6.497   5.614   1.962 -0.4072  0.0818  0.1034
 4753TIP3    H114216   6.558   5.548   1.993 -0.9690  0.0854  1.2400
 4753TIP3    H214217   6.413   5.569   1.959 -0.8764  0.8484  1.2952
 4754TIP3   OH214218   4.289   6.636   3.605  0.4120  0.1047  0.4039
 4754TIP3    H114219   4.283   6.719   3.652  0.7682  0.6794 -0.5562
 4754TIP3    H214220   4.234   6.576   3.656  0.6559  0.7533  1.4635
 4755TIP3   OH214221   2.445   3.859   1.973  0.6613  0.3075 -0.1161
 4755TIP3    H114222   2.443   3.896   1.885 -0.6767  0.2823 -0.1074
 4755TIP3    H214223   2.353   3.857   2.001  0.8826 -1.3308  0.5902
 4756TIP3   OH214224   3.421   6.243   1.942 -0.7353 -0.2930  0.5768
 4756TIP3    H114225   3.434   6.170   2.002 -0.0465  0.0670  0.8657
 4756TIP3    H214226   3.497   6.241   1.884 -0.5940  0.3413  0.7385
 4757TIP3   OH214227   1.415   6.473   1.921 -0.2320 -0.2072 -0.0234
 4757TIP3    H114228   1.457   6.527   1.855  1.6152 -1.0808  0.4105
 4757TIP3    H214229   1.476   6.402   1.937 -0.7114 -0.1138  2.5123
 4758TIP3   OH214230   5.283   6.983   3.036 -0.0481  0.2736  0.0552
 4758TIP3    H114231   5.311   7.075   3.037 -0.4916  0.4067  0.5943
 4758TIP3    H214232   5.188   6.987   3.021 -0.1250 -0.0839  0.4567
 4759TIP3   OH214233   4.291   3.243   2.763  0.4743 -0.7164 -0.4020
 4759TIP3    H114234   4.370   3.264   2.713  0.6101 -0.8513 -0.2427
 4759TIP3    H214235   4.245   3.327   2.772  1.1016 -0.4530  0.3814
 4760TIP3   OH214236   3.931   6.143   2.684  0.4119  0.1723  0.4378
 4760TIP3    H114237   3.862   6.208   2.684  1.6809  1.5533 -0.6876
 4760TIP3    H214238   3.894   6.068   2.730 -0.9415  1.8182  2.0829
 4761TIP3   OH214239   1.384   6.298   1.053 -0.0301  0.3168 -0.2125
 4761TIP3    H114240   1.397   6.378   1.104 -0.9658 -0.5993  1.4860
 4761TIP3    H214241   1.352   6.234   1.116  0.5049 -1.3509 -1.5992
 4762TIP3   OH214242   3.596   7.213   2.680 -0.3161 -0.0614 -0.1343
 4762TIP3    H114243   3.574   7.256   2.597 -1.0879 -1.9724 -0.9455
 4762TIP3    H214244   3.568   7.122   2.668  1.4046 -0.8291  1.5043
 4763TIP3   OH214245   3.317   1.144   1.094  0.5286 -0.2258  0.0326
 4763TIP3    H114246   3.330   1.216   1.032 -1.5465  0.6546  0.5779
 4763TIP3    H214247   3.258   1.180   1.161  0.2796 -2.1173  0.8617
 4764TIP3   OH214248   7.130   7.103   1.428  0.1671 -0.2290 -0.1796
 4764TIP3    H114249   7.204   7.156   1.459  0.6113 -0.8055 -0.2611
 4764TIP3    H214250   7.106   7.050   1.504  1.7025 -2.1579 -0.9896
 4765TIP3   OH214251   5.491   7.797   1.141 -0.5991  0.2187  0.2687
 4765TIP3    H114252   5.431   7.761   1.207  0.7402  1.9779  2.5010
 4765TIP3    H214253   5.499   7.890   1.164  0.8115  0.6122 -1.6881
 4766TIP3   OH214254   1.877   5.147   2.154 -0.5198  0.1659 -0.2267
 4766TIP3    H114255   1.904   5.144   2.062  1.2589  2.3714  0.1661
 4766TIP3    H214256   1.953   5.117   2.202 -1.2332 -0.3697  0.5843
 4767TIP3   OH214257   5.924   5.981   0.987 -0.3119  0.5066  0.1560
 4767TIP3    H114258   5.930   6.049   1.054  0.4417 -0.4511  1.0716
 4767TIP3    H214259   6.015   5.967   0.959 -0.5408  0.3624 -0.5259
 4768TIP3   OH214260   3.912   5.920   2.157  0.3682 -0.2304  0.2663
 4768TIP3    H114261   3.999   5.895   2.189  0.9401 -1.5616 -2.2294
 4768TIP3    H214262   3.891   5.856   2.090 -2.2813  0.4799  0.3459
 4769TIP3   OH214263   4.180   6.212   3.859  0.0026  0.4085 -0.1042
 4769TIP3    H114264   4.256   6.186   3.808  0.6636  0.3213  0.9093
 4769TIP3    H214265   4.207   6.200   3.950 -1.3648 -0.0353  0.2613
 4770TIP3   OH214266   2.567   6.353   1.409 -0.7017 -0.2743  0.0470
 4770TIP3    H114267   2.524   6.380   1.328  0.9716  0.5508 -0.6002
 4770TIP3    H214268   2.660   6.352   1.387 -0.1790  0.4588  2.0914
 4771TIP3   OH214269   3.196   4.355   2.240  0.3953 -0.8803  0.8180
 4771TIP3    H114270   3.141   4.317   2.309  1.6905 -1.8033  1.3736
 4771TIP3    H214271   3.160   4.320   2.159 -1.1431  0.2075  1.0118
 4772TIP3   OH214272   4.419   5.134   3.926  0.0280 -0.5873 -0.2051
 4772TIP3    H114273   4.459   5.048   3.918  0.7658 -0.0973 -2.0430
 4772TIP3    H214274   4.479   5.184   3.981  0.9242 -0.4648 -1.2888
 4773TIP3   OH214275   5.087   5.963   4.155 -0.2118 -0.2333  0.1434
 4773TIP3    H114276   5.013   5.914   4.191  0.1620 -1.3198 -0.5454
 4773TIP3    H214277   5.131   5.902   4.096  0.2609  0.9308 -0.7557
 4774TIP3   OH214278   4.871   4.734   1.110 -0.0769 -0.2475  0.2401
 4774TIP3    H114279   4.876   4.698   1.021 -2.3350  0.1268 -0.0635
 4774TIP3    H214280   4.941   4.690   1.158 -0.1973 -2.0302 -1.1851
 4775TIP3   OH214281   3.522   5.215   2.964 -0.4152  0.0145  0.1885
 4775TIP3    H114282   3.441   5.253   2.999  0.4588  0.4084  1.8080
 4775TIP3    H214283   3.552   5.155   3.031  1.0287  0.4140 -0.0785
 4776TIP3   OH214284   4.857   5.335   2.788  0.2671  0.4031 -0.0917
 4776TIP3    H114285   4.769   5.356   2.819  0.5007 -0.1577  0.9874
 4776TIP3    H214286   4.844   5.273   2.716 -0.1892 -0.5755  0.8179
 4777TIP3   OH214287   6.598   7.450   2.530  0.1750  0.1054  0.1884
 4777TIP3    H114288   6.599   7.546   2.529  0.3965  0.1078  0.5655
 4777TIP3    H214289   6.681   7.425   2.571 -0.3716 -0.2302  1.1007
 4778TIP3   OH214290   3.346   5.186   1.350  0.2563 -0.1062 -0.6155
 4778TIP3    H114291   3.285   5.184   1.424 -1.7192 -1.5513 -2.2018
 4778TIP3    H214292   3.420   5.133   1.378 -0.7868 -1.2020  0.1155
 4779TIP3   OH214293   0.250   0.199   4.462  0.4544  0.0217  0.2017
 4779TIP3    H114294   0.180   0.260   4.437  0.5370 -0.2529 -0.7320
 4779TIP3    H214295   0.270   0.221   4.553  0.0912  1.0105  0.0506
 4780TIP3   OH214296   5.219   4.185   1.858 -0.0955  0.3088 -0.1380
 4780TIP3    H114297   5.275   4.212   1.785 -0.5684 -0.4836 -0.7983
 4780TIP3    H214298   5.192   4.267   1.899 -0.5743  0.7981 -1.4236
 4781TIP3   OH214299   4.556   7.339   2.478 -0.1350 -0.0174  0.1625
 4781TIP3    H114300   4.573   7.282   2.403  1.6605 -0.2540  0.7118
 4781TIP3    H214301   4.635   7.392   2.486 -0.4802  0.3051  1.6218
 4782TIP3   OH214302   1.242   0.418   6.803  0.4010 -0.0804  0.2118
 4782TIP3    H114303   1.332   0.440   6.778  1.3016 -2.0496  1.5299
 4782TIP3    H214304   1.194   0.413   6.721  1.9519 -0.8604 -0.6714
 4783TIP3   OH214305   1.938   5.640   1.425  0.2659  0.3076  0.0073
 4783TIP3    H114306   1.860   5.690   1.400  1.3650  2.5971  1.1310
 4783TIP3    H214307   1.937   5.639   1.520  1.7450  0.5257  0.0350
 4784TIP3   OH214308   1.692   0.209   6.062 -0.9358  0.6378  0.1793
 4784TIP3    H114309   1.636   0.150   6.012  1.1313 -0.0012 -1.4495
 4784TIP3    H214310   1.636   0.240   6.134 -2.6042 -1.8597  0.0135
 4785TIP3   OH214311   5.146   5.135   3.369  0.0518 -0.2815 -0.0576
 4785TIP3    H114312   5.116   5.170   3.286 -0.1408 -1.1580 -0.3662
 4785TIP3    H214313   5.209   5.067   3.345 -0.4836 -0.9780  0.4964
 4786TIP3   OH214314   3.484   6.021   5.494 -0.1124  0.4771  0.3144
 4786TIP3    H114315   3.523   5.942   5.455  0.6964  0.3201  1.4113
 4786TIP3    H214316   3.400   6.031   5.449 -1.1846 -2.2187  1.6058
 4787TIP3   OH214317   3.686   4.490   1.819  0.4013 -0.1167  0.1009
 4787TIP3    H114318   3.723   4.508   1.733  1.1409  0.2933  0.5062
 4787TIP3    H214319   3.600   4.451   1.800 -0.0520  1.2943 -0.7961
 4788TIP3   OH214320   2.968   4.206   0.595  0.2674  0.4326  0.1367
 4788TIP3    H114321   2.960   4.289   0.548  0.1868  0.6856  0.5899
 4788TIP3    H214322   3.028   4.154   0.542 -0.8948  0.1814 -0.9823
 4789TIP3   OH214323   4.790   5.851   3.526  0.6436 -0.4969 -0.3183
 4789TIP3    H114324   4.751   5.897   3.451  0.8200 -1.2165 -0.8470
 4789TIP3    H214325   4.802   5.761   3.496 -1.4844 -1.3762  1.3447
 4790TIP3   OH214326   4.526   5.052   1.021  0.3989 -0.1143 -0.2391
 4790TIP3    H114327   4.465   5.025   1.089  1.0383  0.6646  0.6469
 4790TIP3    H214328   4.477   5.042   0.939 -1.9221  3.2270  0.6372
 4791TIP3   OH214329   3.216   5.710   1.769 -0.0925 -0.0332 -0.2881
 4791TIP3    H114330   3.304   5.727   1.737 -0.1425 -1.0524 -1.0152
 4791TIP3    H214331   3.221   5.624   1.810 -0.2923  0.7738  1.4978
 4792TIP3   OH214332   3.802   4.437   3.004  0.5659 -0.0051  0.2264
 4792TIP3    H114333   3.821   4.495   3.077  0.5739 -0.5567  0.6653
 4792TIP3    H214334   3.783   4.495   2.931 -1.2753  0.5519  1.1413
 4793TIP3   OH214335   5.111   5.475   1.836 -0.3806 -0.4978 -0.4935
 4793TIP3    H114336   5.154   5.396   1.802  1.7071  0.1071  0.6381
 4793TIP3    H214337   5.066   5.445   1.915  1.2733 -0.4008  0.5207
 4794TIP3   OH214338   5.355   5.506   3.732 -0.1044 -0.8070 -0.4197
 4794TIP3    H114339   5.277   5.562   3.733  0.2306 -0.3384 -0.0388
 4794TIP3    H214340   5.418   5.553   3.678  0.2157 -0.7580 -0.0138
 4795TIP3   OH214341   5.293   5.796   2.145  0.4190 -0.4548 -0.0905
 4795TIP3    H114342   5.352   5.848   2.200 -0.7227 -1.0579  1.7490
 4795TIP3    H214343   5.331   5.709   2.144 -0.9146 -1.1025  1.9308
 4796TIP3   OH214344   5.560   5.066   1.667  0.1419 -0.6791  0.2277
 4796TIP3    H114345   5.537   5.159   1.679  0.1522 -0.9510  2.4517
 4796TIP3    H214346   5.603   5.041   1.749 -0.6343 -2.8998 -0.0226
 4797TIP3   OH214347   4.677   6.115   2.264  0.2633  0.4772  0.0494
 4797TIP3    H114348   4.674   6.039   2.206 -1.9085 -1.3375  2.4762
 4797TIP3    H214349   4.695   6.079   2.351 -0.2647  2.7702  1.1551
 4798TIP3   OH214350   5.129   5.489   3.419  0.0280  0.3587 -0.0871
 4798TIP3    H114351   5.176   5.572   3.425  0.1489  0.4675 -2.2384
 4798TIP3    H214352   5.197   5.422   3.425  0.5361  0.5186 -3.4060
 4799TIP3   OH214353   7.768   5.081   1.610 -0.2644  0.4662 -0.1571
 4799TIP3    H114354   7.851   5.106   1.570  0.1896  0.1623  0.5919
 4799TIP3    H214355   7.779   4.990   1.635 -1.7596 -0.3910 -2.4471
 4800TIP3   OH214356   1.087   6.221   2.411  0.3669 -0.1893 -0.2068
 4800TIP3    H114357   1.046   6.213   2.325  0.0720  0.7848 -0.1602
 4800TIP3    H214358   1.022   6.188   2.473  0.7309 -1.2759 -0.3758
 4801TIP3   OH214359   5.002   5.455   2.447  0.1121 -0.2623  0.0146
 4801TIP3    H114360   5.071   5.521   2.453 -0.7044  0.6364 -0.4249
 4801TIP3    H214361   4.927   5.494   2.493 -0.0435 -1.3185  0.6771
 4802TIP3   OH214362   3.865   4.547   3.251 -0.5310 -0.1993  0.4055
 4802TIP3    H114363   3.814   4.530   3.330 -0.5072  0.5162  0.5801
 4802TIP3    H214364   3.949   4.579   3.284  0.0790 -1.4755  0.1227
 4803TIP3   OH214365   8.088   6.452   2.233 -0.1696 -0.2870 -0.1825
 4803TIP3    H114366   8.141   6.421   2.159  0.3202  0.4388 -0.1413
 4803TIP3    H214367   8.144   6.516   2.276 -0.6578 -0.3368  0.5201
 4804TIP3   OH214368   5.751   5.920   3.870  0.1745 -0.2083  0.1022
 4804TIP3    H114369   5.751   5.983   3.799  0.1591  1.3750  1.4722
 4804TIP3    H214370   5.663   5.883   3.870 -0.3073  0.9202  0.2774
 4805TIP3   OH214371   4.803   5.611   2.551 -0.2678  0.6463 -0.5914
 4805TIP3    H114372   4.850   5.695   2.552  1.2399 -0.1944  0.9552
 4805TIP3    H214373   4.762   5.607   2.637  0.4353 -0.6333 -0.3144
 4806TIP3   OH214374   6.955   6.747   2.023  0.3128 -0.0619 -0.0650
 4806TIP3    H114375   6.868   6.726   2.057 -0.2275  0.6427 -0.9781
 4806TIP3    H214376   6.987   6.817   2.080 -0.5393  1.0306 -0.9098
 4807TIP3   OH214377   7.011   4.070   1.608  0.6937  0.4735 -0.4658
 4807TIP3    H114378   6.968   4.078   1.524 -0.5322  1.1767  0.2152
 4807TIP3    H214379   7.012   3.976   1.626 -0.6484  0.4555 -0.4555
 4808TIP3   OH214380   6.465   5.235   3.418 -0.0890  0.2065  0.0453
 4808TIP3    H114381   6.449   5.278   3.334 -1.0377  0.3956  0.3221
 4808TIP3    H214382   6.499   5.149   3.394 -2.7029 -0.6894 -0.5822
 4809TIP3   OH214383   2.904   5.934   1.510 -0.5301  0.0943 -0.2828
 4809TIP3    H114384   2.949   6.003   1.559  0.4613 -0.1643 -0.8225
 4809TIP3    H214385   2.811   5.950   1.527 -0.3985  2.5601 -1.7376
 4810TIP3   OH214386   2.884   6.550   2.515  0.3202  0.2250 -0.1624
 4810TIP3    H114387   2.964   6.595   2.540 -0.7853  1.0007  2.1124
 4810TIP3    H214388   2.831   6.549   2.595 -1.1190 -2.0395 -1.0877
 4811TIP3   OH214389   4.822   5.860   4.215 -0.6996 -0.0990 -0.5299
 4811TIP3    H114390   4.780   5.877   4.300 -2.2246 -1.9359 -0.8768
 4811TIP3    H214391   4.750   5.832   4.159  0.3763  0.6788 -2.3237
 4812TIP3   OH214392   3.760   7.006   3.038 -0.3584 -0.5452 -0.1589
 4812TIP3    H114393   3.666   7.002   3.022 -0.4427 -0.0677  0.2045
 4812TIP3    H214394   3.772   7.084   3.092  0.0654 -1.4685  1.0811
 4813TIP3   OH214395   3.961   6.073   3.348 -0.1040 -0.0564  0.0364
 4813TIP3    H114396   4.052   6.049   3.365 -0.0382  0.4649  0.4637
 4813TIP3    H214397   3.938   6.131   3.421 -2.1380 -3.5264  2.2890
 4814TIP3   OH214398   3.784   5.203   2.616  0.8083  0.6887  0.2452
 4814TIP3    H114399   3.852   5.184   2.552  0.8182  2.2470 -0.2316
 4814TIP3    H214400   3.706   5.159   2.583  1.6456 -1.4042  0.9790
 4815TIP3   OH214401   4.604   6.692   2.100 -0.0092 -0.0751 -0.2908
 4815TIP3    H114402   4.516   6.703   2.064  0.7540 -0.8628 -2.4754
 4815TIP3    H214403   4.604   6.603   2.136  0.0967 -0.3128 -0.8796
 4816TIP3   OH214404   7.153   5.687   3.127 -0.2089  0.3545  0.1387
 4816TIP3    H114405   7.227   5.660   3.181 -0.4013  1.8038  1.1645
 4816TIP3    H214406   7.077   5.680   3.185 -0.8097 -0.6063 -0.7418
 4817TIP3   OH214407   3.471   4.234   2.796 -0.1802 -0.4378  0.3019
 4817TIP3    H114408   3.504   4.245   2.886  0.1354 -0.7463  0.2247
 4817TIP3    H214409   3.520   4.298   2.745 -0.4145 -0.2095  0.3626
 4818TIP3   OH214410   4.578   4.678   0.076  0.2779  0.4395  0.2692
 4818TIP3    H114411   4.555   4.616   0.144  0.3102  0.9804  0.7769
 4818TIP3    H214412   4.531   4.759   0.100  2.3305  1.4171  1.0532
 4819TIP3   OH214413   4.509   5.193   3.118  0.4067 -0.1928  0.0423
 4819TIP3    H114414   4.598   5.199   3.150  0.6330 -0.7493 -0.4771
 4819TIP3    H214415   4.463   5.142   3.185  0.6224 -0.4361  0.0037
 4820TIP3   OH214416   3.719   5.450   2.023 -0.1212 -0.1965  0.0346
 4820TIP3    H114417   3.729   5.454   2.118  2.5213  1.3065 -0.2457
 4820TIP3    H214418   3.778   5.380   1.995  0.8030  0.8447 -0.6692
 4821TIP3   OH214419   3.987   5.081   0.715 -0.4382 -0.3541 -0.0384
 4821TIP3    H114420   4.042   5.013   0.754  0.6765 -0.4893 -1.8045
 4821TIP3    H214421   3.997   5.156   0.773  1.2929 -0.5119 -0.1181
 4822TIP3   OH214422   4.682   5.906   0.481  0.5782 -0.2408  0.3311
 4822TIP3    H114423   4.735   5.855   0.419  1.3313  0.2673  0.5505
 4822TIP3    H214424   4.700   5.997   0.459  2.6013 -0.0070  2.7268
 4823TIP3   OH214425   7.308   7.296   1.533 -0.0564 -0.6183  0.3952
 4823TIP3    H114426   7.385   7.343   1.566 -0.4271  0.2202  0.0804
 4823TIP3    H214427   7.251   7.288   1.610  0.5443 -1.6746  0.7463
 4824TIP3   OH214428   3.441   1.281   5.907 -0.1195  0.3615 -0.3172
 4824TIP3    H114429   3.386   1.349   5.947 -0.4442 -0.8593  1.3525
 4824TIP3    H214430   3.388   1.245   5.837 -0.7474  0.4363  0.1180
 4825TIP3   OH214431   1.607   3.263   6.308  0.0446  0.2967 -0.3994
 4825TIP3    H114432   1.656   3.223   6.236 -2.1934 -0.7146 -1.3954
 4825TIP3    H214433   1.603   3.194   6.375 -1.4014 -0.2185 -0.9904
 4826TIP3   OH214434   3.967   4.558   0.780 -0.7217 -0.0111 -0.4642
 4826TIP3    H114435   3.883   4.515   0.768 -0.6651 -0.1703 -0.2930
 4826TIP3    H214436   3.965   4.591   0.869  0.2745 -1.9549  0.3020
 4827TIP3   OH214437   5.636   6.312   1.687 -0.2806 -0.6042 -0.3950
 4827TIP3    H114438   5.728   6.337   1.699 -0.2422 -0.5507 -0.7754
 4827TIP3    H214439   5.639   6.228   1.641 -0.4224 -0.3706 -0.8377
 4828TIP3   OH214440   5.967   5.901   1.489  0.2442  0.6464  0.1974
 4828TIP3    H114441   6.015   5.974   1.527 -0.2048  0.4228  1.2108
 4828TIP3    H214442   6.029   5.862   1.427  1.6703 -0.1034  2.0317
 4829TIP3   OH214443   3.391   6.807   1.273  0.0205  0.2854 -0.8810
 4829TIP3    H114444   3.337   6.837   1.346  0.2351 -0.0430 -0.5789
 4829TIP3    H214445   3.400   6.882   1.216  1.6055  1.1913  0.4877
 4830TIP3   OH214446   4.802   6.962   3.023 -0.1246 -0.0233  0.3285
 4830TIP3    H114447   4.724   6.989   3.072 -0.1099  0.7363 -0.0454
 4830TIP3    H214448   4.799   6.867   3.023 -0.6162 -0.0101  1.0196
 4831TIP3   OH214449   5.703   5.345   1.083 -0.4971 -0.2746  0.0951
 4831TIP3    H114450   5.693   5.435   1.050  0.6914 -0.5053 -0.9137
 4831TIP3    H214451   5.728   5.356   1.174  0.8798  0.4510 -0.3587
 4832TIP3   OH214452   3.608   6.457   0.746 -0.2631  0.3498  0.4036
 4832TIP3    H114453   3.591   6.518   0.817 -2.1478 -0.5438  0.7340
 4832TIP3    H214454   3.526   6.451   0.698  0.6580  0.0774 -1.1958
 4833TIP3   OH214455   3.467   7.503   1.043  0.4091  0.8912  0.1732
 4833TIP3    H114456   3.381   7.492   1.001  0.5786  0.7514 -0.1405
 4833TIP3    H214457   3.506   7.578   0.999  1.4710 -0.5544 -1.4179
 4834TIP3   OH214458   1.041   2.344   6.498  0.1739  0.0486  0.4023
 4834TIP3    H114459   0.989   2.425   6.500 -1.0747 -0.7034 -0.8542
 4834TIP3    H214460   0.996   2.285   6.557  1.2241  0.3260  1.5069
 4835TIP3   OH214461   6.080   6.121   2.022  0.6293 -0.2766 -0.4588
 4835TIP3    H114462   6.028   6.197   2.049 -1.4643 -0.9412 -2.5539
 4835TIP3    H214463   6.038   6.047   2.064  0.6163 -0.6834 -1.1855
 4836TIP3   OH214464   3.908   4.458   1.993  0.1581  0.3276  0.8650
 4836TIP3    H114465   3.895   4.467   2.088 -0.2475  0.7501  0.7695
 4836TIP3    H214466   3.828   4.493   1.955 -0.9232 -2.4650  0.4652
 4837TIP3   OH214467   4.487   5.446   0.409  0.2148  0.4190 -0.6630
 4837TIP3    H114468   4.557   5.466   0.471 -0.2849 -0.3706  0.1704
 4837TIP3    H214469   4.484   5.350   0.406 -1.9656  0.4089  0.6377
 4838TIP3   OH214470   6.074   0.608   4.640  0.4929  0.2004 -0.1470
 4838TIP3    H114471   6.029   0.538   4.687 -0.9789  0.2729 -1.4096
 4838TIP3    H214472   6.162   0.575   4.625  0.2535 -0.7651  0.5940
 4839TIP3   OH214473   3.806   7.184   2.390  0.5693 -0.1716  0.6246
 4839TIP3    H114474   3.776   7.100   2.424  0.8902 -0.6955 -0.3779
 4839TIP3    H214475   3.834   7.166   2.301 -0.9770  1.3484 -0.2019
 4840TIP3   OH214476   7.301   3.426   1.639 -0.4578  0.2984  0.0261
 4840TIP3    H114477   7.376   3.444   1.582 -0.5576 -0.8240 -0.4869
 4840TIP3    H214478   7.224   3.446   1.586 -0.5388  0.8602  0.3452
 4841TIP3   OH214479   8.205   0.171   2.310  0.0834 -0.2699 -0.3650
 4841TIP3    H114480   8.234   0.097   2.256  2.4824  1.0361 -0.9673
 4841TIP3    H214481   8.194   0.243   2.247 -0.3460  0.3832  0.4568
 4842TIP3   OH214482   4.382   5.053   3.331 -0.9757  0.0896 -0.2578
 4842TIP3    H114483   4.300   5.012   3.304 -1.5458  0.1929  1.2706
 4842TIP3    H214484   4.424   4.987   3.386 -0.0199  0.0277 -1.0640
 4843TIP3   OH214485   0.964   0.826   5.338 -0.2908  0.4477 -0.2956
 4843TIP3    H114486   0.935   0.755   5.282 -1.1573  0.8339 -0.3414
 4843TIP3    H214487   1.059   0.816   5.342 -0.4684 -1.1546  0.3083
 4844TIP3   OH214488   4.999   6.928   3.340  0.6626  0.1677 -0.4918
 4844TIP3    H114489   5.057   6.882   3.400  0.8702 -0.2186 -0.9934
 4844TIP3    H214490   5.018   6.892   3.254 -1.0080 -0.6589 -0.5371
 4845TIP3   OH214491   3.584   4.837   0.853  0.4491 -0.0363  0.2143
 4845TIP3    H114492   3.608   4.888   0.930  0.1636 -0.7273  0.7688
 4845TIP3    H214493   3.517   4.776   0.884  0.5032 -0.4804 -0.5190
 4846TIP3   OH214494   5.974   6.360   2.111  0.0432 -0.4983 -0.1822
 4846TIP3    H114495   5.981   6.450   2.078  1.6048  0.0825  1.6644
 4846TIP3    H214496   5.893   6.361   2.162  1.0616  0.3991  1.4349
 4847TIP3   OH214497   4.335   6.603   3.123  0.1971  0.0213  0.4626
 4847TIP3    H114498   4.367   6.615   3.033  2.4040  0.8275  1.3074
 4847TIP3    H214499   4.409   6.631   3.178 -1.1519 -0.3873  2.5253
 4848TIP3   OH214500   3.439   2.798   1.550  0.2352 -0.3393 -0.1423
 4848TIP3    H114501   3.491   2.878   1.549  1.2334 -0.9899 -0.9188
 4848TIP3    H214502   3.353   2.824   1.518  0.3533  0.5578  0.2645
 4849TIP3   OH214503   1.535   5.967   2.231 -0.4093  0.3414  0.5103
 4849TIP3    H114504   1.489   5.942   2.311  0.5051 -2.0844  0.3456
 4849TIP3    H214505   1.468   5.961   2.162 -0.5858 -0.1337  0.7224
 4850TIP3   OH214506   4.271   5.320   1.186  0.4372 -0.1700  0.1283
 4850TIP3    H114507   4.301   5.310   1.096  0.8327 -0.8232  0.3252
 4850TIP3    H214508   4.207   5.391   1.183 -0.1431 -0.7340 -0.8016
 4851TIP3   OH214509   4.546   5.976   1.857 -0.0120  0.9323 -0.5624
 4851TIP3    H114510   4.532   6.070   1.869  2.0932  1.0311  1.3777
 4851TIP3    H214511   4.641   5.966   1.850 -0.1112 -1.2000  0.6450
 4852TIP3   OH214512   7.951   7.760   6.587  0.6708 -0.4756 -0.1459
 4852TIP3    H114513   7.944   7.706   6.666 -0.1368 -0.7929 -0.4312
 4852TIP3    H214514   8.027   7.816   6.603  0.8355 -0.9159  0.6277
 4853TIP3   OH214515   3.417   7.102   4.254  0.5767  0.4141  0.3742
 4853TIP3    H114516   3.357   7.156   4.202  1.1304 -1.0904 -1.8641
 4853TIP3    H214517   3.472   7.166   4.300  0.7637  1.7988 -1.6787
 4854TIP3   OH214518   5.113   0.167   2.355  0.2471  0.1603 -0.3257
 4854TIP3    H114519   5.096   0.179   2.261 -0.0133 -0.4820 -0.3660
 4854TIP3    H214520   5.039   0.115   2.386 -0.5229  1.7534  0.5931
 4855TIP3   OH214521   6.240   5.741   3.617  0.3930  0.3153  0.2064
 4855TIP3    H114522   6.306   5.712   3.679  0.0205 -0.3039  0.3241
 4855TIP3    H214523   6.269   5.827   3.588 -0.6384  1.6828  3.0389
 4856TIP3   OH214524   0.213   1.252   2.969 -0.5130  0.4312 -0.2752
 4856TIP3    H114525   0.237   1.340   2.942  1.7842 -0.7502 -2.2963
 4856TIP3    H214526   0.297   1.209   2.987 -1.6839 -0.6770  2.9273
 4857TIP3   OH214527   3.663   5.059   1.930  0.1122  0.7911  0.5287
 4857TIP3    H114528   3.745   5.108   1.928  0.6024  0.2123  3.8800
 4857TIP3    H214529   3.676   4.987   1.869  0.7081  2.7362 -1.7171
 4858TIP3   OH214530   5.540   4.441   4.527 -0.5308 -0.1292 -0.1345
 4858TIP3    H114531   5.606   4.487   4.475  2.1046 -2.4668  1.0023
 4858TIP3    H214532   5.506   4.507   4.588  4.4483  0.0559  2.6959
 4859TIP3   OH214533   4.968   5.558   3.838 -0.3123 -0.0355 -0.1282
 4859TIP3    H114534   4.878   5.541   3.864 -0.7017  0.6845 -0.9608
 4859TIP3    H214535   5.019   5.489   3.879 -1.1043  0.2056  1.2635
 4860TIP3   OH214536   3.782   5.589   5.021 -0.4744  0.1355 -0.1308
 4860TIP3    H114537   3.791   5.494   5.011  0.1179  0.3863 -2.2884
 4860TIP3    H214538   3.846   5.613   5.088  0.8293 -0.7527 -1.0302
 4861TIP3   OH214539   5.985   6.391   3.529  0.3779  0.1900  0.0029
 4861TIP3    H114540   5.896   6.428   3.529  0.7144  1.0189 -0.3210
 4861TIP3    H214541   5.976   6.308   3.576 -0.7566 -0.2079 -0.8968
 4862TIP3   OH214542   5.848   7.614   5.004 -0.0942  0.1120  0.0171
 4862TIP3    H114543   5.825   7.645   4.917 -0.1849  0.3798  0.1350
 4862TIP3    H214544   5.882   7.525   4.990  0.6054  0.4428 -0.3713
 4863TIP3   OH214545   6.036   5.155   4.229  0.3318 -0.2812 -0.2472
 4863TIP3    H114546   6.070   5.232   4.183 -2.3022  0.4046 -1.1687
 4863TIP3    H214547   6.012   5.094   4.159 -0.4930 -0.6649  0.3642
 4864TIP3   OH214548   3.497   6.054   3.482 -0.1999 -0.1074 -0.1061
 4864TIP3    H114549   3.434   6.023   3.548  1.2230 -0.2375  1.2243
 4864TIP3    H214550   3.524   5.975   3.436  0.3774 -0.3114  0.5701
 4865TIP3   OH214551   5.182   5.204   2.774 -0.3765  0.2516 -0.1778
 4865TIP3    H114552   5.128   5.216   2.696  1.8861 -0.4647 -1.9164
 4865TIP3    H214553   5.191   5.291   2.811 -3.2065  0.2979  0.5122
 4866TIP3   OH214554   3.870   6.573   0.776  0.3209  0.0900  0.5870
 4866TIP3    H114555   3.954   6.528   0.780 -0.2419 -1.3062 -2.3566
 4866TIP3    H214556   3.806   6.505   0.797 -0.3329  0.1870 -1.0435
 4867TIP3   OH214557   4.059   6.437   2.223 -0.3123 -0.3765 -0.1905
 4867TIP3    H114558   4.109   6.482   2.293  1.0245 -1.5329 -0.3778
 4867TIP3    H214559   4.027   6.357   2.265 -1.8309  0.2535 -0.1442
 4868TIP3   OH214560   2.497   6.693   1.782  0.4886  0.3923  0.5816
 4868TIP3    H114561   2.534   6.685   1.694  1.1880 -2.0766  1.0652
 4868TIP3    H214562   2.420   6.749   1.771  1.0325  0.7618 -1.4554
 4869TIP3   OH214563   3.553   5.887   2.716  0.3289  0.5679  0.1535
 4869TIP3    H114564   3.493   5.815   2.696  0.7126 -0.1509  1.4956
 4869TIP3    H214565   3.517   5.926   2.796  0.5167  1.4056 -0.1733
 4870TIP3   OH214566   6.387   7.463   3.022 -0.1913 -0.1936 -0.0402
 4870TIP3    H114567   6.414   7.388   2.968  2.8632 -0.1634  1.3780
 4870TIP3    H214568   6.435   7.537   2.987 -0.9294  0.5410  0.4731
 4871TIP3   OH214569   5.585   6.911   2.205  0.4899  0.0555 -0.3937
 4871TIP3    H114570   5.502   6.958   2.212  0.7214  0.4300 -0.1250
 4871TIP3    H214571   5.629   6.927   2.289 -0.9586 -3.6052  1.1738
 4872TIP3   OH214572   4.715   4.713   4.296  0.1779  0.5804 -0.6007
 4872TIP3    H114573   4.768   4.706   4.375  2.2391 -0.3325 -2.0377
 4872TIP3    H214574   4.667   4.795   4.308  2.4924  1.8590  0.3967
 4873TIP3   OH214575   5.851   4.760   2.636 -0.8310 -0.4216  0.8716
 4873TIP3    H114576   5.810   4.713   2.563  1.6164 -0.6896 -0.4063
 4873TIP3    H214577   5.878   4.844   2.599  1.0985 -0.8534  1.2197
 4874TIP3   OH214578   4.698   6.343   1.088 -0.2274 -0.9180  0.0796
 4874TIP3    H114579   4.620   6.349   1.032 -0.0051 -1.2807 -0.2732
 4874TIP3    H214580   4.677   6.397   1.164 -0.2765  0.1461 -0.6652
 4875TIP3   OH214581   5.183   3.548   1.015  0.2065 -0.0934 -0.1586
 4875TIP3    H114582   5.236   3.583   1.086 -0.3905 -0.4357  0.4670
 4875TIP3    H214583   5.108   3.607   1.009 -1.6685 -2.1293  2.0226
 4876TIP3   OH214584   5.652   5.945   2.856 -0.3362  0.0268  0.2497
 4876TIP3    H114585   5.586   6.014   2.870 -0.7438 -0.7969  2.5358
 4876TIP3    H214586   5.622   5.872   2.909  1.8452 -0.7541  0.4520
 4877TIP3   OH214587   5.953   5.786   3.107 -0.0369 -0.1041 -0.1130
 4877TIP3    H114588   5.916   5.867   3.143 -2.2445  0.1659 -2.8434
 4877TIP3    H214589   5.894   5.717   3.137  0.7997 -0.4797  0.6846
 4878TIP3   OH214590   5.186   5.114   1.875 -1.0080  0.6423  0.2275
 4878TIP3    H114591   5.204   5.024   1.849 -1.3894  0.3063  1.1362
 4878TIP3    H214592   5.130   5.148   1.805 -0.9477  0.1489 -0.0654
 4879TIP3   OH214593   5.233   4.750   2.737  0.1682  0.4707  0.5000
 4879TIP3    H114594   5.219   4.685   2.806 -0.4161  0.6616  0.5616
 4879TIP3    H214595   5.186   4.715   2.661 -0.6500  1.0995  0.7037
 4880TIP3   OH214596   3.439   6.035   2.131 -0.2871 -0.1243  0.0276
 4880TIP3    H114597   3.396   6.062   2.212 -1.0444  0.2199 -0.4861
 4880TIP3    H214598   3.385   5.964   2.097  0.6616 -1.0474  0.4051
 4881TIP3   OH214599   5.704   7.558   2.838  0.4490  0.0889 -0.0179
 4881TIP3    H114600   5.642   7.485   2.835  0.6450 -0.0250 -3.0978
 4881TIP3    H214601   5.720   7.572   2.931 -1.3068 -2.3347  0.7049
 4882TIP3   OH214602   6.358   6.653   1.156 -0.0140 -0.5752  0.1348
 4882TIP3    H114603   6.450   6.681   1.149  0.1101 -0.6560  1.2946
 4882TIP3    H214604   6.343   6.599   1.079  1.3263 -1.6903  0.6320
 4883TIP3   OH214605   6.053   5.501   1.597  0.3800 -0.0458 -0.3189
 4883TIP3    H114606   6.077   5.416   1.635  0.8578  0.6610  0.9849
 4883TIP3    H214607   5.978   5.530   1.648  0.2445  0.3311 -0.7361
 4884TIP3   OH214608   6.123   3.781   1.984 -0.1385 -0.2759 -0.1892
 4884TIP3    H114609   6.161   3.693   1.974 -0.4850 -0.3753 -0.6829
 4884TIP3    H214610   6.116   3.814   1.895 -0.5529  0.0217 -0.0465
 4885TIP3   OH214611   4.790   3.042   0.711 -0.0205  0.4047  0.6831
 4885TIP3    H114612   4.884   3.022   0.712 -0.0480  0.2431  0.1677
 4885TIP3    H214613   4.777   3.098   0.788  0.5378  0.5976  0.6413
 4886TIP3   OH214614   4.449   7.008   1.550  0.4085 -1.0220  0.4806
 4886TIP3    H114615   4.416   6.927   1.590 -1.2118 -0.8223 -0.4067
 4886TIP3    H214616   4.505   7.046   1.618  0.0594 -2.1636  1.4508
 4887TIP3   OH214617   4.391   6.138   3.709  0.5149 -0.4041 -0.2343
 4887TIP3    H114618   4.382   6.068   3.644 -0.7098  0.5475 -1.0947
 4887TIP3    H214619   4.469   6.114   3.759  0.3036 -2.2203 -0.7313
 4888TIP3   OH214620   5.764   4.649   1.485  0.3514  0.4064 -0.1308
 4888TIP3    H114621   5.858   4.632   1.488  0.5562  1.3834 -0.7920
 4888TIP3    H214622   5.756   4.743   1.496 -0.6218  0.1975  0.9878
 4889TIP3   OH214623   7.113   6.489   2.934  0.3851  0.0153 -0.0645
 4889TIP3    H114624   7.047   6.422   2.953  0.9767 -0.4699  0.2749
 4889TIP3    H214625   7.130   6.530   3.018  0.5910  0.0782 -0.1373
 4890TIP3   OH214626   4.148   4.930   3.225 -0.0074 -0.1972 -0.4058
 4890TIP3    H114627   4.130   4.956   3.134  0.3385  0.7862 -0.1980
 4890TIP3    H214628   4.119   4.839   3.230  0.8005 -0.5482 -1.7591
 4891TIP3   OH214629   2.847   5.151   2.206  0.0763  0.0080 -0.0340
 4891TIP3    H114630   2.919   5.092   2.230  1.2734  0.5702 -2.1160
 4891TIP3    H214631   2.815   5.184   2.290  1.0620 -1.6404  1.0247
 4892TIP3   OH214632   6.969   6.386   1.517  0.1490 -0.1558 -0.0957
 4892TIP3    H114633   6.895   6.331   1.493 -1.1027  1.3835  0.1339
 4892TIP3    H214634   7.006   6.414   1.434  0.3088 -0.6905 -0.2087
 4893TIP3   OH214635   0.311   7.648   6.855 -0.3521 -0.1967 -0.0952
 4893TIP3    H114636   0.217   7.639   6.864 -0.1109 -0.6833  2.2505
 4893TIP3    H214637   0.339   7.690   6.936  1.4511 -0.0004 -0.7889
 4894TIP3   OH214638   5.763   1.957   1.005  0.3819 -0.0972 -0.4161
 4894TIP3    H114639   5.746   1.868   0.975  1.2343 -0.7765  1.0308
 4894TIP3    H214640   5.794   2.003   0.927  0.5547 -1.2450 -1.0438
 4895TIP3   OH214641  -0.014   0.314   1.485 -0.0655  0.5617 -0.2068
 4895TIP3    H114642  -0.026   0.234   1.537 -0.2782  1.3689  1.0132
 4895TIP3    H214643   0.054   0.362   1.532 -0.2347  1.2842 -0.7000
 4896TIP3   OH214644   5.533   6.536   4.218  0.1167 -0.1205 -0.2596
 4896TIP3    H114645   5.454   6.581   4.190 -0.3074 -0.3370  0.5689
 4896TIP3    H214646   5.599   6.606   4.225 -0.3976  0.2899  0.4980
 4897TIP3   OH214647   2.021   5.456   3.658  0.1878 -0.1368 -0.1079
 4897TIP3    H114648   1.931   5.475   3.633  0.4882 -1.0293 -1.9698
 4897TIP3    H214649   2.051   5.535   3.702 -1.2167  0.5155 -0.3063
 4898TIP3   OH214650   4.467   6.409   0.957  0.0417  0.0209  0.2286
 4898TIP3    H114651   4.464   6.501   0.982 -0.5042  0.0810 -0.0526
 4898TIP3    H214652   4.384   6.373   0.987  0.2830 -0.4002  0.4025
 4899TIP3   OH214653   3.507   6.452   1.443 -0.5682 -0.1685  0.4831
 4899TIP3    H114654   3.458   6.500   1.376  2.2276 -1.1241 -2.3680
 4899TIP3    H214655   3.584   6.507   1.460  0.0556 -1.1799  0.9661
 4900TIP3   OH214656   5.601   7.580   3.369 -0.1911  0.5941 -0.2184
 4900TIP3    H114657   5.688   7.584   3.407 -1.2609  2.2241  2.0959
 4900TIP3    H214658   5.575   7.488   3.378  0.5237  0.4936  0.8492
 4901TIP3   OH214659   7.131   5.078   2.239  0.0183 -0.0075  0.2162
 4901TIP3    H114660   7.077   5.069   2.318  0.2558 -1.5543  0.2112
 4901TIP3    H214661   7.073   5.119   2.175 -1.1707 -1.5829  0.2385
 4902TIP3   OH214662   3.313   7.867   1.587 -0.2062 -0.6002  0.5754
 4902TIP3    H114663   3.248   7.869   1.517  0.6561 -0.1870 -0.2449
 4902TIP3    H214664   3.318   7.776   1.613 -0.1308 -0.8591 -0.3135
 4903TIP3   OH214665   7.121   0.539   0.792  1.0590 -0.0695 -0.0172
 4903TIP3    H114666   7.094   0.604   0.727  1.7945  1.3170  1.0175
 4903TIP3    H214667   7.170   0.474   0.742  2.2079  1.3336 -0.7671
 4904TIP3   OH214668   4.612   7.496   1.391 -0.0057  0.0414 -0.2308
 4904TIP3    H114669   4.571   7.481   1.476  0.4775  0.7541  0.1434
 4904TIP3    H214670   4.543   7.479   1.327 -0.8644  1.1460  0.3810
 4905TIP3   OH214671   4.425   6.960   2.839 -0.0037  0.1936 -0.3989
 4905TIP3    H114672   4.465   7.000   2.917 -0.8524 -0.5722  0.4514
 4905TIP3    H214673   4.443   6.866   2.850 -1.1054 -0.0394 -0.5429
 4906TIP3   OH214674   5.342   5.547   0.017 -0.3696 -0.1534 -0.4492
 4906TIP3    H114675   5.367   5.621   0.072 -3.3307  0.9327 -0.4683
 4906TIP3    H214676   5.275   5.501   0.067  0.3467 -1.9464 -1.1089
 4907TIP3   OH214677   2.962   6.870   3.589  0.3453  0.7288  0.7551
 4907TIP3    H114678   3.020   6.804   3.553 -1.1698  0.1291 -0.6699
 4907TIP3    H214679   2.965   6.856   3.683  2.5921  0.8158  0.7289
 4908TIP3   OH214680   2.281   6.181   1.836 -0.2875 -0.2809 -0.0162
 4908TIP3    H114681   2.231   6.100   1.844 -0.5061 -0.3809 -2.2278
 4908TIP3    H214682   2.372   6.152   1.836 -0.3307 -0.4228  0.2899
 4909TIP3   OH214683   2.889   6.633   0.670  0.2873  0.8051 -0.4634
 4909TIP3    H114684   2.852   6.560   0.620  0.3258  1.5699 -1.6301
 4909TIP3    H214685   2.978   6.605   0.690 -0.1124 -0.0086  0.2271
 4910TIP3   OH214686   3.282   5.850   3.075  0.1628  0.2993  0.2682
 4910TIP3    H114687   3.319   5.938   3.082  0.1129  0.3444 -0.0486
 4910TIP3    H214688   3.340   5.804   3.016 -0.0325  0.2352  0.1279
 4911TIP3   OH214689   5.549   3.573   2.122  0.3243  0.0332 -0.0231
 4911TIP3    H114690   5.479   3.530   2.073 -0.4692  1.0273  0.2383
 4911TIP3    H214691   5.608   3.501   2.147 -0.5206 -0.7822 -0.3569
 4912TIP3   OH214692   6.834   7.344   1.760 -0.4064  0.4720 -0.2802
 4912TIP3    H114693   6.741   7.321   1.757 -0.2370 -0.1754 -0.7957
 4912TIP3    H214694   6.837   7.436   1.734 -0.6336 -0.3647 -3.5450
 4913TIP3   OH214695   3.542   3.981   2.210 -0.0282 -0.1411  0.0200
 4913TIP3    H114696   3.557   3.888   2.228 -0.5568 -0.6355 -1.9764
 4913TIP3    H214697   3.481   4.009   2.278  2.3977 -0.4836  2.4405
 4914TIP3   OH214698   3.564   2.115   0.931  0.0557 -0.4333  0.8832
 4914TIP3    H114699   3.601   2.191   0.885  0.6034  0.4144  2.6569
 4914TIP3    H214700   3.470   2.121   0.915 -0.0099  1.1480  1.6898
 4915TIP3   OH214701   5.276   2.444   1.214  0.1123 -0.0960 -0.4414
 4915TIP3    H114702   5.337   2.377   1.183 -0.3474 -0.1700 -1.1937
 4915TIP3    H214703   5.218   2.397   1.274 -0.3565 -0.4369 -1.1462
 4916TIP3   OH214704   3.675   6.079   1.728  0.1266 -0.1618 -0.6520
 4916TIP3    H114705   3.595   6.058   1.681  1.2525 -0.4095 -2.4940
 4916TIP3    H214706   3.715   6.150   1.678  1.7125 -0.9239 -0.5126
 4917TIP3   OH214707   4.485   5.657   2.594  0.1936  0.1895  0.3368
 4917TIP3    H114708   4.492   5.741   2.549  1.9113 -0.1870 -0.1367
 4917TIP3    H214709   4.523   5.673   2.681  0.0186  0.0393  0.4418
 4918TIP3   OH214710   7.615   0.226   1.403  0.0235 -0.7441  0.0324
 4918TIP3    H114711   7.604   0.252   1.494 -0.7877 -1.4090  0.1248
 4918TIP3    H214712   7.678   0.154   1.407  0.2099 -0.5837  0.0314
 4919TIP3   OH214713   4.421   5.756   1.601  0.2202 -0.2496  0.3232
 4919TIP3    H114714   4.432   5.726   1.691  0.7992 -0.5338  0.1645
 4919TIP3    H214715   4.487   5.707   1.551  1.0952  1.1768  0.0356
 4920TIP3   OH214716   2.185   4.186   1.457  0.2791 -0.3047 -0.4257
 4920TIP3    H114717   2.111   4.126   1.455 -2.1237  2.5702 -1.3456
 4920TIP3    H214718   2.240   4.160   1.383 -0.3695 -1.7293 -0.4166
 4921TIP3   OH214719   5.536   7.202   0.901  0.5750  0.0827  1.1737
 4921TIP3    H114720   5.455   7.152   0.897 -0.3435  1.5648  0.8922
 4921TIP3    H214721   5.508   7.292   0.920  2.2296  0.3854  2.3103
 4922TIP3   OH214722   6.617   4.476   2.001  0.2491  0.4848  0.4618
 4922TIP3    H114723   6.670   4.395   2.001  0.6866  0.7630 -0.0924
 4922TIP3    H214724   6.528   4.446   1.984  0.7216  0.2876 -1.9397
 4923TIP3   OH214725   4.981   5.221   3.052  0.3101  0.3531 -0.6201
 4923TIP3    H114726   5.061   5.262   3.020 -0.7060  1.9220 -1.2279
 4923TIP3    H214727   4.918   5.232   2.980 -0.9538  0.7093  0.5112
 4924TIP3   OH214728   6.337   4.384   2.010 -0.0314  0.5677 -0.1677
 4924TIP3    H114729   6.300   4.311   2.059 -1.1013  0.0506 -1.6941
 4924TIP3    H214730   6.329   4.459   2.069 -1.5465  0.0236  0.3494
 4925TIP3   OH214731   4.512   7.092   2.226 -0.4105 -0.6064 -0.3392
 4925TIP3    H114732   4.507   7.059   2.136 -1.0810 -2.9997  0.5349
 4925TIP3    H214733   4.565   7.028   2.272  0.8478  1.1800  0.7608
 4926TIP3   OH214734   6.463   5.071   3.133  0.5299  0.8232  0.4657
 4926TIP3    H114735   6.469   4.981   3.166  0.9317  1.4111  2.0177
 4926TIP3    H214736   6.545   5.084   3.085  0.8427  0.6315  0.9409
 4927TIP3   OH214737   7.859   0.971   1.465  0.0299 -0.2870 -0.4319
 4927TIP3    H114738   7.774   0.930   1.454 -0.2483  0.0044  0.5821
 4927TIP3    H214739   7.874   1.018   1.383 -0.4561 -0.9328 -0.8889
 4928TIP3   OH214740   0.259   4.467   1.222 -0.2267 -0.6219 -0.4527
 4928TIP3    H114741   0.301   4.466   1.135  0.7693 -0.4480  0.0188
 4928TIP3    H214742   0.332   4.469   1.283 -0.9399  1.3905  0.3640
 4929TIP3   OH214743   6.135   7.305   3.492 -0.3360 -0.1845  0.1764
 4929TIP3    H114744   6.064   7.274   3.549 -0.5093 -1.2933 -0.6324
 4929TIP3    H214745   6.212   7.258   3.522 -0.3436 -0.4610 -0.2456
 4930TIP3   OH214746   4.310   4.473   2.403  0.4680 -0.3088  0.0305
 4930TIP3    H114747   4.333   4.407   2.338 -0.3296 -1.1742  0.5999
 4930TIP3    H214748   4.249   4.532   2.358  0.8841 -0.1829 -0.3665
 4931TIP3   OH214749   4.520   1.728   2.690  0.1211  0.3992 -0.4289
 4931TIP3    H114750   4.442   1.680   2.718 -0.1167  1.2964  0.4907
 4931TIP3    H214751   4.566   1.747   2.772  1.7280 -0.8352 -1.0326
 4932TIP3   OH214752   5.512   5.593   3.283  0.7481  0.7032 -0.3206
 4932TIP3    H114753   5.427   5.632   3.300  0.6469  0.2585  0.2230
 4932TIP3    H214754   5.499   5.499   3.298  1.2516  0.5940 -0.5474
 4933TIP3   OH214755   5.218   2.282   6.776 -1.0541 -0.0258  0.2704
 4933TIP3    H114756   5.288   2.342   6.803 -1.0310  0.2332 -0.3441
 4933TIP3    H214757   5.144   2.303   6.833 -0.5022 -0.5839  1.2062
 4934TIP3   OH214758   5.641   4.119   0.762 -0.1527  0.7340  0.0925
 4934TIP3    H114759   5.630   4.040   0.815 -1.2851  1.4273  0.9155
 4934TIP3    H214760   5.711   4.168   0.806  0.6674  0.1159 -0.5151
 4935TIP3   OH214761   0.816   6.070   1.401 -0.0567  0.8386  0.1489
 4935TIP3    H114762   0.724   6.068   1.372 -0.2528  2.4060  0.5778
 4935TIP3    H214763   0.812   6.105   1.490  1.0912  2.8536 -0.5454
 4936TIP3   OH214764   7.547   4.942   2.894  0.1388 -0.5247 -0.1763
 4936TIP3    H114765   7.515   5.020   2.939 -0.7184 -0.2800 -1.1984
 4936TIP3    H214766   7.638   4.963   2.872 -0.2695  0.4345 -0.9890
 4937TIP3   OH214767   0.152   5.616   0.953  0.4663  0.5201  0.2834
 4937TIP3    H114768   0.068   5.582   0.922  1.7486 -1.1291 -1.4799
 4937TIP3    H214769   0.215   5.589   0.886  2.7094  0.2021  2.4759
 4938TIP3   OH214770   4.020   5.010   2.503 -0.3085 -0.0922 -0.5298
 4938TIP3    H114771   4.055   4.959   2.576 -0.6015  0.6743  0.1562
 4938TIP3    H214772   3.967   4.947   2.453  0.8317 -0.9013 -0.7497
 4939TIP3   OH214773   6.776   6.636   1.655  0.1079 -0.0713 -0.2121
 4939TIP3    H114774   6.837   6.652   1.583  1.3804 -1.1959  0.5718
 4939TIP3    H214775   6.693   6.613   1.613  0.1932  1.5510 -1.3000
 4940TIP3   OH214776   6.730   5.135   3.057 -0.6683  0.2075  0.6499
 4940TIP3    H114777   6.732   5.230   3.055  1.1796  0.1957  0.7170
 4940TIP3    H214778   6.820   5.109   3.079  0.1878 -1.6095 -4.1606
 4941TIP3   OH214779   5.748   7.106   2.000 -0.7445  0.1850 -0.0537
 4941TIP3    H114780   5.681   7.108   1.931 -0.2976 -2.5257 -0.6454
 4941TIP3    H214781   5.700   7.080   2.078 -0.8408  0.9510  0.1470
 4942TIP3   OH214782   7.523   5.028   4.197 -0.4038  0.3335 -0.2858
 4942TIP3    H114783   7.459   5.094   4.222 -1.3599 -0.1439 -1.4353
 4942TIP3    H214784   7.498   5.002   4.108  0.9866 -0.3332 -0.5039
 4943TIP3   OH214785   7.067   6.824   2.264 -0.1383 -0.2611  0.9097
 4943TIP3    H114786   7.044   6.746   2.314 -0.2039 -0.2101  0.9600
 4943TIP3    H214787   7.024   6.896   2.311  0.2585 -0.1447  1.0977
 4944TIP3   OH214788   6.082   7.142   2.213  0.5371 -0.4565 -0.1966
 4944TIP3    H114789   6.058   7.052   2.190 -1.2906 -0.1679  0.5283
 4944TIP3    H214790   6.155   7.132   2.274  0.4674 -1.4237 -0.2560
 4945TIP3   OH214791   4.788   4.868   2.607 -0.7112 -0.0095  0.6672
 4945TIP3    H114792   4.866   4.814   2.619  0.4589  1.6178  0.4197
 4945TIP3    H214793   4.739   4.824   2.537  1.7618  0.9392 -1.7221
 4946TIP3   OH214794   7.133   6.416   3.269  0.2413  0.7793  0.3338
 4946TIP3    H114795   7.123   6.503   3.308 -2.0168  0.3462  0.7704
 4946TIP3    H214796   7.055   6.368   3.296  1.8894 -1.7147  0.8771
 4947TIP3   OH214797   8.249   6.938   2.230 -0.3311  0.3442 -0.1326
 4947TIP3    H114798   8.176   6.998   2.245 -1.3232 -0.9102  0.1861
 4947TIP3    H214799   8.306   6.950   2.306 -1.1125  0.0590  0.5130
 4948TIP3   OH214800   7.848   6.354   0.005 -0.2693  0.4159  0.3770
 4948TIP3    H114801   7.774   6.353  -0.056 -0.6720 -0.1533  0.8721
 4948TIP3    H214802   7.837   6.437   0.053 -0.7699  0.1789  0.6741
 4949TIP3   OH214803   6.843   3.168   0.613  0.1679  0.1525  0.7332
 4949TIP3    H114804   6.880   3.224   0.681  0.9856 -0.6785  0.9874
 4949TIP3    H214805   6.757   3.143   0.647  0.0392  0.7849  0.8733
 4950TIP3   OH214806   5.236   5.659   0.485 -0.0153 -0.0438  0.0583
 4950TIP3    H114807   5.292   5.582   0.475  1.0703  0.6342  0.8783
 4950TIP3    H214808   5.163   5.628   0.540  0.0877 -0.6405 -0.1309
 4951TIP3   OH214809   5.269   5.158   1.537  0.1579  0.6789  0.0711
 4951TIP3    H114810   5.242   5.127   1.451  0.0289 -2.1844  1.1045
 4951TIP3    H214811   5.195   5.140   1.595  1.2442  0.0865  1.3175
 4952TIP3   OH214812   6.869   5.668   3.228 -0.2481 -0.5683 -0.5017
 4952TIP3    H114813   6.832   5.581   3.245 -0.6390 -0.5702 -1.3459
 4952TIP3    H214814   6.858   5.681   3.134  0.4480  0.1070 -0.4959
 4953TIP3   OH214815   5.619   6.583   3.541 -0.5894 -0.2300  0.7259
 4953TIP3    H114816   5.559   6.650   3.573  0.1230  0.4810  0.5803
 4953TIP3    H214817   5.636   6.607   3.450  0.2902 -0.1633  0.9057
 4954TIP3   OH214818   7.555   5.355   0.754  0.1977 -0.5512  0.0650
 4954TIP3    H114819   7.644   5.331   0.728  0.0759 -1.9875  0.9696
 4954TIP3    H214820   7.533   5.295   0.825 -1.3932 -0.0135  0.0489
 4955TIP3   OH214821   5.770   5.728   2.155 -0.0201 -0.0085  0.5235
 4955TIP3    H114822   5.745   5.759   2.068  0.8905  0.2885  0.3693
 4955TIP3    H214823   5.833   5.792   2.187 -0.3045 -0.1522  1.3827
 4956TIP3   OH214824   3.077   5.942   1.832  0.1731 -0.0808  0.0060
 4956TIP3    H114825   3.158   5.954   1.881  0.3629  0.1491 -0.3646
 4956TIP3    H214826   3.094   5.870   1.771  0.8511  1.4472 -1.6588
 4957TIP3   OH214827   4.061   5.682   2.454 -0.0338 -0.3809 -0.4784
 4957TIP3    H114828   3.968   5.688   2.432 -0.1469  0.1659  0.1379
 4957TIP3    H214829   4.068   5.602   2.506 -0.7123  1.1905  2.1419
 4958TIP3   OH214830   4.408   5.405   4.515  0.0382 -0.1653 -0.1224
 4958TIP3    H114831   4.319   5.434   4.493  0.5275 -0.0364 -1.9887
 4958TIP3    H214832   4.465   5.457   4.459  1.2450 -1.0371  0.2710
 4959TIP3   OH214833   4.987   6.979   4.752  0.4154  0.3020 -0.3294
 4959TIP3    H114834   5.007   7.064   4.790 -0.0544  0.5605 -0.6538
 4959TIP3    H214835   5.041   6.917   4.801 -0.3291  0.6050  0.8883
 4960TIP3   OH214836   5.299   2.806   6.547  0.4296  0.2092 -0.3219
 4960TIP3    H114837   5.275   2.735   6.607 -1.0412  0.3550 -0.7114
 4960TIP3    H214838   5.252   2.786   6.466 -0.1350  1.6927 -0.3873
 4961TIP3   OH214839   0.663   7.513   1.886 -0.1276  0.2762  0.4875
 4961TIP3    H114840   0.717   7.488   1.961 -0.1620 -0.6315  0.2091
 4961TIP3    H214841   0.648   7.607   1.898  1.9206  0.6455  0.3022
 4962TIP3   OH214842   7.372   4.725   1.042  0.1729  0.2124 -0.1041
 4962TIP3    H114843   7.419   4.642   1.056  1.3454  0.8195 -0.3364
 4962TIP3    H214844   7.346   4.753   1.129  4.6389  2.3653  0.6856
 4963TIP3   OH214845   6.456   2.968   6.370 -0.2504  0.2810 -0.2665
 4963TIP3    H114846   6.398   3.015   6.430  1.3541 -0.6769  2.1149
 4963TIP3    H214847   6.406   2.890   6.344 -0.2474 -0.3036  1.4028
 4964TIP3   OH214848   6.426   5.729   2.546 -0.3582  0.0170 -0.0694
 4964TIP3    H114849   6.447   5.731   2.639 -0.8415  0.8544  0.0320
 4964TIP3    H214850   6.346   5.677   2.540 -0.7024  0.5242  0.0696
 4965TIP3   OH214851   6.080   5.660   3.391  0.3978 -0.5113  0.1467
 4965TIP3    H114852   6.020   5.732   3.373 -0.1579 -0.9422  0.2608
 4965TIP3    H214853   6.137   5.692   3.460  0.8822  0.2231 -0.5807
 4966TIP3   OH214854   0.758   5.306   2.011 -0.0247  0.1368  0.0096
 4966TIP3    H114855   0.726   5.396   2.011 -0.2931  0.0409  1.4917
 4966TIP3    H214856   0.695   5.258   1.958 -2.3738 -0.0482  2.8605
 4967TIP3   OH214857   5.982   7.343   1.513 -0.6471 -0.3206  0.1597
 4967TIP3    H114858   6.000   7.394   1.435 -0.8189  0.4419  0.6077
 4967TIP3    H214859   6.065   7.302   1.535 -0.1404  0.9138  0.6031
 4968TIP3   OH214860   6.317   5.270   0.403  0.6085 -0.0938 -0.0846
 4968TIP3    H114861   6.366   5.214   0.343 -1.2093  1.2263 -2.9055
 4968TIP3    H214862   6.239   5.219   0.425 -0.1566  0.5705 -1.2102
 4969TIP3   OH214863   7.703   6.513   1.897  0.1190  0.1093  0.2989
 4969TIP3    H114864   7.794   6.504   1.928  0.1279 -0.3071  0.1673
 4969TIP3    H214865   7.656   6.553   1.970  0.5062  0.7433  0.2007
 4970TIP3   OH214866   0.551   7.566   1.210  0.6551  0.4253 -0.3083
 4970TIP3    H114867   0.511   7.479   1.210  1.5422  0.0126 -0.3293
 4970TIP3    H214868   0.517   7.608   1.289  0.2878  0.0333 -0.2564
 4971TIP3   OH214869   5.969   4.809   1.821 -0.7758 -0.0109  0.0646
 4971TIP3    H114870   5.987   4.875   1.754 -0.5844 -0.7395 -0.6084
 4971TIP3    H214871   6.047   4.754   1.823 -1.8269 -1.5838 -0.9815
 4972TIP3   OH214872   5.515   5.790   3.805  0.7719  0.1722 -0.2683
 4972TIP3    H114873   5.463   5.843   3.745 -0.0048  1.0092  1.1346
 4972TIP3    H214874   5.544   5.716   3.751 -0.5314  0.5140 -1.4848
 4973TIP3   OH214875   4.206   4.638   0.657 -0.0928  0.1737  0.1556
 4973TIP3    H114876   4.126   4.604   0.698  0.2756 -0.5761  0.2587
 4973TIP3    H214877   4.277   4.597   0.706  0.3744  2.1119  1.1550
 4974TIP3   OH214878   0.502   3.682   1.501  0.7543 -0.4959  1.0128
 4974TIP3    H114879   0.570   3.618   1.521  0.4513 -0.6522  1.5343
 4974TIP3    H214880   0.523   3.712   1.413 -1.0017 -3.6888 -0.5621
 4975TIP3   OH214881   6.688   0.623   5.443 -0.3408 -0.0347 -0.4277
 4975TIP3    H114882   6.743   0.597   5.369  0.1974 -0.3765  0.0902
 4975TIP3    H214883   6.708   0.716   5.457  1.3114 -0.5664  0.7940
 4976TIP3   OH214884   5.134   4.048   0.475  0.5795  0.0585 -0.1846
 4976TIP3    H114885   5.189   3.996   0.417 -0.1819 -1.2123  0.2052
 4976TIP3    H214886   5.158   4.018   0.563  0.3067  0.5363  0.0528
 4977TIP3   OH214887   8.052   5.073   0.270 -0.1933  0.0946  0.0130
 4977TIP3    H114888   8.028   5.061   0.362 -2.2663 -0.5812 -0.6039
 4977TIP3    H214889   8.012   5.156   0.246 -0.2766 -0.0924 -0.4895
 4978TIP3   OH214890   5.533   5.016   0.478 -0.0192 -0.0758 -0.6680
 4978TIP3    H114891   5.525   4.976   0.391 -0.7955 -0.5259 -0.3903
 4978TIP3    H214892   5.447   5.056   0.494 -0.0420 -0.4304  0.1108
 4979TIP3   OH214893   6.787   4.546   1.088 -0.1388  0.1863 -0.5657
 4979TIP3    H114894   6.704   4.526   1.045  0.3450 -0.1479 -1.3576
 4979TIP3    H214895   6.838   4.466   1.079  0.2241  0.3495  0.0353
 4980TIP3   OH214896   6.963   5.339   2.350  0.2238 -0.4511  0.1851
 4980TIP3    H114897   7.058   5.354   2.349  0.4033 -1.6048 -0.2829
 4980TIP3    H214898   6.941   5.316   2.260 -0.6862  0.9185  0.0594
 4981TIP3   OH214899   4.903   5.854   2.282  1.0414  0.0420 -0.0883
 4981TIP3    H114900   4.898   5.874   2.376 -2.6461 -0.5839 -0.0610
 4981TIP3    H214901   4.906   5.940   2.240 -0.6169  0.4503  0.5449
 4982TIP3   OH214902   7.184   4.372   1.201 -0.6361  0.4782 -0.0875
 4982TIP3    H114903   7.179   4.388   1.107 -0.9528 -0.8738 -0.3190
 4982TIP3    H214904   7.244   4.298   1.209 -1.1905  0.1072  0.7098
 4983TIP3   OH214905   5.388   0.718   5.857  0.0251  0.0427 -0.1229
 4983TIP3    H114906   5.341   0.639   5.884 -1.0169  0.6033 -0.3083
 4983TIP3    H214907   5.391   0.772   5.936 -0.2564  0.3186 -0.3053
 4984TIP3   OH214908   7.566   6.182   0.997 -0.0409 -0.3948  0.2312
 4984TIP3    H114909   7.551   6.241   1.071  0.5181  0.2188 -0.1397
 4984TIP3    H214910   7.597   6.239   0.927  2.1717 -1.3180  0.3923
 4985TIP3   OH214911   3.903   6.522   1.551 -0.1962  0.1015 -0.6863
 4985TIP3    H114912   3.948   6.529   1.635  0.7074 -0.5132 -1.1177
 4985TIP3    H214913   3.830   6.462   1.569 -0.0044 -0.0342 -0.3497
 4986TIP3   OH214914   5.623   6.992   3.190  0.6459 -0.1709  0.2233
 4986TIP3    H114915   5.638   7.075   3.144  0.3292  0.0363  0.4936
 4986TIP3    H214916   5.711   6.962   3.214  0.7591  0.1165  0.1745
 4987TIP3   OH214917   7.250   5.302   1.585  0.4087 -0.2086 -0.0919
 4987TIP3    H114918   7.311   5.353   1.637 -0.3564  2.2547 -1.5489
 4987TIP3    H214919   7.301   5.225   1.558  1.3204 -0.6703  2.7630
 4988TIP3   OH214920   8.327   7.836   1.876 -0.1507  0.3029  0.7677
 4988TIP3    H114921   8.270   7.864   1.947 -1.1703 -1.6202  0.7578
 4988TIP3    H214922   8.394   7.904   1.870 -2.0042  2.2130  1.2901
 4989TIP3   OH214923   4.067   1.940   6.282 -0.2337  0.1143  0.3641
 4989TIP3    H114924   4.071   1.902   6.369 -0.7246 -0.3159  0.1979
 4989TIP3    H214925   3.977   1.971   6.273 -0.5754 -1.1079 -0.5284
 4990TIP3   OH214926   5.954   5.299   2.238 -0.3766 -0.2736  0.0335
 4990TIP3    H114927   5.966   5.361   2.165  0.0700 -0.2013  0.1692
 4990TIP3    H214928   5.859   5.296   2.250 -0.3935  0.5708  0.1830
 4991TIP3   OH214929   6.844   3.264   1.842  0.1283 -0.8577 -0.0278
 4991TIP3    H114930   6.825   3.301   1.928 -0.6433 -0.5013 -0.3447
 4991TIP3    H214931   6.876   3.176   1.860 -2.4899 -1.7606  0.5305
 4992TIP3   OH214932   5.970   6.529   1.218 -0.0264 -0.0925 -0.0012
 4992TIP3    H114933   5.876   6.539   1.205  0.0735 -0.4718 -1.1050
 4992TIP3    H214934   6.003   6.504   1.132  1.0252 -0.3850  0.4821
 4993TIP3   OH214935   7.527   4.838   1.647 -0.3794  0.2534 -0.2467
 4993TIP3    H114936   7.440   4.803   1.630  0.0656 -1.5739  0.9920
 4993TIP3    H214937   7.551   4.801   1.733  1.2618  1.3934 -0.1964
 4994TIP3   OH214938   4.829   4.924   1.886 -0.0194 -0.2687  0.1719
 4994TIP3    H114939   4.791   4.837   1.900  1.3633 -1.1754 -1.4762
 4994TIP3    H214940   4.922   4.912   1.905 -0.2252  1.5052  2.4773
 4995TIP3   OH214941   7.676   4.676   2.637  0.3756  0.6095 -0.0508
 4995TIP3    H114942   7.622   4.620   2.582 -0.1965  0.3226  0.7943
 4995TIP3    H214943   7.720   4.616   2.697  0.6708  0.9543  0.0794
 4996TIP3   OH214944   7.297   7.525   3.763 -0.2786 -0.2619  0.6172
 4996TIP3    H114945   7.288   7.446   3.709 -1.0316 -0.6034  1.2259
 4996TIP3    H214946   7.300   7.596   3.699 -1.0182 -0.6725  0.1096
 4997TIP3   OH214947   4.337   5.843   0.178 -0.3527  0.0225  0.1301
 4997TIP3    H114948   4.341   5.897   0.257 -2.0919 -1.7808  1.5012
 4997TIP3    H214949   4.303   5.902   0.110  0.0285  1.2665  1.0074
 4998TIP3   OH214950   8.138   5.482   3.383  0.6249 -0.1267 -0.2501
 4998TIP3    H114951   8.143   5.575   3.362 -0.0088  0.4120  1.8821
 4998TIP3    H214952   8.066   5.449   3.328  0.4063  0.7813 -0.5125
 4999TIP3   OH214953   8.501   4.334   1.860 -0.3804  0.2213 -0.6012
 4999TIP3    H114954   8.571   4.389   1.825 -0.5102  0.5444 -0.3637
 4999TIP3    H214955   8.421   4.372   1.824 -0.2868 -1.6439 -2.8638
 5000TIP3   OH214956   5.404   4.878   1.554  0.3168  0.1061 -0.2454
 5000TIP3    H114957   5.444   4.956   1.593 -1.0718  0.6885  0.0357
 5000TIP3    H214958   5.397   4.816   1.626  3.3228 -1.0893 -0.8980
 5001TIP3   OH214959   0.063   7.938   6.821  0.4202 -0.2579 -0.2433
 5001TIP3    H114960   0.097   7.989   6.895 -1.7003  1.5237 -0.4314
 5001TIP3    H214961   0.118   7.964   6.747  0.8776 -0.0415  0.1692
 5002TIP3   OH214962   2.663   1.274   6.661 -0.2917  0.1578 -0.5435
 5002TIP3    H114963   2.640   1.184   6.684  0.2337  0.0577 -0.3911
 5002TIP3    H214964   2.752   1.267   6.627 -0.4843  0.5339 -1.1208
 5003TIP3   OH214965   6.815   6.218   1.353 -0.1456  0.0513  0.6754
 5003TIP3    H114966   6.723   6.227   1.326 -1.3062 -1.0876  4.0581
 5003TIP3    H214967   6.828   6.124   1.365  1.7210  0.1294 -0.4891
 5004TIP3   OH214968   0.008   4.326   2.488  0.0691  0.2708 -0.0780
 5004TIP3    H114969   0.094   4.303   2.453  0.3833  0.8625  0.2959
 5004TIP3    H214970  -0.023   4.247   2.531  0.9137  0.3822  0.7428
 5005TIP3   OH214971   6.833   5.616   0.188 -0.0252  0.2209 -0.3437
 5005TIP3    H114972   6.899   5.619   0.119  0.9933 -1.0709  0.5405
 5005TIP3    H214973   6.873   5.664   0.261 -0.2756 -0.1444  0.0327
 5006TIP3   OH214974   0.913   4.416   2.297  0.5481 -0.0296 -0.0105
 5006TIP3    H114975   0.874   4.496   2.263  0.8396 -0.1639 -0.6690
 5006TIP3    H214976   0.853   4.386   2.365 -0.2663  0.0020 -0.7173
 5007TIP3   OH214977   4.523   5.423   1.685 -0.4402 -0.6927  0.2069
 5007TIP3    H114978   4.593   5.487   1.670 -1.5866  0.7856  1.0115
 5007TIP3    H214979   4.556   5.367   1.756 -0.5831  0.8133  1.4831
 5008TIP3   OH214980   0.859   6.989   1.448  0.0379  0.2773 -0.5006
 5008TIP3    H114981   0.831   6.906   1.409  0.1886  0.5406 -1.1713
 5008TIP3    H214982   0.952   6.995   1.426  0.1396  0.4014 -0.0486
 5009TIP3   OH214983   6.551   6.299   1.250 -0.1593  0.1908 -0.2467
 5009TIP3    H114984   6.592   6.352   1.182 -2.2418  0.7874 -1.0725
 5009TIP3    H214985   6.535   6.214   1.208 -0.5803  0.2486 -0.2022
 5010TIP3   OH214986   1.112   7.705   1.158 -0.0849 -0.1130  0.3801
 5010TIP3    H114987   1.159   7.652   1.093  1.2477  1.6457 -0.1322
 5010TIP3    H214988   1.156   7.687   1.241  0.9852  0.8873  0.0441
 5011TIP3   OH214989   7.392   6.842   0.322 -0.1989 -0.4709 -0.4816
 5011TIP3    H114990   7.426   6.806   0.403  0.9928 -1.1517 -1.2663
 5011TIP3    H214991   7.310   6.794   0.306  0.2184 -1.2197 -0.3472
 5012TIP3   OH214992   7.399   5.554   1.748  0.2907 -0.2050 -0.3093
 5012TIP3    H114993   7.305   5.572   1.751 -0.2994 -2.7592 -1.8687
 5012TIP3    H214994   7.431   5.603   1.673  0.1140  0.2488 -0.0900
 5013TIP3   OH214995   6.111   6.342   0.937 -0.1019 -0.1948 -0.6939
 5013TIP3    H114996   6.079   6.264   0.982  0.4173 -0.7899 -1.3443
 5013TIP3    H214997   6.189   6.368   0.985 -0.6369  0.3091 -0.0860
 5014TIP3   OH214998   5.522   5.109   3.134  0.2376 -0.6270 -0.3509
 5014TIP3    H114999   5.534   5.105   3.039 -0.5194 -3.7338 -0.3563
 5014TIP3    H215000   5.592   5.054   3.170 -2.0467 -3.0404  0.6029
 5015TIP3   OH215001   6.254   7.450   2.686  0.0184 -0.0999  0.1325
 5015TIP3    H115002   6.338   7.493   2.696  0.1953 -0.0308 -1.5997
 5015TIP3    H215003   6.197   7.493   2.751  0.5238  1.8755 -0.7052
 5016TIP3   OH215004   7.904   3.283   0.972 -0.3909  0.0300  0.0347
 5016TIP3    H115005   7.877   3.362   0.924  0.8094  0.2004 -0.3648
 5016TIP3    H215006   7.992   3.303   1.005 -0.1397 -1.0818  0.0683
 5017TIP3   OH215007   6.563   4.715   1.143  0.0180 -0.1164 -0.0573
 5017TIP3    H115008   6.502   4.672   1.203  1.4078 -1.6762  0.2607
 5017TIP3    H215009   6.640   4.659   1.143  1.5864  1.9935 -0.2077
 5018TIP3   OH215010   4.330   5.486   2.739 -0.2542 -0.1535 -0.1397
 5018TIP3    H115011   4.270   5.536   2.792  1.4520  1.8058  0.0004
 5018TIP3    H215012   4.386   5.551   2.696  2.1127 -1.8834  0.1622
 5019TIP3   OH215013   4.468   4.193   2.014  0.4809 -0.1865  0.1947
 5019TIP3    H115014   4.426   4.112   2.043  1.7413 -1.4142 -1.2887
 5019TIP3    H215015   4.416   4.221   1.938  1.3554 -0.8357 -0.6575
 5020TIP3   OH215016   5.934   7.218   3.676  0.7383 -0.1758  0.6538
 5020TIP3    H115017   6.020   7.208   3.716  0.9238  0.7365  0.4944
 5020TIP3    H215018   5.876   7.163   3.728  2.0680 -3.6223 -1.3620
 5021TIP3   OH215019   0.388   5.446   2.018 -0.3972 -0.6314  0.0012
 5021TIP3    H115020   0.442   5.510   2.065  1.0009 -0.4530 -1.8022
 5021TIP3    H215021   0.322   5.500   1.973 -1.9478 -0.8270  1.9553
 5022TIP3   OH215022   7.991   5.989   0.903 -0.3057 -0.1536 -0.1241
 5022TIP3    H115023   8.007   5.931   0.978 -0.2539 -1.2382 -0.9606
 5022TIP3    H215024   8.077   6.000   0.863 -0.0495  1.7234  0.8816
 5023TIP3   OH215025   4.403   6.464   2.782 -0.3084 -0.3929 -0.0367
 5023TIP3    H115026   4.457   6.386   2.771  0.7169  0.8805 -5.4223
 5023TIP3    H215027   4.314   6.435   2.759 -0.3845 -0.5321  0.4276
 5024TIP3   OH215028   5.667   5.035   4.449 -0.0140 -0.1543  0.5457
 5024TIP3    H115029   5.652   4.942   4.432 -0.5063  0.0654 -0.2335
 5024TIP3    H215030   5.626   5.080   4.375  2.4255  0.5863 -0.3908
 5025TIP3   OH215031   5.374   3.962   6.085  0.0299  0.0960  0.5529
 5025TIP3    H115032   5.343   3.915   6.163  2.6899 -1.9773  0.4397
 5025TIP3    H215033   5.466   3.936   6.076  0.1966  1.4832 -2.4311
 5026TIP3   OH215034   0.222   5.245   2.381  0.4791  0.2124 -0.0588
 5026TIP3    H115035   0.279   5.297   2.325  0.9191  1.1689  1.2709
 5026TIP3    H215036   0.281   5.208   2.447 -0.0607 -0.7771 -0.1236
 5027TIP3   OH215037   6.006   5.903   2.182 -0.2168 -0.1918 -0.3661
 5027TIP3    H115038   6.092   5.863   2.195  0.9393  1.6226 -2.0744
 5027TIP3    H215039   5.985   5.945   2.265  0.9298  0.0428 -0.1909
 5028TIP3   OH215040   6.444   5.707   3.396 -0.3611  0.8334 -0.0409
 5028TIP3    H115041   6.427   5.800   3.412 -1.2471  0.6315  0.1825
 5028TIP3    H215042   6.391   5.661   3.461 -0.7479  0.1391 -0.8356
 5029TIP3   OH215043   6.601   4.480   3.515 -0.5486  0.5421  0.3033
 5029TIP3    H115044   6.639   4.440   3.593 -2.8961 -2.1289  0.1421
 5029TIP3    H215045   6.661   4.455   3.444 -0.8709 -0.9492  0.5430
 5030TIP3   OH215046   5.512   5.867   0.657  0.2391  0.2802 -0.3170
 5030TIP3    H115047   5.530   5.773   0.650 -1.5062 -0.1147  0.2269
 5030TIP3    H215048   5.506   5.883   0.751  3.5577  1.5584 -0.2882
 5031TIP3   OH215049   8.148   0.805   2.580  0.2397  0.1258 -0.6036
 5031TIP3    H115050   8.201   0.883   2.597 -0.4228  0.5223 -0.3386
 5031TIP3    H215051   8.135   0.805   2.485 -0.5775  0.8920 -0.5091
 5032TIP3   OH215052   4.644   5.530   4.370  0.4868  0.7331 -0.0329
 5032TIP3    H115053   4.716   5.501   4.426  1.3135  2.0449 -0.4132
 5032TIP3    H215054   4.686   5.573   4.296 -0.6895  2.3592  0.2064
 5033TIP3   OH215055   8.347   6.313   3.331 -0.2289  0.8231  0.1061
 5033TIP3    H115056   8.351   6.259   3.410 -0.8049  1.1419  0.3567
 5033TIP3    H215057   8.432   6.357   3.328  0.2962 -0.2182 -0.1825
 5034TIP3   OH215058  -0.004   7.067   2.719  0.3480  0.1842 -0.0439
 5034TIP3    H115059   0.052   7.144   2.718  0.8347 -0.1187  1.4451
 5034TIP3    H215060   0.052   6.997   2.752  0.0248 -0.9019 -1.7534
 5035TIP3   OH215061   7.572   6.133   0.385 -0.0552 -0.5673 -0.4179
 5035TIP3    H115062   7.590   6.064   0.321 -0.2326  0.9454 -2.1540
 5035TIP3    H215063   7.634   6.117   0.456 -0.5747 -2.9106 -0.4583
 5036TIP3   OH215064   5.888   6.136   0.538  0.7333 -0.7075 -0.2147
 5036TIP3    H115065   5.942   6.115   0.462  2.3348 -1.3807  1.0647
 5036TIP3    H215066   5.940   6.200   0.587 -1.1443  1.2374 -0.6508
 5037TIP3   OH215067   4.647   3.999   1.098  0.1691 -0.5802 -0.4774
 5037TIP3    H115068   4.661   4.093   1.099  0.9485 -0.6520 -2.2199
 5037TIP3    H215069   4.657   3.972   1.189  0.0540  0.9896  0.0185
 5038TIP3   OH215070   5.771   7.459   1.646  0.2118 -0.6236  0.2425
 5038TIP3    H115071   5.788   7.379   1.697  1.3426 -1.4424 -1.3599
 5038TIP3    H215072   5.847   7.466   1.588 -0.6068  0.8056 -0.6676
 5039TIP3   OH215073   6.395   5.296   0.727  0.6032  0.2539 -0.5288
 5039TIP3    H115074   6.341   5.353   0.674 -1.8565  0.4625  2.0744
 5039TIP3    H215075   6.467   5.351   0.758 -1.0666  1.6559  0.9373
 5040TIP3   OH215076   7.450   5.186   2.174 -0.3499 -0.0792 -0.6098
 5040TIP3    H115077   7.414   5.187   2.263 -0.4040  2.4474 -0.6229
 5040TIP3    H215078   7.380   5.150   2.120 -0.9518 -0.0510  0.1475
 5041TIP3   OH215079   7.755   6.879   1.297 -0.5403 -0.2549 -0.2488
 5041TIP3    H115080   7.795   6.857   1.381 -2.0636 -1.0384  0.3061
 5041TIP3    H215081   7.790   6.965   1.276  2.3301 -1.4077 -0.4029
 5042TIP3   OH215082   0.254   6.877   1.009 -0.2027 -0.1894 -0.1352
 5042TIP3    H115083   0.236   6.811   0.942  1.3599  0.4860 -1.2593
 5042TIP3    H215084   0.346   6.863   1.031 -0.3437  0.4841  0.9041
 5043TIP3   OH215085   7.969   6.559   2.630 -0.3908 -0.4975  0.1136
 5043TIP3    H115086   7.987   6.579   2.722 -0.2704 -0.4686  0.0828
 5043TIP3    H215087   7.947   6.644   2.590  0.2766 -0.4020 -0.0540
 5044TIP3   OH215088   5.210   4.571   2.954  0.1861  0.6203 -0.2659
 5044TIP3    H115089   5.137   4.550   3.012  1.4192 -0.2483  1.0151
 5044TIP3    H215090   5.274   4.613   3.011  1.8978 -1.2899 -0.7061
 5045TIP3   OH215091   8.440   6.146   2.113 -0.2877 -0.1569  0.0089
 5045TIP3    H115092   8.505   6.082   2.084 -0.4974 -0.8656  1.0650
 5045TIP3    H215093   8.366   6.093   2.142 -0.2612  0.5339  1.3969
 5046TIP3   OH215094   5.226   7.454   2.190 -0.3198  0.3498  0.6154
 5046TIP3    H115095   5.196   7.500   2.112 -0.0763 -0.4090  0.0678
 5046TIP3    H215096   5.301   7.403   2.160  0.7801  1.2855  1.6958
 5047TIP3   OH215097   5.713   3.172   6.503  0.2058 -0.3185  0.4585
 5047TIP3    H115098   5.648   3.157   6.434  1.5427 -0.0529 -0.8803
 5047TIP3    H215099   5.683   3.119   6.577 -1.1782 -0.6939 -0.3647
 5048TIP3   OH215100   6.587   6.385   1.575 -0.2095 -0.0900  0.6586
 5048TIP3    H115101   6.610   6.408   1.485 -0.1799  1.1780  0.9803
 5048TIP3    H215102   6.513   6.442   1.596 -1.2660 -1.5400  0.8910
 5049TIP3   OH215103   6.609   6.364   2.932  0.0670  0.5015 -0.1685
 5049TIP3    H115104   6.592   6.276   2.898 -0.3909  0.6405 -0.3090
 5049TIP3    H215105   6.522   6.399   2.950  0.2743  0.7047  0.4517
 5050TIP3   OH215106   6.299   6.998   1.374  0.0309  0.5734 -0.1180
 5050TIP3    H115107   6.379   6.985   1.424  0.0713  0.0538 -0.3056
 5050TIP3    H215108   6.245   7.055   1.428  0.0152 -0.1019  0.5926
 5051TIP3   OH215109   5.483   0.767   6.402  0.0080  0.0440 -0.5569
 5051TIP3    H115110   5.559   0.801   6.355  1.5121 -2.7171 -0.2297
 5051TIP3    H215111   5.478   0.821   6.481  2.5215 -0.6760  0.1294
 5052TIP3   OH215112   7.799   6.878   3.131  0.2466 -1.1085 -0.3060
 5052TIP3    H115113   7.753   6.873   3.047  1.5044 -0.2495 -1.0625
 5052TIP3    H215114   7.794   6.789   3.167  0.2718 -1.6494 -1.6043
 5053TIP3   OH215115   3.959   0.158   1.488  0.6878  0.4421 -0.1449
 5053TIP3    H115116   4.007   0.155   1.405  1.7133  0.9696  0.4136
 5053TIP3    H215117   3.867   0.167   1.463  0.8690 -0.5885 -1.2339
 5054TIP3   OH215118   7.277   5.047   0.815  0.3212  0.1872 -0.2748
 5054TIP3    H115119   7.306   5.130   0.853  0.5755 -0.0164 -0.0248
 5054TIP3    H215120   7.358   5.000   0.794  0.1696 -0.7088  1.1450
 5055TIP3   OH215121   5.171   6.328   1.430  0.0467  0.5478 -0.2219
 5055TIP3    H115122   5.250   6.339   1.483  1.2023 -0.3209 -1.7348
 5055TIP3    H215123   5.136   6.416   1.419  0.0460  0.7885  1.5936
 5056TIP3   OH215124   4.102   5.946   0.754  0.3954  0.1789 -0.1915
 5056TIP3    H115125   4.034   5.938   0.820  0.3265 -1.4146 -0.4193
 5056TIP3    H215126   4.109   6.040   0.737  0.5864  0.6323  2.2444
 5057TIP3   OH215127   5.052   4.256   0.284 -0.5969 -0.5134 -0.1374
 5057TIP3    H115128   4.979   4.310   0.311 -1.2319 -1.0441 -0.7619
 5057TIP3    H215129   5.049   4.180   0.343  0.5960  0.3543  1.0687
 5058TIP3   OH215130   6.214   3.312   1.491 -0.7834  0.1120  0.2689
 5058TIP3    H115131   6.196   3.336   1.582 -0.8723  0.3890  0.1796
 5058TIP3    H215132   6.131   3.278   1.458 -1.0127  0.8907  0.0153
 5059TIP3   OH215133   7.085   1.777   0.821  0.6199 -0.2025 -0.1927
 5059TIP3    H115134   7.039   1.704   0.862 -1.0870  0.4705 -0.8778
 5059TIP3    H215135   7.131   1.819   0.894 -2.5095  1.0725  1.1529
 5060TIP3   OH215136   6.430   4.394   4.093 -0.1347  0.0788 -0.1622
 5060TIP3    H115137   6.461   4.475   4.134  0.7741 -0.8051  0.9210
 5060TIP3    H215138   6.347   4.376   4.135  0.8966 -0.9401  1.4730
 5061TIP3   OH215139   6.771   4.540   1.457  0.0910  0.3654 -0.4296
 5061TIP3    H115140   6.822   4.459   1.459 -0.9977 -0.3485 -0.9883
 5061TIP3    H215141   6.836   4.609   1.442  0.9632 -0.4593 -0.4915
 5062TIP3   OH215142   0.706   6.937   2.702 -0.1475 -0.0093 -0.2950
 5062TIP3    H115143   0.661   7.021   2.688  0.8134  0.3923 -1.0940
 5062TIP3    H215144   0.709   6.898   2.615  0.8233 -0.1423 -0.2027
 5063TIP3   OH215145   7.707   7.161   3.400 -0.7301 -0.5387  0.0307
 5063TIP3    H115146   7.719   7.251   3.430  0.1142 -0.2770 -1.0524
 5063TIP3    H215147   7.627   7.163   3.347 -0.9839 -0.5340  0.4130
 5064TIP3   OH215148   6.493   5.653   0.900 -0.2949 -0.0144 -0.5541
 5064TIP3    H115149   6.410   5.610   0.920 -1.1974  1.1062 -1.8284
 5064TIP3    H215150   6.550   5.582   0.872 -1.1417 -0.6543 -0.6663
 5065TIP3   OH215151   7.407   7.117   0.582  0.5899  0.0078  0.2029
 5065TIP3    H115152   7.416   7.171   0.660 -0.0218 -0.4654  0.6080
 5065TIP3    H215153   7.482   7.141   0.527  0.1990  1.4427  0.2652
 5066TIP3   OH215154   0.108   7.847   3.789 -0.1356  0.5871  0.4966
 5066TIP3    H115155   0.087   7.882   3.876  2.3304 -0.1667  1.4621
 5066TIP3    H215156   0.171   7.777   3.807  0.3862  0.4046 -1.9192
 5067TIP3   OH215157   0.885   7.788   2.277  0.0292 -0.2005  0.1401
 5067TIP3    H115158   0.890   7.784   2.372 -0.4639  0.2200  0.1810
 5067TIP3    H215159   0.948   7.856   2.252  2.3662 -2.3521 -0.0352
 5068TIP3   OH215160   3.164   0.540   1.766  0.5641 -0.1122  0.2489
 5068TIP3    H115161   3.119   0.499   1.692  0.8967 -1.2353  0.6558
 5068TIP3    H215162   3.242   0.486   1.779  0.3916 -0.0605  1.5565
 5069TIP3   OH215163   6.031   6.862   2.186 -0.4493  0.3890  0.3081
 5069TIP3    H115164   5.980   6.858   2.105 -0.2157  1.4852  0.0997
 5069TIP3    H215165   6.122   6.862   2.156 -0.2833 -2.2789  0.7015
 5070TIP3   OH215166   7.551   6.235   2.394 -0.2686  0.2045 -0.4210
 5070TIP3    H115167   7.633   6.202   2.430  0.8494  1.6387 -1.5942
 5070TIP3    H215168   7.494   6.158   2.389  0.1416 -0.3382  2.6934
 5071TIP3   OH215169   7.961   6.345   2.456 -0.3717  0.2141  0.0519
 5071TIP3    H115170   7.993   6.391   2.378  0.9966 -0.2243  0.3555
 5071TIP3    H215171   7.964   6.411   2.525 -1.7953  0.6673 -0.2959
 5072TIP3   OH215172   1.390   7.423   5.474  0.1445 -0.1617  1.1447
 5072TIP3    H115173   1.468   7.374   5.446 -0.8547 -1.0727 -0.1099
 5072TIP3    H215174   1.336   7.358   5.519 -1.6394 -0.4972 -1.3963
 5073TIP3   OH215175   7.162   7.740   4.988  0.3980 -0.1551 -0.1390
 5073TIP3    H115176   7.117   7.806   5.040  0.6904 -0.4991  0.5522
 5073TIP3    H215177   7.095   7.673   4.973  0.7277 -0.7670  1.0685
 5074TIP3   OH215178   7.053   5.834   3.845  0.6877 -0.2770  0.4076
 5074TIP3    H115179   6.987   5.848   3.913 -0.0414 -0.2727 -0.2950
 5074TIP3    H215180   7.132   5.875   3.879  0.4373 -0.6203  1.4327
 5075TIP3   OH215181   7.671   6.697   3.442 -0.1241  0.2250 -0.2274
 5075TIP3    H115182   7.613   6.769   3.421 -1.9060 -1.0873  0.0716
 5075TIP3    H215183   7.695   6.660   3.357 -1.6172 -0.6713 -0.2736
 5076TIP3   OH215184   0.073   7.133   4.533  0.5396 -0.3864 -0.0188
 5076TIP3    H115185   0.163   7.103   4.526  0.8939  0.7458 -0.5133
 5076TIP3    H215186   0.058   7.143   4.627 -0.1898 -3.7872  0.3041
 5077TIP3   OH215187   5.927   6.042   3.231  0.3748  0.2599 -0.2609
 5077TIP3    H115188   5.856   6.101   3.254 -1.7677 -1.2862 -2.6657
 5077TIP3    H215189   5.966   6.081   3.153  1.4943  0.5343  0.4259
 5078TIP3   OH215190   4.991   0.524   2.164 -0.8966 -0.0201 -0.4116
 5078TIP3    H115191   4.929   0.525   2.091 -2.5265  2.1360  0.9286
 5078TIP3    H215192   4.949   0.577   2.232  0.3680 -2.3227  2.2735
 5079TIP3   OH215193   5.932   1.840   6.429 -0.1044  0.6500 -0.1029
 5079TIP3    H115194   6.003   1.793   6.473 -1.1858 -0.4445  0.4837
 5079TIP3    H215195   5.975   1.917   6.392  1.4787 -0.2119 -0.1275
 5080TIP3   OH215196   2.398   0.272   3.455 -0.1381  0.7598  0.0382
 5080TIP3    H115197   2.467   0.328   3.492 -1.1238  2.4333 -0.6043
 5080TIP3    H215198   2.343   0.248   3.529 -0.6550  2.0245  0.0829
 5081TIP3   OH215199   8.353   6.682   0.685  0.3641 -0.0868  0.9829
 5081TIP3    H115200   8.286   6.667   0.752 -0.2936 -0.5809  0.2163
 5081TIP3    H215201   8.389   6.768   0.707 -0.4575  0.1450  1.4560
 5082TIP3   OH215202   4.045   0.394   1.229  0.0667 -0.0491 -0.1138
 5082TIP3    H115203   3.989   0.424   1.157  1.0613  1.7706 -0.1764
 5082TIP3    H215204   4.002   0.429   1.308 -0.3010 -0.9028  0.0670
 5083TIP3   OH215205   3.791   0.092   4.009  0.5276 -0.2867  0.3014
 5083TIP3    H115206   3.746   0.127   4.086  2.6226  1.3524  0.8278
 5083TIP3    H215207   3.871   0.053   4.044  1.1996 -0.0612 -0.9749
 5084TIP3   OH215208   0.197   5.608   1.896  0.5002 -0.0574 -0.3268
 5084TIP3    H115209   0.130   5.566   1.842  0.2480  0.7317 -0.6452
 5084TIP3    H215210   0.186   5.702   1.878  0.8829  0.1626  0.5475
 5085TIP3   OH215211   1.290   7.796   5.118  0.1349  0.6854 -0.3315
 5085TIP3    H115212   1.384   7.788   5.105  0.1165 -1.7059  0.7375
 5085TIP3    H215213   1.268   7.725   5.179 -2.2291  1.6875  0.0270
 5086TIP3   OH215214   0.912   5.877   2.651 -0.3019 -0.3896 -0.2392
 5086TIP3    H115215   0.821   5.873   2.682 -0.3401 -0.9638 -0.4127
 5086TIP3    H215216   0.960   5.820   2.710 -0.0628 -0.1453 -0.1955
 5087TIP3   OH215217   0.658   6.732   2.133  0.7707  0.1814 -0.5567
 5087TIP3    H115218   0.583   6.755   2.078  0.2019 -0.1386  0.0670
 5087TIP3    H215219   0.678   6.642   2.110  0.5713  0.0667 -0.2892
 5088TIP3   OH215220   8.162   7.574   2.859  0.2692 -0.3643  0.7580
 5088TIP3    H115221   8.254   7.573   2.835 -0.4057 -1.5297 -1.9080
 5088TIP3    H215222   8.160   7.546   2.951  2.5212 -0.6793  0.7192
 5089TIP3   OH215223   0.198   7.362   1.284  0.0815 -0.3463  0.5282
 5089TIP3    H115224   0.284   7.331   1.256  0.5438 -0.5875  2.1353
 5089TIP3    H215225   0.136   7.316   1.228  0.9856 -0.5347 -0.3209
 5090TIP3   OH215226   6.404   6.981   3.594  0.0221 -0.5166  0.1290
 5090TIP3    H115227   6.340   6.915   3.567 -1.4567  0.5025  1.0639
 5090TIP3    H215228   6.474   6.974   3.529 -0.6678 -2.1831 -0.4739
 5091TIP3   OH215229   1.179   7.452   3.020  0.0752 -0.5043  0.4261
 5091TIP3    H115230   1.129   7.418   2.947  0.9944 -1.0911  0.0714
 5091TIP3    H215231   1.113   7.472   3.087 -0.7074 -0.4710 -0.3482
 5092TIP3   OH215232   0.807   7.783   4.254 -0.5106  0.9422  0.5203
 5092TIP3    H115233   0.778   7.868   4.221 -0.5998  0.0469 -1.8901
 5092TIP3    H215234   0.902   7.785   4.246 -0.5340  0.7142  0.1481
 5093TIP3   OH215235   7.840   7.671   3.339 -0.5365 -0.3698  0.0702
 5093TIP3    H115236   7.754   7.702   3.312 -0.7497 -0.6836  0.3767
 5093TIP3    H215237   7.862   7.603   3.275  0.0726  0.6330 -0.7880
 5094TIP3   OH215238   2.376   7.143   3.349 -0.1449  0.3008  0.2417
 5094TIP3    H115239   2.437   7.073   3.374  1.4801  1.6615  0.1291
 5094TIP3    H215240   2.322   7.103   3.280  1.5432 -0.4878 -0.6699
 5095TIP3   OH215241   6.975   1.541   6.480 -0.5745 -0.5450  0.0934
 5095TIP3    H115242   7.021   1.497   6.410 -1.2345  1.5250 -1.6948
 5095TIP3    H215243   7.032   1.614   6.505 -0.4536 -1.1080  1.5573
 5096TIP3   OH215244   4.077   0.019   3.998 -0.3338 -0.0853 -0.6449
 5096TIP3    H115245   4.094   0.012   3.904  0.2967 -0.8980 -0.4810
 5096TIP3    H215246   4.090   0.112   4.018 -0.5227  0.0984 -1.3713
 5097TIP3   OH215247   3.410   2.141   3.065  0.2309  0.8496 -0.3364
 5097TIP3    H115248   3.483   2.190   3.026 -0.2311  2.0028  0.2151
 5097TIP3    H215249   3.343   2.139   2.997  0.1869  1.1384 -0.3028
 5098TIP3   OH215250   4.219   0.524   1.493 -0.2424  0.4850  0.1895
 5098TIP3    H115251   4.277   0.588   1.452 -0.3695 -0.0136 -0.7832
 5098TIP3    H215252   4.264   0.498   1.573 -0.1021  1.6437  0.4878
 5099TIP3   OH215253   2.566   0.662   4.372  0.3103 -0.0989 -0.2290
 5099TIP3    H115254   2.535   0.728   4.434 -1.7203 -0.1160 -1.1755
 5099TIP3    H215255   2.608   0.712   4.303  0.3730  0.0912 -0.0539
 5100TIP3   OH215256   0.415   4.390   1.628  0.0167 -0.4063  0.0760
 5100TIP3    H115257   0.420   4.416   1.536  0.4260 -0.7865 -0.0102
 5100TIP3    H215258   0.438   4.469   1.676  2.0085 -0.7935 -0.2025
 5101TIP3   OH215259   0.668   7.182   2.160  0.0108  0.0249  0.6622
 5101TIP3    H115260   0.627   7.113   2.212 -0.2171  0.7353  1.4231
 5101TIP3    H215261   0.617   7.260   2.178  0.7529  0.5731  0.4153
 5102TIP3   OH215262   2.429   0.882   1.819 -0.2464 -0.2589 -0.4631
 5102TIP3    H115263   2.477   0.917   1.744  0.0521 -1.1337 -0.6885
 5102TIP3    H215264   2.349   0.846   1.781 -0.4150 -0.0783 -0.2744
 5103TIP3   OH215265   3.733   0.668   2.791 -0.5366  0.1770 -0.0067
 5103TIP3    H115266   3.744   0.757   2.824 -1.1096 -0.3185  1.5650
 5103TIP3    H215267   3.766   0.671   2.701 -0.0907  1.8490  0.2045
 5104TIP3   OH215268   5.217   1.115   1.557  0.2316  0.2520 -0.0576
 5104TIP3    H115269   5.158   1.090   1.628  2.3233 -2.7164  0.7427
 5104TIP3    H215270   5.189   1.061   1.483  1.4221 -0.6124  0.1071
 5105TIP3   OH215271   2.219   5.598   2.880 -0.2556  0.2002 -0.1992
 5105TIP3    H115272   2.179   5.684   2.874 -0.5957  0.1752  1.4713
 5105TIP3    H215273   2.275   5.602   2.958 -0.1273 -1.0181 -0.2062
 5106TIP3   OH215274   0.057   2.742   6.578 -0.6052  0.0924  0.1321
 5106TIP3    H115275  -0.028   2.781   6.595 -1.2658 -1.3820  0.2198
 5106TIP3    H215276   0.044   2.687   6.500 -0.2883 -1.8778  1.4371
 5107TIP3   OH215277   0.688   5.302   0.410 -0.4263  0.1741  0.8167
 5107TIP3    H115278   0.684   5.207   0.398 -1.8737  0.2077  0.8660
 5107TIP3    H215279   0.696   5.337   0.321 -0.3134  0.0130  0.7635
 5108TIP3   OH215280   5.041   1.955   1.965  0.1692 -0.0394 -0.4390
 5108TIP3    H115281   4.994   2.039   1.969  1.1033  0.5950 -2.3477
 5108TIP3    H215282   5.067   1.938   2.056 -3.8036 -0.4745  0.7257
 5109TIP3   OH215283   6.041   0.230   0.824 -0.1664 -0.0326 -0.2419
 5109TIP3    H115284   5.970   0.206   0.764 -0.3093 -1.3816  0.4495
 5109TIP3    H215285   6.000   0.233   0.910  0.6747 -1.1779  0.2151
 5110TIP3   OH215286   1.267   6.303   2.585 -0.4974  0.1478  0.1297
 5110TIP3    H115287   1.219   6.285   2.505 -0.2137 -1.6430  0.3325
 5110TIP3    H215288   1.201   6.332   2.648 -1.4237 -2.7471  0.5467
 5111TIP3   OH215289   0.543   6.424   1.428  0.3199 -0.2402  0.3680
 5111TIP3    H115290   0.458   6.383   1.412  0.6606 -1.0073  0.5031
 5111TIP3    H215291   0.593   6.357   1.474  1.4689 -0.2677 -0.9128
 5112TIP3   OH215292   4.550   0.234   2.693  0.8399  0.6220 -0.5869
 5112TIP3    H115293   4.597   0.271   2.767 -1.6220  2.4739  0.1131
 5112TIP3    H215294   4.535   0.142   2.717  0.9804  0.9363  0.7357
 5113TIP3   OH215295   1.999   6.439   0.080 -0.1055 -0.5831  0.1341
 5113TIP3    H115296   2.015   6.495   0.156  1.6886 -1.1873  0.2306
 5113TIP3    H215297   2.037   6.355   0.104 -0.3041 -1.0328 -1.0869
 5114TIP3   OH215298   0.026   7.979   0.215  0.3365 -1.0436 -0.7950
 5114TIP3    H115299   0.079   7.899   0.213  1.1013 -0.5277 -1.4355
 5114TIP3    H215300   0.089   8.049   0.236 -0.5468 -0.7796  1.1173
 5115TIP3   OH215301   1.920   7.285   0.764  0.9246  0.1807 -0.8469
 5115TIP3    H115302   1.909   7.295   0.858  4.1656  0.9026 -0.4932
 5115TIP3    H215303   1.989   7.346   0.740  1.1446 -0.9814 -3.4596
 5116TIP3   OH215304   3.854   0.476   2.463  0.1099 -0.2427 -0.1710
 5116TIP3    H115305   3.837   0.571   2.461 -0.0796 -0.2783 -0.2395
 5116TIP3    H215306   3.832   0.446   2.376  0.8791 -0.2318 -0.3756
 5117TIP3   OH215307   1.434   5.776   2.960 -0.0333 -0.7623 -0.5818
 5117TIP3    H115308   1.388   5.693   2.963 -0.2834 -0.6145 -0.3189
 5117TIP3    H215309   1.365   5.843   2.964  0.2411 -0.5400  0.7441
 5118TIP3   OH215310   1.217   6.823   0.533 -0.4388 -0.0150  0.3640
 5118TIP3    H115311   1.254   6.871   0.460 -1.0924 -0.0291  0.0228
 5118TIP3    H215312   1.225   6.731   0.508 -0.9192 -0.0094  0.1853
 5119TIP3   OH215313   3.151   7.933   3.240  0.0393  0.2662  0.0275
 5119TIP3    H115314   3.222   7.874   3.262  0.1628 -0.3408 -1.8599
 5119TIP3    H215315   3.082   7.876   3.206 -0.9194  0.9515  0.7826
 5120TIP3   OH215316   2.133   7.120   0.944 -0.0662 -0.0936 -0.1390
 5120TIP3    H115317   2.123   7.117   1.040  0.0490  0.9224 -0.0940
 5120TIP3    H215318   2.059   7.068   0.911  0.3401 -1.1089  0.5220
 5121TIP3   OH215319   2.570   6.840   6.097  0.5032 -0.4548  0.0854
 5121TIP3    H115320   2.607   6.865   6.012  0.7647 -1.2513 -0.0351
 5121TIP3    H215321   2.647   6.825   6.152  0.3418 -0.8032  0.2138
 5122TIP3   OH215322   1.334   7.664   2.250 -0.3946 -0.2883 -0.5445
 5122TIP3    H115323   1.313   7.713   2.170  0.1590 -1.3886 -1.3819
 5122TIP3    H215324   1.388   7.724   2.302 -0.9285  0.5076 -0.9078
 5123TIP3   OH215325   8.487   7.226   1.811  0.6106  0.5227  0.1572
 5123TIP3    H115326   8.536   7.308   1.818  2.4916 -0.5277 -0.3042
 5123TIP3    H215327   8.398   7.249   1.837  1.5400  2.2909  1.9501
 5124TIP3   OH215328   6.008   0.011   2.025 -0.0105  0.2851 -0.3648
 5124TIP3    H115329   6.000   0.070   2.100  1.6671  0.0003  0.0404
 5124TIP3    H215330   6.020   0.070   1.950 -0.3831  0.5174 -0.2485
 5125TIP3   OH215331   3.060   0.108   2.200  0.2168 -0.2470 -0.0563
 5125TIP3    H115332   3.050   0.109   2.105 -1.6361  0.8284  0.1223
 5125TIP3    H215333   3.010   0.032   2.229  0.0905 -0.0968  0.1230
 5126TIP3   OH215334   7.350   4.157   1.241  0.1076 -0.1932  0.0068
 5126TIP3    H115335   7.384   4.078   1.197  3.1006  0.1006  1.6180
 5126TIP3    H215336   7.329   4.127   1.330 -1.8806  0.1234 -0.3527
 5127TIP3   OH215337   7.213   6.516   1.581 -0.5224  0.3591 -0.6211
 5127TIP3    H115338   7.247   6.514   1.492 -0.6983 -0.9083 -0.6732
 5127TIP3    H215339   7.148   6.445   1.584  0.2173 -0.2932  0.7937
 5128TIP3   OH215340   3.991   0.065   1.854  0.0108  0.0901 -0.4383
 5128TIP3    H115341   4.077   0.059   1.896 -0.5879 -2.8583  0.4832
 5128TIP3    H215342   3.985  -0.014   1.800 -1.9920  0.4066 -0.7206
 5129TIP3   OH215343   2.002   6.859   1.035 -0.0596  0.5298 -0.1725
 5129TIP3    H115344   1.979   6.768   1.020  0.5208  0.3504  0.0068
 5129TIP3    H215345   2.062   6.857   1.110  0.7285  0.9634 -0.7846
 5130TIP3   OH215346   8.222   5.863   2.458  0.0230 -0.1091  0.0618
 5130TIP3    H115347   8.191   5.868   2.549 -1.5497  0.8817 -0.5125
 5130TIP3    H215348   8.279   5.786   2.457 -0.8272 -0.7905  1.6378
 5131TIP3   OH215349   1.489   5.390   2.427 -0.2761 -0.2788 -0.4547
 5131TIP3    H115350   1.545   5.431   2.361  1.0657 -0.3232  0.6379
 5131TIP3    H215351   1.470   5.303   2.391  1.2849 -0.6880 -0.3380
 5132TIP3   OH215352   2.733   1.299   2.732  0.1830  0.2953 -0.4311
 5132TIP3    H115353   2.805   1.265   2.678 -0.4391 -0.6071 -0.7045
 5132TIP3    H215354   2.696   1.370   2.680 -0.7170 -0.8795 -1.4388
 5133TIP3   OH215355   7.895   7.842   5.483 -0.6976  0.0770  0.2513
 5133TIP3    H115356   7.917   7.750   5.475  0.6046  0.3988  0.0597
 5133TIP3    H215357   7.841   7.861   5.406  0.0016 -0.2455 -0.3168
 5134TIP3   OH215358   2.176   7.637   3.349  0.0524 -0.3733 -0.4036
 5134TIP3    H115359   2.146   7.555   3.387 -0.8822  0.8645  1.5800
 5134TIP3    H215360   2.269   7.642   3.372  0.2327 -1.0680 -0.9415
 5135TIP3   OH215361   6.950   7.453   3.794 -0.4848  0.6153 -0.7341
 5135TIP3    H115362   7.005   7.524   3.761  0.5412  1.1618  2.0072
 5135TIP3    H215363   6.950   7.465   3.889 -2.9353 -1.1640 -0.4648
 5136TIP3   OH215364   0.352   6.122   1.823 -0.3876  0.0350  0.3500
 5136TIP3    H115365   0.443   6.150   1.833 -0.9033  2.0743 -0.5089
 5136TIP3    H215366   0.300   6.198   1.848 -1.8192  0.4250 -3.4725
 5137TIP3   OH215367   2.203   3.872   3.788  0.5837  0.0187 -0.3499
 5137TIP3    H115368   2.188   3.882   3.694 -2.1352  0.8144  0.1342
 5137TIP3    H215369   2.193   3.960   3.823 -2.5764 -0.9008  1.2164
 5138TIP3   OH215370   1.284   7.383   4.345 -0.2321 -0.0523  0.5332
 5138TIP3    H115371   1.280   7.310   4.283  0.7308 -0.6778  1.1941
 5138TIP3    H215372   1.298   7.460   4.290  0.3991 -0.5763 -0.0447
 5139TIP3   OH215373   8.011   0.703   1.344  0.5453  0.5354  0.1010
 5139TIP3    H115374   8.029   0.630   1.284 -1.8918  0.2445 -0.3220
 5139TIP3    H215375   8.030   0.781   1.293  0.3519  0.2461 -0.4196
 5140TIP3   OH215376   1.341   5.103   3.027  0.4461  0.0037  0.2149
 5140TIP3    H115377   1.300   5.094   2.941 -1.0287  1.4212  0.7399
 5140TIP3    H215378   1.367   5.195   3.032  0.9050 -0.1686  1.1100
 5141TIP3   OH215379   0.209   6.669   3.971 -0.0653  0.5655 -0.4943
 5141TIP3    H115380   0.171   6.659   3.884  0.5566 -0.3365 -0.6747
 5141TIP3    H215381   0.151   6.731   4.016 -2.6377 -1.8745 -0.2532
 5142TIP3   OH215382   2.186   7.496   2.908 -0.0462  0.0309  0.3028
 5142TIP3    H115383   2.110   7.524   2.959 -1.6779 -1.4450 -1.2232
 5142TIP3    H215384   2.259   7.495   2.970 -1.4236  0.8224  1.9522
 5143TIP3   OH215385   0.429   4.953   0.867 -0.9355 -0.6383 -0.8944
 5143TIP3    H115386   0.355   4.961   0.808 -0.7137  0.9783 -0.9698
 5143TIP3    H215387   0.504   4.987   0.818 -1.2459  3.3982  1.2251
 5144TIP3   OH215388   0.394   7.510   6.201 -0.2813  0.4493  0.2671
 5144TIP3    H115389   0.469   7.545   6.153 -0.4765  0.5257  0.0113
 5144TIP3    H215390   0.421   7.509   6.292 -0.2045  1.1037  0.2536
 5145TIP3   OH215391   1.441   7.202   1.522 -0.3245 -0.1698 -0.0602
 5145TIP3    H115392   1.383   7.215   1.447  0.2247  2.0393 -0.1357
 5145TIP3    H215393   1.528   7.222   1.489  0.5430 -3.3299  0.0920
 5146TIP3   OH215394   0.650   5.146   3.089 -0.5291  0.0432  0.0527
 5146TIP3    H115395   0.743   5.133   3.107 -0.7051 -0.2798  0.7287
 5146TIP3    H215396   0.607   5.069   3.126 -1.2399  1.0039  1.2678
 5147TIP3   OH215397   8.240   4.387   2.109 -0.4560 -0.0713 -0.9703
 5147TIP3    H115398   8.286   4.303   2.114  0.8044  0.6802  0.6026
 5147TIP3    H215399   8.196   4.395   2.194  1.4657  1.9600 -0.1140
 5148TIP3   OH215400   3.481   0.008   2.573  0.2271 -0.4804  0.7568
 5148TIP3    H115401   3.455   0.078   2.633 -2.5342  1.3716 -2.4159
 5148TIP3    H215402   3.524   0.053   2.501  0.2321 -2.2663 -0.3786
 5149TIP3   OH215403   0.303   5.362   1.629  0.1211 -0.4749 -0.4601
 5149TIP3    H115404   0.267   5.314   1.554  2.4133 -0.5315 -1.5620
 5149TIP3    H215405   0.290   5.303   1.703 -0.7957 -1.0633 -1.0710
 5150TIP3   OH215406   0.530   7.918   0.928 -0.2248 -0.4352  0.5733
 5150TIP3    H115407   0.493   7.830   0.931 -1.2860  0.0158  0.9600
 5150TIP3    H215408   0.576   7.928   1.012  0.2092 -0.7509  0.3736
 5151TIP3   OH215409   2.878   6.707   3.170 -0.3573  0.7677 -0.3382
 5151TIP3    H115410   2.862   6.802   3.167 -2.4244  0.4175 -0.8849
 5151TIP3    H215411   2.824   6.676   3.243 -1.8191 -0.3749 -1.8792
 5152TIP3   OH215412   0.041   5.939   0.558  0.2517 -0.1072 -0.2125
 5152TIP3    H115413   0.052   5.859   0.609  1.4508  0.1610 -0.0309
 5152TIP3    H215414  -0.053   5.944   0.540  0.0522 -1.0771  0.5431
 5153TIP3   OH215415   1.160   4.957   2.793 -0.0018  0.2412  0.4248
 5153TIP3    H115416   1.099   4.984   2.724 -0.4930 -1.1820  0.2866
 5153TIP3    H215417   1.247   4.975   2.757 -0.2406 -0.8089 -0.7281
 5154TIP3   OH215418   1.773   5.242   4.131  0.0046 -0.2604  0.6027
 5154TIP3    H115419   1.709   5.245   4.060 -0.6682  0.3094  1.2271
 5154TIP3    H215420   1.728   5.281   4.205  0.3696 -1.7414  1.6221
 5155TIP3   OH215421   4.884   0.180   1.079  0.8719 -0.2312  0.1436
 5155TIP3    H115422   4.906   0.105   1.024 -1.2136  0.4922 -1.7287
 5155TIP3    H215423   4.885   0.255   1.020 -1.8768  0.4861  0.9312
 5156TIP3   OH215424   2.194   0.889   4.433  0.3434  0.1266  0.2166
 5156TIP3    H115425   2.140   0.815   4.461 -0.5077  0.8721  0.5667
 5156TIP3    H215426   2.137   0.940   4.376  0.2831  1.5252  1.4867
 5157TIP3   OH215427   0.218   6.223   2.556 -0.2969 -0.6172  0.8355
 5157TIP3    H115428   0.138   6.274   2.569  0.2037  0.5940 -0.6141
 5157TIP3    H215429   0.288   6.289   2.558  0.4564 -1.3801 -0.0479
 5158TIP3   OH215430   1.310   4.825   3.856 -0.4352 -0.2819  0.2638
 5158TIP3    H115431   1.361   4.782   3.787  0.2454  1.5979 -0.4402
 5158TIP3    H215432   1.219   4.808   3.832 -0.2219  0.8897 -1.4626
 5159TIP3   OH215433   1.732   7.719   2.387  0.5273  0.0247  0.1962
 5159TIP3    H115434   1.697   7.782   2.324 -0.2375 -0.8244 -0.2257
 5159TIP3    H215435   1.655   7.683   2.432  0.9516 -0.6836  0.3684
 5160TIP3   OH215436   0.895   7.872   1.280 -0.2869 -0.7415 -0.1722
 5160TIP3    H115437   0.902   7.856   1.374 -0.5509 -1.0714 -0.2096
 5160TIP3    H215438   0.917   7.788   1.239 -0.8158 -0.7759 -0.3898
 5161TIP3   OH215439   3.768   1.039   3.718  0.5863  0.3263 -0.3831
 5161TIP3    H115440   3.689   0.987   3.726  0.8234 -0.1960 -1.4415
 5161TIP3    H215441   3.754   1.093   3.641  2.1061 -1.2618 -1.8017
 5162TIP3   OH215442   2.241   6.051   1.015 -0.5459 -0.4732  0.3040
 5162TIP3    H115443   2.298   6.086   1.084  0.5041  1.2495 -1.3860
 5162TIP3    H215444   2.154   6.082   1.037 -0.4581 -1.1695  1.6569
 5163TIP3   OH215445   7.605   7.018   1.965 -0.3680 -0.4058 -0.1374
 5163TIP3    H115446   7.684   6.993   1.917 -1.3331 -1.5128 -1.1911
 5163TIP3    H215447   7.533   6.996   1.905 -1.4782  0.4813  0.8482
 5164TIP3   OH215448   2.182   7.705   1.237  0.4086 -0.2012  0.0261
 5164TIP3    H115449   2.156   7.636   1.176  0.7520  0.4537 -0.8784
 5164TIP3    H215450   2.237   7.763   1.185 -0.6974  1.3044  0.5049
 5165TIP3   OH215451   0.878   7.736   3.225 -0.4040 -0.2978 -0.4908
 5165TIP3    H115452   0.964   7.698   3.243 -0.2702  0.1167 -0.2361
 5165TIP3    H215453   0.839   7.678   3.160  0.4912  0.0765 -1.3770
 5166TIP3   OH215454   7.799   6.011   3.132 -0.0060 -0.5274 -0.8168
 5166TIP3    H115455   7.771   6.061   3.209  0.1718 -2.9954  0.9032
 5166TIP3    H215456   7.718   5.996   3.083 -0.3376 -0.0781 -0.4106
 5167TIP3   OH215457   1.944   7.661   3.979 -0.4712 -0.2431  0.1481
 5167TIP3    H115458   1.930   7.756   3.970 -0.6798 -0.3820 -1.0158
 5167TIP3    H215459   2.035   7.653   4.007 -0.3715  0.2893 -0.0169
 5168TIP3   OH215460   1.923   7.295   2.970 -0.2648  0.0878  0.4002
 5168TIP3    H115461   1.900   7.388   2.979  0.5118  0.4446 -1.2157
 5168TIP3    H215462   1.964   7.288   2.884  1.8465 -1.3165  1.4764
 5169TIP3   OH215463   4.210   0.113   2.040 -0.3353  0.1651 -0.1771
 5169TIP3    H115464   4.275   0.135   2.107  1.4439 -0.2693 -1.7102
 5169TIP3    H215465   4.179   0.198   2.008 -0.5342  0.3742  0.5649
 5170TIP3   OH215466   4.012   0.145   3.110  0.3732 -0.0420 -0.1880
 5170TIP3    H115467   4.040   0.212   3.173  0.8587 -0.9127  0.5292
 5170TIP3    H215468   4.037   0.182   3.024 -1.3795  1.6797 -0.0057
 5171TIP3   OH215469   1.384   7.285   3.120  0.3104  0.2328 -0.4856
 5171TIP3    H115470   1.357   7.193   3.128  1.9488 -0.2389 -0.0613
 5171TIP3    H215471   1.308   7.330   3.083 -0.9730 -1.0573  0.5228
 5172TIP3   OH215472   8.310   6.758   3.485  0.6768 -0.1073 -0.7004
 5172TIP3    H115473   8.228   6.806   3.497  0.4619 -0.2184 -1.7254
 5172TIP3    H215474   8.284   6.667   3.472  1.0865 -0.5361  1.2506
 5173TIP3   OH215475   4.385   0.219   3.471  0.1227  0.2303  0.2663
 5173TIP3    H115476   4.323   0.204   3.400 -1.0329  0.9101  1.1096
 5173TIP3    H215477   4.416   0.309   3.457 -1.7205  1.1506  1.8000
 5174TIP3   OH215478   1.493   5.943   1.741  0.0109  0.0564 -0.1148
 5174TIP3    H115479   1.488   5.907   1.653  0.4991 -0.3818  0.0379
 5174TIP3    H215480   1.582   5.925   1.770 -0.2313 -0.0484  0.5751
 5175TIP3   OH215481   8.518   7.949   4.018 -0.2969 -0.0896 -0.5207
 5175TIP3    H115482   8.448   8.014   4.025 -0.3194 -0.1125 -0.5310
 5175TIP3    H215483   8.482   7.870   4.057  0.3225  0.3684  0.9968
 5176TIP3   OH215484   8.472   4.044   6.693 -0.3375 -0.0147  0.5900
 5176TIP3    H115485   8.402   4.098   6.729 -0.5942 -0.3489  0.5921
 5176TIP3    H215486   8.551   4.074   6.739 -0.4857  0.3215  0.6286
 5177TIP3   OH215487   1.518   6.966   0.701 -0.0023  0.2823  0.5606
 5177TIP3    H115488   1.524   7.056   0.733  1.9049  0.6499 -0.7733
 5177TIP3    H215489   1.436   6.933   0.739 -0.5505  2.4456  1.3482
 5178TIP3   OH215490   1.271   7.180   4.134  0.2889  0.2709 -0.1767
 5178TIP3    H115491   1.248   7.117   4.201 -0.2662  0.4513 -0.1984
 5178TIP3    H215492   1.235   7.144   4.053  1.4420 -0.2310 -0.4854
 5179TIP3   OH215493   8.438   7.103   3.739 -0.1856  0.0897  0.5517
 5179TIP3    H115494   8.493   7.147   3.803  0.7637 -0.1780 -0.0692
 5179TIP3    H215495   8.377   7.050   3.791  0.1789  0.3430  1.2360
 5180TIP3   OH215496   0.948   7.129   3.771 -0.0920 -0.4487  0.0082
 5180TIP3    H115497   0.904   7.045   3.774  1.6123 -1.3169  1.9638
 5180TIP3    H215498   0.894   7.186   3.826 -0.1983 -0.8052  0.2780
 5181TIP3   OH215499   1.542   5.368   3.038 -0.3188 -0.0062 -0.0141
 5181TIP3    H115500   1.559   5.442   3.095 -0.7840 -0.3079  0.5272
 5181TIP3    H215501   1.570   5.397   2.951  5.7597 -1.4775  1.2323
 5182TIP3   OH215502   0.465   5.285   0.933  0.1654  0.0596  0.1699
 5182TIP3    H115503   0.551   5.284   0.891 -0.8792 -0.3822 -2.0438
 5182TIP3    H215504   0.404   5.261   0.863 -1.8512  1.1480  1.5086
 5183TIP3   OH215505   1.779   8.006   1.286  0.5753 -0.0831 -0.0894
 5183TIP3    H115506   1.793   7.915   1.257 -0.9218 -0.6689  0.9845
 5183TIP3    H215507   1.722   8.043   1.219 -1.3009 -0.8563  1.0672
 5184TIP3   OH215508   8.011   5.086   6.894 -0.2006  0.1486 -0.3478
 5184TIP3    H115509   7.929   5.134   6.888 -0.9701 -1.1979 -0.9332
 5184TIP3    H215510   8.065   5.121   6.823  0.3863  2.2216  1.0891
 5185TIP3   OH215511   7.586   6.637   2.105 -0.1071 -0.5102 -0.2432
 5185TIP3    H115512   7.525   6.708   2.087 -0.2863 -0.8060 -0.8081
 5185TIP3    H215513   7.565   6.609   2.194  0.8249  0.9961  0.4676
 5186TIP3   OH215514   1.269   7.783   5.806  0.0350 -0.4674 -0.0469
 5186TIP3    H115515   1.222   7.780   5.723 -0.2628  1.2915  0.0293
 5186TIP3    H215516   1.273   7.877   5.828 -0.7496 -0.9511  2.3809
 5187TIP3   OH215517   1.829   6.818   2.608  0.0449  0.3733 -0.4545
 5187TIP3    H115518   1.872   6.767   2.540 -2.5966 -0.1743 -1.7707
 5187TIP3    H215519   1.877   6.901   2.611  0.9179 -0.0678 -2.1529
 5188TIP3   OH215520   3.071   0.612   3.376 -0.0981 -0.3380  0.2162
 5188TIP3    H115521   3.142   0.575   3.324 -0.0088  0.0384  0.0623
 5188TIP3    H215522   3.008   0.541   3.386 -0.7071 -0.0558 -1.5008
 5189TIP3   OH215523   7.846   5.900   2.200 -0.0140 -0.8199 -0.0500
 5189TIP3    H115524   7.902   5.977   2.195  0.5739 -1.1955  0.5925
 5189TIP3    H215525   7.878   5.852   2.277 -0.3779 -1.6854 -0.4294
 5190TIP3   OH215526   1.627   7.427   1.804  0.0379 -0.0757  0.1447
 5190TIP3    H115527   1.699   7.471   1.760 -0.8070 -0.6221 -1.8220
 5190TIP3    H215528   1.564   7.496   1.824  0.5059  0.1979  0.6829
 5191TIP3   OH215529   3.898   0.752   1.041  0.1387  0.1583 -0.5777
 5191TIP3    H115530   3.918   0.809   0.967 -0.6931  1.8124  0.4472
 5191TIP3    H215531   3.969   0.767   1.103  1.5813 -2.2579 -1.5692
 5192TIP3   OH215532   0.201   4.895   1.944 -0.6414  0.0642 -0.4441
 5192TIP3    H115533   0.264   4.824   1.930 -0.2239  0.2029  0.7208
 5192TIP3    H215534   0.190   4.899   2.039  0.8171  2.8661 -0.3549
 5193TIP3   OH215535   4.719   0.495   1.737  0.1387  0.5024  0.5924
 5193TIP3    H115536   4.656   0.490   1.665  1.5763  0.6255 -0.7069
 5193TIP3    H215537   4.708   0.583   1.772  1.4810  1.5200 -1.4326
 5194TIP3   OH215538   0.157   2.376   6.846  0.2056 -0.4424 -0.3716
 5194TIP3    H115539   0.120   2.299   6.803 -0.4898  0.0785 -0.7150
 5194TIP3    H215540   0.132   2.367   6.937  0.7611 -0.9984 -0.2666
 5195TIP3   OH215541   2.639   7.167   2.301  0.1199 -0.2348 -0.4483
 5195TIP3    H115542   2.731   7.180   2.321  0.3296 -0.0533 -1.5176
 5195TIP3    H215543   2.592   7.214   2.370  0.8317  0.3051 -0.3370
 5196TIP3   OH215544   1.830   5.840   2.912 -0.5897  0.3442 -0.4837
 5196TIP3    H115545   1.916   5.804   2.892 -1.6630 -1.9964 -1.0587
 5196TIP3    H215546   1.825   5.838   3.008 -0.2340 -0.0205 -0.4745
 5197TIP3   OH215547   7.669   7.496   4.180  0.6063 -0.3109 -0.2206
 5197TIP3    H115548   7.704   7.427   4.236 -0.8776 -1.6674 -0.9076
 5197TIP3    H215549   7.625   7.557   4.240 -0.5016 -1.4695  0.1586
 5198TIP3   OH215550   4.678   0.756   1.749 -0.6026 -0.1543 -0.3789
 5198TIP3    H115551   4.687   0.818   1.676  0.2566  1.0166  0.7076
 5198TIP3    H215552   4.644   0.809   1.821 -1.9970 -1.4229 -0.0838
 5199TIP3   OH215553   2.001   7.916   2.789  0.4182  0.2460 -0.1554
 5199TIP3    H115554   2.082   7.902   2.739 -0.0508  0.7602 -1.0561
 5199TIP3    H215555   2.030   7.921   2.880  1.5893  1.9832 -0.5993
 5200TIP3   OH215556   3.708   0.102   3.591 -0.0491 -0.0648  0.1026
 5200TIP3    H115557   3.774   0.168   3.612 -0.0381  0.0935 -0.4247
 5200TIP3    H215558   3.722   0.033   3.656 -0.3383  0.6409  0.9260
 5201TIP3   OH215559   6.990   7.706   4.135  0.2266 -0.7638  0.0141
 5201TIP3    H115560   6.961   7.724   4.046  0.5480  1.3155  0.3090
 5201TIP3    H215561   6.970   7.787   4.184 -0.8425 -2.1942  2.0465
 5202TIP3   OH215562   6.808   6.119   3.693 -0.1109  0.4594  0.2840
 5202TIP3    H115563   6.723   6.124   3.651  0.8019  1.2376 -1.5166
 5202TIP3    H215564   6.852   6.201   3.670  1.9935 -0.9145 -0.7799
 5203TIP3   OH215565   0.327   7.020   4.571 -0.3046 -0.3912  0.3924
 5203TIP3    H115566   0.414   6.981   4.574 -0.0682  0.1673  1.1620
 5203TIP3    H215567   0.267   6.946   4.570  0.1552 -0.7739  0.9625
 5204TIP3   OH215568   5.301   0.418   1.708  0.6326 -0.6337 -0.6771
 5204TIP3    H115569   5.369   0.377   1.761  0.3640 -1.8880 -1.2906
 5204TIP3    H215570   5.332   0.409   1.618 -0.4075 -1.3583 -0.9769
 5205TIP3   OH215571   8.473   6.396   2.619  0.4104 -0.1381 -0.2743
 5205TIP3    H115572   8.467   6.355   2.533  1.8582 -0.7605 -0.0848
 5205TIP3    H215573   8.387   6.383   2.659 -0.1775 -0.0709 -1.5244
 5206TIP3   OH215574   0.819   7.776   4.779 -0.2383  0.1915  0.0027
 5206TIP3    H115575   0.807   7.732   4.863 -0.8392 -1.2114 -0.8161
 5206TIP3    H215576   0.881   7.846   4.799  0.6513 -0.9370  1.3384
 5207TIP3   OH215577   0.851   6.661   3.114 -0.1169  0.4934  0.1769
 5207TIP3    H115578   0.861   6.662   3.209 -1.3761  2.9693  0.3223
 5207TIP3    H215579   0.930   6.704   3.081  1.3052 -2.1941 -0.0517
 5208TIP3   OH215580   6.477   2.013   2.632 -0.2944  0.3548  0.5725
 5208TIP3    H115581   6.486   1.999   2.726  2.1972  0.8157  0.4337
 5208TIP3    H215582   6.567   2.022   2.600 -1.0146 -1.3155 -2.0895
 5209TIP3   OH215583   5.650   1.244   0.875  0.3218  0.3183  0.5831
 5209TIP3    H115584   5.685   1.161   0.908  0.6531  0.5360  0.7769
 5209TIP3    H215585   5.720   1.280   0.821  0.1815  0.4757  0.5080
 5210TIP3   OH215586   3.485   5.543   2.103 -0.3554  0.1085  0.7309
 5210TIP3    H115587   3.569   5.532   2.059 -0.5536 -0.0487  0.3911
 5210TIP3    H215588   3.423   5.491   2.052 -0.9511  1.3952  0.1087
 5211TIP3   OH215589   0.464   7.308   1.812 -0.5735  0.4596 -0.2420
 5211TIP3    H115590   0.504   7.389   1.843  0.9921 -0.7312  0.9949
 5211TIP3    H215591   0.386   7.297   1.867 -0.7637  1.1216 -0.3875
 5212TIP3   OH215592   1.649   6.528   1.789  0.2011  0.7159 -0.3906
 5212TIP3    H115593   1.629   6.520   1.695 -0.5821 -0.4939 -0.1288
 5212TIP3    H215594   1.708   6.456   1.808  1.2771  1.6425 -0.1877
 5213TIP3   OH215595   2.277   7.796   1.491 -0.5205  0.1968  0.0361
 5213TIP3    H115596   2.219   7.858   1.536 -0.2677 -0.4813  1.3234
 5213TIP3    H215597   2.223   7.758   1.422 -1.0521  0.9247  0.0506
 5214TIP3   OH215598   7.276   4.305   6.737 -0.4074 -0.3127  0.5280
 5214TIP3    H115599   7.362   4.330   6.771 -1.5215  1.1972  2.3800
 5214TIP3    H215600   7.294   4.267   6.651  1.9455  1.4681  0.1757
 5215TIP3   OH215601   5.592   0.374   2.931 -0.4418 -0.4304 -0.2902
 5215TIP3    H115602   5.592   0.392   2.837  1.5867 -1.6985 -0.5556
 5215TIP3    H215603   5.503   0.395   2.960 -1.3002 -0.7698 -2.6330
 5216TIP3   OH215604   0.465   6.812   2.824 -0.4039 -0.8938 -0.7163
 5216TIP3    H115605   0.448   6.882   2.887 -1.5401 -0.5232 -1.4167
 5216TIP3    H215606   0.539   6.844   2.772  0.1749 -0.9591  0.0566
 5217TIP3   OH215607   4.316   7.481   3.634 -0.2089  0.1508 -0.3129
 5217TIP3    H115608   4.280   7.538   3.702  0.3313  1.1123 -0.8287
 5217TIP3    H215609   4.406   7.511   3.623 -0.4846  0.4421 -1.9246
 5218TIP3   OH215610   0.793   5.538   2.261 -0.0450 -0.1144  0.4468
 5218TIP3    H115611   0.776   5.537   2.355  0.7004 -0.7150  0.5815
 5218TIP3    H215612   0.707   5.549   2.221 -0.4065 -0.2461  1.1873
 5219TIP3   OH215613   0.629   7.935   1.176  0.7162 -0.3003 -0.3408
 5219TIP3    H115614   0.632   7.843   1.204 -0.2864 -1.0270 -2.4920
 5219TIP3    H215615   0.721   7.961   1.171  0.9625 -0.5897  2.0558
 5220TIP3   OH215616   2.680   7.221   3.873  0.0134 -0.3604 -0.6231
 5220TIP3    H115617   2.725   7.137   3.867  1.7600  0.5828 -1.1289
 5220TIP3    H215618   2.667   7.248   3.782 -0.2346  0.0656 -0.4630
 5221TIP3   OH215619   5.263   1.334   0.804  0.1589 -0.0381 -0.3811
 5221TIP3    H115620   5.279   1.415   0.853  0.3732 -0.2394 -0.1219
 5221TIP3    H215621   5.260   1.266   0.871  1.9669 -0.5334 -0.7790
 5222TIP3   OH215622   4.806   0.605   1.386  0.3020  0.5437  0.0382
 5222TIP3    H115623   4.852   0.679   1.347  0.1720  0.0571 -1.0803
 5222TIP3    H215624   4.840   0.528   1.339 -2.1060  0.2332 -1.3402
 5223TIP3   OH215625   3.159   7.838   2.874  0.3320 -0.4191 -0.2989
 5223TIP3    H115626   3.130   7.918   2.918 -0.6915  0.2135 -2.0597
 5223TIP3    H215627   3.149   7.769   2.939  0.2583  0.7242  0.9237
 5224TIP3   OH215628   4.855   0.743   2.319  0.1072 -0.5013  0.3552
 5224TIP3    H115629   4.899   0.777   2.397 -1.0514 -0.3372  0.9549
 5224TIP3    H215630   4.773   0.706   2.352  0.3153 -1.8157 -0.5994
 5225TIP3   OH215631   0.521   6.942   1.502  0.5143 -0.0156 -0.1084
 5225TIP3    H115632   0.535   6.857   1.460  1.3984 -0.3826  0.8980
 5225TIP3    H215633   0.598   6.994   1.478 -0.4214  0.8047 -1.4143
 5226TIP3   OH215634   3.675   0.677   3.280  0.1238 -0.0095  0.5174
 5226TIP3    H115635   3.749   0.724   3.242  0.4828 -0.3971  0.7380
 5226TIP3    H215636   3.701   0.660   3.371  0.2059 -1.0698  0.3047
 5227TIP3   OH215637   1.544   7.118   2.313 -0.5098  0.1638 -0.6284
 5227TIP3    H115638   1.469   7.122   2.254 -1.0151  1.6780  0.1037
 5227TIP3    H215639   1.613   7.165   2.267 -0.9904  1.5964  0.1037
 5228TIP3   OH215640   0.255   6.596   0.754  0.4470 -0.2724 -0.1541
 5228TIP3    H115641   0.259   6.649   0.674  0.0262  0.4861  0.3140
 5228TIP3    H215642   0.205   6.518   0.729 -0.8305  0.5817 -0.2985
 5229TIP3   OH215643   7.825   5.909   1.772  0.0502 -0.5451  0.4203
 5229TIP3    H115644   7.812   6.004   1.774 -0.6497 -0.6208 -0.1754
 5229TIP3    H215645   7.918   5.898   1.755  0.6572  0.0302  3.1609
 5230TIP3   OH215646   0.820   7.063   3.336 -0.0124 -0.1464 -0.0257
 5230TIP3    H115647   0.769   7.041   3.414 -0.0082 -0.3665 -0.0837
 5230TIP3    H215648   0.840   7.156   3.346 -1.2473  0.1835 -0.4742
 5231TIP3   OH215649   0.072   5.218   2.124 -0.0552  0.5556  0.3876
 5231TIP3    H115650   0.167   5.221   2.132  0.0937  0.4021 -1.2062
 5231TIP3    H215651   0.044   5.309   2.135  0.4482  0.8981 -1.0370
 5232TIP3   OH215652   1.182   4.336   2.335 -0.1033  0.5056 -0.0130
 5232TIP3    H115653   1.102   4.382   2.308  0.0970  1.8539  1.5566
 5232TIP3    H215654   1.183   4.346   2.430  1.8634  0.3785 -0.0155
 5233TIP3   OH215655   2.546   7.488   3.977 -0.2447 -0.1820 -0.2135
 5233TIP3    H115656   2.487   7.535   4.035 -0.9912 -0.8083 -0.4496
 5233TIP3    H215657   2.490   7.427   3.930  0.4565 -0.1576 -1.0989
 5234TIP3   OH215658   1.982   6.131   1.065  0.1887  0.2419  0.7774
 5234TIP3    H115659   1.964   6.202   1.127  0.8669  0.3456  0.8649
 5234TIP3    H215660   1.907   6.073   1.073 -0.5640  1.1462  0.4281
 5235TIP3   OH215661   0.553   5.612   2.172  0.2793 -0.0080  0.2996
 5235TIP3    H115662   0.542   5.687   2.113  0.2043 -0.2752 -0.0263
 5235TIP3    H215663   0.486   5.624   2.239  0.5775  0.4722  0.5137
 5236TIP3   OH215664   8.253   5.813   2.979 -0.0475  0.4438 -0.4565
 5236TIP3    H115665   8.287   5.896   3.012 -2.6372  0.6282  1.9422
 5236TIP3    H215666   8.271   5.750   3.049  2.9019 -1.3800 -2.6959
 5237TIP3   OH215667   1.666   5.668   2.166  0.1941 -0.1754 -0.5146
 5237TIP3    H115668   1.754   5.640   2.143  0.5758  1.7502 -1.5608
 5237TIP3    H215669   1.668   5.680   2.261  0.7088 -1.2900 -0.3869
 5238TIP3   OH215670   0.993   7.226   2.090 -0.0205  0.3279 -0.4509
 5238TIP3    H115671   1.077   7.205   2.049 -0.2180  0.1583 -0.7797
 5238TIP3    H215672   1.010   7.304   2.143  0.2449  0.5401 -0.8465
 5239TIP3   OH215673   1.382   5.712   2.217  0.1707 -0.3296 -0.4849
 5239TIP3    H115674   1.477   5.700   2.221  0.4257  1.8645  0.3906
 5239TIP3    H215675   1.369   5.783   2.155 -0.7416  0.9808  1.1890
 5240TIP3   OH215676   8.301   5.103   0.640 -0.0307 -0.2002  0.4209
 5240TIP3    H115677   8.364   5.074   0.574 -0.4506  0.2493 -0.1812
 5240TIP3    H215678   8.244   5.028   0.654  0.7891 -0.6897  1.1458
 5241TIP3   OH215679   1.245   5.191   4.110 -0.7899  0.0239 -0.2629
 5241TIP3    H115680   1.184   5.255   4.071  0.3185  1.9454  1.0910
 5241TIP3    H215681   1.189   5.135   4.163 -1.7317  0.1331 -1.1242
 5242TIP3   OH215682   0.346   6.618   4.508 -0.0776  0.1691 -0.2932
 5242TIP3    H115683   0.398   6.612   4.428 -0.6915  0.9857 -0.7621
 5242TIP3    H215684   0.399   6.573   4.574  1.6404  1.7376 -0.5485
 5243TIP3   OH215685   1.612   7.356   3.240  0.7142  0.3404  0.6079
 5243TIP3    H115686   1.588   7.332   3.329 -1.9686  2.8714  0.6711
 5243TIP3    H215687   1.529   7.351   3.191  1.2823  3.0952 -0.7290
 5244TIP3   OH215688   2.241   7.954   1.088  0.8465 -0.0843  0.1927
 5244TIP3    H115689   2.300   8.014   1.042 -1.8018  1.6585 -1.0534
 5244TIP3    H215690   2.218   7.888   1.023 -0.2175  0.4527  0.0059
 5245TIP3   OH215691   2.032   7.814   0.743  0.2341  0.8558 -0.4308
 5245TIP3    H115692   2.064   7.778   0.825 -1.0348  0.8481  0.0780
 5245TIP3    H215693   2.010   7.737   0.690 -1.0042  0.8636  0.0608
 5246TIP3   OH215694   2.961   7.650   2.301 -0.2927 -0.7325  0.5893
 5246TIP3    H115695   2.883   7.614   2.257 -0.3219 -1.3434  1.1331
 5246TIP3    H215696   2.992   7.717   2.241 -1.7810  0.1758  0.8052
 5247TIP3   OH215697   3.335   6.733   3.368  0.4333 -0.2804 -0.1264
 5247TIP3    H115698   3.292   6.788   3.302  1.2844 -0.0846 -0.5242
 5247TIP3    H215699   3.293   6.648   3.358  2.7308 -1.1414 -3.1307
 5248TIP3   OH215700   0.054   0.867   0.074 -0.1370 -0.4496 -0.0184
 5248TIP3    H115701   0.036   0.946   0.126 -0.4208 -0.4764 -0.0787
 5248TIP3    H215702   0.119   0.819   0.126 -0.6259 -0.6135  0.4542
 5249TIP3   OH215703   2.994   6.661   2.082  0.6023  0.5654 -0.4523
 5249TIP3    H115704   2.946   6.742   2.063  1.4204  1.5033  1.3951
 5249TIP3    H215705   3.039   6.641   2.000 -2.6173 -0.1316 -2.0990
 5250TIP3   OH215706   2.981   5.735   2.466 -0.2334 -0.2507  0.2686
 5250TIP3    H115707   3.009   5.645   2.478  1.4280  0.4283  1.5975
 5250TIP3    H215708   2.930   5.756   2.544 -1.5209 -0.3668 -0.5284
 5251TIP3   OH215709   2.688   7.117   3.551 -0.1695 -0.0978  0.0609
 5251TIP3    H115710   2.715   7.209   3.544 -2.5302  0.6656  0.2703
 5251TIP3    H215711   2.765   7.071   3.583  0.8865  1.9165  0.4985
 5252TIP3   OH215712   3.181   7.223   2.519 -0.4886  0.6329  0.5767
 5252TIP3    H115713   3.194   7.233   2.424 -1.4595 -0.3744  0.3176
 5252TIP3    H215714   3.139   7.304   2.546 -0.5891  0.7543  0.0603
 5253TIP3   OH215715   4.234   6.121   1.518 -0.1240  0.4197 -0.3108
 5253TIP3    H115716   4.171   6.117   1.591 -1.1265 -0.4408 -1.2152
 5253TIP3    H215717   4.270   6.210   1.522 -0.5235  0.5352  0.9357
 5254TIP3   OH215718   7.728   2.090   5.895  0.2404  0.4200 -0.6234
 5254TIP3    H115719   7.786   2.044   5.955 -0.5147  0.2045 -0.0395
 5254TIP3    H215720   7.775   2.169   5.871  0.3268  0.7849  0.7084
 5255TIP3   OH215721   3.493   7.254   1.237 -0.5256 -0.3129 -0.2379
 5255TIP3    H115722   3.477   7.160   1.243 -0.5713 -0.3376 -0.7181
 5255TIP3    H215723   3.539   7.266   1.154 -1.6813  0.2349 -0.8140
 5256TIP3   OH215724   1.959   7.718   1.621  0.1264 -0.0513  0.6526
 5256TIP3    H115725   1.888   7.778   1.646  0.7439  0.9673  0.0206
 5256TIP3    H215726   2.030   7.740   1.681  0.3385 -0.1909  0.4502
 5257TIP3   OH215727   2.551   6.266   0.163 -0.1791  0.0326 -0.1133
 5257TIP3    H115728   2.553   6.301   0.074  0.4776  1.3464  0.4009
 5257TIP3    H215729   2.468   6.219   0.169 -1.5243  2.2631 -0.5474
 5258TIP3   OH215730   4.203   1.452   0.617  0.5865 -0.4386  0.2975
 5258TIP3    H115731   4.244   1.389   0.676 -1.2260 -1.4217  0.5539
 5258TIP3    H215732   4.176   1.400   0.541 -0.6090  0.0827  0.3568
 5259TIP3   OH215733   2.729   6.678   0.236  0.1599  0.0536  0.8790
 5259TIP3    H115734   2.704   6.770   0.242 -0.1077  0.0897 -0.7421
 5259TIP3    H215735   2.815   6.674   0.278 -0.1581  0.9016  1.6190
 5260TIP3   OH215736   1.893   6.240   3.019  0.7452  0.2002  0.6833
 5260TIP3    H115737   1.955   6.310   2.997  0.8484  0.4892  1.8254
 5260TIP3    H215738   1.809   6.284   3.030  0.5315 -0.0540  0.0649
 5261TIP3   OH215739   6.482   1.205   1.544 -0.2637 -0.3022  0.5413
 5261TIP3    H115740   6.554   1.174   1.488 -1.0254 -1.2577  0.0854
 5261TIP3    H215741   6.486   1.301   1.536  0.1036 -0.3962 -0.5553
 5262TIP3   OH215742   4.768   7.675   0.174 -0.1780 -0.2697 -0.2701
 5262TIP3    H115743   4.854   7.681   0.133  0.4849 -1.2796  0.9537
 5262TIP3    H215744   4.712   7.635   0.107  0.4881 -0.3563 -0.7770
 5263TIP3   OH215745   5.219   7.801   1.839  0.2461 -0.4649 -0.1594
 5263TIP3    H115746   5.189   7.729   1.896 -1.2064 -1.7778 -2.5104
 5263TIP3    H215747   5.192   7.775   1.751 -0.1559  2.9031 -1.0936
 5264TIP3   OH215748   1.391   7.884   1.233  0.5139  0.0356  0.3534
 5264TIP3    H115749   1.368   7.807   1.286  1.1683  0.0715  0.6862
 5264TIP3    H215750   1.310   7.935   1.229  0.5142  0.1491  1.5111
 5265TIP3   OH215751   7.016   4.419   6.030 -0.5728 -0.3843 -0.0104
 5265TIP3    H115752   6.992   4.481   6.099 -1.8772 -1.7338  0.7875
 5265TIP3    H215753   6.957   4.344   6.043 -1.0541 -0.5547 -2.7828
 5266TIP3   OH215754   7.342   3.047   6.224  0.4306 -0.0414 -0.2876
 5266TIP3    H115755   7.267   3.076   6.275  1.0992 -0.8578  1.1838
 5266TIP3    H215756   7.318   3.068   6.133 -1.1704  0.5432  0.2419
 5267TIP3   OH215757   3.124   7.243   2.237 -0.4666  0.3922 -0.0633
 5267TIP3    H115758   3.099   7.198   2.157  0.7928 -1.0616  0.3392
 5267TIP3    H215759   3.157   7.328   2.208 -0.3743  0.0198 -1.0531
 5268TIP3   OH215760   1.063   4.752   3.788 -0.2108  0.3606  0.1578
 5268TIP3    H115761   1.063   4.702   3.706 -1.0903 -2.4971  1.8270
 5268TIP3    H215762   0.976   4.791   3.792 -0.5856 -0.4640  0.2564
 5269TIP3   OH215763   5.042   6.289   0.083 -0.2913 -0.1779  0.2676
 5269TIP3    H115764   5.011   6.203   0.055  0.0087 -0.4598  0.7755
 5269TIP3    H215765   5.027   6.289   0.178 -0.3997  0.3773  0.2516
 5270TIP3   OH215766   6.820   0.576   0.863 -0.4567 -0.2193  0.3459
 5270TIP3    H115767   6.898   0.602   0.816 -0.3785  2.3724  1.8530
 5270TIP3    H215768   6.852   0.522   0.936 -0.1141  0.4155  0.6658
 5271TIP3   OH215769   2.807   6.736   2.323  0.4580  0.3681 -0.0624
 5271TIP3    H115770   2.831   6.662   2.380  0.4392 -0.7877 -1.5191
 5271TIP3    H215771   2.867   6.730   2.250  0.0876  1.4871 -0.4628
 5272TIP3   OH215772   3.401   5.938   0.688  0.2073 -0.5674 -0.1242
 5272TIP3    H115773   3.316   5.892   0.687  0.1489 -0.4582 -0.1834
 5272TIP3    H215774   3.441   5.915   0.604 -1.0678  1.8076 -1.4392
 5273TIP3   OH215775   3.777   5.129   0.207 -0.4229  0.7620  0.0264
 5273TIP3    H115776   3.819   5.215   0.200 -0.0686  0.6968  1.2194
 5273TIP3    H215777   3.706   5.142   0.270  0.5626 -0.1668  1.3556
 5274TIP3   OH215778   6.707   0.201   2.480  0.1962  0.1682 -0.7645
 5274TIP3    H115779   6.748   0.125   2.439 -0.3208 -1.7563  2.1151
 5274TIP3    H215780   6.613   0.189   2.465  0.1999  0.9002 -1.3823
 5275TIP3   OH215781   4.103   7.928   0.571 -0.0517 -0.1238  0.1648
 5275TIP3    H115782   4.102   7.962   0.482 -2.9721 -1.5169 -0.4100
 5275TIP3    H215783   4.155   7.848   0.566 -0.0331 -0.0845 -0.2421
 5276TIP3   OH215784   3.347   6.806   0.835 -0.1738 -0.1833 -0.5411
 5276TIP3    H115785   3.435   6.767   0.829  0.1615  0.1930  1.6169
 5276TIP3    H215786   3.347   6.874   0.768 -0.0577 -2.5107 -2.9751
 5277TIP3   OH215787   5.199   5.937   2.469  0.3504  0.2369 -0.2047
 5277TIP3    H115788   5.284   5.959   2.433  0.2112  0.6081 -0.3179
 5277TIP3    H215789   5.146   6.016   2.456  0.5043  0.6433  1.4492
 5278TIP3   OH215790   4.653   1.335   2.274 -0.5129 -0.3244 -0.1005
 5278TIP3    H115791   4.650   1.381   2.358  0.7525  2.0435 -1.2998
 5278TIP3    H215792   4.563   1.306   2.260 -0.7665 -0.6567  2.0070
 5279TIP3   OH215793   0.497   7.452   0.844 -0.4121  0.1670 -0.1063
 5279TIP3    H115794   0.511   7.510   0.769 -0.1612  0.8988  0.5093
 5279TIP3    H215795   0.450   7.506   0.908 -1.0506 -0.5956  0.0832
 5280TIP3   OH215796   0.156   2.535   6.065 -0.1594  0.5138  0.5241
 5280TIP3    H115797   0.237   2.569   6.026  0.0032 -0.2755  0.1531
 5280TIP3    H215798   0.179   2.518   6.156  0.0205  0.5438  0.4849
 5281TIP3   OH215799   4.140   1.719   1.333  0.1093 -0.1361 -0.1406
 5281TIP3    H115800   4.235   1.715   1.321 -0.0146 -0.8138 -0.9468
 5281TIP3    H215801   4.126   1.689   1.423  0.6710  0.0735  0.0162
 5282TIP3   OH215802   2.905   7.161   2.405  0.3555  0.3397  0.5006
 5282TIP3    H115803   2.896   7.229   2.472  0.8540  0.1412  0.7699
 5282TIP3    H215804   2.986   7.183   2.359 -1.0405  1.6559 -1.3932
 5283TIP3   OH215805   3.894   7.352   2.785 -0.3876  0.1591 -0.1686
 5283TIP3    H115806   3.962   7.354   2.718 -0.3121 -1.9419 -0.2029
 5283TIP3    H215807   3.942   7.351   2.868 -0.4169  0.5829 -0.1488
 5284TIP3   OH215808   0.748   4.318   6.932  0.0044 -0.3290  0.2114
 5284TIP3    H115809   0.825   4.375   6.923  0.3508 -0.6094  1.3461
 5284TIP3    H215810   0.785   4.230   6.945 -0.5236 -0.7982 -1.2621
 5285TIP3   OH215811   0.917   7.024   0.706 -0.6677 -0.3982 -0.1807
 5285TIP3    H115812   0.846   7.018   0.770 -1.1404  0.6285 -0.6021
 5285TIP3    H215813   0.873   7.040   0.623  0.1109  1.4908 -0.2537
 5286TIP3   OH215814   3.449   7.407   3.672 -0.4096 -0.2064 -0.3249
 5286TIP3    H115815   3.439   7.425   3.578 -2.2398  0.1046 -0.0865
 5286TIP3    H215816   3.458   7.312   3.678 -0.4111 -0.2358 -0.7958
 5287TIP3   OH215817   4.464   7.700   3.781 -0.0932 -0.0652 -0.1468
 5287TIP3    H115818   4.370   7.690   3.790 -0.3249 -0.4371 -2.6961
 5287TIP3    H215819   4.491   7.745   3.861 -2.4690  0.3150  0.4737
 5288TIP3   OH215820   8.096   7.006   2.768  0.3230 -0.6588  0.1807
 5288TIP3    H115821   8.098   7.100   2.747 -1.4476 -0.8741 -1.1257
 5288TIP3    H215822   8.003   6.984   2.768  0.5590 -1.8348  3.3491
 5289TIP3   OH215823   2.972   7.763   3.110  0.0247 -0.0867 -0.1703
 5289TIP3    H115824   2.930   7.803   3.034 -0.9952  0.2353  0.5514
 5289TIP3    H215825   2.930   7.678   3.118 -0.8848  0.4414  0.8587
 5290TIP3   OH215826   2.588   8.015   2.269 -0.6108  0.4799  0.0599
 5290TIP3    H115827   2.508   7.963   2.275  0.6067 -1.3280  0.8446
 5290TIP3    H215828   2.641   7.970   2.204 -0.2123  1.6719 -0.4501
 5291TIP3   OH215829   2.136   3.425   6.452  0.0794 -0.1225  0.5537
 5291TIP3    H115830   2.132   3.521   6.458  0.0211 -0.2112  2.2407
 5291TIP3    H215831   2.157   3.408   6.360 -1.6319  1.4493 -0.1707
 5292TIP3   OH215832   5.539   0.109   1.059 -0.3711  0.2784 -0.2465
 5292TIP3    H115833   5.472   0.050   1.094 -2.4430  3.3232  1.1752
 5292TIP3    H215834   5.512   0.124   0.968  1.7764 -3.0998 -1.5297
 5293TIP3   OH215835   7.585   0.513   0.372 -0.0165 -0.2130  0.7218
 5293TIP3    H115836   7.676   0.506   0.401 -0.4693 -1.9237  1.7648
 5293TIP3    H215837   7.536   0.534   0.451 -0.8460 -1.7485  0.6318
 5294TIP3   OH215838   2.777   1.814   0.507 -0.4507  0.0605 -0.1242
 5294TIP3    H115839   2.767   1.822   0.412 -2.2457  1.4602  0.1399
 5294TIP3    H215840   2.811   1.726   0.521  1.3719  0.3965 -2.1594
 5295TIP3   OH215841   3.656   6.774   0.751 -0.5224  0.5177 -0.3929
 5295TIP3    H115842   3.653   6.787   0.657 -0.7935  1.9605 -0.1956
 5295TIP3    H215843   3.720   6.704   0.764  1.1999  1.8703 -1.4741
 5296TIP3   OH215844   6.118   1.439   3.315 -0.4313  0.0466  0.4861
 5296TIP3    H115845   6.138   1.475   3.402  1.0312  0.3680  0.0291
 5296TIP3    H215846   6.203   1.434   3.271 -1.1865  0.0343 -0.9894
 5297TIP3   OH215847   3.482   6.855   2.683 -0.2258 -0.4677  0.7851
 5297TIP3    H115848   3.487   6.776   2.738  0.1899 -0.6092  0.5448
 5297TIP3    H215849   3.554   6.910   2.713  0.4887 -0.8824 -0.1405
 5298TIP3   OH215850   3.775   7.829   2.497 -0.0478  0.3809 -0.1911
 5298TIP3    H115851   3.843   7.896   2.494  0.3633 -0.0848 -1.2379
 5298TIP3    H215852   3.694   7.879   2.509  0.4011  0.9706  0.4397
 5299TIP3   OH215853   2.823   5.501   1.222 -0.0332 -0.0934  0.1968
 5299TIP3    H115854   2.910   5.531   1.247 -0.0391 -0.2449  0.4050
 5299TIP3    H215855   2.766   5.577   1.237  0.1145  0.1050 -0.2457
 5300TIP3   OH215856   0.530   6.980   1.814 -0.1615  0.8463  0.0869
 5300TIP3    H115857   0.510   6.939   1.729 -1.1975  1.4790  0.0241
 5300TIP3    H215858   0.466   7.051   1.822 -1.3696 -0.4626  2.3181
 5301TIP3   OH215859   2.424   5.590   1.840  0.5813 -0.3052  0.9023
 5301TIP3    H115860   2.375   5.538   1.904  3.0938  1.2843  4.2096
 5301TIP3    H215861   2.507   5.545   1.830  1.2462  0.9109  0.8069
 5302TIP3   OH215862   2.860   5.226   1.188  0.3620 -0.0439 -0.1755
 5302TIP3    H115863   2.838   5.310   1.228  1.8522 -0.1942  1.0211
 5302TIP3    H215864   2.951   5.237   1.159  0.2455 -0.9298 -0.9001
 5303TIP3   OH215865   0.696   6.849   2.409 -0.7466  0.2289  0.7995
 5303TIP3    H115866   0.625   6.910   2.389  0.0492  1.3931  1.4933
 5303TIP3    H215867   0.701   6.793   2.331 -1.3774  1.1398  0.0883
 5304TIP3   OH215868   7.089   2.399   2.976  0.1640  0.3307  0.0937
 5304TIP3    H115869   7.032   2.345   3.031 -1.3026 -0.9090 -2.5837
 5304TIP3    H215870   7.177   2.380   3.009 -0.4449 -2.5586  0.2383
 5305TIP3   OH215871   2.143   7.419   1.118  0.6122  0.2848  0.0592
 5305TIP3    H115872   2.175   7.352   1.057  0.7942  0.5941 -0.1831
 5305TIP3    H215873   2.062   7.451   1.079  0.6667  0.3998  0.0404
 5306TIP3   OH215874   3.314   5.315   3.597 -0.4683 -0.0775 -0.5147
 5306TIP3    H115875   3.353   5.376   3.534 -0.7310 -0.1235 -0.7272
 5306TIP3    H215876   3.245   5.366   3.639 -0.3088 -0.0554 -0.2835
 5307TIP3   OH215877   0.675   5.998   2.897  0.3412 -0.1417 -0.2752
 5307TIP3    H115878   0.644   6.085   2.923  0.4778  0.0087 -0.6083
 5307TIP3    H215879   0.677   6.002   2.801  0.8730 -0.3327 -0.2693
 5308TIP3   OH215880   0.208   3.577   6.560  0.1977  0.3755 -0.1188
 5308TIP3    H115881   0.174   3.663   6.533 -0.3768  0.0356 -0.4710
 5308TIP3    H215882   0.283   3.562   6.503 -1.3923 -0.6319 -1.9675
 5309TIP3   OH215883   1.904   6.408   1.592 -0.2493 -0.3670 -0.2959
 5309TIP3    H115884   1.861   6.454   1.520 -0.9936 -1.6111 -0.6638
 5309TIP3    H215885   1.953   6.337   1.550 -3.6671 -3.4277  0.5958
 5310TIP3   OH215886   2.135   6.349   2.027 -0.6641  0.1942  0.2035
 5310TIP3    H115887   2.169   6.436   2.006 -0.7207  0.6362  1.8458
 5310TIP3    H215888   2.184   6.290   1.970  0.1612  1.1899 -0.1438
 5311TIP3   OH215889   6.174   0.279   3.060  0.4755  0.3652 -0.6284
 5311TIP3    H115890   6.094   0.331   3.047  0.5228  0.0110 -2.4296
 5311TIP3    H215891   6.244   0.332   3.023  1.1626  0.8531  1.3157
 5312TIP3   OH215892   7.669   1.680   6.434  0.2596 -0.4634  0.2927
 5312TIP3    H115893   7.643   1.624   6.507  3.0114 -0.8554  1.0348
 5312TIP3    H215894   7.741   1.633   6.392  0.6813  1.1500 -0.8420
 5313TIP3   OH215895   5.033   0.085   1.626  0.2088  0.1697 -0.3890
 5313TIP3    H115896   5.063   0.119   1.542 -0.9387 -0.6122 -1.1369
 5313TIP3    H215897   4.977   0.154   1.662  0.5474  0.4267 -0.3605
 5314TIP3   OH215898   6.013   0.763   3.026 -0.0961 -0.6123 -0.0041
 5314TIP3    H115899   5.954   0.739   3.098 -1.0703  0.6958 -0.3400
 5314TIP3    H215900   6.100   0.740   3.058 -0.2604  1.9622  2.4975
 5315TIP3   OH215901   4.884   0.380   0.483  0.2194  0.1798  0.4995
 5315TIP3    H115902   4.815   0.346   0.540 -0.6260 -0.5176 -0.9072
 5315TIP3    H215903   4.898   0.311   0.418  2.6601  0.0603  1.0883
 5316TIP3   OH215904   4.166   1.838   2.888 -0.3563 -0.2975  0.0190
 5316TIP3    H115905   4.145   1.811   2.799 -3.1785 -1.6366  1.0361
 5316TIP3    H215906   4.179   1.756   2.936  2.6774  0.4124  0.5690
 5317TIP3   OH215907   7.613   1.972   1.328 -0.2020  0.1291  0.6849
 5317TIP3    H115908   7.557   1.949   1.403  1.5234 -1.4678  1.5221
 5317TIP3    H215909   7.613   2.067   1.326 -3.1228  0.1651  0.5363
 5318TIP3   OH215910   4.762   6.698   1.841  0.0543 -0.1434 -0.0269
 5318TIP3    H115911   4.732   6.687   1.932  0.2198  0.3585  0.0875
 5318TIP3    H215912   4.824   6.770   1.845  0.2795 -0.3138 -0.4953
 5319TIP3   OH215913   6.772   2.982   5.780  0.2085  0.4576 -0.0603
 5319TIP3    H115914   6.753   2.951   5.869 -0.7131 -0.5043 -0.5772
 5319TIP3    H215915   6.688   3.015   5.748  0.8051  1.9438 -0.1488
 5320TIP3   OH215916   2.238   6.715   2.703 -0.0570  0.2894 -0.0733
 5320TIP3    H115917   2.309   6.680   2.757 -2.1254 -2.5714  0.8910
 5320TIP3    H215918   2.191   6.775   2.761 -0.8953 -1.0096  0.6052
 5321TIP3   OH215919   7.020   0.764   0.662 -0.2247 -0.3087  0.0483
 5321TIP3    H115920   7.055   0.824   0.596 -0.6651 -0.3688 -0.2509
 5321TIP3    H215921   7.060   0.791   0.744 -1.0698  0.9429  0.0599
 5322TIP3   OH215922   3.988   6.231   2.398 -0.2265  0.0058  0.2220
 5322TIP3    H115923   4.009   6.229   2.491  0.9137  1.5948  0.0254
 5322TIP3    H215924   3.893   6.220   2.395 -0.5721  2.2232  1.7435
 5323TIP3   OH215925   8.133   4.120   6.077  0.1753 -0.2701 -0.6396
 5323TIP3    H115926   8.123   4.216   6.079  2.1571 -0.0434 -0.3764
 5323TIP3    H215927   8.047   4.088   6.052 -0.0874  1.6720 -2.3723
 5324TIP3   OH215928   6.555   0.114   3.847  0.3054  0.0281  0.3158
 5324TIP3    H115929   6.589   0.203   3.854  0.3250 -0.0673  1.4346
 5324TIP3    H215930   6.518   0.095   3.933 -0.6246 -0.6672 -0.2318
 5325TIP3   OH215931   4.042   1.050   1.124  0.0796  0.0333  0.2262
 5325TIP3    H115932   3.964   1.054   1.180  0.3513  0.7663  0.5664
 5325TIP3    H215933   4.007   1.050   1.035 -0.3074  1.1073  0.3571
 5326TIP3   OH215934   3.988   1.459   1.547  0.2714  0.0924 -0.1731
 5326TIP3    H115935   4.037   1.531   1.587  0.7667 -0.1734 -0.3004
 5326TIP3    H215936   3.950   1.498   1.468  0.0364  0.3760  0.0797
 5327TIP3   OH215937   3.104   5.109   2.755 -0.2953  0.0889  0.2981
 5327TIP3    H115938   3.062   5.193   2.735  0.4449 -0.5852 -4.5787
 5327TIP3    H215939   3.033   5.045   2.752 -0.4042  0.1558  1.2912
 5328TIP3   OH215940   1.783   6.699   1.951 -0.1324 -0.7454  0.3648
 5328TIP3    H115941   1.761   6.656   2.034 -1.9916  0.7221  0.6803
 5328TIP3    H215942   1.725   6.658   1.887 -0.9185  0.2603  0.4086
 5329TIP3   OH215943   3.953   0.369   0.265 -0.0546  0.1598 -0.1808
 5329TIP3    H115944   4.033   0.316   0.272 -0.5867 -0.8990 -1.8759
 5329TIP3    H215945   3.910   0.337   0.186 -1.3592  1.8323 -0.1688
 5330TIP3   OH215946   5.072   7.319   2.568  0.2588 -0.8107 -0.3563
 5330TIP3    H115947   4.979   7.297   2.556  0.5921 -1.9726 -0.7905
 5330TIP3    H215948   5.075   7.364   2.653 -0.7231 -0.5963 -0.4212
 5331TIP3   OH215949   2.989   7.097   2.061 -0.0330  0.7285 -0.4493
 5331TIP3    H115950   2.922   7.030   2.052 -0.8739  1.3084  1.2372
 5331TIP3    H215951   3.070   7.054   2.033 -0.3992 -1.2761  1.4412
 5332TIP3   OH215952   3.312   6.890   0.215 -0.5128  0.1028 -0.2229
 5332TIP3    H115953   3.227   6.930   0.233 -0.9737 -0.3959 -1.2828
 5332TIP3    H215954   3.308   6.865   0.123  1.9107  2.8573 -1.1795
 5333TIP3   OH215955   3.250   6.471   3.344  0.1237  0.1201 -0.2137
 5333TIP3    H115956   3.165   6.450   3.304  1.2037 -1.5593 -1.7033
 5333TIP3    H215957   3.288   6.385   3.365  1.8546  0.8178 -0.4250
 5334TIP3   OH215958   4.935   2.032   1.413  0.4829  0.3629  0.2409
 5334TIP3    H115959   4.881   1.958   1.440 -1.1921  1.7885  0.9273
 5334TIP3    H215960   4.970   2.067   1.495 -0.1819  1.3912  0.1025
 5335TIP3   OH215961   4.672   0.582   2.127  0.1243  0.4584 -0.8011
 5335TIP3    H115962   4.702   0.595   2.217  1.1578 -0.6661 -0.9675
 5335TIP3    H215963   4.677   0.668   2.087 -2.0620  1.3191  0.7205
 5336TIP3   OH215964   6.242   2.838   6.913 -0.0392  0.3367  0.4281
 5336TIP3    H115965   6.325   2.790   6.911 -0.1021  0.1972  1.1155
 5336TIP3    H215966   6.182   2.780   6.960 -0.2034  0.9481  0.9770
 5337TIP3   OH215967   2.639   6.679   3.537  0.1565  0.1644 -0.3638
 5337TIP3    H115968   2.694   6.659   3.613  0.6023 -0.1816 -0.7712
 5337TIP3    H215969   2.557   6.709   3.575  0.1708 -0.5527  0.2704
 5338TIP3   OH215970   2.156   7.858   0.284  0.2983  0.4049 -0.4044
 5338TIP3    H115971   2.187   7.860   0.194 -0.1548  0.8537 -0.5515
 5338TIP3    H215972   2.066   7.891   0.280  0.6169  1.3890  0.3586
 5339TIP3   OH215973   1.835   7.389   2.078  0.4774  0.4240  0.6173
 5339TIP3    H115974   1.904   7.426   2.133 -0.0230  1.5710  0.4784
 5339TIP3    H215975   1.755   7.433   2.106 -0.0315 -0.1113  0.0285
 5340TIP3   OH215976   5.293   6.622   2.672 -0.1265 -0.2203 -0.4105
 5340TIP3    H115977   5.307   6.684   2.600 -0.0151 -0.0033 -0.2032
 5340TIP3    H215978   5.380   6.610   2.710 -0.2798  0.0818  0.0304
 5341TIP3   OH215979   1.513   6.282   0.443 -0.0275 -0.2505 -0.0187
 5341TIP3    H115980   1.588   6.259   0.499 -0.3304 -2.2110 -0.3609
 5341TIP3    H215981   1.504   6.207   0.384 -1.1481  0.7780 -1.1688
 5342TIP3   OH215982   7.110   1.494   2.059  0.2687  0.3147  0.4981
 5342TIP3    H115983   7.041   1.453   2.005  0.3773 -1.4658  1.6518
 5342TIP3    H215984   7.064   1.525   2.137  0.7496 -0.8987  1.2820
 5343TIP3   OH215985   5.078   1.456   2.434  0.1197 -0.5479  0.1417
 5343TIP3    H115986   5.053   1.364   2.426 -0.0618 -0.8116  3.2164
 5343TIP3    H215987   5.151   1.456   2.496 -1.0823  1.5377  1.6117
 5344TIP3   OH215988   2.089   7.369   1.394 -0.6224 -0.1158  0.2981
 5344TIP3    H115989   2.112   7.406   1.309 -0.0616  0.7865  0.8401
 5344TIP3    H215990   2.003   7.406   1.414  0.2470  1.4424  1.1597
 5345TIP3   OH215991   2.543   7.290   2.535  0.4628 -0.0205  0.1149
 5345TIP3    H115992   2.453   7.270   2.561  0.6718 -1.8781 -0.5685
 5345TIP3    H215993   2.596   7.269   2.612  1.0540 -5.3030 -1.5316
 5346TIP3   OH215994   1.032   1.575   5.033  0.6718 -0.1828 -0.4265
 5346TIP3    H115995   1.042   1.481   5.051  0.2879 -0.3465 -1.0497
 5346TIP3    H215996   0.946   1.582   4.993  0.7697  0.4179 -0.5259
 5347TIP3   OH215997   5.282   0.586   3.400  0.1334  0.3302 -0.5078
 5347TIP3    H115998   5.369   0.626   3.408 -0.1769  0.4610  3.4301
 5347TIP3    H215999   5.269   0.541   3.483 -3.3028 -0.2520 -1.2889
 5348TIP3   OH216000   1.028   3.266   6.888 -0.1922  0.1924  0.1603
 5348TIP3    H116001   1.089   3.280   6.960 -1.6899  0.6913  1.3832
 5348TIP3    H216002   1.073   3.299   6.810  2.8972 -3.5771  0.1738
 5349TIP3   OH216003   5.927   0.470   2.382 -0.2339  0.1250  0.1140
 5349TIP3    H116004   5.833   0.486   2.374 -0.0687  1.4409  0.7105
 5349TIP3    H216005   5.967   0.520   2.311 -0.0289 -1.0379 -0.6075
 5350TIP3   OH216006   4.231   2.006   1.376  0.0711  0.5799 -0.0995
 5350TIP3    H116007   4.269   2.091   1.398  0.7441  0.5331 -1.0394
 5350TIP3    H216008   4.137   2.023   1.371  0.4202  1.9250 -3.0194
 5351TIP3   OH216009   0.230   7.872   0.768  0.0870 -0.6472 -0.1591
 5351TIP3    H116010   0.211   7.943   0.830 -0.9338  1.1244 -2.4366
 5351TIP3    H216011   0.325   7.870   0.762  0.1075  2.3143 -1.9804
 5352TIP3   OH216012   3.036   6.889   2.854  0.5835 -0.1257 -0.6577
 5352TIP3    H116013   3.115   6.938   2.830 -0.9011  2.6200 -0.1043
 5352TIP3    H216014   2.989   6.947   2.914 -0.4633 -2.9308  1.3077
 5353TIP3   OH216015   7.455   0.201   3.014 -0.7518 -0.3044  0.3280
 5353TIP3    H116016   7.522   0.235   3.073 -0.0763  0.0925 -0.6567
 5353TIP3    H216017   7.465   0.106   3.018 -1.5235 -0.3478  1.7775
 5354TIP3   OH216018   5.945   0.178   2.257 -0.0603 -0.0207 -0.0073
 5354TIP3    H116019   5.877   0.133   2.307  1.0725 -0.5555  1.0759
 5354TIP3    H216020   5.955   0.262   2.301 -1.1054  0.7004 -1.1136
 5355TIP3   OH216021   4.659   5.869   3.275  0.8240  0.7233  0.1557
 5355TIP3    H116022   4.680   5.825   3.192  0.7923  1.0836 -0.0491
 5355TIP3    H216023   4.599   5.810   3.319  0.0359  0.9804 -0.5415
 5356TIP3   OH216024   2.355   7.159   0.089  0.6426  1.1863  0.2799
 5356TIP3    H116025   2.315   7.164   0.002  0.3508  0.7964  0.3919
 5356TIP3    H216026   2.360   7.065   0.108  1.7187  1.2150  0.2158
 5357TIP3   OH216027   5.113   5.699   2.779  0.3489  0.3333  0.1910
 5357TIP3    H116028   5.112   5.794   2.770 -0.9946  0.5217  2.1314
 5357TIP3    H216029   5.140   5.667   2.693 -1.0388  2.3925 -1.0360
 5358TIP3   OH216030   5.953   0.405   2.942  0.1583  0.2723  0.6516
 5358TIP3    H116031   5.879   0.453   2.977 -0.4004 -0.5804  0.6516
 5358TIP3    H216032   5.948   0.416   2.847  0.2166  0.4783  0.6728
 5359TIP3   OH216033   4.884   0.893   3.622  0.2245  0.1367 -0.1656
 5359TIP3    H116034   4.934   0.887   3.541  0.1710  0.8795 -0.2625
 5359TIP3    H216035   4.852   0.804   3.637  0.9723 -0.1887 -0.4828
 5360TIP3   OH216036   5.765   0.553   1.925 -0.3915  0.3698 -0.3237
 5360TIP3    H116037   5.821   0.525   1.853  0.6615  0.6128  0.3897
 5360TIP3    H216038   5.740   0.472   1.969  1.5694  0.4321  0.9420
 5361TIP3   OH216039   7.860   0.310   1.802  0.0382 -0.4003 -0.5153
 5361TIP3    H116040   7.896   0.294   1.889  1.0111 -2.2263 -1.2274
 5361TIP3    H216041   7.864   0.225   1.758 -2.1511  0.0760 -1.7361
 5362TIP3   OH216042   3.710   6.296   1.563  0.1173  0.3818  0.5913
 5362TIP3    H116043   3.777   6.248   1.514  0.2575 -0.3174  1.4558
 5362TIP3    H216044   3.636   6.301   1.504  0.1906 -0.6956  0.4039
 5363TIP3   OH216045   1.616   6.574   6.955 -0.1258 -0.1938  0.2419
 5363TIP3    H116046   1.652   6.565   6.867 -1.2439 -0.1887 -0.2213
 5363TIP3    H216047   1.521   6.574   6.943 -0.3087  2.7129  1.1278
 5364TIP3   OH216048   3.939   7.621   1.302  0.3618  0.3648  0.3815
 5364TIP3    H116049   3.921   7.709   1.335 -0.4466  0.1049  0.6228
 5364TIP3    H216050   3.899   7.562   1.365 -3.1783 -0.0969 -2.1874
 5365TIP3   OH216051   1.066   3.277   6.602  0.6237 -0.6036  0.0031
 5365TIP3    H116052   1.054   3.186   6.575 -1.0523  0.0490 -1.5414
 5365TIP3    H216053   1.134   3.310   6.543  1.2018 -0.8210  0.5358
 5366TIP3   OH216054   6.826   1.554   0.247  0.7476 -0.6550 -0.2818
 5366TIP3    H116055   6.882   1.501   0.305  0.9498 -1.4466 -1.1908
 5366TIP3    H216056   6.888   1.609   0.198  0.6319 -0.5887 -0.3536
 5367TIP3   OH216057   0.500   3.912   6.608 -0.3719  0.2041 -0.2270
 5367TIP3    H116058   0.443   3.924   6.685 -0.3142 -1.4048  0.0774
 5367TIP3    H216059   0.520   3.818   6.607  0.3291  0.3572 -1.7221
 5368TIP3   OH216060   1.622   6.759   1.281  0.8552 -0.3321  0.3399
 5368TIP3    H116061   1.632   6.824   1.351  0.7027 -0.5799  0.5919
 5368TIP3    H216062   1.646   6.806   1.201  1.0602 -0.0555  0.5625
 5369TIP3   OH216063   7.462  -0.001   2.160  0.2380 -0.3831 -0.4235
 5369TIP3    H116064   7.397   0.016   2.229  0.6549  0.3396 -0.1995
 5369TIP3    H216065   7.497   0.086   2.139 -0.7316 -0.4360 -2.4024
 5370TIP3   OH216066   3.365   7.798   1.113 -0.2822  0.3296  0.1841
 5370TIP3    H116067   3.334   7.708   1.108 -1.1310  0.5175  1.5033
 5370TIP3    H216068   3.453   7.796   1.076 -0.8981 -0.7238 -1.2761
 5371TIP3   OH216069   3.851   6.060   1.490 -0.6481  0.6002  0.0969
 5371TIP3    H116070   3.863   5.965   1.496 -2.1415  0.5208  2.4945
 5371TIP3    H216071   3.787   6.072   1.420  0.3437 -0.0695 -0.9368
 5372TIP3   OH216072   4.948   3.519   6.789  0.1306 -0.1293 -0.1505
 5372TIP3    H116073   4.913   3.443   6.835 -0.6942 -0.6205 -1.5706
 5372TIP3    H216074   4.944   3.496   6.697  2.6563  0.4800 -0.4611
 5373TIP3   OH216075   2.182   5.576   1.392  0.2343  0.3226 -0.1338
 5373TIP3    H116076   2.228   5.632   1.455  0.4689 -1.5830  1.4169
 5373TIP3    H216077   2.094   5.614   1.386 -0.2399 -0.3297  2.4570
 5374TIP3   OH216078   2.392   7.802   2.267  0.1439  0.0628 -0.4822
 5374TIP3    H116079   2.348   7.864   2.209 -2.0315  0.4703  1.5287
 5374TIP3    H216080   2.387   7.719   2.221 -0.6714  0.5791 -1.3476
 5375TIP3   OH216081   8.273   2.742   1.440  0.0753 -0.5694 -0.1322
 5375TIP3    H116082   8.312   2.655   1.450  0.9139 -0.1413  0.3221
 5375TIP3    H216083   8.211   2.732   1.368  0.8131 -1.3201 -0.6632
 5376TIP3   OH216084   3.938   6.788   3.058  0.3698 -0.1130 -0.1848
 5376TIP3    H116085   3.881   6.863   3.074  0.6284  0.5375 -2.2434
 5376TIP3    H216086   4.024   6.816   3.090 -0.1596 -0.6428  1.7746
 5377TIP3   OH216087   4.842   1.087   1.935  0.3302  0.0354 -0.5477
 5377TIP3    H116088   4.752   1.054   1.931  0.3488 -0.1210  0.2983
 5377TIP3    H216089   4.832   1.180   1.955  0.3740 -0.1249  0.2346
 5378TIP3   OH216090   5.912   5.648   2.577 -0.0743  0.4578  0.3559
 5378TIP3    H116091   5.920   5.669   2.670  0.2562  0.8394  0.2434
 5378TIP3    H216092   5.837   5.698   2.547 -0.8620 -0.5283  0.6637
 5379TIP3   OH216093   2.309   6.392   1.654 -0.2212  0.1085  0.2543
 5379TIP3    H116094   2.384   6.374   1.597  0.2579  3.0653 -0.1722
 5379TIP3    H216095   2.313   6.325   1.722  4.1545  1.4161  1.4923
 5380TIP3   OH216096   2.703   6.500   2.759 -0.5743  0.2207  0.2217
 5380TIP3    H116097   2.764   6.442   2.805 -0.3464  0.5621  0.3501
 5380TIP3    H216098   2.722   6.587   2.793  0.9318  0.7649 -1.9215
 5381TIP3   OH216099   7.092   3.124   6.356  0.7172  0.1115 -0.5910
 5381TIP3    H116100   7.120   3.126   6.448  0.0887  1.2632 -0.4172
 5381TIP3    H216101   7.004   3.086   6.358 -0.0634  1.8686 -0.4933
 5382TIP3   OH216102   3.648   6.426   1.805  0.1491 -0.2650  0.6133
 5382TIP3    H116103   3.650   6.388   1.717 -0.6871 -1.0028  0.9118
 5382TIP3    H216104   3.596   6.506   1.794 -2.0563 -1.6333  0.9250
 5383TIP3   OH216105   3.034   6.582   1.812  0.0147  1.0957  0.5099
 5383TIP3    H116106   3.075   6.496   1.799 -0.1247  1.0485  0.3822
 5383TIP3    H216107   3.076   6.639   1.748  1.2783  1.5185  1.6938
 5384TIP3   OH216108   6.886   0.367   2.170  0.4888 -0.4984 -0.1966
 5384TIP3    H116109   6.853   0.278   2.159  0.5019 -0.3788 -1.2750
 5384TIP3    H216110   6.926   0.368   2.257 -3.5432 -0.2577  1.7693
 5385TIP3   OH216111   2.795   6.872   2.009 -0.1103  0.1527  0.0388
 5385TIP3    H116112   2.704   6.873   2.039  0.1334  3.2358  0.8240
 5385TIP3    H216113   2.789   6.849   1.916 -1.6885  0.3003  0.0879
 5386TIP3   OH216114   5.100   6.335   3.443 -0.5312  0.3332 -0.0687
 5386TIP3    H116115   5.063   6.332   3.355 -1.0361  2.3008  0.0355
 5386TIP3    H216116   5.026   6.315   3.501 -0.1456 -1.1948 -0.0904
 5387TIP3   OH216117   3.883   5.696   2.001  0.0706  0.2177  0.3331
 5387TIP3    H116118   3.819   5.755   1.962 -0.6296 -0.6641  0.1336
 5387TIP3    H216119   3.850   5.608   1.981  0.5623 -0.2469  1.5052
 5388TIP3   OH216120   2.445   6.735   2.885 -0.0005 -0.5111  0.5259
 5388TIP3    H116121   2.440   6.765   2.975  0.8172 -0.3746  0.5347
 5388TIP3    H216122   2.539   6.727   2.868 -0.1765 -2.2981  0.2688
 5389TIP3   OH216123   7.735   0.300   2.393 -0.3642  0.1666  0.5004
 5389TIP3    H116124   7.744   0.211   2.428 -0.2788  0.2727  0.7532
 5389TIP3    H216125   7.646   0.302   2.357  0.1552 -0.4729 -0.8248
 5390TIP3   OH216126   2.863   7.597   1.222  0.2141 -0.2134 -0.2879
 5390TIP3    H116127   2.834   7.516   1.265 -1.4760  1.0455  0.9982
 5390TIP3    H216128   2.794   7.616   1.159  1.1169 -0.3166 -1.3190
 5391TIP3   OH216129   1.477   6.499   1.559 -0.0203 -0.2357 -0.1904
 5391TIP3    H116130   1.460   6.405   1.547 -0.9361  0.0738 -1.4025
 5391TIP3    H216131   1.395   6.534   1.594  0.5078  0.0323  0.8187
 5392TIP3   OH216132   2.689   5.969   2.169  0.0179 -0.5242  0.0258
 5392TIP3    H116133   2.655   5.929   2.088 -2.6919 -0.8804  1.3060
 5392TIP3    H216134   2.759   5.909   2.196 -1.0493 -2.0472 -0.4715
 5393TIP3   OH216135   1.757   6.814   0.737 -0.1684 -0.7909 -0.1759
 5393TIP3    H116136   1.687   6.877   0.719 -0.2565 -0.9242 -0.2989
 5393TIP3    H216137   1.838   6.865   0.729 -0.1965 -0.8932 -1.1535
 5394TIP3   OH216138   3.531   4.853   0.028 -0.2352 -0.1453  0.8673
 5394TIP3    H116139   3.611   4.905   0.014 -0.1958  0.1462  2.0599
 5394TIP3    H216140   3.563   4.770   0.064 -0.1124 -1.9496 -3.1210
 5395TIP3   OH216141   3.042   7.799   2.072  0.1496 -0.6494 -0.0824
 5395TIP3    H116142   3.053   7.749   1.991  3.2453 -0.8797  0.4198
 5395TIP3    H216143   3.061   7.889   2.046  0.4098 -0.6140  0.2342
 5396TIP3   OH216144   2.107   6.234   0.812 -0.2511  0.4575  0.1232
 5396TIP3    H116145   2.068   6.190   0.887 -0.0800 -0.4859 -0.3441
 5396TIP3    H216146   2.142   6.164   0.757  0.0918  1.1673 -0.5821
 5397TIP3   OH216147   3.946   7.146   2.137  0.0126 -0.5129  0.0721
 5397TIP3    H116148   3.952   7.101   2.052 -1.5755 -1.3119  0.3670
 5397TIP3    H216149   4.011   7.217   2.131 -0.8057  0.0842 -2.1984
 5398TIP3   OH216150   4.246   0.210   2.631  0.0220 -0.4919  0.3166
 5398TIP3    H116151   4.329   0.239   2.670 -0.3536  0.7292  0.2086
 5398TIP3    H216152   4.263   0.119   2.606  1.0901 -0.4922  0.9837
 5399TIP3   OH216153   4.426   0.732   3.669  0.1147 -0.3907 -0.1152
 5399TIP3    H116154   4.481   0.737   3.747 -0.5318 -1.3408  0.4174
 5399TIP3    H216155   4.351   0.788   3.688 -0.0193 -0.5842 -0.0655
 5400TIP3   OH216156   6.191   0.356   0.269  0.6037 -0.1253 -0.3181
 5400TIP3    H116157   6.186   0.312   0.354  2.9302  1.4032  0.6917
 5400TIP3    H216158   6.281   0.341   0.240 -0.0082 -0.1281 -2.2313
 5401TIP3   OH216159   6.864   1.327   2.969 -0.2233  0.1616 -0.1839
 5401TIP3    H116160   6.892   1.418   2.979  1.4047 -0.3419  0.0409
 5401TIP3    H216161   6.845   1.317   2.876  0.0686  0.5941 -0.2892
 5402TIP3   OH216162   4.839   7.939   0.705 -0.0227 -0.7203  0.3055
 5402TIP3    H116163   4.822   7.846   0.714  1.3578 -1.2615 -2.1823
 5402TIP3    H216164   4.753   7.978   0.689 -0.6130 -1.5443  1.4448
 5403TIP3   OH216165   0.011   3.072   0.603 -0.1280  0.0909  0.2320
 5403TIP3    H116166   0.043   3.162   0.609 -0.1290  0.4187 -3.4689
 5403TIP3    H216167   0.085   3.022   0.571 -1.1796 -0.4922 -1.3654
 5404TIP3   OH216168   5.640   0.098   1.819  0.1212  0.4958  0.3057
 5404TIP3    H116169   5.680   0.151   1.750 -2.7139  1.6030 -0.5416
 5404TIP3    H216170   5.591   0.030   1.773 -0.0637 -0.0587  1.2926
 5405TIP3   OH216171   8.217   0.207   6.722  0.4177  0.1395  0.4210
 5405TIP3    H116172   8.264   0.289   6.708 -0.6127  0.7374  0.4288
 5405TIP3    H216173   8.127   0.234   6.739 -0.2220 -1.0604 -0.9985
 5406TIP3   OH216174   2.912   3.789   5.320 -0.1802 -0.3806 -0.0384
 5406TIP3    H116175   2.887   3.828   5.237 -0.3652 -0.1674  0.1171
 5406TIP3    H216176   2.958   3.708   5.297 -0.9275 -0.7278 -0.3233
 5407TIP3   OH216177   1.164   3.670   5.459 -0.1915 -0.1438 -0.4210
 5407TIP3    H116178   1.077   3.709   5.448 -0.6771 -1.5800 -1.8661
 5407TIP3    H216179   1.200   3.666   5.371  1.0564 -0.2363  0.0780
 5408TIP3   OH216180   7.425   5.906   1.045  0.3857  0.2813 -0.0845
 5408TIP3    H116181   7.521   5.914   1.044  0.4402 -0.3650 -0.6133
 5408TIP3    H216182   7.398   5.945   1.128  0.9873  1.8308 -0.5923
 5409TIP3   OH216183   6.151   5.798   0.824 -0.0251 -0.3288  0.1660
 5409TIP3    H116184   6.214   5.795   0.752  0.9434  0.8541  0.9403
 5409TIP3    H216185   6.147   5.890   0.849 -0.2145 -0.7440  1.7260
 5410TIP3   OH216186   1.845   2.356   5.538  0.3924 -0.0684  0.2277
 5410TIP3    H116187   1.885   2.398   5.614  1.6009  1.9684 -1.4791
 5410TIP3    H216188   1.874   2.265   5.544  2.8787  0.7003  0.6537
 5411TIP3   OH216189   7.528   0.473   1.889  0.4021 -0.0482  0.3292
 5411TIP3    H116190   7.477   0.552   1.901  1.0064 -0.0553  3.3207
 5411TIP3    H216191   7.613   0.504   1.857 -0.0070  0.3196 -0.4196
 5412TIP3   OH216192   1.492   0.504   6.707 -0.7216  0.0001  0.2344
 5412TIP3    H116193   1.509   0.450   6.630  1.0123 -0.1939  0.7386
 5412TIP3    H216194   1.536   0.587   6.688 -0.9595  0.2284  0.6787
 5413TIP3   OH216195   3.856   5.803   0.155  0.0538  0.5204  0.4103
 5413TIP3    H116196   3.944   5.778   0.183 -0.0650  0.0657  0.3912
 5413TIP3    H216197   3.853   5.898   0.166  1.2331  0.8141 -1.5009
 5414TIP3   OH216198   6.557   6.165   2.451  0.3985 -0.1170 -0.0728
 5414TIP3    H116199   6.554   6.200   2.362  0.4177  0.3986  0.1279
 5414TIP3    H216200   6.634   6.206   2.491  0.0261  0.1607  0.3816
 5415TIP3   OH216201   4.931   0.136   3.360  0.6063  0.5377  0.3349
 5415TIP3    H116202   4.867   0.068   3.381  0.6247  1.0193  2.0412
 5415TIP3    H216203   4.887   0.194   3.298  0.5923 -1.0216 -1.1455
 5416TIP3   OH216204   5.474   1.425   0.989 -0.3763 -0.4564  0.6581
 5416TIP3    H116205   5.546   1.474   1.028 -0.6237 -0.5815  1.2691
 5416TIP3    H216206   5.517   1.357   0.938 -0.0738 -1.3194  2.0471
 5417TIP3   OH216207   7.282   1.949   0.092  0.0071  0.0395  0.1857
 5417TIP3    H116208   7.359   2.002   0.070  0.3320 -0.7806 -0.6868
 5417TIP3    H216209   7.214   1.979   0.032  0.4911 -1.2271 -1.0366
 5418TIP3   OH216210   3.789   6.251   0.695  0.3053  0.2246 -0.2762
 5418TIP3    H116211   3.719   6.314   0.677 -0.1829  0.3770  1.9578
 5418TIP3    H216212   3.744   6.175   0.732  1.1088 -0.5864 -0.9546
 5419TIP3   OH216213   4.502   7.189   1.784  0.0323  0.5952  0.1109
 5419TIP3    H116214   4.560   7.242   1.839  0.4348  0.7241 -0.4329
 5419TIP3    H216215   4.443   7.147   1.846  2.0525 -1.2222  0.8741
 5420TIP3   OH216216   7.171   2.404   1.663 -0.7785 -0.3648  0.0761
 5420TIP3    H116217   7.199   2.354   1.739 -1.1109  1.1489  1.2107
 5420TIP3    H216218   7.077   2.417   1.676 -0.8172  0.0124 -0.5420
 5421TIP3   OH216219   1.339   2.120   5.845  0.5266  0.5442 -0.5015
 5421TIP3    H116220   1.299   2.141   5.761 -0.3637  1.9195  0.2493
 5421TIP3    H216221   1.274   2.146   5.910  2.1454  1.7023  0.6958
 5422TIP3   OH216222   5.220   4.507   2.263  0.2022 -0.2033 -0.8223
 5422TIP3    H116223   5.162   4.452   2.315  2.2263 -0.6511  1.0238
 5422TIP3    H216224   5.277   4.445   2.217 -0.7060  0.2337 -2.6063
 5423TIP3   OH216225   8.154   0.034   1.829 -0.3829  0.4656 -0.6791
 5423TIP3    H116226   8.115  -0.053   1.825 -0.5033  0.5631 -2.2009
 5423TIP3    H216227   8.092   0.087   1.878  0.0264 -0.4648  0.8845
 5424TIP3   OH216228   3.282   5.222   6.870 -0.1241  0.3351  0.1069
 5424TIP3    H116229   3.282   5.318   6.867 -2.1002  0.4377  1.9489
 5424TIP3    H216230   3.334   5.201   6.947 -0.1716 -0.0372  0.0350
 5425TIP3   OH216231   4.394   6.530   2.260  0.2163 -0.7474 -0.1450
 5425TIP3    H116232   4.393   6.563   2.350 -0.5095 -0.2069 -0.3482
 5425TIP3    H216233   4.332   6.457   2.260  1.9527 -2.2435  0.3479
 5426TIP3   OH216234   3.202   6.630   0.965  0.5569 -0.0464 -0.3986
 5426TIP3    H116235   3.244   6.709   0.931  0.4587  0.5501  0.8373
 5426TIP3    H216236   3.134   6.662   1.023 -0.3709 -1.0361 -0.9136
 5427TIP3   OH216237   1.658   3.903   5.967  0.3385 -0.3924  0.7895
 5427TIP3    H116238   1.612   3.900   6.050  0.3675  0.1236  0.8284
 5427TIP3    H216239   1.659   3.813   5.936 -2.0186 -0.2138  0.0703
 5428TIP3   OH216240   1.927   4.941   6.698  0.0846  0.1891  0.7347
 5428TIP3    H116241   1.935   4.901   6.785  0.6236 -1.1826  0.0760
 5428TIP3    H216242   2.009   4.988   6.685 -0.9496  2.4242  1.9231
 5429TIP3   OH216243   7.872   0.554   2.064 -0.2152 -0.3982  0.0155
 5429TIP3    H116244   7.907   0.473   2.101  0.2263  0.0917  0.6826
 5429TIP3    H216245   7.948   0.595   2.022 -0.9088 -1.4296 -2.3289
 5430TIP3   OH216246   0.886   3.161   0.516  0.1192  0.0006 -0.7653
 5430TIP3    H116247   0.877   3.066   0.520  1.0141 -0.1932 -2.5325
 5430TIP3    H216248   0.825   3.188   0.448 -0.0261  0.6708 -0.3667
 5431TIP3   OH216249   4.990   7.827   0.458 -0.1205 -0.8977  0.0988
 5431TIP3    H116250   4.971   7.905   0.510  1.0698 -0.9800  0.6872
 5431TIP3    H216251   4.915   7.818   0.400 -0.6211  0.2539  0.5436
 5432TIP3   OH216252   7.764   0.089   1.676  0.4165  0.1934 -0.9806
 5432TIP3    H116253   7.846   0.062   1.634  0.5458  0.4201 -0.8780
 5432TIP3    H216254   7.696   0.051   1.622  0.5975 -1.9554  0.2311
 5433TIP3   OH216255   0.581   4.437   6.723 -0.0379 -0.1625 -0.4041
 5433TIP3    H116256   0.609   4.417   6.812  3.4919  1.2397 -1.1131
 5433TIP3    H216257   0.643   4.389   6.667 -1.2255  0.2457 -2.1123
 5434TIP3   OH216258   6.249   7.585   0.791  0.5681  0.2561  0.0588
 5434TIP3    H116259   6.272   7.539   0.710  2.2980  2.3446 -0.6796
 5434TIP3    H216260   6.320   7.565   0.852 -0.7020 -1.2680  1.0774
 5435TIP3   OH216261   7.698   0.736   0.629 -0.3792  0.8016  0.1627
 5435TIP3    H116262   7.643   0.693   0.694 -0.5918 -0.0838 -0.5979
 5435TIP3    H216263   7.733   0.665   0.575  0.9365  1.4167  0.1951
 5436TIP3   OH216264   4.316   6.726   2.059  0.2798  0.0746  0.5267
 5436TIP3    H116265   4.222   6.716   2.050  0.4079 -0.9842  0.3067
 5436TIP3    H216266   4.345   6.648   2.106  1.2277 -0.3101 -0.6543
 5437TIP3   OH216267   3.018   6.065   1.220 -0.0758  0.2036  0.0306
 5437TIP3    H116268   3.073   6.087   1.295  0.5793 -1.0351 -0.0707
 5437TIP3    H216269   3.079   6.064   1.145 -0.7076  1.3515 -0.5115
 5438TIP3   OH216270   3.529   5.198   0.379  0.2530 -0.1412  0.3427
 5438TIP3    H116271   3.504   5.120   0.428 -1.9512 -0.2075 -0.8531
 5438TIP3    H216272   3.496   5.182   0.290  0.9178  1.5944 -0.2355
 5439TIP3   OH216273   5.333   7.443   0.364 -0.1981  0.0917 -0.4573
 5439TIP3    H116274   5.295   7.529   0.345 -1.1421 -0.7033 -2.3123
 5439TIP3    H216275   5.284   7.383   0.308  1.0436 -1.5366  0.1816
 5440TIP3   OH216276   0.134   1.888   6.889 -0.5073  0.6222 -0.1103
 5440TIP3    H116277   0.107   1.800   6.917  0.2098  1.2175  2.6041
 5440TIP3    H216278   0.216   1.873   6.841 -0.7879 -0.2787 -0.3159
 5441TIP3   OH216279   3.293   6.981   1.513  0.0542  0.0486 -0.2564
 5441TIP3    H116280   3.277   7.041   1.586  1.2733  1.0477 -0.7900
 5441TIP3    H216281   3.211   6.980   1.464  0.2705  1.9073 -0.6933
 5442TIP3   OH216282   6.778   0.358   1.073 -0.5289 -0.4021 -0.2042
 5442TIP3    H116283   6.705   0.380   1.015 -0.1452  0.8710 -0.2335
 5442TIP3    H216284   6.805   0.443   1.110  2.0788 -0.6034 -1.5273
 5443TIP3   OH216285   7.107   6.954   3.217 -0.5903  0.8568 -0.5971
 5443TIP3    H116286   7.032   6.965   3.159  0.8179 -1.0121 -2.8152
 5443TIP3    H216287   7.085   6.878   3.270 -0.0242 -0.0416 -1.6441
 5444TIP3   OH216288   5.722   6.960   2.478  0.0691  0.2542  0.0366
 5444TIP3    H116289   5.720   6.985   2.570 -0.5990  0.8588 -0.1374
 5444TIP3    H216290   5.755   7.038   2.433  1.0851 -0.2791 -0.1657
 5445TIP3   OH216291   3.075   6.908   1.360  0.1516  0.5962 -0.3146
 5445TIP3    H116292   3.001   6.860   1.397  0.3372  0.0257 -0.6799
 5445TIP3    H216293   3.037   6.965   1.294 -0.1368  1.3459  0.4929
 5446TIP3   OH216294   5.502   5.984   2.418  0.0344 -0.0883  0.6907
 5446TIP3    H116295   5.574   5.972   2.355 -0.6465 -1.5399  0.1773
 5446TIP3    H216296   5.480   6.077   2.411  0.6765 -0.0053 -0.4568
 5447TIP3   OH216297   3.989   5.379   2.373  0.3464  0.3242  0.8050
 5447TIP3    H116298   3.919   5.435   2.339  1.5262  0.3428 -1.7355
 5447TIP3    H216299   3.987   5.393   2.468 -2.4563  1.0232  0.7045
 5448TIP3   OH216300   2.380   3.210   6.368  0.1625 -0.3013 -0.3155
 5448TIP3    H116301   2.466   3.169   6.375  0.9227  1.7859  3.8021
 5448TIP3    H216302   2.398   3.303   6.353 -1.4416 -0.1446 -1.4990
 5449TIP3   OH216303   4.067   7.002   2.417 -0.1142 -0.0289 -0.3865
 5449TIP3    H116304   4.006   6.930   2.399 -0.9183  0.8432 -1.1736
 5449TIP3    H216305   4.074   7.049   2.334  0.3604  0.8372  0.1397
 5450TIP3   OH216306   3.849   4.717   0.513  0.3491  0.5517  0.1942
 5450TIP3    H116307   3.805   4.664   0.446  1.3987 -0.1534  0.0495
 5450TIP3    H216308   3.816   4.684   0.596  1.2275 -0.5716  0.1191
 5451TIP3   OH216309   1.234   1.756   5.138 -0.2072 -0.2189  0.5511
 5451TIP3    H116310   1.174   1.698   5.092 -0.0476 -0.7944  1.0729
 5451TIP3    H216311   1.280   1.802   5.068  1.1129 -2.1821  0.1116
 5452TIP3   OH216312   0.938   3.619   6.748 -0.3053  0.1513  0.6348
 5452TIP3    H116313   0.864   3.561   6.766  0.4035 -1.1229 -0.5079
 5452TIP3    H216314   1.004   3.595   6.812 -0.0159 -0.2958  0.1690
 5453TIP3   OH216315   4.710   7.061   1.270  0.0360 -0.3881 -0.2076
 5453TIP3    H116316   4.693   6.979   1.225  0.3682 -0.5408 -0.0551
 5453TIP3    H216317   4.637   7.118   1.244  0.9009 -0.0446 -1.9914
 5454TIP3   OH216318   3.788   7.535   0.258  0.3656  0.2216 -0.1656
 5454TIP3    H116319   3.858   7.483   0.220 -0.3666  1.3285 -3.1124
 5454TIP3    H216320   3.826   7.623   0.268  0.1422  0.2483  0.4699
 5455TIP3   OH216321   3.531   7.134   3.771  0.1926  0.5365  0.4761
 5455TIP3    H116322   3.594   7.100   3.707 -0.1936  1.1687 -0.2558
 5455TIP3    H216323   3.585   7.166   3.843  0.5720 -1.3299  1.0499
 5456TIP3   OH216324   7.502   0.998   1.984 -0.3160  0.7215  0.1017
 5456TIP3    H116325   7.475   1.086   1.959 -0.7543  0.4108 -0.5512
 5456TIP3    H216326   7.532   0.958   1.903  2.7937  1.2725  0.9269
 5457TIP3   OH216327   4.675   0.212   1.436 -0.2182  0.0005  0.3882
 5457TIP3    H116328   4.642   0.147   1.374 -0.6261  0.3925  0.1899
 5457TIP3    H216329   4.767   0.224   1.412  0.1264 -1.2489  1.0715
 5458TIP3   OH216330   4.450   7.916   1.203 -0.0980  0.0871 -0.2093
 5458TIP3    H116331   4.409   7.954   1.281  1.4269 -0.3943  0.8508
 5458TIP3    H216332   4.447   7.986   1.138 -0.0246  1.0089  0.7676
 5459TIP3   OH216333   0.326   0.381   0.279  0.1022  0.4538  0.3671
 5459TIP3    H116334   0.296   0.441   0.211 -0.3084  1.1926  1.1829
 5459TIP3    H216335   0.403   0.425   0.317 -0.6380  0.8420  1.4661
 5460TIP3   OH216336   6.193   0.629   0.830 -0.1366  0.0810 -0.3550
 5460TIP3    H116337   6.194   0.619   0.925  1.0208  0.6919 -0.2911
 5460TIP3    H216338   6.108   0.668   0.810 -0.0419  0.7641  0.5295
 5461TIP3   OH216339   1.091   3.614   6.314  0.4168 -0.8710  0.0874
 5461TIP3    H116340   1.069   3.615   6.221 -1.7029  1.0146  0.5842
 5461TIP3    H216341   1.136   3.697   6.330 -1.6080  0.0204  1.2738
 5462TIP3   OH216342   2.810   7.323   1.298 -0.4400  0.2195  0.1635
 5462TIP3    H116343   2.894   7.307   1.341  1.1908 -0.8537 -3.2320
 5462TIP3    H216344   2.752   7.354   1.368  2.6513  0.5657  2.6591
 5463TIP3   OH216345   7.659   1.026   1.192 -0.1832  0.4179  0.0815
 5463TIP3    H116346   7.669   0.992   1.103 -0.7031  1.4637 -0.3850
 5463TIP3    H216347   7.744   1.064   1.214 -0.3556  1.0708 -0.3650
 5464TIP3   OH216348   6.808   3.728   2.201  0.1398  0.1975 -0.2618
 5464TIP3    H116349   6.802   3.672   2.278 -0.3386  2.6000  1.5454
 5464TIP3    H216350   6.722   3.771   2.197  0.1201 -0.0112 -2.2297
 5465TIP3   OH216351   5.969   6.982   3.028  0.4563  0.0567  0.3234
 5465TIP3    H116352   5.969   7.078   3.033 -0.1648  0.0350  0.8885
 5465TIP3    H216353   6.036   6.955   3.090  2.7660  0.2034 -2.0568
 5466TIP3   OH216354   4.946   6.854   0.312  0.2094 -0.5264  0.0786
 5466TIP3    H116355   4.862   6.845   0.268  0.4990  2.3465 -1.1979
 5466TIP3    H216356   5.010   6.818   0.249  0.2160 -0.0607 -0.1843
 5467TIP3   OH216357   6.896   0.197   0.620  0.3289  0.2133 -0.0139
 5467TIP3    H116358   6.808   0.215   0.653  0.9649  1.0982  1.2369
 5467TIP3    H216359   6.915   0.108   0.650  0.9760  1.0746  2.2269
 5468TIP3   OH216360   6.723   0.267   3.204 -0.3316  0.1381  0.1913
 5468TIP3    H116361   6.792   0.203   3.187 -1.0192 -0.2943 -1.0787
 5468TIP3    H216362   6.760   0.350   3.174 -0.5264 -0.1783 -0.9771
 5469TIP3   OH216363   4.387   7.688   2.296  0.3886 -0.0084  0.0191
 5469TIP3    H116364   4.428   7.703   2.211  1.3344  0.5145  0.5663
 5469TIP3    H216365   4.394   7.594   2.310  0.7257 -0.0189 -0.2264
 5470TIP3   OH216366   6.914   0.301   1.828  0.7667  0.4930 -0.9644
 5470TIP3    H116367   6.899   0.395   1.824  1.7922  0.6751 -0.6784
 5470TIP3    H216368   6.840   0.267   1.879  0.9975  1.2833 -0.0882
 5471TIP3   OH216369   6.010   6.926   1.330 -0.6785  0.2810  0.0476
 5471TIP3    H116370   6.061   6.847   1.348  0.3410  1.0992  0.8052
 5471TIP3    H216371   6.075   6.994   1.315 -1.5545  1.1464  0.1099
 5472TIP3   OH216372   6.347   6.851   1.713  0.3670  0.7455 -0.5138
 5472TIP3    H116373   6.345   6.921   1.779  0.8156  0.4517 -0.1799
 5472TIP3    H216374   6.370   6.773   1.763  0.1704  0.4168 -0.9362
 5473TIP3   OH216375   4.963   6.399   1.005 -0.4030  0.2440 -0.1236
 5473TIP3    H116376   4.891   6.361   1.056 -0.0796 -1.2508 -0.7405
 5473TIP3    H216377   4.930   6.401   0.915 -0.3249  1.2273 -0.1330
 5474TIP3   OH216378   7.774   1.830   0.471  0.5251  0.0372  0.1152
 5474TIP3    H116379   7.786   1.843   0.565 -1.9532  1.9574  0.2047
 5474TIP3    H216380   7.833   1.893   0.430  0.6541  0.0848  0.3728
 5475TIP3   OH216381   3.408   6.528   2.073  0.0098  0.3969 -0.4116
 5475TIP3    H116382   3.395   6.440   2.038  0.2961 -0.5220  1.7832
 5475TIP3    H216383   3.349   6.533   2.148  0.6073  1.8008 -0.0194
 5476TIP3   OH216384   6.212   6.000   1.170 -0.3340 -0.6040  0.0114
 5476TIP3    H116385   6.227   6.062   1.241  2.0953  0.9563 -1.7656
 5476TIP3    H216386   6.213   5.914   1.211 -0.6026  0.3554  2.0685
 5477TIP3   OH216387   8.294   0.431   4.111 -0.2219  0.7767  0.5451
 5477TIP3    H116388   8.235   0.470   4.047  0.4613  1.4396  0.3102
 5477TIP3    H216389   8.371   0.404   4.061  0.8163  2.3656  1.2447
 5478TIP3   OH216390   4.154   6.365   2.736  0.4015 -0.1952  0.1642
 5478TIP3    H116391   4.156   6.270   2.740 -0.2945 -0.3218 -2.2507
 5478TIP3    H216392   4.077   6.390   2.788 -0.2432 -1.0223 -0.3963
 5479TIP3   OH216393   1.405   5.350   6.720  0.0331  0.0800 -0.0352
 5479TIP3    H116394   1.408   5.261   6.754 -1.0896 -0.2383 -0.7228
 5479TIP3    H216395   1.490   5.388   6.742  0.3838 -1.0458  0.5675
 5480TIP3   OH216396   4.480   7.336   0.701 -0.1651 -0.9878  0.4305
 5480TIP3    H116397   4.439   7.295   0.777 -3.1810 -0.1463 -0.6543
 5480TIP3    H216398   4.452   7.427   0.704 -1.0702 -1.1181 -2.0995
 5481TIP3   OH216399   2.196   7.585   1.772 -0.2352 -0.1712 -0.1997
 5481TIP3    H116400   2.110   7.544   1.760 -0.7782  0.8472  0.1734
 5481TIP3    H216401   2.178   7.679   1.773  0.8058  0.0285  0.4713
 5482TIP3   OH216402   7.755   2.138   1.650 -0.2228  0.1835  0.2620
 5482TIP3    H116403   7.762   2.213   1.590 -2.9760  0.4362  0.1941
 5482TIP3    H216404   7.681   2.088   1.617  0.0973 -1.2915  1.7229
 5483TIP3   OH216405   7.729   1.266   2.228  0.9026 -0.4049 -0.3847
 5483TIP3    H116406   7.668   1.321   2.179 -0.0227 -0.3851  0.7532
 5483TIP3    H216407   7.676   1.192   2.257  1.5895 -0.7329  0.0538
 5484TIP3   OH216408   0.958   2.961   1.430 -0.0198  0.5848 -0.5719
 5484TIP3    H116409   0.929   2.948   1.340  0.6701  0.2310 -0.7515
 5484TIP3    H216410   0.995   2.877   1.455 -2.1137  0.0333  0.7763
 5485TIP3   OH216411   2.499   4.937   6.821  0.1652  0.0630  0.1268
 5485TIP3    H116412   2.572   4.900   6.871 -0.4902 -0.2421  0.8742
 5485TIP3    H216413   2.539   4.969   6.740  1.1896  0.2603  0.7025
 5486TIP3   OH216414   6.019   5.162   0.488 -0.5178  0.2111 -0.3548
 5486TIP3    H116415   6.091   5.138   0.546 -0.5932  2.3950  0.7006
 5486TIP3    H216416   5.947   5.105   0.513 -0.1077  0.1577  0.7455
 5487TIP3   OH216417   4.890   7.700   2.834  0.0480  0.5698 -0.6386
 5487TIP3    H116418   4.908   7.770   2.897 -2.3569  0.4922  0.2042
 5487TIP3    H216419   4.797   7.711   2.813  0.2679 -0.8342 -2.4194
 5488TIP3   OH216420   4.135   7.792   2.267  0.1680  0.0052 -0.4721
 5488TIP3    H116421   4.229   7.773   2.269 -0.2504 -2.5230 -1.9854
 5488TIP3    H216422   4.098   7.733   2.333 -0.1207  3.0216  2.2088
 5489TIP3   OH216423   0.599   3.687   6.746  0.0042  0.5644  0.0596
 5489TIP3    H116424   0.615   3.757   6.808 -0.6678  0.5384  0.2627
 5489TIP3    H216425   0.647   3.612   6.781 -1.7091  0.0797  1.4237
 5490TIP3   OH216426   3.724   7.517   4.298 -0.2722  0.4090  0.0912
 5490TIP3    H116427   3.795   7.575   4.327 -0.4554  0.4819  0.4073
 5490TIP3    H216428   3.687   7.561   4.222  0.2279  0.2099 -0.2699
 5491TIP3   OH216429   5.028   7.465   2.788  0.4589  0.0860  0.0513
 5491TIP3    H116430   5.015   7.559   2.772 -0.3228  0.3524  2.1617
 5491TIP3    H216431   5.113   7.460   2.832  1.0477 -0.3229 -1.1140
 5492TIP3   OH216432   5.822   6.689   0.800  0.2406  0.1772  0.7799
 5492TIP3    H116433   5.888   6.725   0.859  1.0289 -0.5856  0.3756
 5492TIP3    H216434   5.807   6.600   0.832  0.7310 -0.2732 -0.1924
 5493TIP3   OH216435   5.890   7.628   0.983 -0.4152  0.2772 -0.3118
 5493TIP3    H116436   5.813   7.666   1.026 -0.0838 -0.5029  1.0054
 5493TIP3    H216437   5.865   7.537   0.967  1.2552 -0.8371  2.8487
 5494TIP3   OH216438   3.726   6.785   1.199  0.2619 -0.2862 -0.0697
 5494TIP3    H116439   3.657   6.838   1.158 -0.2714 -0.3110  0.7875
 5494TIP3    H216440   3.808   6.826   1.172 -0.1705  2.1389  2.1098
 5495TIP3   OH216441   5.074   7.471   1.178 -0.2364 -0.1651  0.7149
 5495TIP3    H116442   5.021   7.448   1.254 -0.9692 -1.2364 -0.0988
 5495TIP3    H216443   5.058   7.400   1.115  0.4882  0.6116 -0.3658
 5496TIP3   OH216444   6.820   7.724   0.081  0.0722  0.0470 -0.1497
 5496TIP3    H116445   6.891   7.682   0.032  0.0429 -1.0696  0.7374
 5496TIP3    H216446   6.760   7.652   0.102 -1.2503  0.9539 -0.7478
 5497TIP3   OH216447   3.981   6.658   2.072  0.4511 -0.0775  0.0102
 5497TIP3    H116448   3.886   6.644   2.075  0.4888 -0.1689  0.8319
 5497TIP3    H216449   4.018   6.580   2.114  0.9105 -0.2716 -0.7518
 5498TIP3   OH216450   4.852   5.621   2.835 -0.2735  0.5252 -0.2758
 5498TIP3    H116451   4.882   5.530   2.836  0.0613  0.6314 -0.7452
 5498TIP3    H216452   4.930   5.672   2.812 -0.3679  0.9673  0.3539
 5499TIP3   OH216453   3.400   5.665   2.892  0.2873 -0.0032 -0.1545
 5499TIP3    H116454   3.314   5.625   2.892 -1.1079  2.8542  0.1498
 5499TIP3    H216455   3.444   5.627   2.816 -0.9077 -2.1335  0.1937
 5500TIP3   OH216456   7.934   0.453   2.509  0.7408 -0.1422  0.4693
 5500TIP3    H116457   7.893   0.433   2.593  0.0840 -1.5891 -0.1699
 5500TIP3    H216458   7.878   0.411   2.444  1.1465  1.1120 -0.7167
 5501TIP3   OH216459   3.537   6.745   0.357  0.3447  0.4447 -0.4279
 5501TIP3    H116460   3.467   6.810   0.349 -0.3230 -0.1747  0.3314
 5501TIP3    H216461   3.609   6.791   0.400  0.4447  1.1010 -1.2693
 5502TIP3   OH216462   6.291   2.046   0.261 -0.1927  0.2456  0.0032
 5502TIP3    H116463   6.305   1.954   0.283 -1.2480  0.0306 -0.1827
 5502TIP3    H216464   6.374   2.089   0.280 -0.1143 -0.5061  1.3936
 5503TIP3   OH216465   5.530   7.092   1.853 -0.3427  0.0577  0.3935
 5503TIP3    H116466   5.548   7.113   1.761 -0.2461 -1.8514 -0.0476
 5503TIP3    H216467   5.447   7.045   1.851 -0.7140  0.6876  1.3696
 5504TIP3   OH216468   6.150   2.777   0.760 -0.5953  0.0761  0.0425
 5504TIP3    H116469   6.182   2.689   0.738 -2.0517 -0.4407 -0.1146
 5504TIP3    H216470   6.161   2.783   0.855 -1.2928 -0.6416  0.1827
 5505TIP3   OH216471   3.200   6.351   1.820  0.2982 -0.3166 -0.0628
 5505TIP3    H116472   3.147   6.311   1.888 -0.2271 -1.5706 -1.2065
 5505TIP3    H216473   3.290   6.333   1.847  0.2154  1.9210  1.9390
 5506TIP3   OH216474   5.803   0.169   0.980 -0.1756  0.1677  0.3837
 5506TIP3    H116475   5.720   0.210   1.007 -0.9546  0.0096 -1.7331
 5506TIP3    H216476   5.789   0.075   0.995 -0.3308  0.1545  0.1598
 5507TIP3   OH216477   5.139   7.147   1.349 -0.0155 -0.2296 -0.5516
 5507TIP3    H116478   5.154   7.177   1.260  0.6098  0.5566 -0.1934
 5507TIP3    H216479   5.226   7.148   1.390 -0.3256 -0.3557  0.1251
 5508TIP3   OH216480   7.781   1.388   0.468 -0.8771 -0.4555 -0.4860
 5508TIP3    H116481   7.698   1.423   0.501  0.1217  1.4707  0.0483
 5508TIP3    H216482   7.755   1.330   0.396 -2.6211  1.3082 -1.3381
 5509TIP3   OH216483   8.223   0.115   1.458 -0.0353  0.0748  0.2915
 5509TIP3    H116484   8.302   0.084   1.503  0.9263  0.9790 -0.7555
 5509TIP3    H216485   8.221   0.209   1.476 -1.5487 -0.1410  1.3283
 5510TIP3   OH216486   4.901   7.100   1.482  0.1894  0.2957  0.0204
 5510TIP3    H116487   4.990   7.121   1.453 -0.6662  2.5007 -1.0743
 5510TIP3    H216488   4.864   7.048   1.411  0.8461 -1.3795  0.8546
 5511TIP3   OH216489   5.985   1.262   0.475 -0.2723  0.2398  0.2424
 5511TIP3    H116490   5.932   1.342   0.478 -0.7985 -0.0962 -0.1350
 5511TIP3    H216491   5.992   1.240   0.382  0.1931  0.0537  0.3157
 5512TIP3   OH216492   5.308   6.950   0.383 -0.7345 -0.2312  0.0987
 5512TIP3    H116493   5.341   7.025   0.431  1.4425 -1.0485 -0.0813
 5512TIP3    H216494   5.252   6.904   0.446 -0.7193  0.5964  0.7302
 5513TIP3   OH216495   5.391   7.423   1.018 -0.2501 -0.1854  0.6038
 5513TIP3    H116496   5.395   7.479   0.941 -0.0775  0.2320  0.9126
 5513TIP3    H216497   5.299   7.425   1.045 -0.6331 -1.6354 -0.5365
 5514TIP3   OH216498   4.287   6.477   1.749 -0.6197  0.1855  0.1689
 5514TIP3    H116499   4.284   6.431   1.665  0.9286 -1.7732  1.1393
 5514TIP3    H216500   4.254   6.413   1.812 -1.0581  1.3825  1.1737
 5515TIP3   OH216501   2.454   4.205   6.918  0.1964  0.5629  0.3018
 5515TIP3    H116502   2.398   4.151   6.973  2.3827  0.0321  2.0862
 5515TIP3    H216503   2.396   4.238   6.850 -1.6932 -2.2243  0.4502
 5516TIP3   OH216504   5.724   7.720   1.543 -0.5736  0.2146 -0.4136
 5516TIP3    H116505   5.726   7.638   1.593 -0.6860 -0.6128 -1.7381
 5516TIP3    H216506   5.798   7.712   1.482 -0.1517  1.4192 -0.0688
 5517TIP3   OH216507   5.735   0.607   3.581 -0.0576  0.0546  0.1520
 5517TIP3    H116508   5.656   0.576   3.536  1.0765  1.7840 -3.2473
 5517TIP3    H216509   5.715   0.697   3.605 -0.2338 -0.5070  2.2154
 5518TIP3   OH216510   7.409   0.939   1.295  0.1099 -0.6236  0.2710
 5518TIP3    H116511   7.388   0.851   1.261  0.3427 -0.6046  0.0755
 5518TIP3    H216512   7.470   0.975   1.230 -0.2570 -0.1832  0.1733
 5519TIP3   OH216513   4.324   7.650   1.243  0.0475  1.0557  0.0690
 5519TIP3    H116514   4.268   7.682   1.314 -2.6785  0.9846 -1.9552
 5519TIP3    H216515   4.365   7.730   1.208 -0.4212  1.3648  0.2190
 5520TIP3   OH216516   5.839   6.831   1.676  0.0254 -0.4804  0.2297
 5520TIP3    H116517   5.929   6.802   1.666  0.0888 -0.1630 -0.1701
 5520TIP3    H216518   5.807   6.842   1.586 -0.4086 -0.5904  0.3677
 5521TIP3   OH216519   3.529   2.371   5.604  0.4251  0.0494  0.3810
 5521TIP3    H116520   3.574   2.452   5.628  0.0466  0.3352  0.1325
 5521TIP3    H216521   3.542   2.365   5.509 -0.3518  0.3092  0.2591
 5522TIP3   OH216522   4.592   4.786   1.162 -0.3101 -0.1581 -0.0326
 5522TIP3    H116523   4.687   4.780   1.153 -0.5644 -2.1628 -2.0407
 5522TIP3    H216524   4.570   4.873   1.129  0.8436  0.4467  0.7648
 5523TIP3   OH216525   2.551   7.788   0.837 -0.1403 -0.0216  0.3666
 5523TIP3    H116526   2.478   7.786   0.775  0.0050 -2.2480  0.2161
 5523TIP3    H216527   2.628   7.805   0.782 -0.3926  1.1247  0.3636
 5524TIP3   OH216528   1.697   3.338   6.750 -0.5280  0.7025  0.1068
 5524TIP3    H116529   1.635   3.274   6.784 -0.1026  1.0883  1.6586
 5524TIP3    H216530   1.775   3.287   6.730 -1.0279  0.3595 -1.0025
 5525TIP3   OH216531   5.539   7.007   1.160 -0.1364  0.1053  0.3360
 5525TIP3    H116532   5.464   6.970   1.206 -0.1002 -0.1364  0.2015
 5525TIP3    H216533   5.504   7.081   1.111 -0.4797 -0.6164 -0.5303
 5526TIP3   OH216534   6.414   7.020   1.120 -0.0923  0.3267 -0.6075
 5526TIP3    H116535   6.379   7.007   1.208 -0.6783  0.5477 -0.8070
 5526TIP3    H216536   6.353   7.080   1.079  0.4372  0.5926 -1.0122
 5527TIP3   OH216537   2.526   6.525   1.987  0.1881 -0.1516 -0.3084
 5527TIP3    H116538   2.541   6.584   1.913  1.3977 -0.1229 -0.0580
 5527TIP3    H216539   2.431   6.513   1.990 -0.4037  3.8177  1.1500
 5528TIP3   OH216540   4.018   6.706   1.772 -0.3633  0.0673  0.1621
 5528TIP3    H116541   4.007   6.651   1.850  0.2409 -0.1578  0.0897
 5528TIP3    H216542   4.063   6.650   1.709 -2.0635 -0.1991 -0.8527
 5529TIP3   OH216543   4.394   6.444   0.139  0.4940 -0.4384 -0.7934
 5529TIP3    H116544   4.413   6.529   0.099 -0.3248  0.7242  1.1819
 5529TIP3    H216545   4.300   6.433   0.127  0.5787 -0.9996 -0.9367
 5530TIP3   OH216546   5.674   7.435   2.452  0.0481  0.1391  0.4919
 5530TIP3    H116547   5.627   7.388   2.521 -0.2033 -1.3429 -0.6684
 5530TIP3    H216548   5.684   7.371   2.382  1.4561  1.2459 -0.3342
 5531TIP3   OH216549   8.023   1.412   3.463 -0.4155 -0.2254 -0.6522
 5531TIP3    H116550   7.999   1.329   3.422 -0.9450 -0.6035  0.4189
 5531TIP3    H216551   7.943   1.442   3.506 -0.1157  0.6384 -0.6803
 5532TIP3   OH216552   6.221   7.626   0.217  0.1196 -0.5769  0.4057
 5532TIP3    H116553   6.220   7.578   0.135  2.0202  1.9621 -1.1980
 5532TIP3    H216554   6.305   7.605   0.257 -0.6932 -1.6069  1.6103
 5533TIP3   OH216555   7.134   4.087   2.285  0.1650 -0.0762  0.6485
 5533TIP3    H116556   7.087   4.021   2.336 -0.4680 -1.1188 -1.2383
 5533TIP3    H216557   7.092   4.169   2.309 -2.5823 -0.9591 -0.8660
 5534TIP3   OH216558   6.651   5.037   0.950  0.3572  0.1009 -0.3034
 5534TIP3    H116559   6.704   5.038   1.029  1.8326  1.3581 -1.2662
 5534TIP3    H216560   6.631   5.129   0.933 -1.3160 -0.2799 -0.5074
 5535TIP3   OH216561   4.439   5.759   0.467 -0.0138 -0.0904  0.3595
 5535TIP3    H116562   4.445   5.676   0.420  1.0013  1.1317 -1.7830
 5535TIP3    H216563   4.514   5.810   0.434 -0.2666  1.4385  2.0784
 5536TIP3   OH216564   5.190   6.178   0.959 -0.3922  0.2824  0.1017
 5536TIP3    H116565   5.122   6.233   0.997 -0.5790 -0.6345  1.1303
 5536TIP3    H216566   5.142   6.104   0.920  0.0079 -0.4952  1.0523
 5537TIP3   OH216567   4.482   4.249   6.445 -0.1511  0.0509 -0.4027
 5537TIP3    H116568   4.473   4.249   6.350  1.6073 -1.2044 -0.5758
 5537TIP3    H216569   4.403   4.205   6.476 -0.5721  0.1651 -1.2859
 5538TIP3   OH216570   7.022   3.020   0.487 -0.3751  0.5321  0.2968
 5538TIP3    H116571   7.093   3.007   0.551  1.3993  3.7790 -0.8731
 5538TIP3    H216572   6.951   3.057   0.539 -0.2426 -0.2412  1.0363
 5539TIP3   OH216573   6.260   5.822   0.550  0.2474  0.2657 -0.4167
 5539TIP3    H116574   6.286   5.744   0.502 -1.3816 -0.9083  0.5537
 5539TIP3    H216575   6.199   5.867   0.491 -0.1079 -0.0574 -0.2918
 5540TIP3   OH216576   2.707   0.240   3.537  0.1914 -0.3621  0.2763
 5540TIP3    H116577   2.636   0.259   3.599 -1.9872  1.3674 -2.6157
 5540TIP3    H216578   2.662   0.216   3.456  2.9796 -2.8024 -0.6161
 5541TIP3   OH216579   7.514   5.620   0.742  0.0642  0.0299 -0.3420
 5541TIP3    H116580   7.606   5.634   0.717 -0.0254  0.3287 -0.5103
 5541TIP3    H216581   7.501   5.526   0.735 -0.0807  0.1463 -1.8632
 5542TIP3   OH216582   8.016   0.993   2.120 -0.2615 -0.1960 -0.1386
 5542TIP3    H116583   8.021   1.088   2.134 -1.1860 -0.0511 -0.8089
 5542TIP3    H216584   8.012   0.982   2.025 -1.3120 -0.8489 -0.0268
 5543TIP3   OH216585   6.894   3.300   1.576  0.6383 -0.4352 -0.3379
 5543TIP3    H116586   6.882   3.281   1.669  2.8563  0.4170  0.1471
 5543TIP3    H216587   6.890   3.214   1.533 -0.8406 -0.7816  0.4719
 5544TIP3   OH216588   1.975   3.593   6.734  0.0552 -0.1582 -0.4788
 5544TIP3    H116589   1.889   3.580   6.773  0.6273 -1.1279  0.4628
 5544TIP3    H216590   1.957   3.610   6.642 -1.2572  1.4791  0.0635
 5545TIP3   OH216591   8.437   6.652   2.067 -0.6086  0.2799  0.2058
 5545TIP3    H116592   8.473   6.635   2.155  0.1534 -0.5012 -0.2505
 5545TIP3    H216593   8.389   6.573   2.045  1.1588 -0.4636 -1.0428
 5546TIP3   OH216594   7.352   5.843   0.748 -0.0798 -0.2308  0.1515
 5546TIP3    H116595   7.359   5.873   0.839 -1.4189 -2.4429  1.0363
 5546TIP3    H216596   7.424   5.780   0.739 -0.7983 -1.0444  0.1086
 5547TIP3   OH216597   4.339   4.116   6.222 -0.0942 -0.2823  0.0876
 5547TIP3    H116598   4.371   4.122   6.132  0.8219  2.7507  0.5823
 5547TIP3    H216599   4.282   4.039   6.222  0.7960 -0.9953 -2.7917
 5548TIP3   OH216600   2.147   3.164   6.237 -0.1211  0.0355 -0.0313
 5548TIP3    H116601   2.130   3.250   6.199  1.0182  0.2512 -0.0716
 5548TIP3    H216602   2.236   3.170   6.272  0.5286 -1.5673 -1.3235
 5549TIP3   OH216603   3.768   2.444   6.736  0.1054  0.3941 -0.4340
 5549TIP3    H116604   3.846   2.389   6.738  0.7614  1.3772  1.6118
 5549TIP3    H216605   3.798   2.527   6.699 -0.4513  0.0833 -1.6238
 5550TIP3   OH216606   5.795   1.335   5.851  0.4420  0.5335 -0.3955
 5550TIP3    H116607   5.760   1.302   5.933 -0.2282 -0.4414 -1.0707
 5550TIP3    H216608   5.777   1.429   5.854 -0.0558  0.4218  0.3362
 5551TIP3   OH216609   7.986   7.097   2.101  0.1358 -0.5129 -0.2458
 5551TIP3    H116610   8.064   7.141   2.069  0.4703 -1.0464 -0.1620
 5551TIP3    H216611   7.962   7.035   2.032  0.5539 -1.2862  0.2907
 5552TIP3   OH216612   6.221   1.657   6.797 -0.1569 -0.2429 -0.3593
 5552TIP3    H116613   6.152   1.701   6.848 -0.1721 -0.1171 -0.4868
 5552TIP3    H216614   6.188   1.659   6.707 -1.0213 -2.1722 -0.1120
 5553TIP3   OH216615   6.948   7.357   2.307  0.0799 -0.6138  0.3046
 5553TIP3    H116616   6.858   7.324   2.310 -1.3269  3.0810  3.3294
 5553TIP3    H216617   6.948   7.419   2.234  0.3751 -1.1514 -0.1516
 5554TIP3   OH216618   7.608   7.627   0.646  0.0325  0.5647  0.3994
 5554TIP3    H116619   7.652   7.544   0.665 -0.4206  0.1746 -0.2601
 5554TIP3    H216620   7.669   7.673   0.588  0.2211  0.6322  0.6514
 5555TIP3   OH216621   7.068   6.452   0.383 -0.4516  0.0518 -0.4551
 5555TIP3    H116622   7.114   6.403   0.452 -1.2115  2.2545  1.6880
 5555TIP3    H216623   7.021   6.385   0.334 -0.0602 -1.5765  1.2984
 5556TIP3   OH216624   8.489   0.709   0.744  0.0097  0.0352 -0.4676
 5556TIP3    H116625   8.414   0.718   0.686  0.4232  0.1005 -1.0012
 5556TIP3    H216626   8.487   0.789   0.797 -1.5475 -0.9785  1.0305
 5557TIP3   OH216627   5.412   6.812   0.178 -0.0164  0.1143 -0.1151
 5557TIP3    H116628   5.378   6.856   0.256 -1.2233  0.1811 -0.6693
 5557TIP3    H216629   5.482   6.756   0.211 -1.3651 -0.8216  1.1908
 5558TIP3   OH216630   4.510   7.327   2.785  0.1264  0.5303  0.5989
 5558TIP3    H116631   4.584   7.282   2.827  0.4682 -0.8474 -1.4400
 5558TIP3    H216632   4.523   7.312   2.692 -2.5268  0.5935  0.1978
 5559TIP3   OH216633   7.313   1.721   1.308 -0.1050 -0.5494  0.1191
 5559TIP3    H116634   7.380   1.767   1.357 -0.5285  0.3947 -0.1660
 5559TIP3    H216635   7.251   1.691   1.375  0.1306 -0.6279  0.3019
 5560TIP3   OH216636   0.057   7.295   0.851  0.4246  0.1654 -0.2540
 5560TIP3    H116637   0.100   7.236   0.790 -0.0533  0.8254 -1.2437
 5560TIP3    H216638  -0.015   7.243   0.888  0.0418  0.0996 -1.0747
 5561TIP3   OH216639   7.069   6.215   1.231 -0.3908  0.3523 -0.0819
 5561TIP3    H116640   6.995   6.244   1.285  0.1351  0.0582  0.8114
 5561TIP3    H216641   7.038   6.135   1.189  0.2571 -1.1818  2.2625
 5562TIP3   OH216642   6.260   6.596   2.044 -0.5415  0.1382 -0.3316
 5562TIP3    H116643   6.263   6.592   2.139  0.3571 -1.9964 -0.4090
 5562TIP3    H216644   6.167   6.588   2.022 -0.5267 -2.5023  0.3244
 5563TIP3   OH216645   5.233   5.827   1.167  0.0088 -0.6956 -0.2669
 5563TIP3    H116646   5.244   5.870   1.252  1.6382 -2.5926  0.5233
 5563TIP3    H216647   5.215   5.899   1.106  0.9777  0.9186  1.2970
 5564TIP3   OH216648   8.022   7.090   6.803  0.6325  0.1023  0.5126
 5564TIP3    H116649   7.971   7.057   6.729  1.1620  0.3068  0.0554
 5564TIP3    H216650   7.996   7.035   6.876  0.2664 -0.2440  0.1240
 5565TIP3   OH216651   3.019   0.801   4.697 -0.1575  0.5775  0.5738
 5565TIP3    H116652   2.960   0.877   4.700 -0.7163  0.1010  3.3814
 5565TIP3    H216653   2.961   0.725   4.691  0.3833  0.3007 -1.7021
 5566TIP3   OH216654  -0.001   7.108   6.272 -0.1886  0.0701  0.3609
 5566TIP3    H116655   0.059   7.178   6.245 -0.9508  1.1544  1.3962
 5566TIP3    H216656   0.051   7.054   6.332  0.3399 -0.1466 -0.2805
 5567TIP3   OH216657   4.017   0.613   4.579 -0.3837  0.2883 -0.2364
 5567TIP3    H116658   4.057   0.627   4.493 -0.1965  0.2582 -0.1547
 5567TIP3    H216659   4.051   0.528   4.607  2.7214  2.0586  1.6327
 5568TIP3   OH216660   1.507   0.992   4.411  0.0248 -0.6050 -0.2097
 5568TIP3    H116661   1.504   1.067   4.352  1.2214  0.3864  0.9691
 5568TIP3    H216662   1.442   1.012   4.478  2.7736  1.0868  2.0565
 5569TIP3   OH216663   7.406   7.728   5.465  0.2734 -0.2842 -0.2271
 5569TIP3    H116664   7.451   7.765   5.389  0.6559  2.3942  1.2460
 5569TIP3    H216665   7.380   7.804   5.517 -1.5303 -2.0008  1.4648
 5570TIP3   OH216666   2.287   0.069   4.432  0.2707  0.6133  0.2383
 5570TIP3    H116667   2.364   0.108   4.389  0.6916 -0.9608 -0.4505
 5570TIP3    H216668   2.321   0.037   4.516  0.3107  0.1588  0.0487
 5571TIP3   OH216669   1.729   0.766   6.645 -0.6094 -0.1315 -0.0049
 5571TIP3    H116670   1.739   0.705   6.572 -0.5574 -0.8211  0.5756
 5571TIP3    H216671   1.817   0.777   6.681 -1.1913 -2.8093  2.3641
 5572TIP3   OH216672   8.092   7.121   5.718  0.2080 -0.5300  0.2335
 5572TIP3    H116673   8.181   7.140   5.747 -0.1993  1.1044  0.5162
 5572TIP3    H216674   8.037   7.153   5.789 -0.6157 -1.2180 -0.0912
 5573TIP3   OH216675   6.953   7.541   4.729 -0.8757 -0.0835 -0.4549
 5573TIP3    H116676   6.931   7.633   4.738  0.5370 -0.0025  3.0818
 5573TIP3    H216677   6.871   7.495   4.748 -0.8548  0.4097  0.8954
 5574TIP3   OH216678   2.195   1.575   6.869 -0.2102  0.4598  0.2869
 5574TIP3    H116679   2.210   1.487   6.902 -0.4654  0.6526  0.9363
 5574TIP3    H216680   2.117   1.568   6.814 -0.0062  0.2079  0.0314
 5575TIP3   OH216681   2.186   1.590   6.548  0.1305  0.3066 -0.0954
 5575TIP3    H116682   2.144   1.505   6.559  1.5042 -0.5252 -1.0701
 5575TIP3    H216683   2.158   1.620   6.462  0.6279  0.2657 -0.2748
 5576TIP3   OH216684   1.049   0.040   6.621  0.2353  0.6523 -0.3968
 5576TIP3    H116685   0.999   0.071   6.545  0.4142  0.4280 -0.6072
 5576TIP3    H216686   0.993   0.059   6.696  0.3227  1.4551 -0.5285
 5577TIP3   OH216687   0.705   0.212   5.881 -0.1137 -0.7382 -0.4835
 5577TIP3    H116688   0.625   0.239   5.926  0.3246  1.0147 -0.6850
 5577TIP3    H216689   0.714   0.119   5.899 -1.7832 -0.7765  0.1795
 5578TIP3   OH216690   3.400   2.035   4.869 -0.4446 -0.3726  0.4365
 5578TIP3    H116691   3.479   2.035   4.814 -0.6111 -0.6736  0.1939
 5578TIP3    H216692   3.352   2.112   4.840 -1.0410 -1.1106 -0.5892
 5579TIP3   OH216693   1.290   0.152   6.724 -0.6494  0.5336  0.4341
 5579TIP3    H116694   1.272   0.225   6.783 -1.4141  0.4343  0.3278
 5579TIP3    H216695   1.204   0.112   6.708 -0.6216  1.2463 -1.6624
 5580TIP3   OH216696   6.027   3.492   0.367 -0.0402 -0.0553 -0.0810
 5580TIP3    H116697   6.092   3.512   0.435 -1.0860  2.0393  0.3539
 5580TIP3    H216698   5.978   3.418   0.403 -0.5751  1.0186  1.4719
 5581TIP3   OH216699   6.883   2.056   0.310  0.7581  0.3228  0.7893
 5581TIP3    H116700   6.850   2.029   0.224 -0.3741 -3.5124  2.3055
 5581TIP3    H216701   6.956   1.995   0.327  1.1880  1.2655  2.4061
 5582TIP3   OH216702   2.657   1.848   5.968 -0.3565  0.0799 -0.0843
 5582TIP3    H116703   2.733   1.829   5.912  0.0829 -3.1919  1.4963
 5582TIP3    H216704   2.588   1.873   5.906  1.2336  0.4919 -1.7617
 5583TIP3   OH216705   2.179   1.946   5.942  0.3084 -0.2633 -0.2524
 5583TIP3    H116706   2.171   1.854   5.967 -0.2298  0.1716  1.2023
 5583TIP3    H216707   2.208   1.944   5.851  1.5022 -1.8787  0.1537
 5584TIP3   OH216708   6.652   7.078   4.096 -0.0676 -0.1510 -0.0735
 5584TIP3    H116709   6.710   7.148   4.067 -1.0339  1.0195  0.7414
 5584TIP3    H216710   6.617   7.040   4.015 -0.5653  1.2097 -0.5121
 5585TIP3   OH216711   2.382   1.719   4.435  0.1462 -0.7277  0.3868
 5585TIP3    H116712   2.474   1.731   4.456 -0.0490 -0.1181  0.9188
 5585TIP3    H216713   2.381   1.656   4.363  0.9952 -0.4170  0.1055
 5586TIP3   OH216714   3.850   1.621   4.251 -0.9496  0.3802 -0.6910
 5586TIP3    H116715   3.936   1.662   4.249 -1.3397  1.4029  2.1923
 5586TIP3    H216716   3.862   1.543   4.305 -0.8933 -1.8948 -3.7942
 5587TIP3   OH216717   2.668   1.760   4.876 -0.8414  0.8195 -0.4418
 5587TIP3    H116718   2.580   1.793   4.897 -1.1653  1.1639 -2.2582
 5587TIP3    H216719   2.664   1.741   4.783  1.0846  0.9700 -0.5611
 5588TIP3   OH216720   3.933   0.407   3.481  0.5885 -0.8637 -0.1391
 5588TIP3    H116721   3.972   0.494   3.474  0.7661 -0.8894  0.4541
 5588TIP3    H216722   3.909   0.383   3.391  2.2518 -0.9970 -0.5538
 5589TIP3   OH216723   1.795   1.092   5.210  0.4029  0.3088 -0.1977
 5589TIP3    H116724   1.819   1.184   5.200  0.0879  0.3670 -0.4029
 5589TIP3    H216725   1.847   1.046   5.145 -0.7281  0.5431 -1.2880
 5590TIP3   OH216726   2.034   1.761   4.809  0.2662 -0.0149 -0.4798
 5590TIP3    H116727   2.022   1.842   4.759  1.9890 -0.3113 -1.4089
 5590TIP3    H216728   2.082   1.703   4.750  1.9041 -0.5622  1.3018
 5591TIP3   OH216729   3.471   4.077   0.071 -0.1743  0.4118  0.1578
 5591TIP3    H116730   3.405   4.009   0.076  0.5669 -0.2891  0.5210
 5591TIP3    H216731   3.550   4.037   0.108 -0.2207  2.0452  2.0925
 5592TIP3   OH216732   0.062   7.298   5.358 -0.1590  0.1713  0.9311
 5592TIP3    H116733   0.062   7.212   5.316  0.2951  0.7356 -0.2375
 5592TIP3    H216734   0.137   7.343   5.320  0.8582  0.3611  3.0547
 5593TIP3   OH216735   6.873   7.828   5.401  0.8722  0.3011 -0.4967
 5593TIP3    H116736   6.838   7.770   5.468 -0.9437  3.0695  1.0869
 5593TIP3    H216737   6.948   7.871   5.442  0.4606  1.1512 -0.6034
 5594TIP3   OH216738   2.285   0.879   5.243 -0.2488  0.1200  0.1718
 5594TIP3    H116739   2.295   0.951   5.305  0.4791  0.6185 -0.5072
 5594TIP3    H216740   2.204   0.836   5.269 -2.1667  2.8247 -1.0683
 5595TIP3   OH216741   1.897   1.020   5.487  1.1167 -0.0197 -0.0372
 5595TIP3    H116742   1.891   0.951   5.421  0.1121 -0.6373  0.6822
 5595TIP3    H216743   1.896   1.101   5.437  0.3690 -0.4796 -0.7857
 5596TIP3   OH216744   2.929   1.066   5.655  0.0743 -0.2666 -0.4738
 5596TIP3    H116745   2.869   0.993   5.669 -0.4521  0.1397 -0.6164
 5596TIP3    H216746   2.901   1.105   5.572  0.0898  0.3605 -0.1837
 5597TIP3   OH216747   6.936   7.499   5.165  0.1637 -0.8386 -0.0024
 5597TIP3    H116748   6.915   7.591   5.151 -0.1123 -0.8194  0.5058
 5597TIP3    H216749   6.868   7.468   5.225  0.2654 -1.3696 -0.1559
 5598TIP3   OH216750   0.923   0.570   5.164  0.1105 -0.0708 -0.1470
 5598TIP3    H116751   0.985   0.548   5.234  0.0328 -0.1201 -0.0943
 5598TIP3    H216752   0.840   0.531   5.192  0.5196 -1.7020 -1.1772
 5599TIP3   OH216753   1.744   0.466   5.855  0.0395 -0.1652 -0.1746
 5599TIP3    H116754   1.798   0.537   5.821  1.2035 -1.5091 -1.1943
 5599TIP3    H216755   1.776   0.453   5.945 -0.0940  0.4896 -0.0244
 5600TIP3   OH216756   2.193   0.572   4.748 -0.1973  0.3390 -0.6556
 5600TIP3    H116757   2.124   0.626   4.710 -0.5215 -0.1584 -0.7810
 5600TIP3    H216758   2.207   0.503   4.683  0.5201  0.5211 -0.6994
 5601TIP3   OH216759   3.911   1.550   4.520  0.0568  0.3316  0.4758
 5601TIP3    H116760   3.879   1.635   4.552  0.2051  0.6533 -0.2358
 5601TIP3    H216761   3.839   1.489   4.538  0.2953  0.4301  1.8032
 5602TIP3   OH216762   8.119   1.584   4.478 -0.0604  0.0794  0.2527
 5602TIP3    H116763   8.197   1.549   4.521  0.0610 -0.2080 -0.1856
 5602TIP3    H216764   8.141   1.581   4.384  0.2317  2.0067  0.2358
 5603TIP3   OH216765   5.429   4.912   0.237 -0.1780  0.0235 -0.0073
 5603TIP3    H116766   5.465   4.939   0.152  0.4132 -0.8151 -0.0262
 5603TIP3    H216767   5.401   4.821   0.223  1.8854 -0.8366  1.2980
 5604TIP3   OH216768   1.720   0.585   4.612  0.3874  0.0519  0.1613
 5604TIP3    H116769   1.754   0.497   4.597  2.3924  0.5267  1.7187
 5604TIP3    H216770   1.667   0.577   4.691  1.2187  0.3739  0.7658
 5605TIP3   OH216771   7.542   7.573   6.725 -0.1060 -0.1125  0.0763
 5605TIP3    H116772   7.586   7.643   6.773  1.0855 -0.1817 -0.8972
 5605TIP3    H216773   7.603   7.499   6.730 -0.6807 -0.6084 -0.1980
 5606TIP3   OH216774   2.584   0.058   2.311  0.0665  0.2806 -0.1285
 5606TIP3    H116775   2.567   0.125   2.377 -1.6444 -1.9031  1.7318
 5606TIP3    H216776   2.675   0.031   2.328  0.2673  1.0557  0.0599
 5607TIP3   OH216777   1.891   1.996   4.317 -0.2701 -0.0401  0.2772
 5607TIP3    H116778   1.885   1.956   4.404 -1.5933  0.6373  0.5190
 5607TIP3    H216779   1.808   1.974   4.275  0.3530 -0.3442 -0.8243
 5608TIP3   OH216780   1.007   1.286   5.656  0.1424  0.5073  0.3609
 5608TIP3    H116781   0.979   1.356   5.716  0.7370 -0.1392  1.4215
 5608TIP3    H216782   0.971   1.206   5.695  1.0802  0.0070  0.2109
 5609TIP3   OH216783   6.067   6.257   5.623  0.1915  0.5948 -0.1029
 5609TIP3    H116784   5.982   6.300   5.623  0.4953  1.1937 -0.5976
 5609TIP3    H216785   6.048   6.167   5.595 -0.5053  0.2627  1.3746
 5610TIP3   OH216786   2.070   0.234   2.778  1.0885  0.1081 -0.1170
 5610TIP3    H116787   2.138   0.260   2.716  1.1846 -0.2702 -0.1683
 5610TIP3    H216788   2.084   0.141   2.792  0.4341 -0.0204 -0.3127
 5611TIP3   OH216789   7.608   7.777   4.585 -0.0839  0.5248 -0.7366
 5611TIP3    H116790   7.522   7.784   4.626  1.1218  2.7514  1.6237
 5611TIP3    H216791   7.602   7.831   4.507 -0.9992  0.1728 -0.9159
 5612TIP3   OH216792   2.472   0.494   5.438 -0.6759  0.1452 -0.5291
 5612TIP3    H116793   2.413   0.423   5.462  0.3963 -0.1503  1.3511
 5612TIP3    H216794   2.511   0.522   5.521  0.7408  1.2890 -1.5482
 5613TIP3   OH216795   6.506   4.456   0.579 -0.0250  0.2686  0.3941
 5613TIP3    H116796   6.440   4.458   0.647  0.2873 -0.1147  0.7080
 5613TIP3    H216797   6.507   4.546   0.544 -0.1826  0.4638  0.8923
 5614TIP3   OH216798   3.036   0.336   5.088 -0.2376  0.0194 -0.3113
 5614TIP3    H116799   2.983   0.405   5.128  0.6739  0.3095  0.3959
 5614TIP3    H216800   3.063   0.280   5.161  0.4355 -0.1223 -0.6647
 5615TIP3   OH216801   1.214   1.564   6.613  0.4525 -0.5379  0.1738
 5615TIP3    H116802   1.287   1.577   6.674  0.3527  0.9763 -0.0213
 5615TIP3    H216803   1.136   1.580   6.667  0.2984 -0.9744  0.0829
 5616TIP3   OH216804   1.038   1.264   5.234  0.2738 -0.0475 -0.6309
 5616TIP3    H116805   1.054   1.329   5.303  2.7557 -1.2747  0.0232
 5616TIP3    H216806   0.963   1.214   5.264  1.7941 -1.0540  1.6139
 5617TIP3   OH216807   3.954   1.190   5.923 -0.0665  0.1903  0.2375
 5617TIP3    H116808   3.959   1.097   5.899 -0.1016  0.4286 -0.7079
 5617TIP3    H216809   3.866   1.217   5.898  0.2317  0.6917 -0.2964
 5618TIP3   OH216810   3.234   5.545   0.526 -0.3456  0.3777  0.3886
 5618TIP3    H116811   3.213   5.620   0.471  0.7131  0.7681  0.4960
 5618TIP3    H216812   3.198   5.567   0.612 -1.7308 -0.0963 -0.0663
 5619TIP3   OH216813   1.579   0.997   6.680 -0.6746  0.6107 -0.5494
 5619TIP3    H116814   1.613   0.909   6.663  0.4672  0.9398 -0.0266
 5619TIP3    H216815   1.585   1.006   6.775 -3.0494  0.3597 -0.3495
 5620TIP3   OH216816   7.656   7.299   5.350  0.0320 -0.4016  0.0849
 5620TIP3    H116817   7.594   7.327   5.418  0.1665 -0.3292  0.1774
 5620TIP3    H216818   7.735   7.350   5.367  0.8316 -1.9806  1.1992
 5621TIP3   OH216819   2.566   2.326   5.321  0.7068  0.4452  0.7916
 5621TIP3    H116820   2.648   2.315   5.368  2.2575  0.9829 -1.7050
 5621TIP3    H216821   2.583   2.397   5.258 -1.8198  0.9372  0.5814
 5622TIP3   OH216822   2.402   1.264   6.569 -0.9322 -0.2445 -0.3748
 5622TIP3    H116823   2.314   1.261   6.605 -1.7469 -3.4922 -2.4191
 5622TIP3    H216824   2.396   1.215   6.487  2.7700 -0.5750 -0.5370
 5623TIP3   OH216825   1.378   1.818   4.915 -0.1124 -0.1881  0.0841
 5623TIP3    H116826   1.463   1.861   4.924 -0.2765  0.1224  0.1332
 5623TIP3    H216827   1.386   1.765   4.836  0.1196 -0.1438  0.0782
 5624TIP3   OH216828   3.283   0.339   4.956  0.6368 -0.7635 -0.4053
 5624TIP3    H116829   3.198   0.352   4.997  1.3272  0.7021  0.6061
 5624TIP3    H216830   3.272   0.367   4.866 -0.5917 -2.9016 -0.9427
 5625TIP3   OH216831   4.477   2.733   5.172  0.2538 -0.0775 -0.3332
 5625TIP3    H116832   4.543   2.673   5.138  1.6962 -0.1640  2.4888
 5625TIP3    H216833   4.402   2.678   5.192  0.2976 -0.3903 -1.0331
 5626TIP3   OH216834   1.128   0.417   3.855  0.0372  0.6106  0.2601
 5626TIP3    H116835   1.054   0.363   3.880  1.1274 -0.3793  1.4027
 5626TIP3    H216836   1.135   0.483   3.924  2.3591 -1.4466  2.0827
 5627TIP3   OH216837   3.701   0.013   5.646 -0.1734 -0.2082 -0.4983
 5627TIP3    H116838   3.642   0.044   5.714 -0.4710  0.3426 -1.0111
 5627TIP3    H216839   3.693   0.077   5.575  0.2975 -0.6596 -0.9653
 5628TIP3   OH216840   2.940   2.997   3.925  0.0864  0.6993 -0.2302
 5628TIP3    H116841   3.031   3.021   3.906  1.1712 -0.2081  3.4577
 5628TIP3    H216842   2.910   2.954   3.845  4.3431 -2.9045 -0.1030
 5629TIP3   OH216843   0.523   8.006   5.671  0.6095  0.0569  0.4885
 5629TIP3    H116844   0.502   7.918   5.701 -0.0994 -0.0997 -0.4260
 5629TIP3    H216845   0.568   7.994   5.587 -1.3220  0.6007 -0.6731
 5630TIP3   OH216846   1.597   0.550   4.292  0.2284  0.5705 -0.1496
 5630TIP3    H116847   1.534   0.524   4.359  1.2135 -0.0841  0.5483
 5630TIP3    H216848   1.617   0.641   4.312 -0.4920  0.7809 -0.3755
 5631TIP3   OH216849   4.071   1.552   6.312  0.5479  0.2199 -0.1002
 5631TIP3    H116850   4.024   1.596   6.241  0.7466  1.0300  0.2629
 5631TIP3    H216851   4.164   1.568   6.292  0.6021  0.5620  0.4089
 5632TIP3   OH216852   3.112   1.556   5.352 -0.1577 -0.2522 -0.4183
 5632TIP3    H116853   3.192   1.519   5.391  0.4507  1.4411  0.0127
 5632TIP3    H216854   3.063   1.481   5.320  2.1708 -1.2656 -1.7319
 5633TIP3   OH216855   6.737   3.780   0.246  0.3380 -0.3427  0.1071
 5633TIP3    H116856   6.737   3.684   0.248  0.8218 -0.3806 -1.0532
 5633TIP3    H216857   6.669   3.805   0.307  1.7606 -1.3896  2.1821
 5634TIP3   OH216858   0.553   7.700   6.084 -0.1843 -0.2773  0.2529
 5634TIP3    H116859   0.576   7.747   6.004 -1.5536 -0.1050 -0.0633
 5634TIP3    H216860   0.636   7.688   6.130  0.5646 -0.0835 -1.0307
 5635TIP3   OH216861   3.962   1.553   6.549  0.4905 -0.1150 -0.6979
 5635TIP3    H116862   4.013   1.542   6.469  0.6921 -1.5649 -0.3845
 5635TIP3    H216863   3.871   1.538   6.522  0.1015  3.2008 -1.4062
 5636TIP3   OH216864   2.479   1.974   6.566  0.7360  0.4462 -0.2908
 5636TIP3    H116865   2.501   2.007   6.654 -0.8973  0.6553  0.0550
 5636TIP3    H216866   2.559   1.930   6.537  1.4446  0.7383  1.1309
 5637TIP3   OH216867   8.163   3.309  -0.003 -0.2869 -0.9717 -0.0514
 5637TIP3    H116868   8.181   3.320   0.090  0.7537 -1.8226 -0.1382
 5637TIP3    H216869   8.168   3.397  -0.039  0.9718 -0.8279  0.4268
 5638TIP3   OH216870   5.025   3.721   0.444  0.5643 -0.3137 -0.1861
 5638TIP3    H116871   5.079   3.706   0.367  1.0274 -0.2057  0.1111
 5638TIP3    H216872   5.071   3.791   0.492  0.7661 -0.9954  0.6299
 5639TIP3   OH216873   2.184   1.262   6.229 -0.7496  0.1188  0.2155
 5639TIP3    H116874   2.100   1.297   6.257  0.2887  1.2070  2.0672
 5639TIP3    H216875   2.216   1.211   6.304  1.4125  1.8566  0.5216
 5640TIP3   OH216876   8.397   7.624   6.311  0.0518 -0.4675 -0.3107
 5640TIP3    H116877   8.386   7.643   6.404 -0.9053  0.5574 -0.6166
 5640TIP3    H216878   8.412   7.530   6.308  2.2559 -0.2011  1.0417
 5641TIP3   OH216879   3.194   0.008   4.569 -0.2980 -0.2215  0.4757
 5641TIP3    H116880   3.273  -0.041   4.589 -1.0408 -1.1876  1.0814
 5641TIP3    H216881   3.226   0.095   4.542  0.9936 -0.8950 -0.2129
 5642TIP3   OH216882   2.239   1.082   4.885  0.5191 -0.4350 -0.1389
 5642TIP3    H116883   2.278   1.156   4.838 -0.8976  1.7406  1.9750
 5642TIP3    H216884   2.152   1.112   4.910  0.0630 -2.6811  1.1305
 5643TIP3   OH216885   4.025   1.394   3.447 -0.3415 -0.5211  0.0185
 5643TIP3    H116886   3.997   1.414   3.536 -0.5821  0.3948 -0.2580
 5643TIP3    H216887   4.115   1.426   3.442 -1.0277  1.3611 -0.7000
 5644TIP3   OH216888   0.059   6.986   0.353 -0.0291 -0.1572 -0.1866
 5644TIP3    H116889   0.149   6.962   0.378  0.3408  2.1559  0.8110
 5644TIP3    H216890   0.057   6.974   0.258  2.2309  2.4164 -0.6521
 5645TIP3   OH216891   4.491   0.865   6.481  0.0600 -0.0689 -0.2390
 5645TIP3    H116892   4.573   0.845   6.527  0.5228  1.5379 -0.3100
 5645TIP3    H216893   4.422   0.832   6.538  0.7638 -1.7176 -0.3192
 5646TIP3   OH216894   6.303   1.959   3.624 -0.0480  0.2668 -0.1956
 5646TIP3    H116895   6.338   2.026   3.683 -0.5305 -0.5614  1.0612
 5646TIP3    H216896   6.210   1.982   3.616 -0.2419 -0.3096  0.3398
 5647TIP3   OH216897   6.217   1.572   3.547 -0.1298  0.4574 -0.3127
 5647TIP3    H116898   6.285   1.636   3.528  0.0339  0.3785  0.0133
 5647TIP3    H216899   6.135   1.619   3.533 -0.0132  1.1623  1.3698
 5648TIP3   OH216900   3.639   2.448   4.740  0.0349  0.6809  0.1271
 5648TIP3    H116901   3.704   2.493   4.686 -0.5869  1.5656  0.1072
 5648TIP3    H216902   3.687   2.376   4.781  1.1018  1.5456  0.3975
 5649TIP3   OH216903   5.418   0.728   4.413  0.0239 -0.4588  0.5571
 5649TIP3    H116904   5.445   0.820   4.417  1.4578 -0.8070 -0.8311
 5649TIP3    H216905   5.490   0.683   4.369 -0.4827 -2.3389  1.5939
 5650TIP3   OH216906   4.229   2.314   5.593  0.2629 -0.3290 -0.1848
 5650TIP3    H116907   4.243   2.349   5.505  1.4460  0.3187  0.2424
 5650TIP3    H216908   4.292   2.242   5.600  0.4137 -0.1603  0.2426
 5651TIP3   OH216909   4.507   2.017   5.228 -0.0982  0.2437  0.8929
 5651TIP3    H116910   4.413   2.013   5.213 -0.0648 -0.6102  0.9028
 5651TIP3    H216911   4.517   2.014   5.323 -0.1080  1.4061  0.9365
 5652TIP3   OH216912   5.299   0.116   5.333  0.0393 -0.3732 -0.5261
 5652TIP3    H116913   5.268   0.027   5.319  2.6473 -1.5317  0.6412
 5652TIP3    H216914   5.373   0.125   5.272 -0.2458  1.0256 -0.6810
 5653TIP3   OH216915   4.808   2.598   6.948  0.4183 -0.0151 -0.2257
 5653TIP3    H116916   4.812   2.694   6.945 -3.8971  0.2712 -0.8502
 5653TIP3    H216917   4.871   2.569   6.882  0.4713  2.5010 -1.3495
 5654TIP3   OH216918   2.640   1.220   5.956 -0.0898  0.1253  0.0531
 5654TIP3    H116919   2.632   1.315   5.968 -0.7820  0.1139 -0.2807
 5654TIP3    H216920   2.598   1.182   6.033  0.8571  0.0948  0.5540
 5655TIP3   OH216921   3.336   0.789   5.015 -0.3095  0.9695  0.4002
 5655TIP3    H116922   3.284   0.723   5.061  0.1140  0.6530  0.4382
 5655TIP3    H216923   3.427   0.763   5.032 -0.1440  1.3615  0.1201
 5656TIP3   OH216924   7.740   8.017   6.366 -0.1163  0.2693  0.1240
 5656TIP3    H116925   7.691   7.943   6.330 -0.2147  1.4522 -2.2220
 5656TIP3    H216926   7.674   8.068   6.414 -0.3846 -0.2178  0.2803
 5657TIP3   OH216927   4.899   2.234   4.824  0.5913 -0.1124 -0.4720
 5657TIP3    H116928   4.858   2.152   4.850  0.3390  0.5083  1.1623
 5657TIP3    H216929   4.992   2.221   4.840  0.4264  0.2988  0.8698
 5658TIP3   OH216930   2.490   7.167   4.074  0.5641  0.3082 -0.6896
 5658TIP3    H116931   2.533   7.106   4.135  0.5512 -0.7776 -1.7392
 5658TIP3    H216932   2.554   7.178   4.003 -0.5325 -0.6694 -1.8521
 5659TIP3   OH216933   6.961   4.230   0.250 -0.2963 -0.5865 -0.6532
 5659TIP3    H116934   6.998   4.283   0.320  1.8049  0.6812 -2.6437
 5659TIP3    H216935   6.970   4.140   0.281 -1.2657  0.0426  1.5413
 5660TIP3   OH216936   1.495   6.706   6.543 -0.2767 -0.1658 -0.3125
 5660TIP3    H116937   1.552   6.777   6.572 -0.6900  0.3688 -0.8022
 5660TIP3    H216938   1.477   6.725   6.451 -0.8028 -0.6198 -0.3074
 5661TIP3   OH216939   1.059   6.813   6.440  0.3772  0.1074 -0.3105
 5661TIP3    H116940   1.151   6.831   6.456  0.9958 -1.0510 -2.4130
 5661TIP3    H216941   1.047   6.828   6.346 -1.6049  0.3329 -0.0584
 5662TIP3   OH216942   2.315   0.297   4.860 -0.0213 -0.6190 -0.3952
 5662TIP3    H116943   2.300   0.347   4.940  2.2078  0.7296 -0.7473
 5662TIP3    H216944   2.249   0.330   4.798  1.1257  1.6519 -0.4848
 5663TIP3   OH216945   2.841   2.192   5.401  0.1555 -0.0546 -0.0883
 5663TIP3    H116946   2.912   2.168   5.461  1.6739  0.1158 -1.7440
 5663TIP3    H216947   2.826   2.112   5.350 -0.4495  0.0708 -0.1007
 5664TIP3   OH216948   3.309   0.922   6.081  0.0555 -0.3080  0.0258
 5664TIP3    H116949   3.368   0.887   6.014  2.9741  0.8480  1.8570
 5664TIP3    H216950   3.358   0.994   6.120 -2.9491  1.2070  1.1437
 5665TIP3   OH216951   7.920   7.808   4.258  0.2058  0.1609 -0.4668
 5665TIP3    H116952   7.841   7.850   4.294 -0.2333 -0.3977 -0.7680
 5665TIP3    H216953   7.947   7.746   4.325 -0.5076 -0.7497 -1.0199
 5666TIP3   OH216954   4.844   3.197   3.183  0.4209  0.5250  0.0773
 5666TIP3    H116955   4.801   3.111   3.179  1.2438  0.1310 -0.4322
 5666TIP3    H216956   4.834   3.224   3.274 -0.6411  0.3043  0.0333
 5667TIP3   OH216957   4.815   5.736   0.309 -0.4446  0.4559 -0.0064
 5667TIP3    H116958   4.873   5.688   0.368 -0.5201  2.8095  2.0618
 5667TIP3    H216959   4.867   5.748   0.229  0.2187 -1.4203  0.1016
 5668TIP3   OH216960   3.789   2.573   5.834  0.0577 -0.4611 -0.4460
 5668TIP3    H116961   3.743   2.629   5.897  0.5996  0.1460 -0.5815
 5668TIP3    H216962   3.753   2.485   5.849 -0.8609 -0.0652 -0.2873
 5669TIP3   OH216963   3.443   1.152   6.156 -0.6510  0.3893 -0.2973
 5669TIP3    H116964   3.435   1.217   6.226 -1.0570 -0.6758  0.6562
 5669TIP3    H216965   3.454   1.204   6.077  2.0846  1.6096  0.7977
 5670TIP3   OH216966   3.513   1.068   5.450 -0.1849 -0.0370  0.3131
 5670TIP3    H116967   3.543   0.997   5.507  0.3977 -0.7557 -0.8921
 5670TIP3    H216968   3.423   1.085   5.479  0.6666  0.7876  2.6063
 5671TIP3   OH216969   5.432   1.485   3.514  0.3314 -0.2670 -0.4566
 5671TIP3    H116970   5.354   1.534   3.541 -0.9031 -1.7176 -1.3018
 5671TIP3    H216971   5.477   1.464   3.596 -0.6874 -0.2522  0.1122
 5672TIP3   OH216972   1.215   7.889   6.819  0.5675  0.5596 -0.2592
 5672TIP3    H116973   1.230   7.841   6.900  0.7661  1.3558  0.1813
 5672TIP3    H216974   1.179   7.973   6.848  0.4374  0.7631 -1.0100
 5673TIP3   OH216975   4.496   4.735   1.403 -0.0234  0.3016  0.0364
 5673TIP3    H116976   4.435   4.662   1.396  2.5170 -1.7359 -1.8630
 5673TIP3    H216977   4.526   4.750   1.314  0.9381  2.4430  0.6809
 5674TIP3   OH216978   6.903   5.111   0.535  0.6474  0.4959 -0.4792
 5674TIP3    H116979   6.951   5.045   0.485  1.2539 -0.2370  1.0390
 5674TIP3    H216980   6.943   5.109   0.622 -0.3560  1.7845  0.0282
 5675TIP3   OH216981   4.675   1.050   4.457 -0.0341 -0.0507 -0.0739
 5675TIP3    H116982   4.700   0.975   4.403  0.0883 -0.7729  0.9667
 5675TIP3    H216983   4.758   1.087   4.487 -0.1276 -0.5382  0.8057
 5676TIP3   OH216984   3.870   1.169   4.607 -0.0339 -0.0337  0.1589
 5676TIP3    H116985   3.795   1.109   4.614  0.4139 -0.5218  0.8446
 5676TIP3    H216986   3.903   1.156   4.519  1.9818 -3.1225  1.2916
 5677TIP3   OH216987   0.332   1.291   6.407 -0.4395  0.0257 -0.5611
 5677TIP3    H116988   0.322   1.325   6.318 -0.9373 -2.3733 -1.4622
 5677TIP3    H216989   0.337   1.196   6.396 -0.2964 -0.2944  1.9675
 5678TIP3   OH216990   4.569   0.203   5.697 -0.2371  0.5027 -0.4183
 5678TIP3    H116991   4.600   0.176   5.610 -0.1159 -0.2077 -0.1524
 5678TIP3    H216992   4.648   0.211   5.749 -0.2305  1.8115 -0.6152
 5679TIP3   OH216993   5.545   5.860   1.163 -0.1645 -0.3071 -0.0427
 5679TIP3    H116994   5.627   5.890   1.200  0.2876 -2.4804  0.7906
 5679TIP3    H216995   5.549   5.765   1.168 -1.8042 -0.5350 -1.9996
 5680TIP3   OH216996   3.909   0.906   5.678  0.0472 -0.2104  0.5063
 5680TIP3    H116997   3.908   0.821   5.722 -0.0812 -0.1143  0.6921
 5680TIP3    H216998   3.938   0.887   5.588  0.7259 -0.3451  0.7518
 5681TIP3   OH216999   2.952   0.715   5.003  0.2624 -0.1553  0.2853
 5681TIP3    H117000   2.877   0.660   5.025  0.9281 -1.4177 -0.5288
 5681TIP3    H217001   2.934   0.746   4.914  1.0309 -1.0290 -0.1792
 5682TIP3   OH217002   4.655   1.801   6.652  0.4761 -0.0865  0.3655
 5682TIP3    H117003   4.647   1.732   6.586  1.0738  0.9945 -0.8676
 5682TIP3    H217004   4.739   1.842   6.634  0.3518  0.6509  1.3919
 5683TIP3   OH217005   5.371   1.973   0.444  0.6850 -0.2500 -0.3199
 5683TIP3    H117006   5.368   2.034   0.369 -2.0333 -0.4663 -0.4441
 5683TIP3    H217007   5.392   2.029   0.519  0.9525  0.3773 -0.8530
 5684TIP3   OH217008   1.910   1.660   6.829 -0.0663 -0.1270 -0.5513
 5684TIP3    H117009   1.842   1.679   6.893 -0.4992  3.0279 -1.8673
 5684TIP3    H217010   1.880   1.579   6.786 -1.8870  0.0610  0.3242
 5685TIP3   OH217011   1.841   1.120   3.713  0.2672  0.0303  0.2485
 5685TIP3    H117012   1.901   1.048   3.732  0.8150  0.5126  0.3946
 5685TIP3    H217013   1.798   1.137   3.797  0.4693  0.1643  0.3275
 5686TIP3   OH217014   3.663   0.731   6.105  0.0456 -0.0918 -0.1621
 5686TIP3    H117015   3.656   0.654   6.161 -1.4928 -0.1544 -0.4235
 5686TIP3    H217016   3.679   0.803   6.165 -1.8363 -0.1212  0.3958
 5687TIP3   OH217017   5.975   2.342   5.221 -0.3414 -0.2722 -0.4555
 5687TIP3    H117018   6.036   2.291   5.167  2.5220  2.4728 -0.0167
 5687TIP3    H217019   5.924   2.392   5.157  1.2585  1.0319 -0.7544
 5688TIP3   OH217020   2.778   0.324   6.284  0.5533 -0.8188 -0.4363
 5688TIP3    H117021   2.870   0.344   6.267  1.1145 -0.7516  2.3993
 5688TIP3    H217022   2.768   0.233   6.256  1.6123 -0.9949 -0.2578
 5689TIP3   OH217023   6.499   3.639   0.609  0.0859  0.2108 -0.3856
 5689TIP3    H117024   6.515   3.733   0.613 -0.5126  0.2550  1.4104
 5689TIP3    H217025   6.577   3.604   0.565  0.4759  1.4984 -0.7540
 5690TIP3   OH217026   2.974   2.371   6.164 -0.2023 -0.1998 -0.6261
 5690TIP3    H117027   2.884   2.356   6.191  0.1039 -1.8006 -0.4778
 5690TIP3    H217028   2.977   2.464   6.143 -1.5056  0.1809  0.7992
 5691TIP3   OH217029   0.643   7.812   5.176 -0.1747  0.1499  0.2846
 5691TIP3    H117030   0.633   7.853   5.262 -0.7980  1.0036 -0.1840
 5691TIP3    H217031   0.599   7.872   5.115  0.3904 -0.3668 -0.6535
 5692TIP3   OH217032   7.250   3.890   0.155  0.4858  0.0117 -0.1807
 5692TIP3    H117033   7.190   3.823   0.119  0.7404  0.0691 -0.7104
 5692TIP3    H217034   7.220   3.972   0.115  1.0273  0.0150 -0.5823
 5693TIP3   OH217035   1.828   7.447   4.782  1.0038  0.3344 -0.0175
 5693TIP3    H117036   1.923   7.454   4.775  0.7708  1.7488 -2.3079
 5693TIP3    H217037   1.802   7.521   4.837  1.3305 -0.8874  1.8166
 5694TIP3   OH217038   4.049   4.258   5.924 -0.2382  0.1621  0.5315
 5694TIP3    H117039   4.044   4.276   6.017  3.3802  0.4735  0.7284
 5694TIP3    H217040   4.035   4.163   5.917 -3.3123  0.5300  1.0470
 5695TIP3   OH217041   5.204   2.230   4.650 -0.2655  0.1292  0.1501
 5695TIP3    H117042   5.245   2.217   4.564  0.0153  0.6114  0.2130
 5695TIP3    H217043   5.131   2.290   4.633 -2.1584 -2.2317 -0.3072
 5696TIP3   OH217044   2.951   2.601   5.971 -0.1705  0.4146  0.7119
 5696TIP3    H117045   3.033   2.646   5.950 -1.0748  1.4402 -0.6714
 5696TIP3    H217046   2.919   2.645   6.049 -0.1089  0.9249  0.4493
 5697TIP3   OH217047   4.415   1.403   4.049  0.4683 -0.4637  0.2181
 5697TIP3    H117048   4.489   1.418   4.109  0.3224 -0.0395  0.2921
 5697TIP3    H217049   4.340   1.442   4.094  0.4858  0.4520 -0.5494
 5698TIP3   OH217050   6.386   2.748   0.246  0.7518  0.1550  0.1974
 5698TIP3    H117051   6.429   2.794   0.319 -1.4002  0.7777  1.1243
 5698TIP3    H217052   6.313   2.702   0.287 -1.5308  1.8987 -1.8036
 5699TIP3   OH217053   2.624   7.110   6.463 -0.3817  0.2314  0.6272
 5699TIP3    H117054   2.703   7.073   6.504  0.5142 -0.3477 -1.5837
 5699TIP3    H217055   2.568   7.034   6.447  0.2001  0.1704 -1.1965
 5700TIP3   OH217056   6.743   2.622   0.136  0.1154  0.4868 -0.5849
 5700TIP3    H117057   6.715   2.535   0.105 -1.6035  1.2526 -1.2345
 5700TIP3    H217058   6.685   2.683   0.091  0.6593  1.9266  0.6464
 5701TIP3   OH217059   1.449   7.857   6.665 -0.1394  0.0811  0.4418
 5701TIP3    H117060   1.371   7.852   6.720  0.3219  1.1246  1.2148
 5701TIP3    H217061   1.416   7.881   6.579 -0.6694  0.7393  0.8194
 5702TIP3   OH217062   2.574   2.150   5.550 -0.0151 -0.3455 -0.2032
 5702TIP3    H117063   2.661   2.124   5.518  0.6440  1.9999 -0.3849
 5702TIP3    H217064   2.538   2.205   5.481 -1.0133 -0.0259  0.5590
 5703TIP3   OH217065   2.266   7.386   3.667 -0.0065 -0.4221  0.2219
 5703TIP3    H117066   2.238   7.341   3.747  0.0426 -2.3134 -0.8003
 5703TIP3    H217067   2.219   7.470   3.670 -0.9643 -0.9724  1.6121
 5704TIP3   OH217068   1.725   2.957   6.769  0.2311 -0.4838  0.1358
 5704TIP3    H117069   1.671   2.882   6.744 -0.3710  0.4594 -1.5120
 5704TIP3    H217070   1.791   2.921   6.828 -0.3307 -2.2071 -0.2513
 5705TIP3   OH217071   4.529   0.382   4.686 -0.3532 -0.0249 -0.2222
 5705TIP3    H117072   4.483   0.365   4.768  1.9258  0.5383  1.2295
 5705TIP3    H217073   4.512   0.474   4.668  2.4056  0.9366  1.8048
 5706TIP3   OH217074   7.567   7.947   2.995 -0.1278  0.0197 -0.1982
 5706TIP3    H117075   7.506   8.021   2.997 -0.1654 -0.0271  0.9222
 5706TIP3    H217076   7.512   7.870   2.982 -0.0296  0.2354 -2.0015
 5707TIP3   OH217077   1.584   0.119   4.301  0.1273 -0.2540 -0.5431
 5707TIP3    H117078   1.620   0.095   4.216 -1.5454 -0.3840 -1.2415
 5707TIP3    H217079   1.499   0.158   4.280 -1.0195 -1.7770  1.1610
 5708TIP3   OH217080   4.127   2.353   5.042  0.6626  0.0942  0.3179
 5708TIP3    H117081   4.078   2.406   4.979 -1.9239 -1.1278  1.2082
 5708TIP3    H217082   4.175   2.290   4.988 -1.0979 -0.5849 -0.4925
 5709TIP3   OH217083   3.437   3.333   4.656 -0.4430  0.4160 -0.1965
 5709TIP3    H117084   3.404   3.422   4.649  0.2754  0.5299 -2.2366
 5709TIP3    H217085   3.493   3.335   4.734 -0.9328  1.5778  0.1397
 5710TIP3   OH217086   5.408   0.662   2.723  0.2116  0.4268 -0.5293
 5710TIP3    H117087   5.435   0.596   2.660  0.3017  1.3721 -1.4924
 5710TIP3    H217088   5.322   0.632   2.753  1.5207 -1.6711  1.2670
 5711TIP3   OH217089   5.550   1.146   2.495  0.6334  0.1390 -0.3895
 5711TIP3    H117090   5.529   1.141   2.589 -0.9630 -1.1738 -0.8004
 5711TIP3    H217091   5.557   1.055   2.467  0.5407  0.5162 -1.6807
 5712TIP3   OH217092   4.116   0.375   5.771  0.0306 -0.3550  0.1195
 5712TIP3    H117093   4.053   0.382   5.699 -0.2540 -2.6802  0.1271
 5712TIP3    H217094   4.194   0.337   5.731 -0.0582 -1.4747  0.9963
 5713TIP3   OH217095   4.638   1.895   4.245  0.0817 -0.5427 -0.6551
 5713TIP3    H117096   4.679   1.847   4.317 -0.8711 -0.2272  0.1050
 5713TIP3    H217097   4.687   1.977   4.240  1.1153 -1.1903 -1.3544
 5714TIP3   OH217098   3.587   1.039   5.198  0.7157 -0.3658 -0.3684
 5714TIP3    H117099   3.559   1.066   5.285  0.7728 -0.0870 -0.4338
 5714TIP3    H217100   3.546   0.954   5.184 -0.1576  0.0708 -0.4978
 5715TIP3   OH217101   2.515   0.781   6.243 -0.5962  0.1081 -0.2282
 5715TIP3    H117102   2.557   0.726   6.310 -0.5680  1.1261  0.6140
 5715TIP3    H217103   2.573   0.774   6.167 -0.9344 -1.5304 -0.3504
 5716TIP3   OH217104   4.709   1.328   4.623 -0.1613  0.2151  0.0675
 5716TIP3    H117105   4.660   1.310   4.543  0.5094 -1.1442 -0.0504
 5716TIP3    H217106   4.654   1.291   4.693  0.6722 -1.3474 -0.0681
 5717TIP3   OH217107   4.265   2.609   3.161 -0.2542 -0.1756  0.3534
 5717TIP3    H117108   4.186   2.585   3.112  1.7005 -0.2984 -2.8953
 5717TIP3    H217109   4.267   2.704   3.159  0.0052 -0.1887 -0.1518
 5718TIP3   OH217110   4.358   1.014   4.953 -0.1182  0.7066  0.5231
 5718TIP3    H117111   4.329   0.931   4.990 -0.5253  1.1711  1.2682
 5718TIP3    H217112   4.382   1.067   5.029  0.4774  1.1446  0.0347
 5719TIP3   OH217113   2.252   3.041   4.914 -0.1755  0.2051  0.3262
 5719TIP3    H117114   2.197   3.004   4.845  1.0949 -0.0166 -0.6072
 5719TIP3    H217115   2.341   3.015   4.889  0.4169  1.1621  1.4015
 5720TIP3   OH217116   4.186   0.703   4.792  0.2204  0.2203  0.1772
 5720TIP3    H117117   4.174   0.798   4.781  0.9381  0.4200  0.9624
 5720TIP3    H217118   4.112   0.663   4.747 -2.0130  1.2703  2.7971
 5721TIP3   OH217119   4.366   0.084   4.936 -0.1008 -0.4590  0.2424
 5721TIP3    H117120   4.339   0.030   4.862 -0.0219  0.4211 -0.4358
 5721TIP3    H217121   4.344   0.173   4.910 -1.8170 -0.3280  2.0558
 5722TIP3   OH217122   4.186   0.857   3.626  0.1246 -0.2548 -0.1963
 5722TIP3    H117123   4.172   0.843   3.533 -0.6216 -1.9147  0.1578
 5722TIP3    H217124   4.137   0.937   3.646 -2.1417 -1.4740 -0.6583
 5723TIP3   OH217125   3.153   1.147   6.428  0.1312  0.5223 -0.2580
 5723TIP3    H117126   3.199   1.169   6.509  0.3756  0.3121 -0.3427
 5723TIP3    H217127   3.084   1.214   6.421 -0.1637  0.2874  0.3471
 5724TIP3   OH217128   2.848   1.012   4.677 -0.0672  0.2211  0.3733
 5724TIP3    H117129   2.839   1.108   4.674 -0.0496  0.2294  0.6141
 5724TIP3    H217130   2.758   0.980   4.689  0.2457  0.3238  3.3254
 5725TIP3   OH217131   6.797   3.355   0.034  0.4083 -0.3511  0.2866
 5725TIP3    H117132   6.787   3.390  -0.055  0.0376  1.6601  1.0913
 5725TIP3    H217133   6.890   3.333   0.041  0.2398 -1.5911 -0.9501
 5726TIP3   OH217134   3.395   2.879   3.104 -0.9010  0.3419  0.1134
 5726TIP3    H117135   3.388   2.972   3.083 -2.2618  0.2240  0.0003
 5726TIP3    H217136   3.327   2.864   3.170 -0.5131 -0.5174  0.3261
 5727TIP3   OH217137   1.781   1.107   3.447  0.1941  0.1334 -0.4459
 5727TIP3    H117138   1.835   1.173   3.402 -0.7052  1.1207 -0.0944
 5727TIP3    H217139   1.802   1.118   3.539  0.7757 -0.7504 -0.4680
 5728TIP3   OH217140   5.483   2.602   4.999 -0.1036 -0.2279  0.1809
 5728TIP3    H117141   5.463   2.682   4.952 -0.7420  0.2576  1.2614
 5728TIP3    H217142   5.566   2.572   4.962 -0.6303  0.1008 -1.2742
 5729TIP3   OH217143   0.721   7.955   6.159 -0.1612 -0.3262  0.4943
 5729TIP3    H117144   0.808   7.932   6.193  0.2452  1.6651  0.8981
 5729TIP3    H217145   0.732   7.959   6.064  0.5150  1.1229  0.6218
 5730TIP3   OH217146   4.753   1.632   3.892 -0.1507 -0.7266 -0.1772
 5730TIP3    H117147   4.789   1.560   3.944 -1.1016 -0.4066  0.9344
 5730TIP3    H217148   4.830   1.684   3.868  0.2573 -0.5945  1.3479
 5731TIP3   OH217149   6.302   3.398   0.216  0.0076  0.4080 -0.1691
 5731TIP3    H117150   6.375   3.375   0.272 -1.4715 -0.0704  1.6114
 5731TIP3    H217151   6.231   3.339   0.243 -1.8190  2.5909 -0.0606
 5732TIP3   OH217152   3.674   3.201   3.687 -0.1645 -0.3565  0.1448
 5732TIP3    H117153   3.726   3.270   3.729 -0.5309 -0.5455  0.9135
 5732TIP3    H217154   3.700   3.121   3.731  0.3074 -0.7316 -0.7983
 5733TIP3   OH217155   3.254   0.501   5.477 -0.0519  0.0701 -0.3326
 5733TIP3    H117156   3.174   0.451   5.459  0.3376 -0.0051 -1.9571
 5733TIP3    H217157   3.244   0.530   5.567 -1.3648 -0.9605 -0.1241
 5734TIP3   OH217158   4.222   1.180   4.342  0.1226  0.5945 -0.1235
 5734TIP3    H117159   4.183   1.267   4.352 -0.6138  0.3269 -0.6922
 5734TIP3    H217160   4.177   1.141   4.268 -1.3217 -1.2556  1.6742
 5735TIP3   OH217161   3.141   2.998   3.219 -1.1597  0.1368  0.3107
 5735TIP3    H117162   3.119   2.925   3.160 -0.0757 -1.5286  1.9172
 5735TIP3    H217163   3.149   2.958   3.305  0.7951  1.9395  1.0119
 5736TIP3   OH217164   3.669   0.237   5.080 -0.6750  0.2854 -0.1716
 5736TIP3    H117165   3.638   0.237   4.989 -0.4557 -0.8108 -0.2556
 5736TIP3    H217166   3.590   0.239   5.133 -0.9356 -2.4391 -0.3851
 5737TIP3   OH217167   2.659   0.051   5.504 -0.0467  0.1593  0.4171
 5737TIP3    H117168   2.681  -0.037   5.536 -0.1585 -0.1375 -0.3089
 5737TIP3    H217169   2.564   0.058   5.517  0.0913  0.4790  1.2251
 5738TIP3   OH217170   7.483   7.958   6.910  0.3865 -0.7450 -0.5390
 5738TIP3    H117171   7.485   7.946   6.815  1.0981 -2.1641 -0.3535
 5738TIP3    H217172   7.504   7.872   6.945  0.2276 -0.1960  0.9091
 5739TIP3   OH217173   0.609   7.780   3.062 -0.1364 -0.0497 -0.3278
 5739TIP3    H117174   0.619   7.833   2.984 -1.6885 -1.6797 -1.6648
 5739TIP3    H217175   0.526   7.807   3.100  0.4710  0.5309  0.6163
 5740TIP3   OH217176   4.377   5.341   0.935  0.5029  0.5070  0.1830
 5740TIP3    H117177   4.369   5.436   0.927 -0.0261  0.3931 -0.6184
 5740TIP3    H217178   4.388   5.310   0.846  4.3141  0.1296  0.6940
 5741TIP3   OH217179   4.907   1.216   4.768 -0.0504 -0.1031  0.3459
 5741TIP3    H117180   4.842   1.159   4.808 -0.5476  1.4294  1.8018
 5741TIP3    H217181   4.859   1.266   4.702 -0.3753  1.0075  1.4009
 5742TIP3   OH217182   5.202   5.093   1.283  0.0932 -0.2012  0.5570
 5742TIP3    H117183   5.215   5.006   1.247 -0.5553  0.2262 -0.7721
 5742TIP3    H217184   5.109   5.098   1.302  0.0703  0.2933  0.3394
 5743TIP3   OH217185   0.896   7.514   4.634 -0.7643 -0.0755 -0.2106
 5743TIP3    H117186   0.915   7.466   4.714 -0.2579 -2.0240 -1.4535
 5743TIP3    H217187   0.924   7.604   4.652  0.9744 -0.8711  1.1904
 5744TIP3   OH217188   1.645   6.996   5.498  0.8241  0.4500  0.0612
 5744TIP3    H117189   1.619   7.032   5.582 -0.2177  0.2601 -0.1636
 5744TIP3    H217190   1.562   6.968   5.458  1.3372  0.2787 -0.8942
 5745TIP3   OH217191   2.104   0.535   3.371 -0.1063 -0.3154  0.1480
 5745TIP3    H117192   2.080   0.449   3.406  0.7453  0.3373  2.4223
 5745TIP3    H217193   2.025   0.587   3.379  0.0480 -0.2062  1.0231
 5746TIP3   OH217194   4.857   3.964   0.395  0.3658 -0.0949 -0.5521
 5746TIP3    H117195   4.948   3.985   0.372  1.1429 -2.4029  0.3407
 5746TIP3    H217196   4.826   3.910   0.322  0.1669 -0.4973 -0.1670
 5747TIP3   OH217197   4.397   5.613   0.962 -0.9268  0.2167  0.0501
 5747TIP3    H117198   4.390   5.660   0.879 -0.1653  1.4351  0.6542
 5747TIP3    H217199   4.370   5.677   1.028 -0.5911 -0.4319  0.8277
 5748TIP3   OH217200   0.188   6.399   6.670 -0.2471  0.5346  0.3644
 5748TIP3    H117201   0.254   6.464   6.695  0.5283 -0.1589  0.1641
 5748TIP3    H217202   0.173   6.349   6.750  0.3378 -0.0443  0.1240
 5749TIP3   OH217203   4.078   4.959   0.085  0.3988  0.0098  0.3112
 5749TIP3    H117204   4.021   4.902   0.137  0.6213 -1.4070 -0.9428
 5749TIP3    H217205   4.108   5.026   0.146 -1.7324  0.1348  1.2537
 5750TIP3   OH217206   2.405   2.198   3.862  0.2475 -0.1238 -0.1051
 5750TIP3    H117207   2.322   2.154   3.843 -0.7190  2.1623 -1.3807
 5750TIP3    H217208   2.389   2.245   3.943  0.2143  0.5123 -0.4780
 5751TIP3   OH217209   8.263   7.873   4.357  0.4077  0.6491 -0.0731
 5751TIP3    H117210   8.209   7.808   4.401 -0.5221  0.5227 -1.3432
 5751TIP3    H217211   8.268   7.946   4.418 -1.2207  0.6522  0.0756
 5752TIP3   OH217212   2.175   1.984   6.338  0.4687 -0.0477  0.2837
 5752TIP3    H117213   2.245   1.920   6.355  0.0309 -1.3159 -2.4296
 5752TIP3    H217214   2.131   1.994   6.422  2.0134 -1.5434  1.3046
 5753TIP3   OH217215   0.533   7.964   4.978  0.3184 -0.2721 -0.5504
 5753TIP3    H117216   0.545   7.920   4.894 -0.2275 -0.6417 -0.4371
 5753TIP3    H217217   0.448   8.008   4.971  1.1820  1.3698 -0.9238
 5754TIP3   OH217218   5.753   1.517   4.141 -0.0392  0.0446 -0.1710
 5754TIP3    H117219   5.731   1.563   4.222 -0.3724  0.1917 -0.3422
 5754TIP3    H217220   5.818   1.573   4.099  0.7693 -0.4593  0.4021
 5755TIP3   OH217221   2.250   1.838   6.694  0.0060  1.1035 -0.1387
 5755TIP3    H117222   2.340   1.843   6.662 -0.0453  1.8288 -0.1745
 5755TIP3    H217223   2.232   1.744   6.701  1.3136  0.9438  1.4000
 5756TIP3   OH217224   7.828   3.755   0.320  0.5125  0.5713  0.3590
 5756TIP3    H117225   7.874   3.780   0.239  3.7341 -1.8945  1.3251
 5756TIP3    H217226   7.815   3.660   0.312 -1.2166  0.6664  1.7605
 5757TIP3   OH217227   7.898   6.724   4.661  0.0493  0.1249  0.5999
 5757TIP3    H117228   7.808   6.716   4.632  0.3721 -1.3549  0.0098
 5757TIP3    H217229   7.944   6.763   4.587 -0.6143  3.5399  1.8699
 5758TIP3   OH217230   4.606   0.225   4.230 -0.1043  0.5306 -0.0373
 5758TIP3    H117231   4.578   0.208   4.320 -0.5915  0.0971 -0.2688
 5758TIP3    H217232   4.604   0.321   4.222 -0.5208  0.5471  0.2677
 5759TIP3   OH217233   4.396   2.735   5.845  0.6439  0.5952  0.1231
 5759TIP3    H117234   4.383   2.648   5.883 -0.9351  0.7450 -0.0714
 5759TIP3    H217235   4.358   2.796   5.909  0.5036  1.0500 -0.3877
 5760TIP3   OH217236   2.911   2.424   5.773  0.7116  0.0697  0.0013
 5760TIP3    H117237   2.818   2.408   5.786  0.2924 -0.8950 -3.5643
 5760TIP3    H217238   2.940   2.467   5.853 -3.0843  1.6549  0.6076
 5761TIP3   OH217239   0.974   7.873   6.215  0.1395 -0.2745  0.0301
 5761TIP3    H117240   1.000   7.873   6.307  1.9367 -0.3187 -0.4608
 5761TIP3    H217241   1.042   7.924   6.171  0.3773 -1.9331 -1.5644
 5762TIP3   OH217242   0.253   5.771   6.129  0.1890  0.5581  0.2820
 5762TIP3    H117243   0.207   5.814   6.200 -1.0547  0.8615 -0.6888
 5762TIP3    H217244   0.304   5.841   6.087 -0.4514  0.7324 -0.2070
 5763TIP3   OH217245   5.611   1.317   4.820  0.8636  0.6032  0.1985
 5763TIP3    H117246   5.613   1.361   4.905  0.2872 -0.3350  0.6987
 5763TIP3    H217247   5.679   1.249   4.827 -0.7197 -0.9574  0.7318
 5764TIP3   OH217248   3.978   2.797   4.672 -0.1997 -0.0504  0.3406
 5764TIP3    H117249   3.973   2.763   4.583 -1.2802  1.8945 -0.3822
 5764TIP3    H217250   3.888   2.799   4.703  0.1797 -0.8814  1.5728
 5765TIP3   OH217251   6.858   4.263   1.117  0.3151  0.0922  0.4014
 5765TIP3    H117252   6.896   4.215   1.043  0.5762 -1.5633  1.5869
 5765TIP3    H217253   6.774   4.219   1.133  0.1293  0.6322  0.9050
 5766TIP3   OH217254   4.379   1.191   5.496  0.0873  0.0714 -0.2375
 5766TIP3    H117255   4.298   1.211   5.542  0.7729 -1.4640  1.6816
 5766TIP3    H217256   4.436   1.266   5.514 -1.1398  1.5433 -2.2654
 5767TIP3   OH217257   3.213   1.331   5.724 -0.6044  0.1159  0.6986
 5767TIP3    H117258   3.182   1.382   5.649  0.6887 -3.6152 -2.5254
 5767TIP3    H217259   3.134   1.311   5.774 -1.9721 -0.2989 -1.5814
 5768TIP3   OH217260   4.035   0.182   5.430  0.3765 -0.6704 -0.7292
 5768TIP3    H117261   4.085   0.204   5.352 -1.2191 -0.7251 -1.7757
 5768TIP3    H217262   4.041   0.260   5.485  0.8020 -0.3263 -1.2566
 5769TIP3   OH217263   3.582   0.237   4.819  0.3926 -0.1162 -0.3538
 5769TIP3    H117264   3.596   0.291   4.741  0.1444  0.4256 -0.0284
 5769TIP3    H217265   3.486   0.231   4.827  0.3955  0.9382  0.6582
 5770TIP3   OH217266   7.965   7.133   5.951  0.4777  0.2474  0.1446
 5770TIP3    H117267   8.020   7.057   5.968  1.8222  1.0017 -0.7937
 5770TIP3    H217268   7.942   7.165   6.038  3.0402  1.0190  0.5662
 5771TIP3   OH217269   1.590   0.375   6.936  0.7887 -0.0213  0.2199
 5771TIP3    H117270   1.677   0.363   6.899  1.1118  2.1099  0.2048
 5771TIP3    H217271   1.549   0.442   6.881 -0.4960 -0.3043  0.8065
 5772TIP3   OH217272   4.137   1.564   5.777 -0.3229 -0.5954  0.0805
 5772TIP3    H117273   4.134   1.497   5.708  1.7549 -0.3124 -0.3241
 5772TIP3    H217274   4.166   1.517   5.855 -0.6216 -0.5262  0.2294
 5773TIP3   OH217275   3.025   2.424   5.516  0.1364  0.4421  0.1189
 5773TIP3    H117276   3.006   2.421   5.609  1.6462 -0.4084  0.4129
 5773TIP3    H217277   2.959   2.367   5.476  0.5695 -0.5966  0.8689
 5774TIP3   OH217278   2.680   0.058   6.345 -0.4959 -0.2632  0.0025
 5774TIP3    H117279   2.600   0.102   6.317  0.2799  1.3418  0.2395
 5774TIP3    H217280   2.680   0.068   6.440 -0.2282 -0.6598  0.0457
 5775TIP3   OH217281   6.098   5.836   0.212 -0.0642 -0.2384  0.0195
 5775TIP3    H117282   6.015   5.804   0.179 -1.7279  2.1113  1.7499
 5775TIP3    H217283   6.075   5.913   0.265  3.3245  1.4405 -0.7915
 5776TIP3   OH217284   4.130   1.898   6.754  0.4434  0.1850  0.6621
 5776TIP3    H117285   4.183   1.829   6.793 -0.1467  0.8104  2.6766
 5776TIP3    H217286   4.096   1.861   6.673 -0.7289 -2.3003  2.2316
 5777TIP3   OH217287   1.739   0.655   5.079  0.5385 -0.0403 -0.5907
 5777TIP3    H117288   1.808   0.599   5.115  0.5808  0.0100 -0.5934
 5777TIP3    H217289   1.679   0.595   5.034 -0.1536 -0.2490  0.5779
 5778TIP3   OH217290   2.270   1.789   5.663 -0.5860 -0.5582 -0.6265
 5778TIP3    H117291   2.362   1.763   5.675 -0.3864  0.4432  0.0584
 5778TIP3    H217292   2.248   1.759   5.575  0.1573 -1.5266 -0.4970
 5779TIP3   OH217293   3.815   4.259   0.772 -0.3655 -0.1829  0.1381
 5779TIP3    H117294   3.906   4.253   0.799 -0.1087  1.1311 -0.4253
 5779TIP3    H217295   3.772   4.309   0.841 -0.6573 -0.7394  0.3686
 5780TIP3   OH217296   2.138   0.193   5.730 -0.1996  0.0719 -0.6309
 5780TIP3    H117297   2.077   0.206   5.802  1.6147  1.0084  0.7801
 5780TIP3    H217298   2.083   0.164   5.657 -2.1646 -0.1264  0.8883
 5781TIP3   OH217299   1.617   2.186   6.101 -0.1176 -0.2710 -0.2797
 5781TIP3    H117300   1.623   2.148   6.014  1.8757 -1.1111  0.1918
 5781TIP3    H217301   1.627   2.112   6.161  0.4356  0.5301  0.6452
 5782TIP3   OH217302   2.359   1.854   4.854  1.0452 -0.1659 -0.2296
 5782TIP3    H117303   2.311   1.865   4.772 -0.8686 -0.2497  0.8647
 5782TIP3    H217304   2.346   1.762   4.878  1.5202 -0.1191  0.2269
 5783TIP3   OH217305   0.974   7.637   5.332 -0.2680 -0.3799 -0.1465
 5783TIP3    H117306   1.002   7.568   5.272  0.4387 -0.5077  0.3333
 5783TIP3    H217307   0.973   7.717   5.278  2.2515 -0.1310  0.1313
 5784TIP3   OH217308   4.500   1.828   6.391 -0.6093  0.1665  0.1750
 5784TIP3    H117309   4.572   1.872   6.347 -0.6943 -0.3743 -0.5081
 5784TIP3    H217310   4.474   1.889   6.461  1.8837 -0.5454  1.8021
 5785TIP3   OH217311   1.080   7.904   6.462  0.3300 -0.0506 -0.2502
 5785TIP3    H117312   1.067   7.960   6.538 -0.0393  0.8110 -0.9496
 5785TIP3    H217313   1.174   7.911   6.443 -0.2007  2.6729 -2.1269
 5786TIP3   OH217314   2.446   3.544   3.596  0.3492 -0.2281  0.1702
 5786TIP3    H117315   2.499   3.469   3.568 -0.0074 -0.0599 -0.9602
 5786TIP3    H217316   2.358   3.526   3.562  0.3591  0.9048 -0.4650
 5787TIP3   OH217317   4.353   3.109   4.307  0.1629 -0.8498  0.1106
 5787TIP3    H117318   4.398   3.119   4.223  0.2595 -1.2032  0.1193
 5787TIP3    H217319   4.281   3.049   4.289 -1.1492  0.7927 -0.2223
 5788TIP3   OH217320   1.710   1.400   3.817  0.0760  0.2300  0.4398
 5788TIP3    H117321   1.702   1.323   3.874  1.2309  0.4034  0.8401
 5788TIP3    H217322   1.799   1.396   3.783 -0.6094  0.1385 -1.3682
 5789TIP3   OH217323   3.239   0.465   6.876  0.6708  0.3561  0.1170
 5789TIP3    H117324   3.220   0.544   6.926  0.5559  0.8166 -0.6478
 5789TIP3    H217325   3.331   0.474   6.852  0.3008  0.8910 -1.1012
 5790TIP3   OH217326   4.672   0.314   3.253 -0.1894  0.3324  0.2070
 5790TIP3    H117327   4.738   0.320   3.184  1.3181 -1.4920  1.4476
 5790TIP3    H217328   4.593   0.282   3.207 -0.0427  1.8328 -1.1460
 5791TIP3   OH217329   4.156   2.903   4.359 -0.0727 -0.3991  0.1403
 5791TIP3    H117330   4.177   2.929   4.449 -2.1497  1.8108  0.0418
 5791TIP3    H217331   4.062   2.885   4.361  0.0850 -1.4267 -1.3510
 5792TIP3   OH217332   2.853   5.915   5.538  0.3080  0.1361 -0.9265
 5792TIP3    H117333   2.829   5.900   5.447  0.5288  1.0240 -1.1337
 5792TIP3    H217334   2.909   5.841   5.561 -0.2266 -0.3949 -1.3307
 5793TIP3   OH217335   6.799   1.638   3.716 -0.3792 -0.0218 -0.4404
 5793TIP3    H117336   6.842   1.668   3.636 -1.7873  1.4821 -0.6630
 5793TIP3    H217337   6.731   1.704   3.733 -1.1516 -1.1767  1.0966
 5794TIP3   OH217338   6.724   4.934   0.663  0.1303  0.4034 -0.0036
 5794TIP3    H117339   6.791   4.994   0.631  0.5412  0.0881  0.2685
 5794TIP3    H217340   6.699   4.968   0.748  3.0335 -1.8777  1.8490
 5795TIP3   OH217341   2.475   1.509   5.848 -0.0185 -0.1201 -0.2499
 5795TIP3    H117342   2.539   1.514   5.918  0.0731 -1.6262 -0.2177
 5795TIP3    H217343   2.509   1.567   5.780  1.0684 -0.4469  0.0051
 5796TIP3   OH217344   2.868   4.109   5.083  0.4392 -0.1307  0.2153
 5796TIP3    H117345   2.893   4.155   5.003  1.0038  1.5623  1.3319
 5796TIP3    H217346   2.951   4.090   5.127  0.0446  1.3074  1.6492
 5797TIP3   OH217347   4.912   0.480   5.062 -0.6526  0.9984 -0.3914
 5797TIP3    H117348   5.007   0.494   5.068 -0.5089 -0.5065  1.1928
 5797TIP3    H217349   4.874   0.566   5.076  0.4624  1.5332 -0.5819
 5798TIP3   OH217350   5.751   1.580   2.827  0.0132  0.1160 -0.3960
 5798TIP3    H117351   5.749   1.661   2.777 -2.0254  2.4259  3.2395
 5798TIP3    H217352   5.706   1.517   2.770 -1.2327  2.3511 -1.9874
 5799TIP3   OH217353   5.835   1.669   3.793 -0.8082  0.0670 -0.0866
 5799TIP3    H117354   5.818   1.589   3.742  0.6552  0.4962 -1.2992
 5799TIP3    H217355   5.926   1.659   3.823 -0.9020  0.8892  0.4828
 5800TIP3   OH217356   2.045   7.400   5.652  0.3950 -0.0256 -0.3517
 5800TIP3    H117357   2.063   7.494   5.659  1.3853 -0.1674 -0.8209
 5800TIP3    H217358   1.950   7.394   5.641  0.2525  0.8812  0.3516
 5801TIP3   OH217359   1.186   7.738   5.534 -0.2866  0.2943  0.1762
 5801TIP3    H117360   1.254   7.782   5.483 -0.2938 -0.9539 -0.9442
 5801TIP3    H217361   1.170   7.657   5.486 -1.2845 -0.2522  1.4269
 5802TIP3   OH217362   2.204   0.545   5.896 -0.4937 -0.5559  0.1522
 5802TIP3    H117363   2.133   0.588   5.944 -0.6290 -0.7580  0.1349
 5802TIP3    H217364   2.177   0.549   5.804 -1.3988 -2.2971  0.3059
 5803TIP3   OH217365   6.120   0.944   5.598  0.0690  0.2194 -0.3738
 5803TIP3    H117366   6.194   0.937   5.537 -0.0509  1.5351 -0.6933
 5803TIP3    H217367   6.117   1.037   5.621 -1.7008  0.2398 -0.6356
 5804TIP3   OH217368   4.970   0.217   4.250  0.2941 -0.1989  0.3780
 5804TIP3    H117369   5.008   0.303   4.271 -0.7371  0.2227  0.5097
 5804TIP3    H217370   4.945   0.181   4.335 -0.4280 -0.0922  0.2124
 5805TIP3   OH217371   5.537   2.289   3.301  0.0709 -0.0359  0.2318
 5805TIP3    H117372   5.571   2.350   3.235  0.7146 -0.7796 -0.1400
 5805TIP3    H217373   5.578   2.317   3.383  0.1911  0.1698  0.1018
 5806TIP3   OH217374   3.797   1.440   5.626 -0.1343 -0.2388 -0.5975
 5806TIP3    H117375   3.775   1.378   5.557 -0.4401 -2.5768  1.5301
 5806TIP3    H217376   3.892   1.438   5.632 -0.0897  0.1668 -1.0973
 5807TIP3   OH217377   2.938   5.282   5.558  0.1750  0.1309 -0.3097
 5807TIP3    H117378   2.873   5.264   5.490 -1.6346 -0.0749  1.4658
 5807TIP3    H217379   2.959   5.197   5.596  0.3246  0.3793  0.1723
 5808TIP3   OH217380   4.028   2.525   3.072  0.4081  0.8681 -0.0620
 5808TIP3    H117381   3.975   2.445   3.078  0.9306  0.4300 -1.2605
 5808TIP3    H217382   3.964   2.596   3.069 -0.0768  0.4428  0.1214
 5809TIP3   OH217383   7.529   3.372   0.152 -0.0461  0.2365 -0.0162
 5809TIP3    H117384   7.486   3.422   0.084 -1.5113 -1.2547 -0.2132
 5809TIP3    H217385   7.600   3.429   0.183 -0.2918  1.5109 -1.7392
 5810TIP3   OH217386   7.234   2.003   3.501 -0.4099  0.4594  0.3789
 5810TIP3    H117387   7.207   1.996   3.409 -0.8199  0.8585  0.4680
 5810TIP3    H217388   7.163   2.050   3.544  1.2794  3.2345  0.2402
 5811TIP3   OH217389   3.398   0.593   3.447  0.1309 -0.0550  0.2502
 5811TIP3    H117390   3.440   0.581   3.361 -0.5264 -0.0892 -0.0645
 5811TIP3    H217391   3.406   0.686   3.465 -1.4726  0.2889 -0.7466
 5812TIP3   OH217392   5.712   0.621   6.503 -0.4228 -0.4554 -0.3410
 5812TIP3    H117393   5.638   0.642   6.445 -0.2330  1.0755 -0.0423
 5812TIP3    H217394   5.761   0.702   6.509  1.1039 -1.3755 -0.2486
 5813TIP3   OH217395   5.496   1.904   5.765  0.9781 -0.0526 -0.4808
 5813TIP3    H117396   5.482   1.946   5.680  0.4156  0.1893 -0.2740
 5813TIP3    H217397   5.437   1.829   5.765  2.7670 -1.5238 -1.2873
 5814TIP3   OH217398   1.046   6.503   3.275 -0.1534  0.0808  0.3152
 5814TIP3    H117399   0.960   6.514   3.316 -0.3502 -0.4335  0.0505
 5814TIP3    H217400   1.042   6.416   3.235  0.4826  0.0696  0.2768
 5815TIP3   OH217401   4.773   3.541   3.244  0.3883  0.1270  0.0292
 5815TIP3    H117402   4.777   3.457   3.290 -1.3975 -0.3045 -0.5766
 5815TIP3    H217403   4.712   3.594   3.295  0.3192  0.5238 -0.4529
 5816TIP3   OH217404   6.284   0.057   2.240  0.2564 -0.5761 -0.4432
 5816TIP3    H117405   6.231  -0.013   2.278  0.5839  0.2865  1.6719
 5816TIP3    H217406   6.320   0.019   2.159 -2.6327 -1.5492 -1.3149
 5817TIP3   OH217407   6.753   0.765   3.426  0.2767 -0.2342 -0.4928
 5817TIP3    H117408   6.698   0.842   3.433  1.0859  0.1923  1.7300
 5817TIP3    H217409   6.693   0.695   3.400 -1.1209  0.4442  0.8025
 5818TIP3   OH217410   7.548   1.129   4.136  0.1734 -0.2480 -0.4093
 5818TIP3    H117411   7.476   1.191   4.130 -1.2434 -1.4994  2.3352
 5818TIP3    H217412   7.600   1.159   4.211  0.4673 -1.3096 -0.1643
 5819TIP3   OH217413   5.551   1.314   4.078 -0.0333  0.1338 -0.1551
 5819TIP3    H117414   5.515   1.294   4.164 -1.7143  0.8691 -0.6573
 5819TIP3    H217415   5.619   1.380   4.095 -1.2579  1.2484  0.4882
 5820TIP3   OH217416   4.297   1.542   5.116  0.6144 -0.0639 -0.2932
 5820TIP3    H117417   4.345   1.508   5.040  1.4673  0.3402  0.0573
 5820TIP3    H217418   4.358   1.604   5.156 -0.6983  1.4052 -0.5733
 5821TIP3   OH217419   6.670   1.596   2.340  0.0194 -0.1064  0.1435
 5821TIP3    H117420   6.619   1.516   2.355  2.0082 -1.4010  0.1139
 5821TIP3    H217421   6.613   1.650   2.285 -1.2988 -1.5447  0.0488
 5822TIP3   OH217422   0.025   3.220   0.260  0.1564  0.1898  0.3700
 5822TIP3    H117423   0.026   3.234   0.166 -1.7774  0.8113  0.4228
 5822TIP3    H217424   0.078   3.290   0.296 -1.3019  1.5514 -0.0812
 5823TIP3   OH217425   4.377   2.183   4.415 -0.2553 -0.4076 -0.3106
 5823TIP3    H117426   4.342   2.132   4.342 -0.0504 -1.1372  0.0955
 5823TIP3    H217427   4.440   2.242   4.375  0.6905 -1.5909 -0.5864
 5824TIP3   OH217428   1.246   7.155   3.412  0.4395  0.1438  0.0545
 5824TIP3    H117429   1.166   7.207   3.422  0.8490  0.6865  0.6133
 5824TIP3    H217430   1.220   7.066   3.434  0.1055  0.4106  0.7605
 5825TIP3   OH217431   4.511   1.144   5.796 -0.6336  0.6934 -0.4730
 5825TIP3    H117432   4.496   1.238   5.810  0.4623  0.6744  0.9898
 5825TIP3    H217433   4.591   1.140   5.744  0.7954  0.5415  1.6639
 5826TIP3   OH217434   5.280   0.911   2.748  0.0083 -0.2727  0.6390
 5826TIP3    H117435   5.335   0.834   2.735 -0.7203 -0.8135  0.7131
 5826TIP3    H217436   5.261   0.911   2.842  1.8426  1.2686  1.0275
 5827TIP3   OH217437   5.831  -0.015   6.194 -0.3138  0.0729 -0.2305
 5827TIP3    H117438   5.777   0.056   6.160 -0.3195  0.3085  0.2620
 5827TIP3    H217439   5.896   0.029   6.249 -0.5863 -0.3424  0.4248
 5828TIP3   OH217440   4.957   0.156   5.178 -0.9261 -0.7717 -0.1162
 5828TIP3    H117441   5.040   0.202   5.193 -0.9130 -0.8436  0.0354
 5828TIP3    H217442   4.896   0.225   5.153 -1.3294 -0.4392  1.7323
 5829TIP3   OH217443   5.473   2.129   4.521 -0.0680 -0.2442 -0.2738
 5829TIP3    H117444   5.522   2.204   4.487 -0.8468  0.0734 -0.7006
 5829TIP3    H217445   5.484   2.134   4.615  1.5321 -0.7315 -0.4209
 5830TIP3   OH217446   4.031   1.146   6.746  0.3912 -0.7203  0.5164
 5830TIP3    H117447   4.108   1.123   6.693 -1.3746 -0.6111 -2.2366
 5830TIP3    H217448   4.049   1.234   6.778  0.9960 -0.2826 -0.9828
 5831TIP3   OH217449   3.364   3.190   3.328 -0.3089 -0.3508 -0.0206
 5831TIP3    H117450   3.348   3.170   3.236  1.4150 -0.7897 -0.2556
 5831TIP3    H217451   3.278   3.209   3.364 -0.8577  1.0815 -2.0121
 5832TIP3   OH217452   1.016   5.676   1.935 -0.1607 -0.1932 -0.0112
 5832TIP3    H117453   1.102   5.700   1.902 -0.4553 -0.4618 -0.9740
 5832TIP3    H217454   0.955   5.738   1.895 -0.4143  0.0431  0.7197
 5833TIP3   OH217455   3.213   1.703   5.151  0.2138 -0.0671  0.5675
 5833TIP3    H117456   3.223   1.781   5.206 -0.4894 -0.0021  0.6132
 5833TIP3    H217457   3.166   1.641   5.206 -1.5708  0.4308 -0.3421
 5834TIP3   OH217458   3.547   0.504   3.922  0.3769  0.5917  0.4199
 5834TIP3    H117459   3.629   0.484   3.877  0.0708  0.4921 -0.0966
 5834TIP3    H217460   3.485   0.521   3.852  0.3924  2.4591  0.8234
 5835TIP3   OH217461   2.311   1.808   3.819  0.8905  0.9054 -0.2664
 5835TIP3    H117462   2.316   1.855   3.736  0.6139 -0.3352 -1.0087
 5835TIP3    H217463   2.386   1.748   3.817  0.3182  0.1707 -0.0768
 5836TIP3   OH217464   4.640   1.497   2.500  0.0705 -0.4770 -0.0141
 5836TIP3    H117465   4.711   1.531   2.447 -0.6198 -0.4641 -0.9496
 5836TIP3    H217466   4.619   1.568   2.562  1.5771 -0.8886  1.0014
 5837TIP3   OH217467   3.664   1.666   0.319 -0.0898  0.1792  0.1621
 5837TIP3    H117468   3.724   1.722   0.270  3.0367 -1.1584  2.2846
 5837TIP3    H217469   3.597   1.726   0.351  1.2358  2.1111 -0.5765
 5838TIP3   OH217470   5.975   1.635   3.189 -0.6504  0.3290 -0.0923
 5838TIP3    H117471   5.999   1.574   3.258  0.0794  0.9702  0.2423
 5838TIP3    H217472   5.961   1.581   3.111  0.0983 -0.2451  0.1721
 5839TIP3   OH217473   5.138   2.664   5.822  0.0882 -0.2088 -0.0153
 5839TIP3    H117474   5.066   2.601   5.824 -0.5730  0.5245 -0.3623
 5839TIP3    H217475   5.209   2.621   5.870 -0.3941 -1.1606 -0.1410
 5840TIP3   OH217476   3.416   5.867   4.199  0.1332  0.6066  0.3558
 5840TIP3    H117477   3.444   5.947   4.154 -3.2610  2.0541  0.6583
 5840TIP3    H217478   3.420   5.890   4.292 -0.7819  0.4310  0.4430
 5841TIP3   OH217479   3.120   7.731   3.559 -0.1098 -0.0106  0.4203
 5841TIP3    H117480   3.109   7.826   3.562 -0.5724 -0.0381 -0.2113
 5841TIP3    H217481   3.041   7.700   3.515 -0.8498 -0.8513  2.3185
 5842TIP3   OH217482   3.934   0.459   5.955  0.2800  0.0905  0.5154
 5842TIP3    H117483   3.854   0.418   5.922  0.3448  0.4070 -0.0393
 5842TIP3    H217484   4.004   0.422   5.902  0.4542  0.1150  0.7305
 5843TIP3   OH217485   3.562   0.083   5.857  0.2694 -0.5202  0.7840
 5843TIP3    H117486   3.484   0.027   5.848 -0.1465 -0.3376  2.8931
 5843TIP3    H217487   3.547   0.130   5.939  2.8491 -0.8702  1.4846
 5844TIP3   OH217488   5.668   1.240   3.159  0.0559 -0.5096 -0.0351
 5844TIP3    H117489   5.750   1.254   3.206 -0.6379  2.5093  0.3985
 5844TIP3    H217490   5.604   1.293   3.206 -1.5355 -0.6042 -2.0151
 5845TIP3   OH217491   6.521   0.686   6.617 -0.0792  0.1732  0.4969
 5845TIP3    H117492   6.489   0.650   6.699 -0.6977  0.3363  0.3247
 5845TIP3    H217493   6.509   0.616   6.553 -0.1512  0.2581  0.4175
 5846TIP3   OH217494   5.540   0.969   4.465  0.2997  0.3440 -0.4025
 5846TIP3    H117495   5.554   0.968   4.559 -0.0315 -0.4955 -0.3539
 5846TIP3    H217496   5.528   1.061   4.443 -0.9453  0.4425  0.5847
 5847TIP3   OH217497   0.069   3.674   0.728 -0.2025  0.2162  0.4810
 5847TIP3    H117498   0.160   3.673   0.757 -0.6096 -1.4515  1.8078
 5847TIP3    H217499   0.036   3.587   0.749 -1.6175  0.2073 -1.6155
 5848TIP3   OH217500   5.220   1.223   4.275  0.0460  0.3991  0.1290
 5848TIP3    H117501   5.288   1.259   4.332  0.6760  0.5980 -0.7504
 5848TIP3    H217502   5.221   1.280   4.198  0.3372 -0.8807 -0.8159
 5849TIP3   OH217503   6.872   2.345   3.935  0.2719 -0.1622 -0.8140
 5849TIP3    H117504   6.939   2.296   3.887 -1.6169 -1.0835 -2.6106
 5849TIP3    H217505   6.843   2.284   4.003  0.6256 -0.0878 -0.5939
 5850TIP3   OH217506   4.396   0.263   4.029 -0.1300  0.7813  0.2237
 5850TIP3    H117507   4.430   0.301   3.948  0.6183  1.0474  0.6571
 5850TIP3    H217508   4.474   0.234   4.076 -0.4506  2.0614  1.5717
 5851TIP3   OH217509   8.498   5.664   4.900  0.1985  0.2480 -0.2598
 5851TIP3    H117510   8.506   5.759   4.910  1.6100 -0.0404  1.7096
 5851TIP3    H217511   8.474   5.651   4.808  0.8080  2.4713 -0.7627
 5852TIP3   OH217512   5.540   1.408   5.134  0.3725 -0.3657 -0.2614
 5852TIP3    H117513   5.566   1.496   5.110 -2.0274  0.7912  1.1784
 5852TIP3    H217514   5.546   1.406   5.230 -1.1224 -1.2470 -0.1683
 5853TIP3   OH217515   6.902   1.134   4.277 -0.2158 -0.3672 -0.6698
 5853TIP3    H117516   6.833   1.176   4.328  0.8234  0.2599  0.2532
 5853TIP3    H217517   6.939   1.204   4.224  0.4516 -0.4587 -0.3311
 5854TIP3   OH217518   1.755   1.176   6.467  1.1498 -0.1028  0.1748
 5854TIP3    H117519   1.817   1.112   6.433  1.7168 -0.7238  2.2811
 5854TIP3    H217520   1.711   1.130   6.539 -0.1730  1.0733  0.1338
 5855TIP3   OH217521   3.569   0.437   2.862 -0.2866  0.1430  0.2692
 5855TIP3    H117522   3.585   0.442   2.956 -1.8907  1.9292  0.4680
 5855TIP3    H217523   3.610   0.516   2.826  2.3445 -1.6553 -0.8916
 5856TIP3   OH217524   6.161   1.119   4.721  0.2531 -0.2958  0.0347
 5856TIP3    H117525   6.146   1.026   4.705 -0.8679 -0.1180 -0.0113
 5856TIP3    H217526   6.213   1.148   4.646 -0.6360 -0.5770 -0.7044
 5857TIP3   OH217527   5.152   1.204   3.647 -0.2948 -0.1243 -0.1751
 5857TIP3    H117528   5.108   1.288   3.645 -1.3215 -0.6519 -3.7049
 5857TIP3    H217529   5.090   1.145   3.690 -0.3429  0.4746  0.5984
 5858TIP3   OH217530   6.960   1.187   4.701  0.2656  0.4179 -0.5080
 5858TIP3    H117531   7.021   1.190   4.775  1.4070  0.8564 -1.4536
 5858TIP3    H217532   7.004   1.234   4.631 -1.1055  0.6085 -1.2662
 5859TIP3   OH217533   4.170   0.376   4.685 -0.0309 -0.0849  0.1008
 5859TIP3    H117534   4.241   0.340   4.632  0.1388 -0.0714  0.3188
 5859TIP3    H217535   4.204   0.374   4.774 -1.0608 -1.9754  0.4660
 5860TIP3   OH217536   4.994   0.742   4.139  0.0473 -0.2519 -0.6691
 5860TIP3    H117537   5.024   0.728   4.229  0.9388  1.8036 -0.6443
 5860TIP3    H217538   5.069   0.777   4.093 -1.6323  2.8673 -1.1455
 5861TIP3   OH217539   1.779   6.790   4.441 -0.0391 -0.0171  0.1871
 5861TIP3    H117540   1.811   6.757   4.526  0.2357  1.5085  0.7003
 5861TIP3    H217541   1.710   6.852   4.464 -1.1680 -0.8844 -0.8028
 5862TIP3   OH217542   4.728   1.861   5.210 -0.0224 -0.2043  0.1409
 5862TIP3    H117543   4.643   1.904   5.208  0.5784  0.9913 -0.5375
 5862TIP3    H217544   4.745   1.845   5.303 -0.0995  1.3717  0.4407
 5863TIP3   OH217545   0.692   7.419   6.118  0.7529 -0.6958  0.5687
 5863TIP3    H117546   0.690   7.413   6.023  0.8013 -1.7980  0.6305
 5863TIP3    H217547   0.714   7.510   6.136 -1.1345 -0.0131 -0.4588
 5864TIP3   OH217548   3.514   0.466   6.824 -0.2848  0.4030  0.3543
 5864TIP3    H117549   3.507   0.373   6.846 -0.7578 -0.0821 -1.6884
 5864TIP3    H217550   3.566   0.468   6.744  0.7573  2.0148  1.0348
 5865TIP3   OH217551   1.099   6.434   6.317 -0.2375 -0.9802 -0.5426
 5865TIP3    H117552   1.017   6.426   6.365 -0.7181  0.3391 -1.1248
 5865TIP3    H217553   1.164   6.459   6.383 -0.2821 -2.0530 -0.0781
 5866TIP3   OH217554   8.353   5.687   1.226  0.3912  0.3637  0.2078
 5866TIP3    H117555   8.337   5.651   1.139  1.3763 -0.2457  0.2713
 5866TIP3    H217556   8.369   5.611   1.281 -0.5346  0.7305  0.9960
 5867TIP3   OH217557   5.702   1.314   4.510  0.4055 -0.3402 -0.5296
 5867TIP3    H117558   5.747   1.306   4.594 -1.4072 -2.2677  0.3081
 5867TIP3    H217559   5.750   1.255   4.452  1.1230  0.3240 -0.6219
 5868TIP3   OH217560   6.130   1.825   5.333  0.4920 -0.0312  0.0016
 5868TIP3    H117561   6.040   1.855   5.343  1.0249  1.4706  0.4138
 5868TIP3    H217562   6.183   1.901   5.354  1.8707 -1.0172  0.1589
 5869TIP3   OH217563   5.454   2.077   3.541 -0.4665 -0.0045  0.0900
 5869TIP3    H117564   5.515   2.116   3.479  0.2159  0.0493  0.7911
 5869TIP3    H217565   5.492   1.991   3.561 -0.3803  0.2191  0.8813
 5870TIP3   OH217566   4.286   2.270   4.665  0.1155  1.1694  0.9389
 5870TIP3    H117567   4.338   2.218   4.604 -0.0925  0.5025  1.3221
 5870TIP3    H217568   4.252   2.342   4.612 -2.4655 -0.9615 -0.4914
 5871TIP3   OH217569   6.112   2.262   4.378 -0.3204  0.3103  0.5958
 5871TIP3    H117570   6.134   2.353   4.361  2.1062 -0.2165  0.8287
 5871TIP3    H217571   6.149   2.214   4.305  1.1708 -0.8272  2.0627
 5872TIP3   OH217572   3.725   1.588   4.835  0.3461  0.1580 -0.1351
 5872TIP3    H117573   3.629   1.590   4.827  0.2265  0.8909  1.3697
 5872TIP3    H217574   3.746   1.495   4.844 -0.2748  0.0422  0.1566
 5873TIP3   OH217575   2.038   7.986   6.178 -0.5376 -0.3600 -0.5214
 5873TIP3    H117576   1.951   8.026   6.173  0.1451  1.3320  0.8471
 5873TIP3    H217577   2.042   7.949   6.267  0.0516 -0.6720 -0.6740
 5874TIP3   OH217578   6.853   1.632   2.564 -0.3150  0.1649  0.1513
 5874TIP3    H117579   6.815   1.623   2.651 -0.7651 -4.2202 -0.3696
 5874TIP3    H217580   6.784   1.670   2.510 -1.1128 -0.0923  0.9928
 5875TIP3   OH217581   4.631   3.121   4.745  0.2215 -0.4507  0.1773
 5875TIP3    H117582   4.543   3.158   4.734  0.8603  1.1090  0.2396
 5875TIP3    H217583   4.624   3.032   4.709 -1.7867 -0.9068  1.6099
 5876TIP3   OH217584   4.531   1.358   4.923 -0.0975  0.9802 -0.0292
 5876TIP3    H117585   4.570   1.360   5.011 -3.0559 -1.0675  1.4140
 5876TIP3    H217586   4.546   1.446   4.888  2.6382  1.3167  1.8198
 5877TIP3   OH217587   4.898   0.143   3.984  0.3180  0.0092  0.3587
 5877TIP3    H117588   4.926   0.161   4.074  1.4898 -1.6717  0.3635
 5877TIP3    H217589   4.803   0.132   3.989  0.1005  2.0904  1.0035
 5878TIP3   OH217590   5.935   1.425   4.878  0.8916  0.2921  0.3311
 5878TIP3    H117591   5.875   1.496   4.904  0.5131  0.3098 -0.5596
 5878TIP3    H217592   6.022   1.462   4.891  0.7082  0.3970  1.2895
 5879TIP3   OH217593   7.007   1.202   3.981 -0.0242  0.2929 -0.5998
 5879TIP3    H117594   6.920   1.238   4.001 -1.3291 -2.2365 -1.5541
 5879TIP3    H217595   7.034   1.247   3.901  0.9955  3.3839  1.3729
 5880TIP3   OH217596   5.867   1.043   2.413 -0.1560 -0.3289 -0.3766
 5880TIP3    H117597   5.784   1.091   2.402 -0.7443 -1.0601  0.7583
 5880TIP3    H217598   5.839   0.953   2.429  0.8225 -0.3066  1.4883
 5881TIP3   OH217599   3.159   1.157   4.671  0.0632  0.8006 -0.7140
 5881TIP3    H117600   3.232   1.105   4.706 -0.2451  1.3162  0.7309
 5881TIP3    H217601   3.092   1.092   4.650 -1.3334  0.7134  3.4883
 5882TIP3   OH217602   6.385   1.345   6.046 -0.0129  0.0554 -0.5299
 5882TIP3    H117603   6.362   1.253   6.043 -0.3940  0.1426 -0.3605
 5882TIP3    H217604   6.462   1.353   5.990  0.5559 -0.5232  0.1540
 5883TIP3   OH217605   1.645   7.738   6.001 -0.3156 -0.3548  0.3730
 5883TIP3    H117606   1.595   7.776   6.073 -0.4517 -0.5992  0.4068
 5883TIP3    H217607   1.638   7.802   5.930 -1.1887 -0.6805  0.1705
 5884TIP3   OH217608   0.769   7.407   5.033 -0.5944  0.0511 -0.0445
 5884TIP3    H117609   0.830   7.398   4.961  0.4772  0.2475  0.8241
 5884TIP3    H217610   0.683   7.412   4.992 -0.0385 -0.4019 -1.2620
 5885TIP3   OH217611   1.816   7.766   4.377 -0.7779 -0.2839  0.1835
 5885TIP3    H117612   1.849   7.828   4.312 -0.4403 -0.3981  0.2477
 5885TIP3    H217613   1.786   7.691   4.327 -0.4653 -0.3961  0.1661
 5886TIP3   OH217614   5.412   0.444   4.963 -0.2153 -0.6068 -0.9143
 5886TIP3    H117615   5.400   0.361   4.916  1.3702 -0.9342 -0.7453
 5886TIP3    H217616   5.483   0.488   4.916 -0.3593  0.2106 -0.3774
 5887TIP3   OH217617   4.864   1.175   3.472  0.2461 -0.1636  0.0199
 5887TIP3    H117618   4.833   1.229   3.544  0.1818 -0.2828  0.0824
 5887TIP3    H217619   4.877   1.088   3.511  0.4035 -0.1789 -0.0649
 5888TIP3   OH217620   2.635   7.651   5.869 -0.4134  0.0985  0.1562
 5888TIP3    H117621   2.543   7.653   5.843 -0.3531  1.9519  0.0177
 5888TIP3    H217622   2.679   7.707   5.804  0.8327 -0.9018  0.1208
 5889TIP3   OH217623   6.034   2.284   3.390 -0.7938 -0.4473 -0.2678
 5889TIP3    H117624   6.010   2.358   3.445 -0.8914  0.1105 -1.0463
 5889TIP3    H217625   5.987   2.299   3.308 -1.4280 -1.7756 -0.1614
 5890TIP3   OH217626   1.505   5.981   5.793  0.2072  0.0414  0.4556
 5890TIP3    H117627   1.430   5.930   5.823 -0.0505 -0.0236 -0.2726
 5890TIP3    H217628   1.487   6.070   5.823 -0.5974  0.2002 -0.4536
 5891TIP3   OH217629   6.738   3.515   0.300  0.5169 -0.3868  0.1348
 5891TIP3    H117630   6.797   3.444   0.325  0.4784 -0.4538  0.0361
 5891TIP3    H217631   6.711   3.493   0.211 -0.2636 -0.7530  0.4592
 5892TIP3   OH217632   1.747   7.995   5.089 -0.2859 -0.4429  0.2715
 5892TIP3    H117633   1.691   7.982   5.166 -1.4933  1.8568 -0.1800
 5892TIP3    H217634   1.693   8.046   5.029  1.3767 -0.4727 -1.2855
 5893TIP3   OH217635   4.690   2.237   6.300  0.9458  0.1036 -0.0534
 5893TIP3    H117636   4.612   2.276   6.337  0.7607 -0.8431  0.5677
 5893TIP3    H217637   4.711   2.292   6.224  0.2868  0.9680  0.3922
 5894TIP3   OH217638   5.885   5.690   0.140  0.0437  0.1665  0.0731
 5894TIP3    H117639   5.838   5.630   0.198 -0.5779  1.0193  0.4523
 5894TIP3    H217640   5.918   5.634   0.069 -0.3868 -0.6459  0.5111
 5895TIP3   OH217641   3.582   3.273   5.317 -0.4063  0.0664 -0.1003
 5895TIP3    H117642   3.574   3.335   5.244 -0.6165 -0.6387 -0.6806
 5895TIP3    H217643   3.559   3.188   5.279 -0.7507 -0.2668  0.8479
 5896TIP3   OH217644   4.629   1.955   2.525 -0.4105  1.1031  0.1308
 5896TIP3    H117645   4.592   1.880   2.571 -0.9423  0.7521 -0.8652
 5896TIP3    H217646   4.553   2.000   2.488  0.0874  0.9052 -1.1224
 5897TIP3   OH217647   4.165   2.024   4.214  0.1824 -0.1519  0.0506
 5897TIP3    H117648   4.258   2.024   4.191  0.1749 -1.4817 -0.0042
 5897TIP3    H217649   4.119   2.007   4.131  0.0254 -2.0816  0.5064
 5898TIP3   OH217650   4.875   1.534   4.295 -0.5066  0.0464 -0.7176
 5898TIP3    H117651   4.788   1.521   4.259 -0.5284 -0.5723 -0.4595
 5898TIP3    H217652   4.884   1.465   4.361 -0.5027  1.2262  0.5157
 5899TIP3   OH217653   3.363   2.010   5.148 -0.3191  0.1860  0.3591
 5899TIP3    H117654   3.372   2.025   5.054 -0.8140  0.8991  0.4262
 5899TIP3    H217655   3.269   2.016   5.165 -0.1876  0.5046  0.9776
 5900TIP3   OH217656   4.200   0.361   5.203  0.1732  0.0318 -0.5327
 5900TIP3    H117657   4.280   0.402   5.237  0.4898  1.3272 -2.6688
 5900TIP3    H217658   4.222   0.269   5.195  1.1546  0.2288 -0.1851
 5901TIP3   OH217659   4.598   1.611   4.923 -0.4371 -0.2625 -0.1578
 5901TIP3    H117660   4.679   1.590   4.970 -1.2150 -1.1881  0.8082
 5901TIP3    H217661   4.622   1.682   4.864  1.3223 -1.1957 -0.6088
 5902TIP3   OH217662   6.205   1.478   2.404  0.4122 -0.1017 -0.2770
 5902TIP3    H117663   6.111   1.492   2.398  0.5652  0.4435 -1.4900
 5902TIP3    H217664   6.221   1.459   2.496 -1.1539 -2.1076 -0.3957
 5903TIP3   OH217665   6.175   1.096   3.037 -0.4001  0.1499 -0.2488
 5903TIP3    H117666   6.190   1.183   3.000 -0.9366 -0.2401 -1.4147
 5903TIP3    H217667   6.225   1.037   2.980 -0.3739 -0.3455  0.2866
 5904TIP3   OH217668   2.886   0.504   5.250 -0.4054 -0.3886 -0.3575
 5904TIP3    H117669   2.797   0.496   5.218 -0.6593 -0.2598  0.3155
 5904TIP3    H217670   2.889   0.590   5.293  0.1742 -0.1776 -0.8135
 5905TIP3   OH217671   3.511   7.834   5.973 -0.3168  0.8530  0.5489
 5905TIP3    H117672   3.470   7.837   6.059  0.3726  0.5613  0.8916
 5905TIP3    H217673   3.505   7.924   5.940 -1.3260  0.7908  0.5418
 5906TIP3   OH217674   5.082   1.349   5.092  0.0501 -0.9590  0.1572
 5906TIP3    H117675   5.100   1.443   5.101 -1.3782 -0.7250  0.6733
 5906TIP3    H217676   5.137   1.321   5.019  0.8368  0.1797  0.2983
 5907TIP3   OH217677   1.463   6.208   3.062  0.1426  0.1782  0.0670
 5907TIP3    H117678   1.402   6.210   2.988 -0.5463  1.2637  0.6524
 5907TIP3    H217679   1.549   6.202   3.021 -0.2420  0.5725 -0.8313
 5908TIP3   OH217680   6.052   1.436   6.480  0.2330  0.1683  0.4444
 5908TIP3    H117681   5.968   1.400   6.507 -0.4589  1.7234  0.4409
 5908TIP3    H217682   6.104   1.360   6.453 -1.6664 -0.6826 -0.9194
 5909TIP3   OH217683   4.522   6.913   4.484  0.1414  0.0052  0.2729
 5909TIP3    H117684   4.556   6.827   4.458  0.1593  0.1838 -0.3187
 5909TIP3    H217685   4.522   6.963   4.402 -0.6629  0.3003  0.4550
 5910TIP3   OH217686   1.509   7.637   4.481  0.2010  0.1199 -0.6069
 5910TIP3    H117687   1.535   7.729   4.486 -0.0970  0.0832  1.9545
 5910TIP3    H217688   1.415   7.640   4.465 -0.0250  0.2793  0.7033
 5911TIP3   OH217689   2.820   3.153   5.889 -0.6114  0.2600  0.0713
 5911TIP3    H117690   2.772   3.078   5.924  0.0143 -0.0758  0.2264
 5911TIP3    H217691   2.861   3.119   5.809  0.6293  0.0891  0.7596
 5912TIP3   OH217692   3.392   2.306   5.143  0.2778 -0.0790  0.5327
 5912TIP3    H117693   3.393   2.211   5.156  0.9940  0.0325  1.3440
 5912TIP3    H217694   3.378   2.317   5.049  3.0958 -1.0364 -0.0590
 5913TIP3   OH217695   5.133   1.494   5.671  0.1373 -0.3906 -0.0923
 5913TIP3    H117696   5.038   1.486   5.663  0.2256 -2.3318  0.3825
 5913TIP3    H217697   5.167   1.416   5.626  1.4590 -0.1330  0.4488
 5914TIP3   OH217698   3.808   0.723   5.317  0.0099  0.2495  0.3395
 5914TIP3    H117699   3.789   0.630   5.309 -0.1916  0.3069  0.1622
 5914TIP3    H217700   3.777   0.747   5.404 -2.8358  0.8501 -0.7763
 5915TIP3   OH217701   5.903   0.653   6.041 -0.0026 -0.3327 -0.1443
 5915TIP3    H117702   5.892   0.748   6.048 -0.2758 -0.3984  0.3713
 5915TIP3    H217703   5.905   0.635   5.947 -0.5409  0.1149 -0.2419
 5916TIP3   OH217704   4.538   1.270   3.646  0.0271  0.0829 -0.3684
 5916TIP3    H117705   4.551   1.260   3.552 -0.3320  1.1188 -0.5407
 5916TIP3    H217706   4.627   1.270   3.683  0.2768  1.4938 -0.9201
 5917TIP3   OH217707   0.812   7.118   6.027 -0.0522 -0.4857  0.0844
 5917TIP3    H117708   0.718   7.138   6.028 -0.1703 -0.9683 -0.9790
 5917TIP3    H217709   0.845   7.154   6.110 -1.0103  0.4735  0.0630
 5918TIP3   OH217710   4.215   2.520   4.554 -0.0854  0.1583 -0.0657
 5918TIP3    H117711   4.127   2.558   4.551  0.6210  1.8418 -0.1201
 5918TIP3    H217712   4.258   2.567   4.625  0.6449 -0.9615  0.2431
 5919TIP3   OH217713   4.970   1.907   6.277  0.3786  0.4972 -0.3092
 5919TIP3    H117714   4.885   1.951   6.283  1.4079  2.3065  1.2664
 5919TIP3    H217715   5.006   1.935   6.193 -0.5837 -0.3498 -1.0270
 5920TIP3   OH217716   6.541   0.072   1.667 -0.1675  0.3945  0.0451
 5920TIP3    H117717   6.559   0.079   1.573 -0.0843  0.0757  0.0343
 5920TIP3    H217718   6.592  -0.005   1.695  0.5868  1.0700  0.5481
 5921TIP3   OH217719   8.172   1.217   4.567 -0.4623 -0.0310 -0.2614
 5921TIP3    H117720   8.134   1.259   4.643 -1.6659 -2.3164  0.4579
 5921TIP3    H217721   8.103   1.218   4.501 -0.4739 -0.7507 -0.2699
 5922TIP3   OH217722   1.378   6.861   6.040 -0.1294 -0.4700 -0.2686
 5922TIP3    H117723   1.347   6.928   6.101  1.3910 -0.4568  0.5180
 5922TIP3    H217724   1.341   6.886   5.955 -1.4688  0.0591  0.4615
 5923TIP3   OH217725   5.791   0.023   4.192 -0.8705  0.1530 -0.0340
 5923TIP3    H117726   5.843   0.095   4.227  0.4068 -0.5804 -0.3818
 5923TIP3    H217727   5.855  -0.047   4.177 -1.0897  0.9299 -5.2673
 5924TIP3   OH217728   8.286   0.512   5.034 -0.6218 -0.3470  0.5967
 5924TIP3    H117729   8.334   0.585   4.996  0.6627 -0.8875  1.1761
 5924TIP3    H217730   8.251   0.546   5.116  0.3569 -0.5166  1.0850
 5925TIP3   OH217731   6.045   1.563   3.929 -0.3557  0.6584 -0.2231
 5925TIP3    H117732   6.104   1.503   3.885  0.5706 -0.0107  1.8336
 5925TIP3    H217733   6.075   1.562   4.021 -1.8320  2.4104  0.3022
 5926TIP3   OH217734   5.650   3.582   3.755  0.0416  0.0184  0.3194
 5926TIP3    H117735   5.635   3.628   3.838  1.8375  0.5378  0.3661
 5926TIP3    H217736   5.615   3.641   3.689 -2.6950 -1.0045  0.7551
 5927TIP3   OH217737   2.298   7.030   4.622 -0.1979 -0.3246  0.6268
 5927TIP3    H117738   2.240   6.954   4.632  0.0049 -0.5491  0.0573
 5927TIP3    H217739   2.328   7.048   4.711 -1.6448  0.1947  1.0425
 5928TIP3   OH217740   4.761   2.088   2.273 -0.1736  0.3439 -0.1977
 5928TIP3    H117741   4.785   2.109   2.363 -0.0630 -2.1675  0.3892
 5928TIP3    H217742   4.687   2.147   2.254 -0.1287  0.9786  1.4755
 5929TIP3   OH217743   1.086   7.712   4.262  0.3624  0.2872  0.1626
 5929TIP3    H117744   1.120   7.758   4.339  1.2863  0.1554 -0.1586
 5929TIP3    H217745   1.127   7.625   4.265 -0.7680 -0.2515  0.3400
 5930TIP3   OH217746   3.345   7.225   6.225 -0.4875 -0.1323  0.1384
 5930TIP3    H117747   3.306   7.138   6.217 -2.2328  0.2497  3.3590
 5930TIP3    H217748   3.417   7.214   6.286 -1.3603  0.8275  1.3768
 5931TIP3   OH217749   5.230   0.913   1.933 -0.5838 -0.2416 -0.4268
 5931TIP3    H117750   5.149   0.872   1.965  0.1717 -1.5134 -0.1229
 5931TIP3    H217751   5.213   0.931   1.841 -0.4241 -2.5456 -0.9160
 5932TIP3   OH217752   8.049   1.311   4.792  0.0642  0.3323 -0.2266
 5932TIP3    H117753   8.040   1.277   4.880 -1.3202 -0.9921 -0.8521
 5932TIP3    H217754   8.075   1.402   4.804  1.0104 -0.1434  1.5133
 5933TIP3   OH217755   2.008   6.654   5.672 -0.1256 -0.0526 -0.2458
 5933TIP3    H117756   2.075   6.682   5.735  1.1019 -0.7222 -1.2341
 5933TIP3    H217757   1.991   6.733   5.620  0.6628 -0.1550 -0.6657
 5934TIP3   OH217758   5.114  -0.008   3.922 -0.0248  0.0539  0.1761
 5934TIP3    H117759   5.025   0.010   3.952  0.0141 -1.9787  1.6457
 5934TIP3    H217760   5.169   0.054   3.970 -0.5949  0.9705 -0.3514
 5935TIP3   OH217761   0.047   4.075   0.233  0.5546 -0.2011  0.1262
 5935TIP3    H117762   0.057   3.981   0.217 -1.5628 -0.4221  0.0217
 5935TIP3    H217763   0.079   4.116   0.152 -0.7787 -0.9507 -0.8141
 5936TIP3   OH217764   1.911   7.670   4.899  0.2407 -0.0059 -0.2715
 5936TIP3    H117765   1.993   7.658   4.850  0.0370  0.7485 -0.7998
 5936TIP3    H217766   1.934   7.727   4.972  0.1584  0.3394 -0.5114
 5937TIP3   OH217767   2.320   7.079   6.199 -0.3126  0.1764 -0.8979
 5937TIP3    H117768   2.297   7.156   6.250  0.9337  0.9798 -1.5006
 5937TIP3    H217769   2.416   7.079   6.198 -0.2692 -2.0752  0.1237
 5938TIP3   OH217770   5.681   1.607   3.414  0.4790  0.2162  0.2494
 5938TIP3    H117771   5.654   1.647   3.331  1.7074 -1.1778 -0.8552
 5938TIP3    H217772   5.600   1.569   3.449  0.1101  0.0667 -0.7451
 5939TIP3   OH217773   5.242   2.605   3.853 -0.0940 -0.0144 -0.1449
 5939TIP3    H117774   5.274   2.693   3.831  0.1234 -0.2001 -0.5902
 5939TIP3    H217775   5.248   2.557   3.770  1.0573 -0.8339  0.4024
 5940TIP3   OH217776   4.587   0.506   4.284  0.0209  0.1881 -0.4736
 5940TIP3    H117777   4.495   0.483   4.298 -0.0720  1.4802  1.1834
 5940TIP3    H217778   4.585   0.569   4.212 -0.4026  0.3960 -0.2789
 5941TIP3   OH217779   4.170   0.074   5.189  0.1626  0.0061 -0.1940
 5941TIP3    H117780   4.168   0.082   5.094  1.0475  0.0376 -0.2144
 5941TIP3    H217781   4.112  -0.001   5.208  0.5432 -0.4470 -0.8027
 5942TIP3   OH217782   5.996   2.617   4.321  0.0998 -0.1318 -0.2392
 5942TIP3    H117783   6.070   2.610   4.261  0.5675  2.0324  0.0272
 5942TIP3    H217784   5.941   2.686   4.282 -0.5069  0.0026  0.8522
 5943TIP3   OH217785   5.117   1.380   5.966  0.4133  0.0533 -0.1807
 5943TIP3    H117786   5.063   1.393   5.888  2.5482  0.6367 -1.5935
 5943TIP3    H217787   5.207   1.377   5.933  1.2310 -1.4086  2.0686
 5944TIP3   OH217788   3.045   1.067   3.021 -0.4289  0.5435 -0.2443
 5944TIP3    H117789   3.083   0.997   3.075 -0.1271  0.8792 -0.0221
 5944TIP3    H217790   2.961   1.086   3.062 -0.6247  0.1331 -0.4536
 5945TIP3   OH217791   5.070   0.902   4.803  0.1978 -0.3051  0.2903
 5945TIP3    H117792   5.136   0.937   4.863 -0.5688  1.5726  0.0718
 5945TIP3    H217793   5.064   0.968   4.733 -2.3725 -0.1103  0.6502
 5946TIP3   OH217794   5.531   0.289   6.397  0.4496  0.0968  0.0991
 5946TIP3    H117795   5.510   0.280   6.490  0.7339 -0.4404  0.1137
 5946TIP3    H217796   5.624   0.268   6.391  0.4727  0.2977 -0.2818
 5947TIP3   OH217797   5.375   1.157   3.519  0.2751  0.0131  0.5376
 5947TIP3    H117798   5.284   1.174   3.542  0.1107 -1.9161  1.4707
 5947TIP3    H217799   5.370   1.112   3.435  0.4068  0.4773  0.2817
 5948TIP3   OH217800   6.597   1.200   3.602 -0.5390 -0.4948  0.4172
 5948TIP3    H117801   6.606   1.267   3.671 -2.4834 -1.0932  1.3227
 5948TIP3    H217802   6.507   1.212   3.570  0.0342 -0.8616 -1.3654
 5949TIP3   OH217803   3.598   2.370   6.959  0.5428  0.0269  0.3255
 5949TIP3    H117804   3.653   2.389   6.883  0.9646  0.6987  0.7869
 5949TIP3    H217805   3.546   2.294   6.933  0.6435  0.2819 -0.6524
 5950TIP3   OH217806   6.983   2.064   5.774 -0.0958  0.4554 -0.7291
 5950TIP3    H117807   6.962   2.151   5.741  0.8381  0.3457 -1.6286
 5950TIP3    H217808   7.019   2.079   5.861 -1.1087  0.8644 -0.3775
 5951TIP3   OH217809   3.283   0.704   4.742 -0.7186 -0.0757  0.2239
 5951TIP3    H117810   3.194   0.739   4.738  0.0095  1.7756 -0.2474
 5951TIP3    H217811   3.310   0.718   4.833 -0.8386 -0.4629  0.3191
 5952TIP3   OH217812   5.727   0.100   4.992 -0.4443  0.5274  0.1059
 5952TIP3    H117813   5.805   0.046   4.987 -0.7139  0.1761 -0.2895
 5952TIP3    H217814   5.700   0.113   4.901  0.0590  1.9693  0.1451
 5953TIP3   OH217815   4.733   1.052   5.325  0.1591 -0.1947 -0.2564
 5953TIP3    H117816   4.759   1.089   5.241  0.2059  3.0885  1.1379
 5953TIP3    H217817   4.803   0.990   5.347  1.5351  0.9585 -1.3468
 5954TIP3   OH217818   4.303   1.719   3.458 -0.3992  0.9500 -0.0272
 5954TIP3    H117819   4.392   1.731   3.491 -0.3666  0.8927 -0.0943
 5954TIP3    H217820   4.290   1.792   3.397  0.2173 -0.0197 -1.3274
 5955TIP3   OH217821   6.408   0.720   5.265  0.0485  0.5492 -0.2342
 5955TIP3    H117822   6.321   0.689   5.290 -0.4468  1.5396 -0.7124
 5955TIP3    H217823   6.423   0.681   5.178  0.7947 -0.9868  0.5661
 5956TIP3   OH217824   6.499   0.089   3.571 -0.0364  0.5625  0.6815
 5956TIP3    H117825   6.583   0.104   3.528  0.1090 -0.2301  0.6851
 5956TIP3    H217826   6.520   0.084   3.665 -0.0686  0.2507  0.6731
 5957TIP3   OH217827   3.181   7.884   4.169  0.2798  0.2820 -0.2210
 5957TIP3    H117828   3.199   7.801   4.124  2.0149  0.9768 -0.8280
 5957TIP3    H217829   3.252   7.892   4.233  2.1014  2.9373 -2.4767
 5958TIP3   OH217830   7.865   2.726   5.742  0.2600 -0.0997  0.2304
 5958TIP3    H117831   7.946   2.746   5.697 -0.0306  1.3123  0.3017
 5958TIP3    H217832   7.851   2.801   5.800 -0.9326 -0.4704  0.4368
 5959TIP3   OH217833   0.035   1.827   4.681 -0.5185  0.1346 -0.2810
 5959TIP3    H117834   0.123   1.843   4.713 -1.2952  2.6809  0.7320
 5959TIP3    H217835  -0.021   1.843   4.757 -1.9106 -0.4663 -1.1650
 5960TIP3   OH217836   7.605   1.663   3.272  0.0028 -0.5014  0.2400
 5960TIP3    H117837   7.584   1.755   3.256  2.2458  0.3337  1.8489
 5960TIP3    H217838   7.649   1.635   3.192  1.8887  0.6618  0.8542
 5961TIP3   OH217839   5.327   2.695   3.127 -0.1038  0.0208 -0.1394
 5961TIP3    H117840   5.274   2.767   3.094  2.4411  2.2825  0.4811
 5961TIP3    H217841   5.317   2.700   3.222  0.0377 -0.4822 -0.0975
 5962TIP3   OH217842   6.743   1.238   3.223  0.0863  0.6267 -0.9500
 5962TIP3    H117843   6.773   1.283   3.144 -0.8874 -1.5325 -2.6223
 5962TIP3    H217844   6.649   1.223   3.207 -0.2592  0.7374  0.8935
 5963TIP3   OH217845   6.007   7.068   5.491 -0.2271  0.4550  0.1438
 5963TIP3    H117846   6.082   7.070   5.551 -0.1756  1.0772  0.0638
 5963TIP3    H217847   5.933   7.095   5.544 -0.5043 -0.6963  0.3620
 5964TIP3   OH217848   6.680   1.706   5.021  0.0729 -0.2125 -0.1033
 5964TIP3    H117849   6.736   1.668   4.954 -1.9549  0.2158 -2.0857
 5964TIP3    H217850   6.739   1.759   5.075  1.3609  1.3790 -2.9896
 5965TIP3   OH217851   4.519   7.047   4.221 -0.8097 -0.5027 -0.8387
 5965TIP3    H117852   4.512   7.099   4.141  1.1047  0.3664 -0.4575
 5965TIP3    H217853   4.589   6.985   4.203 -0.9465 -0.8623 -0.1371
 5966TIP3   OH217854   4.839   6.394   4.299 -0.4143  0.0167 -0.1510
 5966TIP3    H117855   4.887   6.312   4.288 -0.6792  0.1634 -2.6767
 5966TIP3    H217856   4.904   6.456   4.330  0.1031 -0.8035  0.4351
 5967TIP3   OH217857   2.964   7.940   6.591  0.3595 -0.6718  0.0829
 5967TIP3    H117858   2.958   7.888   6.511 -0.0967  0.5591 -0.6889
 5967TIP3    H217859   2.957   8.030   6.562 -0.0146 -0.2190  1.5388
 5968TIP3   OH217860   5.981   2.324   2.524 -0.4669  0.1232 -0.4245
 5968TIP3    H117861   5.955   2.259   2.459 -1.5664  0.0869  0.0265
 5968TIP3    H217862   5.978   2.277   2.607  0.9120  0.1726 -0.3319
 5969TIP3   OH217863   5.340   0.247   3.863 -0.5776 -0.0227 -0.1940
 5969TIP3    H117864   5.419   0.296   3.887 -0.1862 -0.5300 -0.4487
 5969TIP3    H217865   5.297   0.230   3.947 -0.7837  0.8725 -0.1145
 5970TIP3   OH217866   1.995   1.273   3.351  0.2065 -0.0943  0.1350
 5970TIP3    H117867   2.059   1.271   3.421  0.7885 -0.5218 -0.4029
 5970TIP3    H217868   1.970   1.365   3.343  3.7657  0.7548 -2.3667
 5971TIP3   OH217869   3.286   7.926   2.638 -0.5460  0.7264 -0.1856
 5971TIP3    H117870   3.228   7.892   2.707 -2.3663  1.3631 -1.3608
 5971TIP3    H217871   3.351   7.977   2.686 -0.0445 -1.2368  1.2820
 5972TIP3   OH217872   7.570   1.676   5.163 -0.0385 -0.3344 -0.4816
 5972TIP3    H117873   7.589   1.594   5.118 -0.6798 -0.2342 -0.9355
 5972TIP3    H217874   7.653   1.724   5.162  0.2701 -0.8644 -0.4369
 5973TIP3   OH217875   7.157   2.992   4.934  0.1608 -0.6165 -0.0400
 5973TIP3    H117876   7.128   3.083   4.937 -1.1984 -1.0795  2.0532
 5973TIP3    H217877   7.111   2.956   4.858 -1.2888 -0.1701  0.5932
 5974TIP3   OH217878   8.287   2.453   5.684 -0.3546 -0.3990  0.1559
 5974TIP3    H117879   8.234   2.462   5.605 -0.6633  0.5341  0.4693
 5974TIP3    H217880   8.226   2.466   5.756  0.2746  0.5785  0.5236
 5975TIP3   OH217881   5.940   2.161   3.869  0.1694  0.0580  0.2876
 5975TIP3    H117882   5.960   2.067   3.868  0.4972  0.1210  0.8769
 5975TIP3    H217883   5.847   2.165   3.891  0.4623 -0.0855  1.6100
 5976TIP3   OH217884   1.277   0.321   3.426 -0.0665 -0.8071 -0.0150
 5976TIP3    H117885   1.310   0.263   3.357  1.6830 -0.5233  0.5739
 5976TIP3    H217886   1.240   0.395   3.379 -0.3877 -1.3934 -0.7047
 5977TIP3   OH217887   6.463   7.219   5.763  0.4593  0.2079 -0.2769
 5977TIP3    H117888   6.466   7.186   5.673 -1.6260 -0.4256 -0.1219
 5977TIP3    H217889   6.446   7.312   5.754 -1.3477 -0.1311 -0.5160
 5978TIP3   OH217890   7.167   1.311   4.498  0.7198 -0.0273  0.2264
 5978TIP3    H117891   7.194   1.220   4.483 -1.3797 -0.7135  0.3818
 5978TIP3    H217892   7.091   1.323   4.440 -0.0949  1.0758  1.4941
 5979TIP3   OH217893   7.583   1.114   3.724  0.0143 -0.1016 -0.2868
 5979TIP3    H117894   7.613   1.191   3.773  1.0756 -0.6984  0.0032
 5979TIP3    H217895   7.524   1.069   3.784  2.0837 -1.3665  0.8422
 5980TIP3   OH217896   8.354   1.641   6.169 -0.1878 -0.9647 -0.2608
 5980TIP3    H117897   8.441   1.674   6.189 -0.3614  0.6505 -1.9822
 5980TIP3    H217898   8.355   1.550   6.197  0.7450  0.1032  3.3795
 5981TIP3   OH217899   8.167   1.453   2.263 -0.9342  0.3226  0.0280
 5981TIP3    H117900   8.124   1.462   2.348 -1.6433  1.7514 -0.4648
 5981TIP3    H217901   8.159   1.540   2.223  2.3731  0.6227 -0.1014
 5982TIP3   OH217902   8.046   2.005   2.353  0.6511  0.8601  0.1308
 5982TIP3    H117903   8.025   2.075   2.415  0.0425  0.3249  0.5432
 5982TIP3    H217904   8.054   2.049   2.269 -1.6396  1.1860  0.0398
 5983TIP3   OH217905   0.332   2.523   4.282 -0.6956  0.4475  0.0081
 5983TIP3    H117906   0.423   2.508   4.307 -0.6004  0.1688 -0.5114
 5983TIP3    H217907   0.297   2.436   4.264 -0.8850  0.6098 -0.4179
 5984TIP3   OH217908   5.222   6.750   4.587 -0.3886 -0.0245  0.2068
 5984TIP3    H117909   5.171   6.787   4.515  1.4525  0.1885 -1.0413
 5984TIP3    H217910   5.302   6.803   4.589  1.1210 -2.2220  0.1530
 5985TIP3   OH217911   7.273   0.281   3.536 -0.3974 -0.2080 -0.5692
 5985TIP3    H117912   7.221   0.252   3.460 -0.7016 -0.0647 -0.4155
 5985TIP3    H217913   7.219   0.348   3.578 -0.2279 -0.2879 -0.2231
 5986TIP3   OH217914   0.797   1.332   6.064 -0.3196  0.1382 -0.5898
 5986TIP3    H117915   0.839   1.314   6.148 -0.6452 -3.4469 -1.1216
 5986TIP3    H217916   0.708   1.360   6.088  0.9978  3.7509  0.3693
 5987TIP3   OH217917   6.926   2.246   4.285  0.1389 -0.3946 -0.0908
 5987TIP3    H117918   7.012   2.252   4.242  0.1667 -1.3005 -0.1797
 5987TIP3    H217919   6.868   2.212   4.217 -0.1009 -0.5934  0.2112
 5988TIP3   OH217920   6.873   0.962   4.065 -0.0679 -0.5502  0.2524
 5988TIP3    H117921   6.911   1.030   4.010 -0.8081  1.1057  1.6984
 5988TIP3    H217922   6.882   0.997   4.154  2.1263 -3.6434  1.3236
 5989TIP3   OH217923   7.824   1.936   4.826  0.0511 -0.6028  0.7319
 5989TIP3    H117924   7.918   1.937   4.844  0.1294 -1.4083  0.3358
 5989TIP3    H217925   7.792   2.017   4.867  1.2727  0.8653 -1.1262
 5990TIP3   OH217926   7.198   1.528   5.689  0.1179  0.3267  0.2674
 5990TIP3    H117927   7.114   1.522   5.644  0.7050  0.4164 -0.8756
 5990TIP3    H217928   7.262   1.502   5.623  1.1408  2.0616  0.5380
 5991TIP3   OH217929   7.475   2.286   5.389 -0.2323 -0.2568  0.3432
 5991TIP3    H117930   7.563   2.276   5.353 -1.3616 -0.7868 -2.3742
 5991TIP3    H217931   7.448   2.374   5.364 -0.9920 -0.5899 -0.0206
 5992TIP3   OH217932   8.085   1.787   3.848 -0.0765  0.3419 -0.3252
 5992TIP3    H117933   8.062   1.697   3.828 -0.1431  0.3154 -0.1309
 5992TIP3    H217934   8.024   1.840   3.797  0.6236  0.2849 -1.2379
 5993TIP3   OH217935   4.330   0.617   1.910 -0.6337 -0.2167 -0.0923
 5993TIP3    H117936   4.390   0.556   1.867 -0.1474  0.5272 -0.4847
 5993TIP3    H217937   4.356   0.615   2.003 -1.5221 -1.6342  0.1426
 5994TIP3   OH217938   5.559   6.307   3.454  0.5919  0.1739  0.2707
 5994TIP3    H117939   5.636   6.330   3.505  1.9517  0.4053 -1.8328
 5994TIP3    H217940   5.496   6.377   3.473  2.1287  1.8324 -0.5639
 5995TIP3   OH217941   0.478   3.306   1.658 -0.9734  0.1655 -0.0050
 5995TIP3    H117942   0.409   3.263   1.708  0.0084  1.3565  2.4257
 5995TIP3    H217943   0.548   3.241   1.654 -0.6933  0.4084  0.9649
 5996TIP3   OH217944   5.466   1.179   5.476  0.0789  0.1192  0.0400
 5996TIP3    H117945   5.553   1.143   5.492  0.2372  0.5894  0.2546
 5996TIP3    H217946   5.477   1.274   5.484  0.0642  0.3687 -2.3119
 5997TIP3   OH217947   4.727   1.981   6.228  0.1226  0.2262 -0.5787
 5997TIP3    H117948   4.686   1.983   6.141  0.2585  0.9488 -0.6278
 5997TIP3    H217949   4.727   2.072   6.256  1.1783  0.1515 -0.3322
 5998TIP3   OH217950   7.479   0.895   5.345  0.0328 -0.0469  0.3975
 5998TIP3    H117951   7.519   0.922   5.427 -0.8110 -0.2836  0.8930
 5998TIP3    H217952   7.442   0.976   5.308 -0.8416 -0.1870  0.9563
 5999TIP3   OH217953   5.846   2.477   4.525  0.3511  0.0510  0.0158
 5999TIP3    H117954   5.771   2.423   4.502  2.1454 -2.6553  0.3865
 5999TIP3    H217955   5.890   2.495   4.442  0.2489  0.2084 -0.0043
 6000TIP3   OH217956   7.707   1.811   2.053 -0.0584  0.0152 -0.5117
 6000TIP3    H117957   7.738   1.884   2.107  0.8686 -0.0089 -0.9986
 6000TIP3    H217958   7.662   1.753   2.114  0.5049  0.2597  0.1410
 6001TIP3   OH217959   6.912   0.089   3.166  0.0496 -0.3181 -0.2580
 6001TIP3    H117960   6.986   0.127   3.118 -0.3325 -0.2495 -0.7962
 6001TIP3    H217961   6.937  -0.002   3.181  1.0794  0.1997  1.2529
 6002TIP3   OH217962   7.493   1.852   2.601  0.0247  0.0522  0.4327
 6002TIP3    H117963   7.482   1.814   2.688  0.3316 -1.1981 -0.0713
 6002TIP3    H217964   7.434   1.927   2.600  0.2373  0.2506  1.8205
 6003TIP3   OH217965   8.088   1.123   3.875  0.1292  0.0263 -0.1656
 6003TIP3    H117966   8.011   1.172   3.902  0.8014  0.2310  1.4581
 6003TIP3    H217967   8.054   1.053   3.819 -1.1807  0.3099  0.2633
 6004TIP3   OH217968   4.839   7.407   5.312 -0.3144  0.2739  0.4865
 6004TIP3    H117969   4.811   7.498   5.305 -0.4769  0.1147 -1.2097
 6004TIP3    H217970   4.768   7.364   5.361  0.3036  1.2656  2.2861
 6005TIP3   OH217971   5.828   0.929   4.393  0.2995  0.0748  0.2015
 6005TIP3    H117972   5.736   0.955   4.406  0.5808  0.6403  1.0650
 6005TIP3    H217973   5.837   0.848   4.444 -0.2686 -1.1341 -1.5652
 6006TIP3   OH217974   8.421   1.271   4.777  0.3094  0.0037 -0.2222
 6006TIP3    H117975   8.451   1.195   4.826 -1.0602 -0.1230  0.4197
 6006TIP3    H217976   8.354   1.237   4.717 -0.1421  0.6588 -0.0944
 6007TIP3   OH217977   5.125   0.418   1.274  0.4016  0.2668 -0.3587
 6007TIP3    H117978   5.110   0.328   1.304 -0.4015 -0.1077 -1.8377
 6007TIP3    H217979   5.195   0.450   1.330 -0.4764 -0.6934  1.3567
 6008TIP3   OH217980   6.229   0.547   3.242 -0.2229 -0.3970 -0.2050
 6008TIP3    H117981   6.210   0.459   3.276 -0.9994 -0.7441 -1.4981
 6008TIP3    H217982   6.303   0.534   3.182  0.8230  0.1342  0.9445
 6009TIP3   OH217983   7.273   0.890   2.273  0.2803 -0.0021  0.3606
 6009TIP3    H117984   7.182   0.920   2.283  0.4658  0.6640  0.0334
 6009TIP3    H217985   7.303   0.878   2.363 -1.0635 -3.1036  0.4799
 6010TIP3   OH217986   6.319   1.080   3.834 -0.9513 -0.1048  0.4041
 6010TIP3    H117987   6.370   1.140   3.779 -0.7572  1.5875  2.3837
 6010TIP3    H217988   6.372   1.001   3.838 -0.4609  0.1325 -0.9497
 6011TIP3   OH217989   6.726   0.127   6.402  0.4486 -0.0467 -0.2529
 6011TIP3    H117990   6.821   0.137   6.390  0.2335  0.4826 -1.5285
 6011TIP3    H217991   6.706   0.180   6.479  0.9654  1.0437 -0.8514
 6012TIP3   OH217992   0.246   0.820   4.992  0.0388 -0.0294  0.3625
 6012TIP3    H117993   0.221   0.768   5.069 -0.7235 -0.3723 -0.1127
 6012TIP3    H217994   0.183   0.891   4.989 -1.2738 -1.2196 -1.1687
 6013TIP3   OH217995   6.635   0.828   4.079  0.0573 -0.7173 -0.3467
 6013TIP3    H117996   6.657   0.759   4.142  1.0325 -0.3516 -0.2820
 6013TIP3    H217997   6.704   0.893   4.090  0.0129 -0.4677 -1.5275
 6014TIP3   OH217998   6.054   0.384   4.218  0.2678 -0.7977  0.9981
 6014TIP3    H117999   6.087   0.389   4.128 -0.8977  1.2940  0.6455
 6014TIP3    H218000   6.129   0.354   4.269  1.4002 -0.4971 -0.4418
 6015TIP3   OH218001   7.891   1.347   4.255  0.1433  0.3840 -0.0087
 6015TIP3    H118002   7.828   1.402   4.207 -1.2116 -0.9315  0.2200
 6015TIP3    H218003   7.975   1.365   4.213 -0.4067  2.0408 -0.4432
 6016TIP3   OH218004   8.402   1.919   4.904  0.0799  0.1802  0.3744
 6016TIP3    H118005   8.415   2.014   4.893  1.2796 -0.1202 -1.0898
 6016TIP3    H218006   8.423   1.902   4.995 -1.2688  1.4975  0.9546
 6017TIP3   OH218007   4.941   7.810   2.165  0.3488 -0.2475 -0.2694
 6017TIP3    H118008   4.985   7.741   2.214 -0.9094 -0.8919 -0.0326
 6017TIP3    H218009   4.917   7.770   2.081  1.3766  0.4821 -0.9180
 6018TIP3   OH218010   6.656   0.323   4.165  0.5496  0.1515  0.4209
 6018TIP3    H118011   6.567   0.341   4.193 -0.2043 -1.5303 -0.8010
 6018TIP3    H218012   6.653   0.234   4.131  2.1721  0.8891 -1.7781
 6019TIP3   OH218013   6.361   2.899   4.118  0.6211 -0.0374 -0.3432
 6019TIP3    H118014   6.330   2.933   4.035  0.7469  1.1377  0.0776
 6019TIP3    H218015   6.398   2.975   4.163 -0.1193 -0.5060  1.0955
 6020TIP3   OH218016   6.319   2.046   4.727 -0.0692 -0.2558 -0.3630
 6020TIP3    H118017   6.359   1.997   4.799 -0.1668 -0.3022 -0.3412
 6020TIP3    H218018   6.391   2.100   4.693  0.0928 -0.5536 -0.5089
 6021TIP3   OH218019   4.874   7.248   3.899  0.0479 -0.1887  0.0023
 6021TIP3    H118020   4.823   7.329   3.892  0.7470  0.0942 -1.9167
 6021TIP3    H218021   4.964   7.277   3.916  0.3370 -0.5594 -0.8850
 6022TIP3   OH218022   3.260   7.048   4.672 -0.8005  0.2548  0.0208
 6022TIP3    H118023   3.219   7.126   4.636 -0.9058  0.5000  0.6716
 6022TIP3    H218024   3.351   7.073   4.686 -0.4617 -0.2281 -1.2401
 6023TIP3   OH218025   0.392   1.925   6.184  0.1224  0.5741 -0.2069
 6023TIP3    H118026   0.393   1.843   6.135 -3.5553  0.4619 -0.2439
 6023TIP3    H218027   0.412   1.900   6.274  0.9430 -0.0744 -0.5696
 6024TIP3   OH218028   8.015   3.483   3.087 -0.4863  0.1955  0.4415
 6024TIP3    H118029   8.084   3.465   3.151  0.8117  4.0258  0.2431
 6024TIP3    H218030   7.939   3.506   3.141 -0.4047  0.0550  0.6189
 6025TIP3   OH218031   5.882   6.764   3.622 -0.2764  0.1122 -0.4911
 6025TIP3    H118032   5.812   6.824   3.648  0.2774 -0.0986  1.6150
 6025TIP3    H218033   5.865   6.684   3.672  0.4352 -0.5922 -1.3563
 6026TIP3   OH218034   6.696   1.318   6.038  0.5637  0.0761  0.2425
 6026TIP3    H118035   6.682   1.356   5.951 -0.7996  0.9404  0.8228
 6026TIP3    H218036   6.725   1.391   6.092 -0.6538  0.0019  1.0166
 6027TIP3   OH218037   7.043   1.288   3.725  0.0843  0.3185  0.2017
 6027TIP3    H118038   7.056   1.343   3.648 -0.1766  0.3164  0.1552
 6027TIP3    H218039   7.101   1.213   3.712 -1.0196 -0.4024 -0.6902
 6028TIP3   OH218040   4.065   2.840   3.662  0.6709 -0.1665  0.3147
 6028TIP3    H118041   4.122   2.778   3.617  1.8781  0.6760  0.6489
 6028TIP3    H218042   4.099   2.926   3.637 -0.9060  0.3706 -0.0512
 6029TIP3   OH218043   1.089   1.123   5.024 -0.8767  0.0001  0.2661
 6029TIP3    H118044   1.167   1.074   5.049  0.5988  1.6042 -1.0871
 6029TIP3    H218045   1.056   1.159   5.107  0.0513 -0.3433  0.7913
 6030TIP3   OH218046   8.186   3.059   4.821  0.0597  0.1358  0.3118
 6030TIP3    H118047   8.100   3.071   4.861 -0.3649  0.5676 -0.7274
 6030TIP3    H218048   8.178   2.979   4.769  0.4111 -0.0341  0.5091
 6031TIP3   OH218049   6.907   0.117   5.628 -0.0257 -0.6694 -0.1883
 6031TIP3    H118050   6.948   0.155   5.706  1.3301 -1.6861 -0.3809
 6031TIP3    H218051   6.820   0.158   5.624  0.4418  0.4838  1.0204
 6032TIP3   OH218052   7.858   1.225   3.954  0.5066 -0.1942  0.2501
 6032TIP3    H118053   7.801   1.299   3.934  0.4781 -0.2989 -0.0605
 6032TIP3    H218054   7.799   1.155   3.981  0.3440 -0.8513 -1.7331
 6033TIP3   OH218055   7.829   1.766   3.678  0.1037 -0.7556  0.2170
 6033TIP3    H118056   7.818   1.850   3.723 -0.2004  0.0976 -1.4198
 6033TIP3    H218057   7.872   1.788   3.596 -1.2809 -2.0012 -0.8855
 6034TIP3   OH218058   7.785   1.462   5.222  0.2701  0.1949 -0.0483
 6034TIP3    H118059   7.771   1.440   5.130  2.4094 -1.5803 -0.0084
 6034TIP3    H218060   7.719   1.411   5.269 -0.3025  0.4714 -0.5525
 6035TIP3   OH218061   5.521   7.148   3.762  0.2792 -0.2813 -0.3904
 6035TIP3    H118062   5.545   7.184   3.676  1.3994  0.6764  0.3219
 6035TIP3    H218063   5.430   7.176   3.774  0.6246  0.9670 -0.5679
 6036TIP3   OH218064   8.420   0.980   5.445  0.2504 -0.1937  0.9150
 6036TIP3    H118065   8.493   0.922   5.428 -2.3437 -2.9046 -1.6349
 6036TIP3    H218066   8.399   0.967   5.538  0.0480 -3.0012  0.5068
 6037TIP3   OH218067   7.047   1.289   2.296 -0.2445  0.0082 -0.3905
 6037TIP3    H118068   7.116   1.339   2.340  0.8610 -1.7712 -0.0502
 6037TIP3    H218069   6.965   1.325   2.332  0.5586  0.5586  0.9457
 6038TIP3   OH218070   6.380   1.545   3.255  0.3460 -0.9586  0.0768
 6038TIP3    H118071   6.402   1.541   3.348 -0.1701 -0.2731  0.2387
 6038TIP3    H218072   6.330   1.627   3.246 -1.0132 -1.8209 -0.4920
 6039TIP3   OH218073   7.270   1.016   4.536  0.1546  0.1442  0.0484
 6039TIP3    H118074   7.354   1.059   4.552 -0.6111  1.1211  1.5782
 6039TIP3    H218075   7.245   0.981   4.621 -1.0535 -0.0158 -0.3613
 6040TIP3   OH218076   5.397   1.887   4.371 -0.8947 -0.1189  0.2507
 6040TIP3    H118077   5.430   1.965   4.414 -3.1841  0.7157  0.5388
 6040TIP3    H218078   5.447   1.815   4.410  2.6612  1.2806 -1.4217
 6041TIP3   OH218079   5.454   1.668   4.553 -0.4968  0.9225 -0.0886
 6041TIP3    H118080   5.436   1.579   4.583  0.4499  0.1848 -1.5940
 6041TIP3    H218081   5.443   1.723   4.630  0.5418 -0.7181  1.2678
 6042TIP3   OH218082   8.060   1.501   3.050  0.3659  0.1790  0.8215
 6042TIP3    H118083   8.046   1.568   3.116 -1.6322 -0.4229  1.0391
 6042TIP3    H218084   8.020   1.422   3.087 -1.3672 -0.0088 -1.3696
 6043TIP3   OH218085   7.357   2.019   4.477  0.3229  0.2595 -0.1152
 6043TIP3    H118086   7.427   1.991   4.536  1.0951 -1.5831 -1.8438
 6043TIP3    H218087   7.277   1.985   4.517  0.4163  2.2009  1.7707
 6044TIP3   OH218088   7.476   0.359   6.131 -0.2459 -0.2299 -0.1731
 6044TIP3    H118089   7.459   0.367   6.037 -0.5462 -3.3881 -0.4181
 6044TIP3    H218090   7.392   0.382   6.172 -0.5785 -0.4306 -0.7404
 6045TIP3   OH218091   8.016   1.985   5.182 -0.0695  0.8926 -0.2948
 6045TIP3    H118092   7.998   2.072   5.147  1.7267  0.9866 -1.0507
 6045TIP3    H218093   8.090   1.997   5.241 -0.2852 -0.0061  0.1762
 6046TIP3   OH218094   5.477   6.960   2.833  0.0671  0.2674  0.1057
 6046TIP3    H118095   5.493   6.866   2.824 -1.3218  0.2492 -2.9613
 6046TIP3    H218096   5.409   6.968   2.899  1.2536 -0.7460  1.4783
 6047TIP3   OH218097   4.535   0.567   4.951 -0.0782  0.0181 -0.4685
 6047TIP3    H118098   4.525   0.603   4.863  1.7617  0.3530 -0.5751
 6047TIP3    H218099   4.627   0.584   4.973 -0.1088 -1.4624  0.8963
 6048TIP3   OH218100   7.956   0.749   4.491 -0.5115  0.3625  0.1248
 6048TIP3    H118101   7.982   0.680   4.430 -0.8530  0.4475 -0.1157
 6048TIP3    H218102   7.973   0.831   4.444 -1.2402  0.4165 -0.0395
 6049TIP3   OH218103   7.946   0.642   4.767  0.3971 -0.2194  0.5871
 6049TIP3    H118104   7.979   0.554   4.784  1.9123  0.3103  0.5063
 6049TIP3    H218105   7.979   0.664   4.680  0.9624  0.8416  1.0555
 6050TIP3   OH218106   7.716   3.673   3.449  0.1006  0.3356 -0.3734
 6050TIP3    H118107   7.646   3.614   3.421  0.1917  0.3019 -0.5302
 6050TIP3    H218108   7.726   3.656   3.542  1.8014 -1.6566 -0.8772
 6051TIP3   OH218109   6.333   0.849   3.565 -0.0858 -0.2487  0.6335
 6051TIP3    H118110   6.247   0.849   3.607  0.0606  0.0913  0.9354
 6051TIP3    H218111   6.388   0.799   3.625  0.1993  0.5002  1.0053
 6052TIP3   OH218112   4.974   1.058   5.767  0.0986  0.0301  0.3623
 6052TIP3    H118113   4.940   1.004   5.695 -1.3733 -0.4525  1.3935
 6052TIP3    H218114   4.900   1.066   5.828  0.6570  2.2380  0.7931
 6053TIP3   OH218115   5.793   7.883   3.935 -0.6085 -0.2424  0.6405
 6053TIP3    H118116   5.825   7.942   4.003  1.7915  0.6669 -1.2249
 6053TIP3    H218117   5.782   7.799   3.980  0.3899  0.4766  2.2729
 6054TIP3   OH218118   5.921   2.212   2.782  0.1429  0.6264 -0.4069
 6054TIP3    H118119   5.967   2.259   2.852  0.3261 -0.3630  0.1508
 6054TIP3    H218120   5.849   2.168   2.826  0.3060 -0.0722 -0.8293
 6055TIP3   OH218121   4.354   0.729   2.369 -0.5332  0.5665 -0.0739
 6055TIP3    H118122   4.307   0.670   2.428 -1.1426  1.0588 -0.0583
 6055TIP3    H218123   4.410   0.781   2.427  0.4210 -0.3833 -0.1478
 6056TIP3   OH218124   5.232   1.435   2.642 -0.5665 -0.5764  0.5498
 6056TIP3    H118125   5.293   1.364   2.623 -0.4921 -0.4706  0.3982
 6056TIP3    H218126   5.276   1.489   2.707  0.5465  0.8977 -1.3840
 6057TIP3   OH218127   2.846   7.805   2.520 -0.4272  0.5000 -0.9484
 6057TIP3    H118128   2.766   7.852   2.542 -0.4402  0.0794 -0.0377
 6057TIP3    H218129   2.819   7.739   2.457 -0.3441  1.9154 -2.4973
 6058TIP3   OH218130   5.801   6.932   6.678 -0.4303  0.1910 -0.6075
 6058TIP3    H118131   5.838   6.935   6.590 -1.5816  0.7171 -1.0767
 6058TIP3    H218132   5.750   6.852   6.681  1.0049 -0.7260  0.1635
 6059TIP3   OH218133   5.306   1.631   3.089 -0.0037  0.0498 -0.7702
 6059TIP3    H118134   5.263   1.716   3.087  0.9140  0.5391 -0.0722
 6059TIP3    H218135   5.234   1.568   3.096 -0.7537  0.6701 -2.5883
 6060TIP3   OH218136   6.360   3.545   4.479  0.4081 -0.0641 -0.4005
 6060TIP3    H118137   6.303   3.467   4.475  0.7275 -0.2662 -1.3258
 6060TIP3    H218138   6.379   3.564   4.387  0.4086  1.0578 -0.1706
 6061TIP3   OH218139   5.607   0.562   4.803  0.0169  0.5719  0.5792
 6061TIP3    H118140   5.634   0.616   4.877 -0.4622  2.1579 -0.3752
 6061TIP3    H218141   5.553   0.620   4.749  0.3238 -0.5685 -0.9946
 6062TIP3   OH218142   8.150   2.345   3.424 -0.1839  0.3773  0.1765
 6062TIP3    H118143   8.175   2.299   3.344 -1.8420 -0.1337 -0.0701
 6062TIP3    H218144   8.146   2.437   3.399 -0.9621  0.1860 -0.3894
 6063TIP3   OH218145   6.588   2.322   5.403 -0.1669  0.1879 -0.2165
 6063TIP3    H118146   6.572   2.396   5.344  0.9401  0.4373 -0.2054
 6063TIP3    H218147   6.588   2.361   5.491  3.3241  0.7016 -0.3747
 6064TIP3   OH218148   7.625   0.938   3.166  0.6181 -0.2610  0.2738
 6064TIP3    H118149   7.656   0.848   3.153 -1.7746 -0.7243 -2.8308
 6064TIP3    H218150   7.592   0.939   3.256  0.9415 -2.4423  0.4396
 6065TIP3   OH218151   7.808   0.063   4.743 -0.0660 -0.0262  0.0137
 6065TIP3    H118152   7.786  -0.023   4.708  0.8544 -1.4933  2.8643
 6065TIP3    H218153   7.724   0.098   4.775 -0.4115  0.0959 -1.0018
 6066TIP3   OH218154   4.093   7.834   3.678 -0.0627 -0.1772 -0.6300
 6066TIP3    H118155   4.117   7.914   3.631  1.5487 -0.3377 -0.1145
 6066TIP3    H218156   4.020   7.859   3.735 -0.3561  0.6227 -1.3503
 6067TIP3   OH218157   7.179   0.364   2.127 -0.1812  0.0186 -0.2437
 6067TIP3    H118158   7.084   0.379   2.128 -0.2419 -0.1716 -1.9945
 6067TIP3    H218159   7.197   0.318   2.209 -1.1543  2.6795  1.5322
 6068TIP3   OH218160   5.686   0.677   3.875 -0.5494  0.2102  0.3373
 6068TIP3    H118161   5.666   0.719   3.791  2.2569  2.3383  0.6585
 6068TIP3    H218162   5.634   0.727   3.939  0.0054  0.8668  0.2802
 6069TIP3   OH218163   0.568   0.966   4.218  0.9005  0.3153  0.1422
 6069TIP3    H118164   0.570   1.060   4.200 -1.2718  0.3044 -0.2190
 6069TIP3    H218165   0.581   0.960   4.313 -0.1750  1.0603  0.3451
 6070TIP3   OH218166   2.743   7.810   5.380 -0.4314 -0.1644 -0.5067
 6070TIP3    H118167   2.757   7.900   5.351 -0.6219  0.1069  0.2233
 6070TIP3    H218168   2.821   7.762   5.351  0.3002  0.5287  0.3212
 6071TIP3   OH218169   5.523   7.447   3.608 -0.0469 -0.5094 -0.1050
 6071TIP3    H118170   5.617   7.437   3.623  0.1647 -2.4670 -2.5198
 6071TIP3    H218171   5.503   7.534   3.644  2.9166  0.4687 -0.6183
 6072TIP3   OH218172   6.628   1.799   3.476  0.3612  0.3203 -0.0201
 6072TIP3    H118173   6.544   1.814   3.432  0.5083  0.7392 -0.1576
 6072TIP3    H218174   6.683   1.873   3.449  0.4123  0.6544  0.9820
 6073TIP3   OH218175   7.678   0.394   5.009 -0.6111 -0.2842  0.0426
 6073TIP3    H118176   7.671   0.324   4.944  0.2148 -0.0250 -0.3376
 6073TIP3    H218177   7.769   0.423   5.002 -0.4970 -0.2888  1.3508
 6074TIP3   OH218178   5.281   7.463   4.730 -0.3167 -0.1180 -0.5493
 6074TIP3    H118179   5.224   7.472   4.654  0.1375  1.0297 -0.7625
 6074TIP3    H218180   5.224   7.479   4.805 -0.0113  2.4073 -0.8227
 6075TIP3   OH218181   8.334   0.610   3.070 -0.0387  0.5085  0.1810
 6075TIP3    H118182   8.285   0.582   2.992  1.5188  0.7235 -0.9004
 6075TIP3    H218183   8.286   0.686   3.103 -0.2268  0.9639 -1.1029
 6076TIP3   OH218184   2.753   7.289   4.700 -0.4261  0.3124  0.6702
 6076TIP3    H118185   2.701   7.369   4.694 -1.3833 -0.5094 -2.8840
 6076TIP3    H218186   2.700   7.231   4.755 -0.5948  1.4081  1.7172
 6077TIP3   OH218187   7.360   4.879   0.348 -0.9425 -0.0252 -0.0892
 6077TIP3    H118188   7.333   4.787   0.344  1.5526 -0.8290  0.4226
 6077TIP3    H218189   7.446   4.881   0.306 -1.0851  2.1384 -0.3501
 6078TIP3   OH218190   7.246   0.890   6.420  0.0873 -0.2303  0.0542
 6078TIP3    H118191   7.160   0.880   6.462  0.7396  0.4365  1.5699
 6078TIP3    H218192   7.230   0.954   6.350 -0.9015 -0.9906 -0.4349
 6079TIP3   OH218193   1.343   3.418   3.930 -0.3066 -0.0569  0.2499
 6079TIP3    H118194   1.249   3.427   3.941 -0.2101 -0.0893  1.1144
 6079TIP3    H218195   1.366   3.483   3.863 -0.9494 -0.0969 -0.0046
 6080TIP3   OH218196   0.943   2.942   3.627 -0.1454 -0.1890  0.5706
 6080TIP3    H118197   1.010   2.914   3.690 -0.5755 -2.7824 -0.0528
 6080TIP3    H218198   0.891   2.863   3.612 -1.9264  1.2027 -0.7089
 6081TIP3   OH218199   5.343   7.517   5.842  0.3489 -0.1402  0.1820
 6081TIP3    H118200   5.366   7.440   5.893 -0.8710  0.2783  1.3914
 6081TIP3    H218201   5.261   7.494   5.799  0.4288  0.1743 -0.1457
 6082TIP3   OH218202   7.349   0.723   4.519 -0.8194 -0.0004 -0.4496
 6082TIP3    H118203   7.372   0.647   4.467 -1.1989 -0.7126  0.4084
 6082TIP3    H218204   7.419   0.729   4.584  0.1916  1.4745 -1.6461
 6083TIP3   OH218205   1.263   7.779   4.461  0.0752 -0.4555 -0.2486
 6083TIP3    H118206   1.210   7.847   4.503 -0.0538 -1.1547  0.7376
 6083TIP3    H218207   1.271   7.710   4.528 -1.3243 -2.2077 -1.8410
 6084TIP3   OH218208   5.116   2.069   3.827  0.2482 -0.4139 -0.1119
 6084TIP3    H118209   5.051   2.139   3.834  0.0260 -0.7759  1.6965
 6084TIP3    H218210   5.138   2.066   3.734 -0.6765  1.2061 -0.4053
 6085TIP3   OH218211   4.025   0.751   2.831 -0.5411  0.1668  0.3076
 6085TIP3    H118212   3.973   0.829   2.810 -0.0201  0.4211 -0.0535
 6085TIP3    H218213   4.111   0.785   2.857 -0.1182 -0.3055 -0.4338
 6086TIP3   OH218214   1.515   2.524   4.134  0.4039  0.8089 -0.0410
 6086TIP3    H118215   1.438   2.550   4.184  0.4573 -1.1292  1.1082
 6086TIP3    H218216   1.585   2.520   4.198  0.5686 -1.3172 -0.3160
 6087TIP3   OH218217   7.281   0.425   5.570  0.2292  0.1625  0.2745
 6087TIP3    H118218   7.231   0.395   5.495 -0.6092  0.6650  0.6290
 6087TIP3    H218219   7.311   0.513   5.546 -0.4261  0.5071  0.7096
 6088TIP3   OH218220   0.534   6.065   1.340  0.1054  0.3499 -0.1433
 6088TIP3    H118221   0.504   5.974   1.344  0.0616  0.3741  0.0618
 6088TIP3    H218222   0.454   6.117   1.337  0.1202  0.4736  1.5783
 6089TIP3   OH218223   6.433   2.031   3.237 -0.4128 -0.4869 -0.4372
 6089TIP3    H118224   6.400   1.970   3.303  0.4149 -0.6080 -0.1316
 6089TIP3    H218225   6.355   2.059   3.189 -1.1683  0.4395  1.2895
 6090TIP3   OH218226   1.985   3.571   0.409 -0.2252  0.5115 -0.1594
 6090TIP3    H118227   2.034   3.546   0.487  0.6680  3.8324  0.4075
 6090TIP3    H218228   2.052   3.586   0.342 -0.9028 -0.8571 -1.1909
 6091TIP3   OH218229   8.341   1.839   3.537 -0.6064 -0.1758 -0.1627
 6091TIP3    H118230   8.369   1.854   3.447  0.9681  3.5572  0.8428
 6091TIP3    H218231   8.414   1.793   3.578 -0.9538 -1.0886 -0.5757
 6092TIP3   OH218232   7.597   1.418   6.551 -0.4137  0.4765 -0.3152
 6092TIP3    H118233   7.511   1.380   6.572 -0.4775  0.4392 -0.6434
 6092TIP3    H218234   7.622   1.377   6.468  0.5179 -0.4827  0.4306
 6093TIP3   OH218235   6.367   6.859   5.501 -0.0484  0.6099 -0.3097
 6093TIP3    H118236   6.421   6.925   5.545 -0.2014 -0.2860  1.2448
 6093TIP3    H218237   6.400   6.775   5.533 -0.7155 -0.0379 -1.2750
 6094TIP3   OH218238   7.701   0.368   5.324 -0.2148 -0.3037  0.4113
 6094TIP3    H118239   7.770   0.317   5.282  0.3812 -1.3646  2.5872
 6094TIP3    H218240   7.620   0.323   5.301 -0.0447  0.1130 -0.9877
 6095TIP3   OH218241   7.195   1.415   6.354  0.0332  0.4372  0.0463
 6095TIP3    H118242   7.256   1.489   6.356  0.7342 -0.0770 -1.3075
 6095TIP3    H218243   7.218   1.368   6.273 -0.6321 -1.0522  0.7088
 6096TIP3   OH218244   6.199   1.463   2.985  0.2415  0.3415 -0.0573
 6096TIP3    H118245   6.113   1.423   2.997 -0.2794  1.4785  0.1140
 6096TIP3    H218246   6.179   1.554   2.962  1.4118  0.7877  0.6864
 6097TIP3   OH218247   6.705   1.573   6.641  0.1689  0.1158  0.0764
 6097TIP3    H118248   6.772   1.583   6.574  2.1209 -0.8541  1.8411
 6097TIP3    H218249   6.627   1.615   6.604  1.3317 -0.0130 -2.5864
 6098TIP3   OH218250   0.905   2.792   4.870  0.5822 -0.3201 -0.3485
 6098TIP3    H118251   0.915   2.789   4.774  0.0665 -0.9465 -0.3855
 6098TIP3    H218252   0.899   2.885   4.890  1.4752 -0.1458 -0.8456
 6099TIP3   OH218253   3.999   7.076   3.426  0.3429 -0.4858 -0.7106
 6099TIP3    H118254   4.004   7.110   3.515  2.4204 -0.7041 -0.7220
 6099TIP3    H218255   3.991   6.982   3.436 -0.7464 -0.4042 -0.7485
 6100TIP3   OH218256   3.537   7.391   6.063 -0.4311 -0.0023  0.0832
 6100TIP3    H118257   3.530   7.452   6.137  0.4358 -0.7798  0.8228
 6100TIP3    H218258   3.447   7.361   6.048 -0.7037  0.6460  0.4060
 6101TIP3   OH218259   0.419   1.871   3.586 -0.2124  0.1498 -0.4261
 6101TIP3    H118260   0.513   1.859   3.575  0.1018  0.6487  1.6059
 6101TIP3    H218261   0.405   1.870   3.680 -2.3388 -0.5486 -0.7220
 6102TIP3   OH218262   4.478   0.567   3.272 -0.5908  0.1113 -0.2468
 6102TIP3    H118263   4.536   0.636   3.304  0.2781 -0.2004 -1.1230
 6102TIP3    H218264   4.537   0.499   3.239 -1.4330  0.0912 -1.7839
 6103TIP3   OH218265   6.939   0.416   5.044 -0.3491  0.5421  1.0641
 6103TIP3    H118266   6.915   0.469   5.120 -0.9051  1.6462  0.1420
 6103TIP3    H218267   7.026   0.448   5.020 -0.5517  0.8336  0.7010
 6104TIP3   OH218268   5.954   1.593   6.277  0.7767 -0.6784  0.1082
 6104TIP3    H118269   6.007   1.540   6.337 -0.4047 -1.5666  0.3926
 6104TIP3    H218270   5.960   1.682   6.311 -0.9854 -1.3860  2.3836
 6105TIP3   OH218271   5.220   2.397   3.663 -0.1333 -0.2229  0.1185
 6105TIP3    H118272   5.176   2.323   3.619 -2.1874  0.8302  0.3362
 6105TIP3    H218273   5.281   2.356   3.724  1.5365 -1.7356 -2.4508
 6106TIP3   OH218274   6.380   0.421   4.106  0.1220  0.8238  0.0906
 6106TIP3    H118275   6.309   0.424   4.041 -0.3977 -1.6946  0.5024
 6106TIP3    H218276   6.357   0.489   4.169 -1.4339  0.6893 -0.2953
 6107TIP3   OH218277   6.789   3.257   5.619  0.3958 -0.0240 -0.1489
 6107TIP3    H118278   6.715   3.211   5.658  0.0332  1.8811  1.4916
 6107TIP3    H218279   6.847   3.275   5.692  2.4252 -1.3419 -1.3968
 6108TIP3   OH218280   3.339   6.827   5.428  0.3699  0.3324  0.3780
 6108TIP3    H118281   3.315   6.919   5.431 -0.2023  0.1932 -0.0226
 6108TIP3    H218282   3.415   6.824   5.370  0.0882  0.4837  0.0010
 6109TIP3   OH218283   7.696   0.980   3.984  0.0801  0.3350 -0.8771
 6109TIP3    H118284   7.623   1.015   4.034  1.1634  2.0511 -0.4519
 6109TIP3    H218285   7.738   0.917   4.043 -0.1525  0.4785 -0.5587
 6110TIP3   OH218286   1.302   3.082   3.725  0.3975  0.4589 -0.2715
 6110TIP3    H118287   1.370   3.051   3.666 -0.8345  1.2259 -2.1184
 6110TIP3    H218288   1.261   3.002   3.759 -0.3808  0.0023 -2.2250
 6111TIP3   OH218289   6.938   1.729   4.047  0.1301  0.5821  0.0136
 6111TIP3    H118290   6.864   1.670   4.037 -0.3943  0.8394  2.1280
 6111TIP3    H218291   7.007   1.692   3.992 -0.7818 -0.9640 -0.0947
 6112TIP3   OH218292   7.297   1.811   4.605  0.4826  0.1152 -0.3232
 6112TIP3    H118293   7.301   1.751   4.531 -1.4110 -1.5238  0.8660
 6112TIP3    H218294   7.292   1.754   4.682 -0.3917  1.8000  0.8940
 6113TIP3   OH218295   6.141   0.355   4.867 -0.2948 -0.1445 -0.0205
 6113TIP3    H118296   6.124   0.406   4.947 -1.9670  1.7296 -1.5223
 6113TIP3    H218297   6.233   0.372   4.848  0.0470 -0.3705  1.3281
 6114TIP3   OH218298   5.903   1.188   4.781  0.5803  0.1737 -0.0487
 6114TIP3    H118299   5.910   1.279   4.811 -0.2413  0.1265  0.2971
 6114TIP3    H218300   5.994   1.158   4.775  0.9370  1.5442 -1.7895
 6115TIP3   OH218301   5.519   2.632   3.698 -0.4075  0.1745 -0.3963
 6115TIP3    H118302   5.480   2.716   3.723 -0.9003 -0.0334 -0.4595
 6115TIP3    H218303   5.544   2.644   3.606 -1.7398 -0.2004 -0.8202
 6116TIP3   OH218304   1.026   7.815   5.144 -0.4465  0.1012  0.1472
 6116TIP3    H118305   0.983   7.777   5.068 -0.0073  0.0834 -0.0967
 6116TIP3    H218306   1.116   7.832   5.115 -0.8870  2.2261 -0.0551
 6117TIP3   OH218307   1.333   2.053   4.747 -0.2831  0.4564 -0.6748
 6117TIP3    H118308   1.381   2.006   4.815 -0.4623  0.8988 -0.2360
 6117TIP3    H218309   1.267   1.991   4.716  0.5927 -0.1716 -1.3145
 6118TIP3   OH218310   7.670   1.606   1.882  0.3765 -0.2126  0.0605
 6118TIP3    H118311   7.691   1.687   1.929  1.6011 -1.1817  1.2242
 6118TIP3    H218312   7.588   1.577   1.920 -0.2594  0.6652 -0.6155
 6119TIP3   OH218313   4.174   0.443   3.207 -0.4080 -0.4831  0.0931
 6119TIP3    H118314   4.170   0.381   3.280  0.0596 -0.8452 -0.1867
 6119TIP3    H218315   4.087   0.438   3.167 -0.0775 -1.6705 -0.5042
 6120TIP3   OH218316   7.405   2.818   6.044  0.7257 -0.1366  0.6638
 6120TIP3    H118317   7.472   2.870   5.999  0.9691 -0.9709  0.0525
 6120TIP3    H218318   7.372   2.876   6.113  0.3780  1.1569 -0.5567
 6121TIP3   OH218319   7.875   2.785   2.856  0.7456  0.3357 -0.4025
 6121TIP3    H118320   7.913   2.765   2.941 -1.1033  1.9060  0.8234
 6121TIP3    H218321   7.909   2.872   2.835  0.8256  0.1483 -1.0725
 6122TIP3   OH218322   0.189   1.720   3.149  0.0680 -0.1078  0.0771
 6122TIP3    H118323   0.099   1.741   3.176  0.1986  2.0997 -1.0685
 6122TIP3    H218324   0.236   1.706   3.231 -1.0684 -0.0737  0.7370
 6123TIP3   OH218325   7.842   1.498   3.659 -0.4981 -0.6624 -0.1716
 6123TIP3    H118326   7.832   1.590   3.683  0.2556 -0.3075 -1.1858
 6123TIP3    H218327   7.773   1.452   3.708 -0.5272  0.3634  0.7612
 6124TIP3   OH218328   7.853   0.901   2.899  0.0108  0.1905 -0.4212
 6124TIP3    H118329   7.914   0.974   2.913 -1.0089  1.4491 -2.2478
 6124TIP3    H218330   7.766   0.943   2.898 -0.6466 -1.1653 -0.7630
 6125TIP3   OH218331   1.336   3.413   3.131 -0.0783 -0.2707 -1.0148
 6125TIP3    H118332   1.398   3.447   3.067 -0.8913  0.6113 -1.3551
 6125TIP3    H218333   1.343   3.474   3.205  1.1997 -1.5538 -0.0591
 6126TIP3   OH218334   7.503   4.081   6.234  0.0568  0.0171  0.2207
 6126TIP3    H118335   7.441   4.023   6.189 -1.3800  0.9715  0.9265
 6126TIP3    H218336   7.494   4.165   6.188  1.3810 -0.0265 -0.1440
 6127TIP3   OH218337   8.317   2.027   4.339 -0.3541 -0.2618 -0.1674
 6127TIP3    H118338   8.248   1.984   4.389 -0.7430  0.9226  0.3276
 6127TIP3    H218339   8.286   2.026   4.248 -0.9506  0.1218  0.0295
 6128TIP3   OH218340   8.418   3.301   3.450 -0.3308 -0.3960 -1.0034
 6128TIP3    H118341   8.393   3.229   3.508  0.4154 -1.4207 -1.9142
 6128TIP3    H218342   8.471   3.259   3.382  0.2746  1.0535 -1.4473
 6129TIP3   OH218343   0.163   2.009   4.178  0.2570 -0.1951  0.0882
 6129TIP3    H118344   0.081   1.991   4.133  0.4637  1.8460 -1.1519
 6129TIP3    H218345   0.228   1.953   4.134 -0.3154 -1.2587  0.5857
 6130TIP3   OH218346   4.758   7.658   0.741  0.3355  0.2605  0.2847
 6130TIP3    H118347   4.796   7.618   0.819  0.2852  0.9974  0.6868
 6130TIP3    H218348   4.766   7.590   0.674 -0.8292 -0.8808  1.2571
 6131TIP3   OH218349   1.910   0.892   5.054  0.0752  0.2813 -0.4296
 6131TIP3    H118350   1.863   0.809   5.063  2.5864 -1.1535  0.0429
 6131TIP3    H218351   1.989   0.880   5.106  0.7515  2.7958 -0.8132
 6132TIP3   OH218352   0.020   1.090   6.092  0.0738 -0.0290  0.2672
 6132TIP3    H118353   0.043   1.183   6.096  0.9555 -0.2640  0.5683
 6132TIP3    H218354  -0.033   1.075   6.170  0.2733  0.1253  0.4305
 6133TIP3   OH218355   6.797   7.350   5.335  0.1988  0.2330 -0.0254
 6133TIP3    H118356   6.758   7.265   5.350  0.7052 -0.1584 -0.8984
 6133TIP3    H218357   6.843   7.370   5.417  0.9880 -0.8241 -0.1973
 6134TIP3   OH218358   6.588   0.532   5.694 -0.1167 -0.0585  0.1784
 6134TIP3    H118359   6.629   0.553   5.610  0.7846  0.7752  0.8131
 6134TIP3    H218360   6.524   0.464   5.673  1.0695 -0.8538 -0.9565
 6135TIP3   OH218361   0.613   2.271   3.766 -0.4454 -0.7158 -0.3248
 6135TIP3    H118362   0.546   2.289   3.833  2.0702 -1.3763  2.4968
 6135TIP3    H218363   0.635   2.179   3.779  0.2725 -0.7700 -1.8917
 6136TIP3   OH218364   2.294   0.868   3.843 -0.0027 -0.4992  0.0804
 6136TIP3    H118365   2.364   0.823   3.796  0.8542  0.3281  0.5557
 6136TIP3    H218366   2.217   0.856   3.788  0.4492 -1.6529 -0.3063
 6137TIP3   OH218367   7.746   3.668   3.723 -0.0641 -0.2269  0.1971
 6137TIP3    H118368   7.669   3.716   3.753  0.0811  0.0471  0.1322
 6137TIP3    H218369   7.819   3.708   3.770  0.1071 -0.1101 -0.1630
 6138TIP3   OH218370   8.383   0.474   5.322 -0.2960  0.2662  0.2762
 6138TIP3    H118371   8.382   0.379   5.321  1.0506  0.2451 -0.8564
 6138TIP3    H218372   8.447   0.497   5.389  0.4987  0.3441 -0.4972
 6139TIP3   OH218373   8.363   3.884   4.430 -0.2417 -0.0784 -0.2876
 6139TIP3    H118374   8.401   3.972   4.430 -0.0171 -0.1742 -0.1645
 6139TIP3    H218375   8.294   3.887   4.363  0.4076 -0.0854 -0.9625
 6140TIP3   OH218376   8.394   1.560   5.789 -0.4890 -0.7104 -0.7405
 6140TIP3    H118377   8.469   1.502   5.788 -0.6059 -0.8580 -0.9386
 6140TIP3    H218378   8.413   1.623   5.859  0.2012 -0.2423 -1.3492
 6141TIP3   OH218379   1.062   3.553   4.679  0.5663  0.1023  0.0088
 6141TIP3    H118380   0.971   3.547   4.651 -0.0333  2.2638  1.3527
 6141TIP3    H218381   1.113   3.521   4.605 -1.2786 -0.9274 -0.8337
 6142TIP3   OH218382   7.485   0.391   2.799  0.0777 -0.1422  0.1010
 6142TIP3    H118383   7.456   0.320   2.856 -0.3686 -0.3998 -0.4467
 6142TIP3    H218384   7.414   0.402   2.736 -0.5449  1.8149  1.1011
 6143TIP3   OH218385   7.538   0.807   6.092 -0.4791  0.4673  0.3735
 6143TIP3    H118386   7.491   0.877   6.046 -0.1668  0.3006 -0.1980
 6143TIP3    H218387   7.629   0.816   6.063 -0.0995  0.9883  1.7197
 6144TIP3   OH218388   6.182   0.622   5.610  0.2650  0.1552 -0.0047
 6144TIP3    H118389   6.116   0.611   5.540  0.2274 -3.1316  0.4362
 6144TIP3    H218390   6.254   0.667   5.568 -0.4030 -0.3741 -1.7787
 6145TIP3   OH218391   0.723   2.102   4.528  0.2763 -0.4219 -0.9603
 6145TIP3    H118392   0.734   2.062   4.614  1.2936 -0.8105 -1.2580
 6145TIP3    H218393   0.647   2.057   4.490 -0.6669  0.3106  0.0405
 6146TIP3   OH218394   1.145   2.411   5.819 -0.2111 -0.1365  0.3202
 6146TIP3    H118395   1.053   2.403   5.846  0.6085  1.3159  3.7398
 6146TIP3    H218396   1.159   2.505   5.808  1.1643 -0.2421  1.0433
 6147TIP3   OH218397   5.352   6.960   6.881  0.0521 -0.4714  0.5366
 6147TIP3    H118398   5.357   7.033   6.819  2.2863 -1.4102 -0.4572
 6147TIP3    H218399   5.439   6.957   6.921 -0.1451 -2.3175  0.8637
 6148TIP3   OH218400   7.571   2.027   3.491  0.3040  0.6209 -0.1984
 6148TIP3    H118401   7.487   1.983   3.486 -0.8831  2.8692 -0.5559
 6148TIP3    H218402   7.606   2.023   3.402  0.2910  0.2291 -0.1852
 6149TIP3   OH218403   7.366   1.691   4.072 -0.4440 -0.5531 -0.1727
 6149TIP3    H118404   7.326   1.745   4.004 -0.9364  0.5028  0.9411
 6149TIP3    H218405   7.412   1.753   4.128  1.1039 -1.5501 -0.3006
 6150TIP3   OH218406   0.991   1.028   3.974  0.4013 -0.4707 -0.3630
 6150TIP3    H118407   0.968   1.120   3.958 -1.7421 -0.6527  1.5611
 6150TIP3    H218408   1.041   1.030   4.056 -0.6900 -1.1653  0.3176
 6151TIP3   OH218409   8.081   4.524   5.483 -0.1522  0.2786 -0.1165
 6151TIP3    H118410   8.090   4.433   5.454  0.9716 -0.2257  1.7560
 6151TIP3    H218411   8.077   4.574   5.402  0.9085 -1.2811 -1.1619
 6152TIP3   OH218412   8.017   0.946   4.273 -0.6002  0.6200  0.1126
 6152TIP3    H118413   7.983   0.880   4.212  0.6194 -1.8508  2.0227
 6152TIP3    H218414   8.086   0.991   4.223 -0.5705 -0.4046 -0.8082
 6153TIP3   OH218415   7.176   2.072   6.006  0.4773  0.5378 -0.7958
 6153TIP3    H118416   7.190   2.164   6.031  0.1335  0.3351  0.1914
 6153TIP3    H218417   7.263   2.034   6.003  0.6713  1.0400 -1.8102
 6154TIP3   OH218418   0.689   1.812   3.638  0.0476  0.1656  1.1373
 6154TIP3    H118419   0.758   1.856   3.588  0.1609  1.5215  2.4550
 6154TIP3    H218420   0.686   1.724   3.601  2.7828 -0.0621  1.3234
 6155TIP3   OH218421   8.481   1.384   5.139 -0.1136  0.0912  0.0341
 6155TIP3    H118422   8.551   1.350   5.083 -0.3150 -0.8350  0.3403
 6155TIP3    H218423   8.426   1.435   5.079 -0.1965 -0.6888 -0.5714
 6156TIP3   OH218424   8.068   1.370   5.610  0.3869 -0.0190 -0.0221
 6156TIP3    H118425   8.142   1.331   5.657 -0.6295 -0.7886  0.9750
 6156TIP3    H218426   7.991   1.326   5.646 -0.4814 -0.1134 -1.9061
 6157TIP3   OH218427   1.042   4.957   6.270  0.3826  0.0380 -0.0109
 6157TIP3    H118428   1.014   5.049   6.272  1.4173  0.3481  1.2611
 6157TIP3    H218429   1.026   4.925   6.359  1.2290 -0.6301 -0.0843
 6158TIP3   OH218430   7.844   0.828   6.124  0.5049 -0.1136 -0.0684
 6158TIP3    H118431   7.860   0.772   6.048 -0.9466 -1.5148  0.6368
 6158TIP3    H218432   7.920   0.813   6.180 -0.0508 -1.7101  0.2889
 6159TIP3   OH218433   0.767   3.060   6.460  0.1855 -0.3686 -0.1910
 6159TIP3    H118434   0.810   2.985   6.501 -1.1012 -0.8382  0.3474
 6159TIP3    H218435   0.674   3.048   6.481  0.0198  1.6056  0.2429
 6160TIP3   OH218436   7.723   2.321   5.215  0.1128 -0.0596 -0.0813
 6160TIP3    H118437   7.706   2.362   5.131 -0.1725  0.4705  0.2265
 6160TIP3    H218438   7.699   2.388   5.279  1.7106  0.0828  0.3937
 6161TIP3   OH218439   1.793   1.969   6.890 -0.1759  0.0420 -0.2807
 6161TIP3    H118440   1.884   1.991   6.908  0.7224 -2.3649 -1.6105
 6161TIP3    H218441   1.776   1.892   6.945 -0.8914 -0.4887 -1.2195
 6162TIP3   OH218442   0.759   1.623   6.786 -0.3378  0.3546 -0.3579
 6162TIP3    H118443   0.703   1.584   6.854  1.0278 -1.3606 -0.1759
 6162TIP3    H218444   0.847   1.622   6.825  0.1610  0.9992 -1.4662
 6163TIP3   OH218445   5.030   4.552   1.266  0.4549  0.3037 -0.2896
 6163TIP3    H118446   5.068   4.465   1.260  2.0983  1.1242 -2.5354
 6163TIP3    H218447   4.947   4.540   1.313  1.2854 -2.2309  0.5743
 6164TIP3   OH218448   2.200   2.356   3.431  0.4880 -0.0149  0.1306
 6164TIP3    H118449   2.177   2.387   3.343  0.0846  0.0117  0.2431
 6164TIP3    H218450   2.260   2.423   3.465  1.3043 -0.4553 -0.4432
 6165TIP3   OH218451   2.643   2.972   6.065 -0.3108 -0.1314  0.4829
 6165TIP3    H118452   2.599   2.922   5.996 -0.0729  0.4467 -0.0852
 6165TIP3    H218453   2.573   3.023   6.106 -0.8154 -1.9688  1.9965
 6166TIP3   OH218454   8.435   1.349   4.213  0.1463  0.2874 -0.4287
 6166TIP3    H118455   8.434   1.353   4.308  2.2589  0.5575 -0.3879
 6166TIP3    H218456   8.347   1.376   4.186 -0.3726  0.4729  1.4251
 6167TIP3   OH218457   0.621   0.184   3.832  0.6316  0.2990 -0.4293
 6167TIP3    H118458   0.684   0.216   3.897  0.8434 -1.8919  0.4965
 6167TIP3    H218459   0.536   0.213   3.864  0.8562  0.2905  0.1836
 6168TIP3   OH218460   0.716   0.741   5.830 -0.5087  0.0312 -0.4916
 6168TIP3    H118461   0.806   0.762   5.803  0.0580 -0.5233  0.9419
 6168TIP3    H218462   0.668   0.823   5.821  0.4177  0.6147 -0.1319
 6169TIP3   OH218463   1.763   1.294   4.509  0.1984 -0.7994  0.1664
 6169TIP3    H118464   1.805   1.248   4.582 -0.4025 -0.5393  0.6806
 6169TIP3    H218465   1.680   1.324   4.544  0.1211 -0.2328 -0.4831
 6170TIP3   OH218466   3.121   3.297   5.104  0.0300 -0.4943 -0.9319
 6170TIP3    H118467   3.128   3.381   5.058  0.0722  0.0314  0.0029
 6170TIP3    H218468   3.069   3.242   5.046 -0.0646  0.2081 -1.5296
 6171TIP3   OH218469   7.463   0.298   5.185  0.5930  0.1289 -0.1014
 6171TIP3    H118470   7.428   0.222   5.139 -2.2214  1.3628 -0.0593
 6171TIP3    H218471   7.509   0.348   5.118 -0.1007 -0.1004 -0.7489
 6172TIP3   OH218472   2.270   1.181   3.223  0.3226  0.2089  0.0802
 6172TIP3    H118473   2.189   1.213   3.262  1.1538  1.8596  0.5190
 6172TIP3    H218474   2.266   1.211   3.132  0.0391 -0.5059 -0.1501
 6173TIP3   OH218475   0.980   0.701   6.502 -0.3166 -0.5999  0.2584
 6173TIP3    H118476   0.992   0.781   6.553 -0.2582  0.0717 -0.7904
 6173TIP3    H218477   0.885   0.695   6.489 -0.3025 -0.5814  0.1469
 6174TIP3   OH218478   7.877   0.961   6.421 -0.3819  0.0700 -0.2926
 6174TIP3    H118479   7.787   0.933   6.405 -0.4520 -0.5637  1.1700
 6174TIP3    H218480   7.881   0.979   6.515  1.1208 -0.3278 -0.2616
 6175TIP3   OH218481   5.462   0.774   5.233  0.5179  0.2933  0.5025
 6175TIP3    H118482   5.408   0.727   5.296 -1.5120  3.2303  1.0169
 6175TIP3    H218483   5.405   0.786   5.157  0.4994  3.1589  0.9332
 6176TIP3   OH218484   2.236   1.425   5.942 -0.3417 -0.0551  0.0032
 6176TIP3    H118485   2.304   1.454   5.882  0.7959  0.4887  1.5283
 6176TIP3    H218486   2.244   1.330   5.942 -0.6987 -0.0946 -1.0922
 6177TIP3   OH218487   6.889   0.694   4.391 -0.0557 -0.2642  0.0361
 6177TIP3    H118488   6.938   0.776   4.399 -0.7527  0.4632 -2.6864
 6177TIP3    H218489   6.801   0.715   4.424 -0.0007 -0.1297  0.0938
 6178TIP3   OH218490   5.548   7.857   6.092  0.0152  0.3546 -0.3311
 6178TIP3    H118491   5.604   7.899   6.027  1.1364  0.1211  0.4722
 6178TIP3    H218492   5.605   7.843   6.168 -1.2410  0.4853  0.6485
 6179TIP3   OH218493   0.085   2.453   3.352  0.2161 -0.6342 -0.0053
 6179TIP3    H118494   0.130   2.468   3.436 -1.0588 -2.7859  1.1144
 6179TIP3    H218495   0.146   2.400   3.301  0.1520 -1.0759  0.3745
 6180TIP3   OH218496   0.877   4.085   4.647  0.4361 -0.2081  0.3198
 6180TIP3    H118497   0.788   4.120   4.642  0.5245  0.2408  1.5467
 6180TIP3    H218498   0.867   3.998   4.686  0.5731  0.0373  0.9087
 6181TIP3   OH218499   8.394   1.095   6.330 -0.0999  0.0550 -0.1240
 6181TIP3    H118500   8.392   1.137   6.416  0.4638 -0.7044  0.2674
 6181TIP3    H218501   8.432   1.009   6.347  0.5888  0.1416 -1.2311
 6182TIP3   OH218502   2.309   2.093   5.638  0.1214  0.0556  0.5474
 6182TIP3    H118503   2.400   2.119   5.626 -0.3197  1.7245  0.6740
 6182TIP3    H218504   2.312   1.999   5.653  1.8295  0.1235  0.6491
 6183TIP3   OH218505   3.468   1.896   5.349  0.1373 -0.6834  0.3126
 6183TIP3    H118506   3.426   1.942   5.276  0.3204 -2.1198 -0.7256
 6183TIP3    H218507   3.451   1.951   5.425 -1.1931  0.1855 -0.5908
 6184TIP3   OH218508   2.608   2.415   5.855 -0.6256 -0.0533  0.5695
 6184TIP3    H118509   2.573   2.371   5.778  0.7148 -0.2647  0.0581
 6184TIP3    H218510   2.585   2.507   5.844  0.4603  0.0873 -0.6154
 6185TIP3   OH218511   2.914   2.512   6.562  0.6667  0.3465  0.1127
 6185TIP3    H118512   2.935   2.479   6.649  0.2430 -2.0943 -0.6759
 6185TIP3    H218513   2.984   2.478   6.505  0.7554  1.6319 -0.5831
 6186TIP3   OH218514   1.950   0.537   6.110  0.1309 -0.4679 -0.6064
 6186TIP3    H118515   2.040   0.533   6.142  0.6746 -1.4622 -2.2283
 6186TIP3    H218516   1.924   0.445   6.098 -1.3834 -0.2227  0.5954
 6187TIP3   OH218517   0.899   0.171   6.437 -0.3191  0.2814 -0.2500
 6187TIP3    H118518   0.806   0.191   6.435 -0.1951  1.0573  1.3330
 6187TIP3    H218519   0.932   0.206   6.354 -0.9257  2.6164  0.4504
 6188TIP3   OH218520   2.202   3.375   4.587 -0.5495  0.2795 -0.0961
 6188TIP3    H118521   2.289   3.414   4.594 -0.3939 -0.3060  1.3133
 6188TIP3    H218522   2.143   3.443   4.620 -0.5288  0.2924 -0.0857
 6189TIP3   OH218523   7.866   1.488   6.026  0.5045  0.7622  0.5434
 6189TIP3    H118524   7.958   1.488   6.000  0.3473  1.3747 -0.0075
 6189TIP3    H218525   7.822   1.542   5.961 -0.3349  0.0534  0.5084
 6190TIP3   OH218526   2.199   2.877   6.842 -0.0392 -0.5945  0.8426
 6190TIP3    H118527   2.245   2.836   6.768 -0.5438  0.5147 -0.0902
 6190TIP3    H218528   2.237   2.835   6.919  2.3340  0.0512  0.0784
 6191TIP3   OH218529   7.107   3.595   6.089 -0.1489  0.1503  0.4481
 6191TIP3    H118530   7.129   3.678   6.131 -1.4099  0.7554 -0.0327
 6191TIP3    H218531   7.024   3.569   6.129 -0.2058 -0.4259 -0.0300
 6192TIP3   OH218532   3.231   0.806   5.529  0.2346 -0.0989 -0.2169
 6192TIP3    H118533   3.223   0.900   5.510  0.4496 -0.1543 -0.5948
 6192TIP3    H218534   3.319   0.796   5.564  0.6991 -0.3643 -1.4416
 6193TIP3   OH218535   7.132   1.047   5.284 -0.0635 -0.2963 -0.2739
 6193TIP3    H118536   7.066   1.073   5.220 -0.0282 -0.0699 -0.2202
 6193TIP3    H218537   7.208   1.101   5.262 -0.5676  0.9393  0.9627
 6194TIP3   OH218538   0.795   1.941   5.531  0.3970  0.5787 -0.0037
 6194TIP3    H118539   0.838   2.012   5.578 -0.3142  0.9405  0.1068
 6194TIP3    H218540   0.723   1.914   5.588  0.8514 -0.4365  0.0935
 6195TIP3   OH218541   0.670   2.312   5.123 -0.1050  0.5035  0.9853
 6195TIP3    H118542   0.720   2.353   5.194 -0.3422  0.5430  1.1294
 6195TIP3    H218543   0.583   2.299   5.160 -0.1335  0.2123  0.8127
 6196TIP3   OH218544   0.526   1.583   5.550 -0.0023 -0.3451 -0.5660
 6196TIP3    H118545   0.618   1.580   5.525  0.0687 -0.4160 -0.3008
 6196TIP3    H218546   0.484   1.638   5.484  0.1693 -0.5909 -0.8771
 6197TIP3   OH218547   1.039   1.329   6.234 -0.3320 -0.2149 -0.3116
 6197TIP3    H118548   1.025   1.351   6.142  1.8664 -0.3216 -0.6834
 6197TIP3    H218549   1.119   1.276   6.235  0.2161  0.5942  1.7512
 6198TIP3   OH218550   0.223   0.317   5.617  0.6076  0.1197  0.2272
 6198TIP3    H118551   0.314   0.334   5.593  0.3821  0.8935 -0.1291
 6198TIP3    H218552   0.188   0.266   5.544  0.8112 -0.3469  0.4585
 6199TIP3   OH218553   2.109   3.740   6.382 -1.0643  0.0270  0.0199
 6199TIP3    H118554   2.101   3.822   6.432 -2.2674  1.1921 -2.0162
 6199TIP3    H218555   2.191   3.750   6.334 -0.9870 -0.1553  0.1153
 6200TIP3   OH218556   7.107   1.970   4.780 -0.0269 -0.4988 -0.5807
 6200TIP3    H118557   7.112   1.950   4.686 -0.4937  1.5900 -1.0691
 6200TIP3    H218558   7.187   2.020   4.798 -0.5623  0.1985 -0.1464
 6201TIP3   OH218559   0.803   3.635   5.572 -0.6083  0.4068  0.3704
 6201TIP3    H118560   0.799   3.684   5.489  0.7278 -1.2342 -0.6782
 6201TIP3    H218561   0.786   3.544   5.547 -0.0740 -0.1180  1.8986
 6202TIP3   OH218562   6.984   4.700   5.900  0.0630  0.6594 -0.3151
 6202TIP3    H118563   7.010   4.620   5.853 -0.5422 -0.6154  1.4347
 6202TIP3    H218564   7.066   4.745   5.919  0.7516 -1.3837  1.8019
 6203TIP3   OH218565   0.187   3.154   3.642 -0.2991 -1.1452 -0.3879
 6203TIP3    H118566   0.282   3.166   3.639 -0.2777 -1.4748 -1.4694
 6203TIP3    H218567   0.160   3.188   3.727  0.6055  0.2706 -0.6577
 6204TIP3   OH218568   0.390   2.241   4.667  0.4506  0.3070 -0.5870
 6204TIP3    H118569   0.305   2.257   4.625 -1.3459 -3.0827  1.5177
 6204TIP3    H218570   0.399   2.312   4.730 -0.9871  0.4860 -0.5637
 6205TIP3   OH218571   1.235   0.055   5.684  0.3367 -0.3266 -0.0460
 6205TIP3    H118572   1.162   0.111   5.658 -0.1389 -0.7887  0.2849
 6205TIP3    H218573   1.285   0.109   5.746  0.7404  0.2907 -0.8947
 6206TIP3   OH218574   1.750   3.569   6.899  0.1523  0.1593 -0.0875
 6206TIP3    H118575   1.749   3.475   6.878  0.2557 -0.0100  0.6453
 6206TIP3    H218576   1.697   3.609   6.830  0.4232 -0.3901 -0.6261
 6207TIP3   OH218577   4.630   0.599   6.817 -0.3319 -0.0890 -0.5256
 6207TIP3    H118578   4.720   0.579   6.790 -0.3861  2.8410 -3.0955
 6207TIP3    H218579   4.576   0.569   6.744 -1.1544  1.0379 -0.3817
 6208TIP3   OH218580   3.615   4.789   0.389  0.0813  0.3941  0.0504
 6208TIP3    H118581   3.574   4.858   0.441  0.1446  0.4468  0.0298
 6208TIP3    H218582   3.548   4.722   0.381  0.2433  0.1585  0.6381
 6209TIP3   OH218583   1.721   1.786   3.332 -0.0111  0.1876 -0.0084
 6209TIP3    H118584   1.757   1.769   3.245 -2.1097  0.6761 -1.0042
 6209TIP3    H218585   1.636   1.741   3.332 -0.0901  0.3277  1.7184
 6210TIP3   OH218586   1.375   0.748   6.594  0.1521  0.1495  0.3467
 6210TIP3    H118587   1.418   0.677   6.545 -1.9605 -0.9550  0.0220
 6210TIP3    H218588   1.419   0.748   6.679  0.6594 -1.0838  0.0970
 6211TIP3   OH218589   5.573   5.721   0.133  0.6361 -0.3233  0.2072
 6211TIP3    H118590   5.611   5.687   0.214  0.9056  1.0576  0.6805
 6211TIP3    H218591   5.585   5.651   0.069  1.3768 -1.0114  1.0916
 6212TIP3   OH218592   1.602   2.043   6.661  0.3330 -0.0890 -0.0617
 6212TIP3    H118593   1.540   2.101   6.618 -0.2475  0.6988  1.8049
 6212TIP3    H218594   1.578   1.955   6.630 -1.0779  0.3044 -0.0845
 6213TIP3   OH218595   0.989   2.606   4.411 -0.2037 -0.3419  0.4496
 6213TIP3    H118596   1.029   2.684   4.449  0.3925 -0.0257 -0.8210
 6213TIP3    H218597   1.057   2.567   4.357 -1.5548  0.1260 -1.6312
 6214TIP3   OH218598   0.927   1.128   6.402  0.0116  0.2926 -0.3784
 6214TIP3    H118599   0.980   1.200   6.369  0.6444  0.1482  0.3162
 6214TIP3    H218600   0.895   1.084   6.323 -0.9091  1.7032 -0.8104
 6215TIP3   OH218601   2.135   1.104   3.777 -0.2411 -0.0658 -0.1480
 6215TIP3    H118602   2.081   1.051   3.836  0.4165 -1.5232 -0.8108
 6215TIP3    H218603   2.225   1.078   3.797  0.0887  0.7234 -0.5712
 6216TIP3   OH218604   0.074   2.388   5.835  0.2230  0.3412  0.4902
 6216TIP3    H118605   0.118   2.430   5.909  0.4306  2.3931 -0.7603
 6216TIP3    H218606  -0.013   2.428   5.833 -0.7011 -1.5860  1.1749
 6217TIP3   OH218607   0.618   2.407   6.080  0.2433 -0.5568  0.1476
 6217TIP3    H118608   0.612   2.319   6.119 -0.3089 -0.6420 -0.1327
 6217TIP3    H218609   0.678   2.454   6.138  0.1981 -0.9858  0.5470
 6218TIP3   OH218610   1.504   3.945   5.332 -0.7217  0.3695  0.4112
 6218TIP3    H118611   1.580   3.980   5.378  1.3466 -3.2179 -0.0677
 6218TIP3    H218612   1.483   4.012   5.267  3.0381  0.8129 -0.4724
 6219TIP3   OH218613   1.546   3.693   5.440 -0.3350 -0.1828  0.1133
 6219TIP3    H118614   1.514   3.774   5.400 -0.9714 -0.3778  0.2128
 6219TIP3    H218615   1.601   3.652   5.373 -0.1680  0.2352 -0.0051
 6220TIP3   OH218616   2.284   1.109   5.448 -0.1251  0.1778  0.6012
 6220TIP3    H118617   2.368   1.151   5.428 -0.3474  0.3311 -0.0182
 6220TIP3    H218618   2.226   1.181   5.472 -0.7652  0.3470 -1.3484
 6221TIP3   OH218619   1.516   2.475   5.205  0.0262 -0.2424  0.1226
 6221TIP3    H118620   1.432   2.471   5.249 -0.8443  1.4417 -1.3355
 6221TIP3    H218621   1.579   2.496   5.274 -0.8379 -0.8135  1.0940
 6222TIP3   OH218622   0.935   2.396   4.735 -0.7325  0.0897 -0.7469
 6222TIP3    H118623   0.972   2.371   4.651 -1.1053  0.9385 -1.1695
 6222TIP3    H218624   0.840   2.392   4.722 -0.8319 -2.8468  0.5568
 6223TIP3   OH218625   1.698   1.965   5.326 -0.2219  0.0916 -0.0087
 6223TIP3    H118626   1.776   2.010   5.292 -0.1963  0.0485 -0.0075
 6223TIP3    H218627   1.676   1.902   5.258 -0.6496  0.5552 -0.3052
 6224TIP3   OH218628   1.014   0.641   6.207  0.5855 -0.2157 -0.2114
 6224TIP3    H118629   0.988   0.718   6.157  0.7075 -0.5313 -0.7690
 6224TIP3    H218630   1.012   0.670   6.298  2.5759  1.0519 -0.5309
 6225TIP3   OH218631   2.679   2.320   6.764 -0.1346  0.3479 -0.4918
 6225TIP3    H118632   2.635   2.320   6.849  0.7233  0.8247 -0.0453
 6225TIP3    H218633   2.762   2.275   6.780  0.5432  1.4830 -0.8170
 6226TIP3   OH218634   7.687   7.775   6.830 -1.0335  0.0817  0.6633
 6226TIP3    H118635   7.735   7.857   6.827 -1.6950  0.4559  0.2125
 6226TIP3    H218636   7.736   7.720   6.892 -0.4285  0.7028  0.7362
 6227TIP3   OH218637   1.583   1.602   6.644  0.5596  0.1510 -0.1493
 6227TIP3    H118638   1.546   1.534   6.589 -0.6125  1.6889 -1.3189
 6227TIP3    H218639   1.616   1.556   6.721  1.3423 -1.9034 -1.6759
 6228TIP3   OH218640   4.016   6.855   0.403 -0.6968 -0.3955  0.2742
 6228TIP3    H118641   4.048   6.809   0.481 -0.9855  0.6178  1.0042
 6228TIP3    H218642   4.047   6.803   0.329 -0.1066 -1.1647  1.0623
 6229TIP3   OH218643   4.086   6.129   0.313  0.2162 -0.2970 -0.1437
 6229TIP3    H118644   4.046   6.214   0.334 -0.0567 -0.7040  1.0121
 6229TIP3    H218645   4.070   6.076   0.391  0.2070 -1.4765 -0.9472
 6230TIP3   OH218646   5.613   6.899   3.688  0.0652  0.1105  0.2071
 6230TIP3    H118647   5.590   6.984   3.726  0.4349  1.2093 -1.9897
 6230TIP3    H218648   5.546   6.883   3.622  0.8022 -0.6436 -0.3681
 6231TIP3   OH218649   1.507   1.351   4.619  0.3201  0.2011  0.0415
 6231TIP3    H118650   1.505   1.384   4.709  1.0066  0.2273  0.0503
 6231TIP3    H218651   1.454   1.272   4.622  0.0726  0.3768  0.3991
 6232TIP3   OH218652   1.596   1.711   6.109 -0.9324  0.0726 -0.3169
 6232TIP3    H118653   1.533   1.774   6.074 -1.3973 -0.6606 -0.8050
 6232TIP3    H218654   1.551   1.627   6.106 -0.1439 -0.3663 -0.1233
 6233TIP3   OH218655   1.210   2.649   6.524  0.1688 -0.1171  0.2488
 6233TIP3    H118656   1.270   2.613   6.588 -2.7521 -1.3155  2.4186
 6233TIP3    H218657   1.237   2.610   6.441  1.7091 -1.4518  1.3422
 6234TIP3   OH218658   1.569   2.428   5.976 -0.5728  0.3279  0.2231
 6234TIP3    H118659   1.543   2.393   5.891 -2.9868 -1.5014  1.6714
 6234TIP3    H218660   1.585   2.351   6.031  0.5491  1.4867  1.5716
 6235TIP3   OH218661   0.310   3.059   5.381 -0.1050  0.1778  0.5257
 6235TIP3    H118662   0.392   3.021   5.413 -0.1273  0.1812  0.5875
 6235TIP3    H218663   0.253   2.984   5.367  0.1484  0.1156 -0.2136
 6236TIP3   OH218664   2.220   2.026   3.970  0.3684 -0.6196 -0.3845
 6236TIP3    H118665   2.226   1.944   3.921 -0.2411 -1.1773  0.4628
 6236TIP3    H218666   2.306   2.035   4.013  1.0492  0.0740 -1.8441
 6237TIP3   OH218667   6.772   7.595   5.562  0.1838  0.5711  0.0826
 6237TIP3    H118668   6.838   7.527   5.548 -0.1991  0.5045 -1.5063
 6237TIP3    H218669   6.764   7.601   5.657  0.1398 -1.6849  0.2544
 6238TIP3   OH218670   2.511   2.316   4.389  0.3616 -0.4575  0.0673
 6238TIP3    H118671   2.579   2.258   4.354  1.1185  0.7075 -0.4321
 6238TIP3    H218672   2.429   2.273   4.367  0.8094  0.2971 -3.2862
 6239TIP3   OH218673   8.151   0.801   5.505 -0.3446  0.3136 -0.2696
 6239TIP3    H118674   8.090   0.875   5.501 -0.8150 -0.0556  0.0417
 6239TIP3    H218675   8.095   0.724   5.500  0.1621 -0.0231 -0.7895
 6240TIP3   OH218676   3.365   5.775   0.191  0.3511 -0.2572  0.4781
 6240TIP3    H118677   3.436   5.723   0.229  2.2972  2.7384  1.0856
 6240TIP3    H218678   3.300   5.710   0.163  3.7395 -3.1471 -1.0389
 6241TIP3   OH218679   0.779   3.333   6.616 -0.7162 -0.3769  0.3842
 6241TIP3    H118680   0.752   3.257   6.564 -0.5876  1.1321 -1.9644
 6241TIP3    H218681   0.874   3.323   6.624 -0.6380 -0.2610 -0.3055
 6242TIP3   OH218682   3.908   3.189   5.287 -0.0875 -0.5025 -0.3014
 6242TIP3    H118683   3.838   3.127   5.310 -0.7771  0.4575  0.2048
 6242TIP3    H218684   3.885   3.269   5.333  0.6587  0.2235 -1.1829
 6243TIP3   OH218685   6.456   7.522   1.387 -0.1013 -0.0151  0.2021
 6243TIP3    H118686   6.484   7.562   1.469  0.6062  1.1577 -0.6060
 6243TIP3    H218687   6.524   7.456   1.368  0.9001  1.2150 -0.5502
 6244TIP3   OH218688   2.818   2.185   3.765  0.5940 -0.5499 -0.6260
 6244TIP3    H118689   2.857   2.182   3.678  0.8769 -1.4017 -0.4806
 6244TIP3    H218690   2.892   2.200   3.824  0.6317 -1.5871 -0.4000
 6245TIP3   OH218691   0.707   4.892   5.515  0.4046  0.1402 -0.2750
 6245TIP3    H118692   0.643   4.947   5.470  0.1010 -1.2191 -1.5492
 6245TIP3    H218693   0.675   4.803   5.502  1.4771 -0.4176  0.8067
 6246TIP3   OH218694   3.103   2.015   5.194 -0.0812  0.5790  0.1579
 6246TIP3    H118695   3.045   2.005   5.270 -0.7098 -0.3769 -0.4394
 6246TIP3    H218696   3.049   2.060   5.129 -0.1262 -0.2300 -0.3661
 6247TIP3   OH218697   0.868   1.098   5.820  0.2892  0.9113  0.1860
 6247TIP3    H118698   0.815   1.055   5.753  0.3326  0.0511  0.6951
 6247TIP3    H218699   0.806   1.122   5.888  0.7721 -1.7822  1.6502
 6248TIP3   OH218700   2.837   6.298   1.373 -0.2016  0.3122 -0.7380
 6248TIP3    H118701   2.895   6.294   1.449  0.0041 -1.2580 -0.9774
 6248TIP3    H218702   2.855   6.218   1.324  0.1500  1.6405 -2.8168
 6249TIP3   OH218703   0.619   2.540   4.675  0.1754 -1.0334  0.0957
 6249TIP3    H118704   0.531   2.546   4.637  0.5902  1.3486 -0.5800
 6249TIP3    H218705   0.607   2.568   4.766  0.2214 -0.8282  0.0382
 6250TIP3   OH218706   2.924   3.051   5.669 -0.0537  0.3822  0.4225
 6250TIP3    H118707   2.858   3.025   5.604  0.0887  0.3516  0.2908
 6250TIP3    H218708   2.965   2.969   5.695  1.4415  0.6160 -1.1054
 6251TIP3   OH218709   8.332   4.686   3.561 -0.6582 -0.1581 -0.3531
 6251TIP3    H118710   8.247   4.675   3.602  0.4683  0.2248  2.1642
 6251TIP3    H218711   8.324   4.642   3.476 -2.9387 -1.2549  0.4074
 6252TIP3   OH218712   0.892   3.405   5.930  0.2139  0.3040 -0.0341
 6252TIP3    H118713   0.869   3.387   6.021  1.0172 -0.0742  0.0992
 6252TIP3    H218714   0.833   3.476   5.903  0.4117  0.8622  0.9843
 6253TIP3   OH218715   4.002   7.179   0.652  0.2253 -0.7132 -0.6207
 6253TIP3    H118716   4.025   7.086   0.641  1.6942 -0.1887 -2.1611
 6253TIP3    H218717   3.915   7.187   0.613  0.2023 -1.3813 -0.7122
 6254TIP3   OH218718   2.361   0.853   4.988  0.5299  0.2380 -0.1279
 6254TIP3    H118719   2.317   0.922   4.938 -1.5733  0.5868  2.1032
 6254TIP3    H218720   2.318   0.855   5.074  1.3651 -2.9561  0.4104
 6255TIP3   OH218721   8.043   1.277   5.057  0.0649 -0.4827  0.1482
 6255TIP3    H118722   7.955   1.243   5.067 -0.0890 -0.3757 -0.7800
 6255TIP3    H218723   8.053   1.340   5.129 -0.9101  0.1202 -0.2421
 6256TIP3   OH218724   2.582   1.392   4.019 -0.3165  0.6610 -0.5401
 6256TIP3    H118725   2.602   1.303   3.992 -0.7906  0.8918 -1.6470
 6256TIP3    H218726   2.487   1.394   4.028 -0.3228  1.1123 -0.6953
 6257TIP3   OH218727   1.036   2.753   5.152  0.3004 -0.2430  0.1971
 6257TIP3    H118728   1.050   2.660   5.169  0.3957 -0.3463 -0.4053
 6257TIP3    H218729   0.980   2.754   5.074  0.5621  0.2035  0.0135
 6258TIP3   OH218730   2.195   1.062   6.057  0.3210  0.2940 -0.3936
 6258TIP3    H118731   2.257   1.083   5.987  1.9104  0.0936  0.9136
 6258TIP3    H218732   2.201   1.136   6.117 -0.9610  0.4201 -0.4021
 6259TIP3   OH218733   0.557   2.138   6.226 -0.2053 -0.0501 -0.7005
 6259TIP3    H118734   0.627   2.106   6.283 -0.7727 -0.3541 -0.1698
 6259TIP3    H218735   0.496   2.065   6.219 -1.6527  1.0042  0.7417
 6260TIP3   OH218736   2.400   3.154   5.670  0.5443  0.3297  0.8838
 6260TIP3    H118737   2.438   3.067   5.680  0.5861  0.4862  2.1268
 6260TIP3    H218738   2.473   3.214   5.683  0.6801  0.5365 -0.7814
 6261TIP3   OH218739   1.473   4.436   5.398 -0.2618 -0.6986  0.5956
 6261TIP3    H118740   1.514   4.486   5.469 -0.2560 -0.9196  0.7516
 6261TIP3    H218741   1.547   4.402   5.347 -0.2918  0.4977 -0.2495
 6262TIP3   OH218742   0.568   1.472   3.097 -0.1069  0.3410  0.0749
 6262TIP3    H118743   0.562   1.484   3.192 -1.0367 -1.1955  0.2199
 6262TIP3    H218744   0.662   1.480   3.078  0.1946 -0.2864  1.2576
 6263TIP3   OH218745   1.342   3.009   5.289  0.9251  0.0419  0.2421
 6263TIP3    H118746   1.404   3.050   5.229 -0.3250  0.6610 -0.6314
 6263TIP3    H218747   1.362   3.047   5.375  0.5268  1.6321 -0.3586
 6264TIP3   OH218748   2.669   1.470   6.035  0.0540 -0.7548 -0.3434
 6264TIP3    H118749   2.691   1.465   6.128  1.3289  1.3364 -0.5111
 6264TIP3    H218750   2.753   1.483   5.991 -0.5137 -1.9439 -1.8393
 6265TIP3   OH218751   0.098   4.264   6.162 -0.4972 -0.0518  0.0022
 6265TIP3    H118752   0.028   4.199   6.169 -1.4192  1.0306  1.4841
 6265TIP3    H218753   0.115   4.290   6.253  1.8445 -0.2928 -0.3457
 6266TIP3   OH218754   0.790   0.135   3.637 -0.4420 -0.0640  0.2218
 6266TIP3    H118755   0.833   0.218   3.620  0.6576 -0.4143  1.1321
 6266TIP3    H218756   0.731   0.153   3.710 -0.8811  0.1273 -0.1822
 6267TIP3   OH218757   1.875   0.311   2.960 -0.1999 -0.0757  0.2182
 6267TIP3    H118758   1.954   0.333   2.911 -0.6223  1.7554  0.3105
 6267TIP3    H218759   1.816   0.274   2.895  0.7140 -1.4791  0.1530
 6268TIP3   OH218760   1.798   2.302   5.159  0.3461 -0.1757 -0.2692
 6268TIP3    H118761   1.731   2.288   5.092 -0.9546  0.6914  0.8190
 6268TIP3    H218762   1.848   2.220   5.160 -1.6649 -1.4294 -0.0559
 6269TIP3   OH218763   3.026   6.908   0.135  0.3638  0.1135  0.4886
 6269TIP3    H118764   2.961   6.873   0.074  0.4928  1.0188 -0.1780
 6269TIP3    H218765   3.016   7.003   0.129  0.8789  0.2260  1.3366
 6270TIP3   OH218766   6.203   6.699   5.787 -0.7507  0.1450  0.0526
 6270TIP3    H118767   6.176   6.769   5.846  1.0619  0.7429  0.2181
 6270TIP3    H218768   6.215   6.623   5.845  0.8044  0.6718  0.4645
 6271TIP3   OH218769   1.715   3.024   5.213  0.0338 -0.0930  0.2533
 6271TIP3    H118770   1.694   2.942   5.258 -1.3176  0.0886 -0.0336
 6271TIP3    H218771   1.630   3.062   5.191  0.6605  1.0706 -0.1931
 6272TIP3   OH218772   7.937   1.640   5.356  0.6222 -0.0787 -0.5433
 6272TIP3    H118773   7.896   1.569   5.306 -2.5967  0.4079  1.2352
 6272TIP3    H218774   7.887   1.718   5.331  0.0754  0.4571  2.0652
 6273TIP3   OH218775   0.240   2.154   6.143 -0.5770 -0.4048  0.0028
 6273TIP3    H118776   0.189   2.174   6.221  1.3174  0.2712  1.0975
 6273TIP3    H218777   0.269   2.063   6.155 -1.9764 -0.9852 -0.8933
 6274TIP3   OH218778  -0.007   1.923   6.602 -0.4869  0.2072  0.0591
 6274TIP3    H118779   0.074   1.967   6.628 -1.0315  0.1892  1.8380
 6274TIP3    H218780  -0.023   1.859   6.671 -2.5350  0.8783  0.2422
 6275TIP3   OH218781   0.489   3.618   6.120 -0.5788 -0.5487  0.2733
 6275TIP3    H118782   0.469   3.677   6.048 -0.7591 -1.1531 -0.1733
 6275TIP3    H218783   0.552   3.667   6.174 -1.2220  0.3003  0.2647
 6276TIP3   OH218784   5.440   4.149   0.153 -0.1183 -0.0566 -0.1045
 6276TIP3    H118785   5.411   4.222   0.207  0.9331  0.6997 -0.5625
 6276TIP3    H218786   5.362   4.126   0.101 -0.6144  0.3516  0.4526
 6277TIP3   OH218787   0.255   3.092   4.399 -0.1063 -0.1976  0.9750
 6277TIP3    H118788   0.237   3.142   4.478 -1.5146 -0.0382  0.5675
 6277TIP3    H218789   0.169   3.082   4.357  0.7262  0.3476 -0.8952
 6278TIP3   OH218790   2.119   5.947   1.789  0.0603 -0.3953 -0.1966
 6278TIP3    H118791   2.124   5.859   1.752 -1.5021 -0.9139  0.7477
 6278TIP3    H218792   2.031   5.952   1.826 -0.5278  2.2229 -1.8434
 6279TIP3   OH218793   0.812   1.738   3.157 -0.1467  0.0192 -0.7115
 6279TIP3    H118794   0.743   1.696   3.208 -1.1829  1.2617 -1.0531
 6279TIP3    H218795   0.867   1.666   3.126 -1.3346 -0.9901 -0.4986
 6280TIP3   OH218796  -0.008   1.782   5.914 -0.3676 -0.6059  0.0554
 6280TIP3    H118797   0.070   1.776   5.858 -0.4884  1.9005 -0.4267
 6280TIP3    H218798   0.027   1.806   6.000 -0.5887  0.4085 -0.1344
 6281TIP3   OH218799   1.278   1.036   4.587 -0.4567  0.2742 -0.0592
 6281TIP3    H118800   1.211   0.969   4.597 -0.8620  0.6867 -0.0348
 6281TIP3    H218801   1.322   1.039   4.673 -2.0253  1.7471  0.7203
 6282TIP3   OH218802   0.312   1.785   4.079  0.5880 -0.3768 -0.2246
 6282TIP3    H118803   0.376   1.797   4.149  1.3808 -0.6814 -0.8935
 6282TIP3    H218804   0.306   1.690   4.068 -0.6672 -0.3924  0.4538
 6283TIP3   OH218805   8.060   0.508   5.282  0.0656 -0.4047  0.6109
 6283TIP3    H118806   8.110   0.590   5.282  0.0272 -0.3811  0.5266
 6283TIP3    H218807   8.051   0.486   5.375 -0.9073  0.2885  0.6957
 6284TIP3   OH218808   0.872   0.845   3.149 -1.0740 -0.2971  0.8656
 6284TIP3    H118809   0.803   0.905   3.179  0.4213  1.9530 -0.0639
 6284TIP3    H218810   0.948   0.867   3.204  0.1916  0.3559 -1.1025
 6285TIP3   OH218811   1.668   0.981   4.859  0.2510 -0.1306 -0.0180
 6285TIP3    H118812   1.699   0.966   4.948  0.1986 -0.5662 -0.0714
 6285TIP3    H218813   1.743   0.959   4.803 -0.2741 -1.5970 -0.1723
 6286TIP3   OH218814   0.732   2.896   4.238  0.2773 -0.4807  0.2169
 6286TIP3    H118815   0.748   2.982   4.276  0.8353 -0.7532  0.6096
 6286TIP3    H218816   0.644   2.872   4.267 -0.5651  0.6748 -1.2687
 6287TIP3   OH218817   2.564   5.852   1.922  0.2925  0.0188  0.0819
 6287TIP3    H118818   2.531   5.762   1.919 -0.9914  0.3624  2.5515
 6287TIP3    H218819   2.520   5.896   1.849 -1.5467 -0.5782  0.8019
 6288TIP3   OH218820   4.930   6.030   0.061  0.5520 -0.4149 -0.0050
 6288TIP3    H118821   4.982   5.952   0.040  1.8560  0.5779 -0.4753
 6288TIP3    H218822   4.946   6.045   0.154  2.3512  0.8038 -0.5014
 6289TIP3   OH218823   1.163   1.350   4.877  0.4288 -0.2990 -0.1197
 6289TIP3    H118824   1.101   1.391   4.817 -0.7471  1.3290  2.1318
 6289TIP3    H218825   1.114   1.282   4.921  0.8674 -0.4830  0.0921
 6290TIP3   OH218826   1.722   1.738   4.936  0.0347  0.5076  0.4784
 6290TIP3    H118827   1.813   1.710   4.939 -0.3378 -0.6197  1.5417
 6290TIP3    H218828   1.694   1.741   5.027 -1.2064  0.1143  0.1264
 6291TIP3   OH218829   0.491   0.747   5.183  0.1487  0.5369  0.0333
 6291TIP3    H118830   0.566   0.793   5.221 -1.2621  2.5690  0.4348
 6291TIP3    H218831   0.416   0.802   5.203 -1.4194 -1.2315 -0.7686
 6292TIP3   OH218832   4.257   5.129   0.212  0.2748 -0.7447 -0.3680
 6292TIP3    H118833   4.202   5.122   0.291 -0.0933 -1.1012 -0.6574
 6292TIP3    H218834   4.263   5.223   0.196  0.6683 -0.6494  0.3126
 6293TIP3   OH218835   3.493   2.786   5.647 -0.2270 -0.3459  0.6343
 6293TIP3    H118836   3.413   2.737   5.628  0.3276 -0.5673 -1.1805
 6293TIP3    H218837   3.563   2.732   5.612  0.6637  0.2323  1.4966
 6294TIP3   OH218838   7.571   2.417   6.764 -0.5070 -0.5224  0.1075
 6294TIP3    H118839   7.526   2.502   6.763  0.9549  0.2781 -1.0554
 6294TIP3    H218840   7.618   2.416   6.847 -2.1466 -1.0819  1.0345
 6295TIP3   OH218841   4.851   8.019   6.056 -0.3822  0.1413 -0.1444
 6295TIP3    H118842   4.937   7.981   6.038 -0.2927  0.8582 -1.3105
 6295TIP3    H218843   4.852   8.036   6.150  0.0180 -1.6199  0.1824
 6296TIP3   OH218844   0.632   0.994   5.725  0.5056  0.1465 -0.4461
 6296TIP3    H118845   0.590   1.058   5.782  0.3488 -0.4246  0.0819
 6296TIP3    H218846   0.628   1.033   5.638  0.0090  0.6516 -0.1987
 6297TIP3   OH218847   6.860   5.341   0.171  0.0263 -0.2001 -0.3008
 6297TIP3    H118848   6.779   5.305   0.136 -0.2508 -0.4076  0.5579
 6297TIP3    H218849   6.844   5.436   0.175 -0.9453 -0.4357  1.8422
 6298TIP3   OH218850   7.095   7.994   5.464  0.1395 -0.4868  0.7255
 6298TIP3    H118851   7.035   8.025   5.532 -0.1321  0.5095  0.0445
 6298TIP3    H218852   7.171   7.962   5.512  0.4491  1.2900  1.4783
 6299TIP3   OH218853   5.715   6.038   0.111 -0.2035 -0.1180  0.1265
 6299TIP3    H118854   5.785   6.069   0.054  0.8499 -0.7685  1.0423
 6299TIP3    H218855   5.669   6.118   0.137  0.4634  0.3632 -0.1389
 6300TIP3   OH218856   1.393   0.785   6.870  0.0551  0.1210 -0.0834
 6300TIP3    H118857   1.363   0.851   6.934 -3.3643  0.7676 -2.2260
 6300TIP3    H218858   1.360   0.702   6.904  1.1861  0.0023  0.7317
 6301TIP3   OH218859   0.339   4.258   5.335 -0.2394 -0.7263 -0.0291
 6301TIP3    H118860   0.382   4.222   5.257  0.5991  0.7215 -0.2560
 6301TIP3    H218861   0.246   4.253   5.316 -0.0314 -0.2297 -1.2039
 6302TIP3   OH218862   3.246   0.611   5.216  0.5422 -0.5781  0.2733
 6302TIP3    H118863   3.274   0.619   5.308  0.7888  0.0320  0.1518
 6302TIP3    H218864   3.151   0.603   5.220  0.5378 -0.3818  0.5763
 6303TIP3   OH218865   2.246   2.444   5.378 -0.1030 -0.1263 -0.0962
 6303TIP3    H118866   2.207   2.411   5.459  0.6468 -0.6481  0.0596
 6303TIP3    H218867   2.174   2.489   5.333 -0.0737  1.8563  1.7640
 6304TIP3   OH218868   0.184   3.894   5.458  0.1578 -0.1840  0.1965
 6304TIP3    H118869   0.159   3.981   5.425 -0.5257 -0.4208  0.0819
 6304TIP3    H218870   0.276   3.904   5.483 -0.1607  0.8287  1.0161
 6305TIP3   OH218871   3.162   3.019   6.481 -0.0239  0.2664  0.2022
 6305TIP3    H118872   3.255   3.001   6.467  0.1524  0.1963  1.4179
 6305TIP3    H218873   3.142   2.980   6.566 -1.6669 -1.5307 -0.9709
 6306TIP3   OH218874   2.798   3.533   4.995  0.1262  0.5809 -0.1338
 6306TIP3    H118875   2.869   3.544   5.059  1.6929  1.3635 -1.9793
 6306TIP3    H218876   2.754   3.617   4.994 -0.6195  0.2176  0.7159
 6307TIP3   OH218877   4.504   6.926   0.279 -0.2419  0.0740  0.9292
 6307TIP3    H118878   4.440   6.987   0.241 -0.4922 -0.3920  0.6102
 6307TIP3    H218879   4.588   6.953   0.242 -0.7383 -1.7012 -1.6457
 6308TIP3   OH218880   1.957   2.841   4.827  0.0532  0.3757  0.0988
 6308TIP3    H118881   1.935   2.784   4.901  0.4439  1.1088  0.7934
 6308TIP3    H218882   2.053   2.843   4.825  0.0445  0.8132 -0.0705
 6309TIP3   OH218883   1.976   0.992   3.946  0.1221  0.1226  0.5118
 6309TIP3    H118884   1.936   1.026   4.026 -3.5506 -0.2376 -1.0783
 6309TIP3    H218885   1.936   0.906   3.934  2.1227 -0.6883 -0.6906
 6310TIP3   OH218886   5.109   4.313   1.399 -0.1341  0.5444 -0.2203
 6310TIP3    H118887   5.038   4.254   1.427  0.9340 -0.7071 -0.1196
 6310TIP3    H218888   5.163   4.323   1.477 -0.2069  1.5330 -0.2911
 6311TIP3   OH218889   7.708   0.125   0.050 -0.2654 -0.1073  0.3416
 6311TIP3    H118890   7.752   0.052   0.093 -1.6732 -0.7458  0.7486
 6311TIP3    H218891   7.721   0.199   0.109 -0.9077 -0.6238  1.1496
 6312TIP3   OH218892   0.196   1.422   3.611  0.0729 -0.1788 -0.4061
 6312TIP3    H118893   0.146   1.503   3.600  2.2231  1.1317 -0.8450
 6312TIP3    H218894   0.245   1.413   3.529  1.5119 -0.7513  0.5035
 6313TIP3   OH218895   3.926   5.913   1.180 -0.1830  0.0542 -0.0772
 6313TIP3    H118896   3.881   5.944   1.101 -0.8376  2.2811  1.1343
 6313TIP3    H218897   3.861   5.858   1.225  0.1430 -1.1033 -0.9879
 6314TIP3   OH218898   2.100   0.982   5.747 -0.1620 -0.4976  0.1916
 6314TIP3    H118899   2.045   0.909   5.719 -0.3941 -0.4052  0.4077
 6314TIP3    H218900   2.039   1.055   5.760 -0.1171 -0.6727  1.4093
 6315TIP3   OH218901   2.723   0.848   5.656  0.0038  0.2492 -0.5263
 6315TIP3    H118902   2.667   0.774   5.634  0.3203  0.2731 -1.4093
 6315TIP3    H218903   2.812   0.814   5.646  0.1513  0.5461 -0.2409
 6316TIP3   OH218904   5.348   4.643   1.696  0.0604  0.2988  0.4465
 6316TIP3    H118905   5.380   4.604   1.615  1.2993  0.6899  0.7384
 6316TIP3    H218906   5.384   4.587   1.765 -1.9653 -0.7336  0.7023
 6317TIP3   OH218907   3.347   2.613   5.100  0.5066 -0.2109  0.0425
 6317TIP3    H118908   3.371   2.551   5.031 -0.8135 -0.6052 -0.0850
 6317TIP3    H218909   3.350   2.560   5.180 -0.4739 -0.4136 -0.0478
 6318TIP3   OH218910   1.454   1.650   4.680 -0.7558  0.1659 -0.2454
 6318TIP3    H118911   1.521   1.584   4.698  0.9238  2.1380  0.9098
 6318TIP3    H218912   1.375   1.599   4.662  0.4532 -2.1510  0.7532
 6319TIP3   OH218913   3.958   1.732   4.835  0.6430  0.3773  0.2504
 6319TIP3    H118914   3.872   1.690   4.826  1.0723  0.1923 -3.8274
 6319TIP3    H218915   4.007   1.674   4.893 -2.1195  0.8506  3.2591
 6320TIP3   OH218916   2.894   2.623   5.080  0.0130 -0.0243  0.0787
 6320TIP3    H118917   2.882   2.687   5.150 -1.6588  1.0774 -1.1799
 6320TIP3    H218918   2.812   2.573   5.079  1.0661 -1.8511  0.6556
 6321TIP3   OH218919   6.885   4.866   1.368  0.0677 -0.5494 -0.5001
 6321TIP3    H118920   6.959   4.874   1.308 -1.1938  1.2810 -1.8759
 6321TIP3    H218921   6.924   4.841   1.452  2.1783 -0.0263 -1.3125
 6322TIP3   OH218922   2.319   0.361   6.076  0.3472  0.3269 -0.0617
 6322TIP3    H118923   2.263   0.284   6.063  0.8055 -0.0613  0.2521
 6322TIP3    H218924   2.298   0.419   6.003 -0.5686  0.2417  0.1350
 6323TIP3   OH218925   0.644   1.139   3.330  0.2196 -0.0272  0.2828
 6323TIP3    H118926   0.710   1.208   3.339 -0.4723  0.4427  2.0709
 6323TIP3    H218927   0.622   1.116   3.420 -2.2261 -0.0224 -0.2862
 6324TIP3   OH218928   4.668   6.119   0.937  0.1656 -0.3392 -0.4611
 6324TIP3    H118929   4.682   6.173   1.015 -0.4167 -2.1576  0.9469
 6324TIP3    H218930   4.573   6.116   0.926  0.2804  0.8646 -1.9691
 6325TIP3   OH218931   2.037   1.701   4.205  0.0517 -0.9077  0.0677
 6325TIP3    H118932   2.130   1.719   4.221 -0.0049  0.0215 -0.6414
 6325TIP3    H218933   1.993   1.738   4.282  0.2604 -1.3837  0.4242
 6326TIP3   OH218934   2.270   2.273   4.650  0.4109  0.0312 -0.0610
 6326TIP3    H118935   2.200   2.228   4.604  0.7911 -0.9505  0.3162
 6326TIP3    H218936   2.226   2.340   4.702 -0.3763 -1.5278  1.3025
 6327TIP3   OH218937   0.536   2.189   5.437 -0.2522  0.2878  0.1910
 6327TIP3    H118938   0.481   2.266   5.426  0.8287  1.3131  1.7863
 6327TIP3    H218939   0.574   2.198   5.524  1.2353 -1.1842 -0.2668
 6328TIP3   OH218940   1.428   0.269   6.525  0.2920 -0.2665  0.2504
 6328TIP3    H118941   1.394   0.206   6.589 -0.4986  1.2415  1.3527
 6328TIP3    H218942   1.351   0.295   6.475  0.2699  1.2505  1.0637
 6329TIP3   OH218943   0.384   1.593   6.808  0.0257  0.1416 -0.4780
 6329TIP3    H118944   0.349   1.505   6.792  0.9811 -0.0522 -1.5224
 6329TIP3    H218945   0.415   1.591   6.899 -1.1220 -0.1986 -0.0846
 6330TIP3   OH218946   1.877   2.950   5.685 -0.1919 -0.2441 -0.0252
 6330TIP3    H118947   1.926   2.882   5.640 -0.6274 -1.2479  0.9855
 6330TIP3    H218948   1.930   2.971   5.762 -0.6481 -0.3273  0.3177
 6331TIP3   OH218949   3.390   1.392   4.049  0.3450 -0.5632  0.3445
 6331TIP3    H118950   3.318   1.347   4.005 -0.8432  0.9339  0.7463
 6331TIP3    H218951   3.369   1.485   4.043  1.9607 -0.1277  0.9594
 6332TIP3   OH218952   0.205   4.045   4.237  0.2573 -0.1455 -0.0269
 6332TIP3    H118953   0.177   4.093   4.159  0.5500 -1.2530 -0.8302
 6332TIP3    H218954   0.168   3.957   4.225 -1.0367  0.1004  1.8520
 6333TIP3   OH218955   0.446   1.198   5.829 -0.4326  0.0263 -0.1058
 6333TIP3    H118956   0.369   1.179   5.776 -1.4935 -0.0259  1.4065
 6333TIP3    H218957   0.461   1.292   5.818  0.0096 -0.1788 -1.3220
 6334TIP3   OH218958   7.829   3.263   5.326  0.7395  0.0752 -0.3676
 6334TIP3    H118959   7.781   3.181   5.333  1.0868 -0.1785 -0.9677
 6334TIP3    H218960   7.857   3.268   5.235  0.1864  1.1642 -0.4855
 6335TIP3   OH218961   0.217   3.645   4.391 -0.4545 -0.0677  0.1331
 6335TIP3    H118962   0.183   3.558   4.374  2.2986 -0.9333 -1.3094
 6335TIP3    H218963   0.198   3.695   4.311  1.0273 -0.3917 -0.4485
 6336TIP3   OH218964   2.159   2.321   5.629  0.2856  0.4016  0.3950
 6336TIP3    H118965   2.085   2.316   5.690 -1.3769 -0.8497 -1.6669
 6336TIP3    H218966   2.200   2.235   5.633  1.1770  0.8495  0.9671
 6337TIP3   OH218967   0.787   1.175   5.252  0.7343  0.3213  0.1717
 6337TIP3    H118968   0.739   1.257   5.251  1.3902  0.7064  0.0145
 6337TIP3    H218969   0.740   1.120   5.316  1.5129  1.5462  1.8200
 6338TIP3   OH218970   6.321   7.860   6.735 -0.3317  0.1552 -0.2879
 6338TIP3    H118971   6.254   7.928   6.742  0.1454  0.6340 -0.3094
 6338TIP3    H218972   6.347   7.842   6.826 -1.3589 -0.9202 -0.1884
 6339TIP3   OH218973   1.722   6.956   0.379 -0.1463 -0.0087 -0.3587
 6339TIP3    H118974   1.699   6.909   0.459  0.0083 -0.4601 -0.5803
 6339TIP3    H218975   1.704   7.048   0.400  0.3239 -0.0710  0.3515
 6340TIP3   OH218976   1.912   1.987   3.555  0.3271 -0.0243  0.3762
 6340TIP3    H118977   1.961   2.062   3.588 -0.4647  0.6831 -0.0577
 6340TIP3    H218978   1.898   2.005   3.462 -2.4144  0.7166  0.8831
 6341TIP3   OH218979   2.322   2.050   3.587  0.1921 -0.1373 -0.4338
 6341TIP3    H118980   2.288   2.130   3.547 -0.5019  0.3600  1.1208
 6341TIP3    H218981   2.279   1.979   3.539 -0.0110  0.4219 -1.0939
 6342TIP3   OH218982   5.208   3.286   3.887  0.9879  0.3637  0.2423
 6342TIP3    H118983   5.165   3.348   3.947  1.7619 -0.1056  1.2961
 6342TIP3    H218984   5.298   3.317   3.881  0.5216  1.4021 -2.0415
 6343TIP3   OH218985   7.941   0.982   5.439 -0.3449  0.2016 -0.0818
 6343TIP3    H118986   7.913   1.059   5.489  0.5367  0.8851 -0.6066
 6343TIP3    H218987   7.876   0.974   5.369 -0.5399  0.3726  0.0788
 6344TIP3   OH218988   0.461   0.171   5.300  0.0847 -0.2301  0.0753
 6344TIP3    H118989   0.451   0.195   5.392  1.5545 -2.5668  0.8866
 6344TIP3    H218990   0.458   0.076   5.300 -1.0793 -0.2215 -2.4643
 6345TIP3   OH218991   0.678   0.434   6.272 -0.5297 -0.2326  0.0652
 6345TIP3    H118992   0.668   0.350   6.226 -1.6344 -0.1427  0.1173
 6345TIP3    H218993   0.721   0.491   6.208  0.5450 -0.9318  0.1532
 6346TIP3   OH218994   8.210   3.229   6.141  0.4902 -0.7011  0.5149
 6346TIP3    H118995   8.200   3.303   6.200  0.1655  0.0724 -0.4921
 6346TIP3    H218996   8.137   3.171   6.162  0.1792 -0.2664  0.6396
 6347TIP3   OH218997   2.637   4.675   0.525 -0.2109 -0.1662 -0.2594
 6347TIP3    H118998   2.611   4.665   0.433 -2.2810  0.8387  0.1850
 6347TIP3    H218999   2.565   4.637   0.575  0.4568  0.1685  0.9839
 6348TIP3   OH219000   0.244   2.988   3.330  0.3809  0.3364  0.8953
 6348TIP3    H119001   0.310   3.044   3.289  1.9966 -2.4937 -0.5406
 6348TIP3    H219002   0.228   2.919   3.265 -2.7515  0.0394  1.9339
 6349TIP3   OH219003   2.620   0.547   5.204 -0.2949  0.3332 -0.3761
 6349TIP3    H119004   2.590   0.457   5.189  0.0712  0.2096 -0.3789
 6349TIP3    H219005   2.617   0.558   5.299  3.2643 -0.9706 -0.0312
 6350TIP3   OH219006   7.878   3.597   5.196 -0.1017 -0.1565  0.2713
 6350TIP3    H119007   7.932   3.601   5.275 -0.8833 -0.7927  0.8461
 6350TIP3    H219008   7.899   3.512   5.157 -0.7423 -0.4350  0.5345
 6351TIP3   OH219009   4.213   1.646   6.686  0.1009  0.3366 -0.8301
 6351TIP3    H119010   4.262   1.579   6.639  1.5072  1.2917 -0.7457
 6351TIP3    H219011   4.124   1.640   6.652 -0.0627 -2.3266 -0.0263
 6352TIP3   OH219012   2.983   2.059   5.954  0.6113 -0.3502 -0.2126
 6352TIP3    H119013   2.949   2.058   5.865 -0.8630  0.6823  0.3169
 6352TIP3    H219014   3.054   2.124   5.953  0.0117  0.3058 -0.4371
 6353TIP3   OH219015   2.775   1.940   5.105  0.1457  0.1439 -0.7881
 6353TIP3    H119016   2.794   1.896   5.188 -1.1200  0.8342 -0.1111
 6353TIP3    H219017   2.729   1.875   5.053 -1.0446  0.4007 -0.0824
 6354TIP3   OH219018   3.841   3.223   4.739 -0.1479 -0.0763 -0.3627
 6354TIP3    H119019   3.748   3.229   4.761 -0.3494  0.0751 -1.2431
 6354TIP3    H219020   3.878   3.166   4.806 -0.7141  0.5565  0.4915
 6355TIP3   OH219021   2.210   3.850   5.360 -0.1159  0.2960 -0.1129
 6355TIP3    H119022   2.149   3.786   5.324  0.7063  0.6728 -2.2340
 6355TIP3    H219023   2.287   3.799   5.385 -0.2860  0.1798  0.1810
 6356TIP3   OH219024   6.230   1.093   2.112 -0.2046  0.1359 -0.1772
 6356TIP3    H119025   6.251   1.081   2.205 -0.4712 -2.9201 -0.4524
 6356TIP3    H219026   6.138   1.118   2.111 -0.0047  0.9075  0.4115
 6357TIP3   OH219027   2.564   2.993   6.909 -0.3503  0.2422  0.2901
 6357TIP3    H119028   2.610   2.954   6.835  2.3641  1.8625  1.0311
 6357TIP3    H219029   2.579   2.932   6.981 -0.0999  0.3376  0.3195
 6358TIP3   OH219030   3.910   2.157   5.730  0.5421 -0.1974 -0.6608
 6358TIP3    H119031   3.977   2.088   5.726 -0.7857 -1.5774  0.5064
 6358TIP3    H219032   3.842   2.128   5.669 -0.7503 -0.7399  1.0029
 6359TIP3   OH219033   1.478   2.411   5.717 -0.2892  0.0957  0.1088
 6359TIP3    H119034   1.387   2.399   5.743 -0.4097 -0.9557 -0.7642
 6359TIP3    H219035   1.482   2.380   5.626  1.0811 -0.5067  0.3508
 6360TIP3   OH219036   3.032   3.977   5.517  0.8336  0.1775 -0.5279
 6360TIP3    H119037   2.974   4.035   5.468  0.1777  0.6900  0.8274
 6360TIP3    H219038   3.031   3.895   5.469  0.3235  0.7224 -1.4573
 6361TIP3   OH219039   3.526   1.261   2.960 -0.5617  0.4470  0.2895
 6361TIP3    H119040   3.532   1.239   3.053  0.4691 -0.4001  0.0310
 6361TIP3    H219041   3.434   1.285   2.947 -0.9758 -0.5698  1.2697
 6362TIP3   OH219042   4.647   2.111   4.612 -0.6909  0.1244 -0.2709
 6362TIP3    H119043   4.595   2.076   4.540 -1.5422 -0.3202  0.5498
 6362TIP3    H219044   4.737   2.086   4.590 -0.9264  0.0818 -1.2296
 6363TIP3   OH219045   2.183   2.453   6.038  0.3612  0.2697 -0.5594
 6363TIP3    H119046   2.173   2.475   5.945  2.0480 -0.3023 -0.9026
 6363TIP3    H219047   2.115   2.388   6.054 -1.1062  1.6688 -0.9187
 6364TIP3   OH219048   2.472   0.035   5.858  0.0728 -0.3193  0.3157
 6364TIP3    H119049   2.415   0.008   5.786  0.7450 -1.7875  0.3141
 6364TIP3    H219050   2.426   0.007   5.937 -0.4440  0.8759  0.4514
 6365TIP3   OH219051   2.779   1.544   5.020 -0.1630 -1.1117 -0.0550
 6365TIP3    H119052   2.811   1.594   4.944  0.3590 -1.2566  0.0722
 6365TIP3    H219053   2.738   1.467   4.981 -1.1369 -0.4994 -0.2655
 6366TIP3   OH219054   1.797   1.413   6.709  0.0336 -0.2501 -0.5955
 6366TIP3    H119055   1.795   1.395   6.615 -0.4931 -1.2318 -0.4011
 6366TIP3    H219056   1.820   1.329   6.749  0.4439  0.2075  0.1483
 6367TIP3   OH219057   2.241   3.511   4.957 -0.0440  0.6057 -0.2852
 6367TIP3    H119058   2.227   3.598   4.920 -2.1814 -0.1643 -1.3524
 6367TIP3    H219059   2.153   3.477   4.972  0.7428 -1.9012 -1.1095
 6368TIP3   OH219060   1.280   2.470   5.346  0.4843 -0.7019 -0.2606
 6368TIP3    H119061   1.194   2.477   5.389 -0.0745 -1.9075 -1.1505
 6368TIP3    H219062   1.335   2.427   5.411  0.6439  0.7803  0.6102
 6369TIP3   OH219063   2.838   1.084   6.287  0.8896  0.3786  0.4311
 6369TIP3    H119064   2.914   1.068   6.231 -0.0514 -1.6401 -0.3277
 6369TIP3    H219065   2.852   1.027   6.363  1.0268  1.3872  1.1757
 6370TIP3   OH219066   4.208   3.495   2.848  0.3129 -0.1985  0.2132
 6370TIP3    H119067   4.210   3.475   2.942 -1.2698 -3.4672 -0.3849
 6370TIP3    H219068   4.117   3.521   2.831  0.4247 -0.2992 -0.5609
 6371TIP3   OH219069   2.827   3.461   4.495  0.1115 -0.3281 -0.3153
 6371TIP3    H119070   2.804   3.427   4.409 -0.8236 -0.0502 -0.1844
 6371TIP3    H219071   2.762   3.529   4.512  1.3671  0.8659 -0.1595
 6372TIP3   OH219072   4.350   1.617   6.301 -0.8003 -0.1870 -0.5392
 6372TIP3    H119073   4.417   1.664   6.350  0.4026 -1.0852 -1.3018
 6372TIP3    H219074   4.324   1.677   6.231 -0.6379  0.0741 -0.3751
 6373TIP3   OH219075   3.920   4.482   1.326 -0.6980  0.1280  0.0476
 6373TIP3    H119076   3.980   4.416   1.359 -1.7372 -0.2232  1.2687
 6373TIP3    H219077   3.856   4.432   1.275  0.1238  0.5185 -1.3981
 6374TIP3   OH219078   7.166   5.706   2.054  0.2012  0.2381 -0.1360
 6374TIP3    H119079   7.091   5.698   1.995 -0.1340 -1.2345  0.4605
 6374TIP3    H219080   7.224   5.768   2.010 -1.5133  1.6697 -0.4213
 6375TIP3   OH219081   2.131   0.700   6.480  0.2488  0.3556 -0.4439
 6375TIP3    H119082   2.122   0.707   6.385  1.1737  0.9399 -0.4878
 6375TIP3    H219083   2.210   0.749   6.501  0.4574 -0.3946  0.5517
 6376TIP3   OH219084   3.705   2.688   2.367  0.2178  0.5754 -0.3396
 6376TIP3    H119085   3.671   2.624   2.429  0.3203  0.9917  0.1527
 6376TIP3    H219086   3.799   2.692   2.385 -0.1401  2.7050  1.3883
 6377TIP3   OH219087   4.461   3.240   4.052 -0.7187 -0.1822  0.4448
 6377TIP3    H119088   4.425   3.266   3.968 -1.1516 -0.8509  0.4184
 6377TIP3    H219089   4.458   3.319   4.106  1.3665  0.7680 -0.7609
 6378TIP3   OH219090   4.768   1.857   5.479  0.7569  0.0483 -0.4711
 6378TIP3    H119091   4.852   1.898   5.500  0.5915 -0.3030  0.9379
 6378TIP3    H219092   4.703   1.919   5.511  0.4707  0.2816 -1.4885
 6379TIP3   OH219093   4.279   2.882   6.041 -0.6360 -0.9217  0.6242
 6379TIP3    H119094   4.290   2.944   6.113 -0.2133  0.0810 -0.2836
 6379TIP3    H219095   4.206   2.826   6.068 -1.5808  0.5146  1.0829
 6380TIP3   OH219096   4.824   2.219   3.624 -0.0299 -0.1486  0.0769
 6380TIP3    H119097   4.818   2.223   3.719  1.6827  0.5552  0.1937
 6380TIP3    H219098   4.826   2.311   3.596  0.2373 -0.3392 -0.5625
 6381TIP3   OH219099   1.968   2.491   5.331  0.4260 -0.5611  0.0329
 6381TIP3    H119100   1.935   2.416   5.380 -0.5489 -0.6977 -0.8083
 6381TIP3    H219101   1.960   2.464   5.239  1.9337 -0.1931 -0.2213
 6382TIP3   OH219102   3.622   1.926   4.687 -0.2885 -0.0047  0.2524
 6382TIP3    H119103   3.708   1.883   4.680  0.7219  1.7553  1.5982
 6382TIP3    H219104   3.616   1.981   4.609 -0.1394 -0.0265  0.2251
 6383TIP3   OH219105   3.493   2.939   4.528 -0.0744 -0.0037  0.0860
 6383TIP3    H119106   3.501   3.032   4.503 -0.3440  0.5665  2.0478
 6383TIP3    H219107   3.402   2.930   4.556  0.1022 -0.7343  0.4144
 6384TIP3   OH219108   5.512   1.133   1.946 -0.2633  0.0905 -0.1681
 6384TIP3    H119109   5.465   1.166   2.022 -0.4286 -0.9517  0.1920
 6384TIP3    H219110   5.460   1.059   1.916  1.7855 -1.9237  1.0427
 6385TIP3   OH219111   3.168   2.292   4.595  0.4263  0.4700  0.7521
 6385TIP3    H119112   3.101   2.322   4.533  0.4682 -1.1810 -0.1054
 6385TIP3    H219113   3.246   2.345   4.573  0.7031 -0.7053 -1.2142
 6386TIP3   OH219114   4.766   2.132   4.308  0.7435 -0.8166 -0.1098
 6386TIP3    H119115   4.701   2.201   4.294  0.1181 -1.3867 -0.0412
 6386TIP3    H219116   4.819   2.164   4.381  0.9107 -0.0841 -0.5422
 6387TIP3   OH219117   4.163   3.081   4.604  0.2959  0.0550  0.6320
 6387TIP3    H119118   4.231   3.135   4.646  0.9282 -1.7357  2.0013
 6387TIP3    H219119   4.085   3.095   4.658  0.5603 -0.6526  1.2146
 6388TIP3   OH219120   3.027   1.769   5.578 -0.1140  0.4030 -0.3615
 6388TIP3    H119121   3.107   1.792   5.625 -0.7448 -1.1798  1.5784
 6388TIP3    H219122   3.057   1.719   5.502  0.7335 -0.2754  0.4120
 6389TIP3   OH219123   4.346   2.916   5.645 -0.6101  0.0520 -0.1302
 6389TIP3    H119124   4.351   2.849   5.714 -0.6468  1.5784  1.3742
 6389TIP3    H219125   4.412   2.889   5.581 -0.1687 -1.0593  0.7747
 6390TIP3   OH219126   4.415   2.000   6.633  0.0877 -0.1308 -0.1423
 6390TIP3    H119127   4.459   1.927   6.676  1.1095 -0.0847 -1.1027
 6390TIP3    H219128   4.331   2.007   6.679  0.4821 -1.1230  0.7592
 6391TIP3   OH219129   3.097   2.188   3.634 -0.0282 -0.3084  0.3462
 6391TIP3    H119130   3.149   2.153   3.562 -0.3232  0.3720 -0.1974
 6391TIP3    H219131   3.148   2.262   3.667 -0.8535  0.6320 -0.4720
 6392TIP3   OH219132   3.808   2.967   3.402  0.3057  0.1382  0.2593
 6392TIP3    H119133   3.802   2.903   3.473  2.6174  0.5978  0.8850
 6392TIP3    H219134   3.738   3.029   3.420  1.3416  0.6567  2.5582
 6393TIP3   OH219135   6.308   5.613   1.685 -0.1199  0.8308  0.8833
 6393TIP3    H119136   6.226   5.604   1.637  0.6336  1.3552 -0.5233
 6393TIP3    H219137   6.357   5.534   1.664  0.2197  1.0684  0.7883
 6394TIP3   OH219138   0.799   4.343   4.735 -0.4392  0.3470  0.2785
 6394TIP3    H119139   0.861   4.305   4.797  0.6157 -1.6071 -1.9088
 6394TIP3    H219140   0.729   4.278   4.727 -1.4839  1.3830  0.7376
 6395TIP3   OH219141   1.179   4.263   5.216  0.4050 -0.4857 -0.1947
 6395TIP3    H119142   1.263   4.219   5.229  1.3512  0.5069 -2.5680
 6395TIP3    H219143   1.175   4.328   5.286  0.5434 -2.0732  1.3092
 6396TIP3   OH219144   2.363   1.220   1.162 -0.3495  0.1837 -0.2065
 6396TIP3    H119145   2.441   1.182   1.120  0.9155  0.2357  2.0480
 6396TIP3    H219146   2.290   1.174   1.121  0.8549 -0.1365 -2.0983
 6397TIP3   OH219147   1.934   3.933   6.608  0.6067  0.0730  0.3531
 6397TIP3    H119148   1.880   3.985   6.668 -0.8600 -0.1552 -0.7421
 6397TIP3    H219149   2.011   3.909   6.660 -1.1551 -1.0933  2.5242
 6398TIP3   OH219150   2.748   2.899   5.523 -0.0503  0.3995 -0.2996
 6398TIP3    H119151   2.784   2.906   5.434 -0.0660  1.6380 -0.2217
 6398TIP3    H219152   2.730   2.806   5.534 -0.3321  0.2680 -1.7147
 6399TIP3   OH219153   2.105   1.651   5.907  0.1546 -0.2406  0.2841
 6399TIP3    H119154   2.158   1.574   5.929 -2.2365 -1.7786  0.7671
 6399TIP3    H219155   2.115   1.661   5.812  1.0273 -0.6951  0.3222
 6400TIP3   OH219156   1.359   2.760   4.394  0.2362  0.5239  0.2692
 6400TIP3    H119157   1.284   2.793   4.444  0.0349 -0.3084  0.5163
 6400TIP3    H219158   1.413   2.837   4.378 -1.5064  1.4500 -1.3281
 6401TIP3   OH219159   3.582   2.073   6.307  0.3750  0.1974  0.1399
 6401TIP3    H119160   3.568   2.166   6.289 -0.4371  0.4621  2.0551
 6401TIP3    H219161   3.537   2.028   6.235 -2.8025  1.2194  1.3820
 6402TIP3   OH219162   3.839   1.814   5.617  0.0464 -0.2928 -0.5769
 6402TIP3    H119163   3.814   1.896   5.575  1.7744  0.4041 -0.3002
 6402TIP3    H219164   3.821   1.747   5.551  0.5920  0.5422 -1.5887
 6403TIP3   OH219165   2.238   3.781   2.345 -0.4910 -0.0914  0.3492
 6403TIP3    H119166   2.274   3.770   2.432  0.4862 -1.3568 -0.2001
 6403TIP3    H219167   2.280   3.713   2.292 -0.1004  1.4619 -1.4046
 6404TIP3   OH219168   2.998   2.811   4.910 -0.3386 -0.1108 -0.1896
 6404TIP3    H119169   2.969   2.725   4.941 -3.3182  0.2924 -1.7086
 6404TIP3    H219170   2.966   2.872   4.977  0.1104 -0.0077 -0.0700
 6405TIP3   OH219171   4.202   3.301   3.847 -0.2456  0.0324 -0.2692
 6405TIP3    H119172   4.183   3.392   3.869  0.3351 -0.1588  1.0197
 6405TIP3    H219173   4.276   3.306   3.786  0.4154  0.3717  0.5582
 6406TIP3   OH219174   2.832   3.908   4.045 -0.0706  0.1913 -0.2952
 6406TIP3    H119175   2.890   3.951   3.982  0.9381 -0.2114  0.3354
 6406TIP3    H219176   2.779   3.848   3.993  1.4729 -0.8979 -0.6417
 6407TIP3   OH219177   3.565   3.907   5.191  0.0776 -0.4577 -0.1769
 6407TIP3    H119178   3.534   3.892   5.281 -0.7653 -0.1540 -0.4159
 6407TIP3    H219179   3.654   3.873   5.191 -0.3184 -1.5140  0.4583
 6408TIP3   OH219180   6.819   1.571   0.656 -0.2259  0.5648  0.4086
 6408TIP3    H119181   6.903   1.554   0.613  0.1837 -0.4137  1.5757
 6408TIP3    H219182   6.793   1.486   0.692 -0.5189  1.3813  2.1473
 6409TIP3   OH219183   1.819   2.616   4.964  0.7491  0.5066  0.0860
 6409TIP3    H119184   1.850   2.597   5.053 -0.7031 -0.2458  0.4395
 6409TIP3    H219185   1.729   2.648   4.975  1.1474  2.1215 -0.9811
 6410TIP3   OH219186   6.598   5.275   0.076 -0.1510 -0.4213  0.1198
 6410TIP3    H119187   6.513   5.316   0.062 -0.0207  0.4365  1.7985
 6410TIP3    H219188   6.588   5.225   0.156  0.7932 -0.6928  0.0732
 6411TIP3   OH219189   3.851   3.344   6.720  0.3206 -0.1855 -0.7020
 6411TIP3    H119190   3.901   3.263   6.723  1.0233  0.2880  0.9875
 6411TIP3    H219191   3.805   3.346   6.805  0.7195  1.4334 -0.5209
 6412TIP3   OH219192   2.326   2.238   5.188  0.0322  0.0383 -0.1151
 6412TIP3    H119193   2.416   2.272   5.184  0.6874 -0.9790  3.5644
 6412TIP3    H219194   2.278   2.306   5.236 -0.0672 -1.4225  1.9041
 6413TIP3   OH219195   3.226   2.665   3.868  0.1638 -0.0033 -0.5599
 6413TIP3    H119196   3.219   2.715   3.787 -2.3042 -0.8241 -0.8939
 6413TIP3    H219197   3.257   2.579   3.840  1.8760  0.5191 -0.2996
 6414TIP3   OH219198   0.157   8.039   6.596  0.5665 -0.5705 -0.1470
 6414TIP3    H119199   0.145   7.947   6.570  0.5648 -0.7209  0.3859
 6414TIP3    H219200   0.252   8.047   6.611  0.7705 -0.1248 -1.5358
 6415TIP3   OH219201   4.789   6.434   1.392 -0.4105  0.6901  0.2117
 6415TIP3    H119202   4.854   6.416   1.460 -0.4487 -1.5130 -0.2932
 6415TIP3    H219203   4.832   6.498   1.335  1.0993 -0.3050  0.1976
 6416TIP3   OH219204   5.068   3.012   3.371 -0.2261  0.2240  0.0476
 6416TIP3    H119205   5.014   2.975   3.301 -2.4088  1.4001  1.0784
 6416TIP3    H219206   5.105   2.935   3.415 -0.8286 -0.5782 -0.8204
 6417TIP3   OH219207   2.640   2.773   5.271  0.0579 -0.0983  0.1209
 6417TIP3    H119208   2.664   2.832   5.200 -1.8575  1.8702  1.0420
 6417TIP3    H219209   2.557   2.734   5.242  0.1235 -0.5762  0.5635
 6418TIP3   OH219210   3.726   2.492   4.291 -0.3460  0.7718 -0.3225
 6418TIP3    H119211   3.664   2.434   4.247 -1.3927  1.5707  0.0928
 6418TIP3    H219212   3.672   2.562   4.328  0.5962  0.4798  1.6373
 6419TIP3   OH219213   6.899   4.378   0.786 -0.2191  0.5779 -0.3916
 6419TIP3    H119214   6.848   4.298   0.775 -0.6838  1.0268 -1.5013
 6419TIP3    H219215   6.843   4.448   0.752  0.7652  1.1926 -0.7792
 6420TIP3   OH219216   5.488   2.900   5.077 -0.1130 -0.2115  0.2667
 6420TIP3    H119217   5.576   2.936   5.069 -0.5988  0.8083 -0.5740
 6420TIP3    H219218   5.442   2.931   4.999 -1.4516 -0.1106  1.0832
 6421TIP3   OH219219   3.928   2.265   4.011 -0.4207 -0.3801 -0.2337
 6421TIP3    H119220   3.887   2.181   4.031  2.6472 -1.8880  0.0104
 6421TIP3    H219221   4.008   2.242   3.964  1.4556  2.2874  1.4976
 6422TIP3   OH219222   1.404   7.501   4.940 -0.0867 -0.9362  0.0538
 6422TIP3    H119223   1.454   7.484   4.860 -1.3349 -0.0202 -0.9438
 6422TIP3    H219224   1.447   7.576   4.980 -1.6737  1.0223 -1.7535
 6423TIP3   OH219225   4.929   2.964   4.111 -0.0374  0.0689 -0.2532
 6423TIP3    H119226   4.978   2.888   4.141  1.2372  0.5109 -1.1619
 6423TIP3    H219227   4.837   2.941   4.125  0.3810 -1.1837  0.5113
 6424TIP3   OH219228   1.656   4.026   4.068  0.0901  0.1308  0.1417
 6424TIP3    H119229   1.607   3.976   4.133 -0.3935  0.0302 -0.2986
 6424TIP3    H219230   1.631   3.987   3.984 -1.5443  2.1205 -0.3485
 6425TIP3   OH219231   3.921   0.884   4.098 -0.0392  0.0566 -0.1249
 6425TIP3    H119232   3.970   0.875   4.016  0.5849 -1.6181  0.4264
 6425TIP3    H219233   3.857   0.953   4.079  0.7854  0.4350 -1.6812
 6426TIP3   OH219234   2.082   3.789   4.055  0.2054  0.5801  0.2267
 6426TIP3    H119235   1.987   3.775   4.058  0.3557 -0.6551 -0.2492
 6426TIP3    H219236   2.103   3.793   3.961  0.6465  0.5895  0.3241
 6427TIP3   OH219237   3.511   0.629   4.594  0.2466 -0.3429 -0.4537
 6427TIP3    H119238   3.435   0.671   4.553 -1.1946 -2.8831 -0.4487
 6427TIP3    H219239   3.509   0.660   4.685 -0.0814  0.5240 -0.7489
 6428TIP3   OH219240   4.069   3.666   5.513  0.2345  0.4420  0.0663
 6428TIP3    H119241   4.039   3.588   5.466 -1.1822  0.7056  0.5143
 6428TIP3    H219242   4.026   3.739   5.469 -2.5519  0.5740  2.8222
 6429TIP3   OH219243   4.431   3.478   5.077 -0.8169 -0.3006  0.6171
 6429TIP3    H119244   4.451   3.566   5.046  1.0008 -0.9481 -0.0815
 6429TIP3    H219245   4.492   3.464   5.149  1.0099 -2.0998 -1.2069
 6430TIP3   OH219246   2.208   2.951   4.644  0.2935 -0.1388  0.3214
 6430TIP3    H119247   2.293   2.969   4.604  0.4145 -0.4581  0.4314
 6430TIP3    H219248   2.170   2.882   4.590 -0.1422  0.3967 -0.0649
 6431TIP3   OH219249   2.686   1.724   4.305  0.3076 -0.1444  0.1153
 6431TIP3    H119250   2.638   1.798   4.344  2.1640  0.8622  0.5517
 6431TIP3    H219251   2.752   1.765   4.249 -0.0058 -1.5328 -1.3143
 6432TIP3   OH219252   1.913   0.124   5.547  0.2317  0.5945 -0.3575
 6432TIP3    H119253   1.959   0.100   5.466  0.1281  0.3405 -0.3445
 6432TIP3    H219254   1.859   0.199   5.522 -0.6307 -0.1572 -0.8153
 6433TIP3   OH219255   2.492   1.295   5.508  0.4450 -0.2485  1.1193
 6433TIP3    H119256   2.501   1.223   5.570  1.4283 -0.0713  1.1935
 6433TIP3    H219257   2.564   1.283   5.447 -0.8224 -0.7252 -0.3220
 6434TIP3   OH219258   3.405   1.724   4.956  0.6542  0.4785 -0.1081
 6434TIP3    H119259   3.370   1.809   4.931 -0.2874  0.4477  1.0412
 6434TIP3    H219260   3.344   1.692   5.023  1.9630 -0.3324  0.7207
 6435TIP3   OH219261   5.391   2.703   4.520 -0.2377  0.0193 -0.1526
 6435TIP3    H119262   5.466   2.751   4.486 -1.6658  2.1385 -0.3878
 6435TIP3    H219263   5.380   2.737   4.609  0.8619 -2.4130  0.9526
 6436TIP3   OH219264   4.290   1.921   3.276  0.4129  0.0619 -0.1007
 6436TIP3    H119265   4.296   1.848   3.214  0.6465  0.9815 -1.1863
 6436TIP3    H219266   4.229   1.983   3.234  0.5571  0.6793  0.5985
 6437TIP3   OH219267   1.171   5.159   5.141 -0.4537 -0.4165  0.1528
 6437TIP3    H119268   1.234   5.153   5.212 -0.7184  1.6859  0.5949
 6437TIP3    H219269   1.085   5.161   5.183 -0.6255  0.5516 -0.2084
 6438TIP3   OH219270   4.507   3.965   4.087  0.0179 -0.1780  0.0546
 6438TIP3    H119271   4.413   3.953   4.074  0.3668 -3.7226  0.5068
 6438TIP3    H219272   4.513   4.032   4.156 -2.1883 -0.8373  0.9195
 6439TIP3   OH219273   2.907   1.190   3.831  0.2080 -0.0635  0.5309
 6439TIP3    H119274   2.893   1.205   3.737  0.5223  0.3327  0.5465
 6439TIP3    H219275   2.971   1.119   3.834  0.9637  0.6097  0.4367
 6440TIP3   OH219276   3.266   1.891   5.639  0.2286  0.0069 -0.0870
 6440TIP3    H119277   3.313   1.832   5.697  0.0616  2.0527  2.2250
 6440TIP3    H219278   3.332   1.953   5.609 -0.3663  1.0193  0.6751
 6441TIP3   OH219279   6.113   6.789   0.300  0.0762  0.0406  0.3619
 6441TIP3    H119280   6.091   6.713   0.354  0.0285  1.8099  2.9235
 6441TIP3    H219281   6.029   6.830   0.279  0.0411 -1.0371 -1.7161
 6442TIP3   OH219282   2.556   1.463   6.397  0.1207 -0.3199  0.1951
 6442TIP3    H119283   2.633   1.438   6.344 -0.5205  0.1596 -0.9944
 6442TIP3    H219284   2.488   1.482   6.332 -0.7562  0.0672  1.2153
 6443TIP3   OH219285   1.032   3.288   5.275 -0.0544 -0.3765 -0.3023
 6443TIP3    H119286   1.039   3.193   5.273  0.0728 -0.3905  0.6293
 6443TIP3    H219287   1.066   3.313   5.360  2.4265  0.7426 -1.5570
 6444TIP3   OH219288   7.841   7.496   2.256  0.2686 -0.7298 -0.2875
 6444TIP3    H119289   7.774   7.480   2.322  0.2207  2.0206  0.3613
 6444TIP3    H219290   7.792   7.531   2.181  0.6419 -1.4860 -0.8964
 6445TIP3   OH219291   1.672   3.416   5.699 -0.0156 -0.6554 -0.6515
 6445TIP3    H119292   1.741   3.399   5.635  2.4436 -2.6476  2.4378
 6445TIP3    H219293   1.645   3.330   5.729 -0.8722  0.2591  1.2755
 6446TIP3   OH219294   4.736   4.926   5.582 -0.3780 -0.0599  0.6994
 6446TIP3    H119295   4.802   4.882   5.636 -0.1735  0.0234  0.5190
 6446TIP3    H219296   4.726   5.012   5.624 -0.1867  0.0209  0.5787
 6447TIP3   OH219297   3.975   2.785   5.246  0.5656 -0.4798 -0.8565
 6447TIP3    H119298   3.920   2.802   5.170  0.6608 -0.4731 -0.9235
 6447TIP3    H219299   4.050   2.736   5.212  1.8870  1.7281 -1.2031
 6448TIP3   OH219300   4.225   3.080   3.623  0.2499 -0.5687 -0.1610
 6448TIP3    H119301   4.240   3.167   3.585 -1.8797 -1.4817 -3.1975
 6448TIP3    H219302   4.253   3.019   3.555 -2.7520 -2.2624  0.0791
 6449TIP3   OH219303   2.578   1.021   4.743  0.0648 -0.1365  0.3317
 6449TIP3    H119304   2.555   1.007   4.835 -0.4140 -0.2383  0.1947
 6449TIP3    H219305   2.526   0.957   4.695 -0.2383  0.4138 -0.0781
 6450TIP3   OH219306   3.909   2.918   3.939  0.5915 -0.6700  0.2852
 6450TIP3    H119307   3.963   2.843   3.914  0.0974 -0.8244 -0.3166
 6450TIP3    H219308   3.972   2.990   3.948  1.4410 -1.7211  3.4333
 6451TIP3   OH219309   3.243   2.521   5.687  0.3386 -0.2908  0.3482
 6451TIP3    H119310   3.306   2.466   5.640  0.0629 -0.8350  0.5997
 6451TIP3    H219311   3.170   2.532   5.626  0.2955 -0.3936  0.3813
 6452TIP3   OH219312   2.387   0.822   4.092 -0.4851 -0.4099 -0.1672
 6452TIP3    H119313   2.343   0.814   4.007 -0.2448 -0.7765 -0.2580
 6452TIP3    H219314   2.368   0.739   4.136 -1.7466  0.3026  0.6823
 6453TIP3   OH219315   2.862   2.982   6.367  0.5277  0.4980 -0.2641
 6453TIP3    H119316   2.838   2.894   6.397  1.6596 -0.9857 -3.4273
 6453TIP3    H219317   2.902   3.024   6.443  1.2604 -2.2508  0.9162
 6454TIP3   OH219318   4.860   2.899   4.428  0.3755 -0.1549 -0.1432
 6454TIP3    H119319   4.912   2.856   4.360  0.7772 -0.6440  0.4729
 6454TIP3    H219320   4.775   2.855   4.426  1.7323 -3.0383  2.5024
 6455TIP3   OH219321   2.975   2.687   5.657  0.0563  0.3976  0.1883
 6455TIP3    H119322   2.897   2.655   5.614  0.6574 -3.6837  1.9594
 6455TIP3    H219323   2.962   2.667   5.750  2.2109  1.7438  0.8250
 6456TIP3   OH219324   4.957   2.027   3.195  0.2515 -0.3313  0.0764
 6456TIP3    H119325   4.864   2.011   3.206  0.3199  0.0806  1.3384
 6456TIP3    H219326   4.967   2.122   3.207  0.8165 -0.3453 -0.2392
 6457TIP3   OH219327   8.489   0.151   0.720  0.2127  0.5888  0.3467
 6457TIP3    H119328   8.401   0.174   0.749 -0.1614  1.3658 -1.3395
 6457TIP3    H219329   8.530   0.235   0.699  0.4310  0.0470 -1.4399
 6458TIP3   OH219330   3.758   2.009   4.057 -0.5133  0.1103 -0.4939
 6458TIP3    H119331   3.693   2.057   4.006  0.0082  0.8472 -0.4815
 6458TIP3    H219332   3.728   2.015   4.147  0.0305  1.2214 -0.3742
 6459TIP3   OH219333   3.040   2.655   6.250  0.1204 -0.5537  0.0273
 6459TIP3    H119334   2.998   2.739   6.264  1.3126  0.5194 -2.5561
 6459TIP3    H219335   3.091   2.640   6.330 -0.3972  0.9712  0.6649
 6460TIP3   OH219336   3.694   1.055   5.707 -0.2498  0.0100  0.4009
 6460TIP3    H119337   3.776   1.006   5.705 -1.3049 -1.7375 -1.6276
 6460TIP3    H219338   3.717   1.140   5.746  1.9671 -1.4217  2.3025
 6461TIP3   OH219339   2.926   2.930   5.165 -0.0597 -0.0255  0.3216
 6461TIP3    H119340   2.999   2.987   5.191  0.6920 -0.3857 -0.9467
 6461TIP3    H219341   2.849   2.987   5.168  0.6229  0.9652 -0.5422
 6462TIP3   OH219342   1.531   0.565   4.815  0.1209 -0.3347 -0.2266
 6462TIP3    H119343   1.499   0.654   4.807 -1.3683 -0.9129 -0.8176
 6462TIP3    H219344   1.493   0.532   4.896 -0.2737 -0.8068 -0.5971
 6463TIP3   OH219345   5.703   6.157   0.909 -0.3727  0.2639 -0.4297
 6463TIP3    H119346   5.621   6.112   0.928 -0.6916  0.8445 -0.4001
 6463TIP3    H219347   5.771   6.105   0.951 -0.5352 -1.1867 -1.9171
 6464TIP3   OH219348   2.679   0.705   4.987  0.1914 -0.1657  0.3160
 6464TIP3    H119349   2.644   0.663   5.065 -0.8988  0.9053  0.4059
 6464TIP3    H219350   2.618   0.682   4.917  0.7480 -0.4826 -0.0779
 6465TIP3   OH219351   4.189   3.216   3.015 -0.6133  0.2311  0.4054
 6465TIP3    H119352   4.237   3.203   2.933  1.9540  0.4250  1.8440
 6465TIP3    H219353   4.124   3.284   2.994  0.2179  0.5137 -1.3557
 6466TIP3   OH219354   4.195   3.866   4.643  0.1149 -0.2475  0.3370
 6466TIP3    H119355   4.134   3.796   4.664 -0.9373  0.7941  0.7973
 6466TIP3    H219356   4.272   3.847   4.698  0.1132 -1.3919 -0.0338
 6467TIP3   OH219357   7.640   3.134   2.374 -0.2491  0.1566  0.1908
 6467TIP3    H119358   7.559   3.184   2.367 -0.0129  0.4283 -0.7044
 6467TIP3    H219359   7.615   3.045   2.349 -0.4755  0.0131  0.9000
 6468TIP3   OH219360   1.692   1.166   3.972 -0.1591 -0.0898  0.5948
 6468TIP3    H119361   1.745   1.144   4.049  1.0139 -0.8612 -0.4180
 6468TIP3    H219362   1.613   1.206   4.008  0.7463  0.3115  2.1652
 6469TIP3   OH219363   3.496   3.770   4.505 -0.0434  0.1603  0.1057
 6469TIP3    H119364   3.457   3.763   4.418  1.6027 -0.5963 -0.5976
 6469TIP3    H219365   3.502   3.864   4.521 -0.1150  0.3070 -0.7100
 6470TIP3   OH219366   4.696   1.449   3.299 -0.1258 -0.0724  0.0635
 6470TIP3    H119367   4.680   1.370   3.350 -0.0186 -0.7751 -0.9819
 6470TIP3    H219368   4.661   1.429   3.213  1.1184  0.5238 -0.5904
 6471TIP3   OH219369   4.949   1.597   3.289  0.1595 -0.8187  0.3122
 6471TIP3    H119370   4.895   1.521   3.307 -3.1015  1.1680 -0.6720
 6471TIP3    H219371   4.901   1.645   3.222  3.1555  1.0740 -0.5974
 6472TIP3   OH219372   3.028   2.902   3.498  0.1514 -0.5547 -0.1479
 6472TIP3    H119373   3.021   2.822   3.551  0.3621  0.5071  1.5095
 6472TIP3    H219374   3.116   2.934   3.513 -0.7634  1.3889  1.2625
 6473TIP3   OH219375   3.120   3.212   5.555  0.7212  0.3000  0.1563
 6473TIP3    H119376   3.124   3.154   5.479  0.9687  2.2831 -1.3729
 6473TIP3    H219377   3.069   3.163   5.620 -2.5254 -0.0448 -2.5201
 6474TIP3   OH219378   2.934   2.577   4.641  0.1245 -0.6113 -0.1435
 6474TIP3    H119379   2.955   2.665   4.610 -0.7804 -0.1243  0.6227
 6474TIP3    H219380   2.992   2.563   4.715  0.8639 -0.9975 -0.7830
 6475TIP3   OH219381   2.716   1.677   5.313  0.8549 -0.0434 -0.0866
 6475TIP3    H119382   2.746   1.594   5.279 -0.5941 -0.2182 -0.9770
 6475TIP3    H219383   2.637   1.656   5.363  1.8895  0.4613  1.8321
 6476TIP3   OH219384   4.377   3.280   4.694  0.5787  0.6209  0.6877
 6476TIP3    H119385   4.312   3.344   4.663 -1.1865 -1.0180  0.9420
 6476TIP3    H219386   4.369   3.283   4.790 -1.2538 -1.6844  0.6564
 6477TIP3   OH219387   2.477   3.481   6.941  0.2141 -0.3582  0.3486
 6477TIP3    H119388   2.383   3.501   6.937  0.2869 -0.3139 -1.5593
 6477TIP3    H219389   2.483   3.391   6.910  0.8207 -0.3315  0.3905
 6478TIP3   OH219390   3.390   2.727   6.663  0.3731  0.1872 -0.0350
 6478TIP3    H119391   3.472   2.720   6.713 -0.5144  0.1933  1.4366
 6478TIP3    H219392   3.348   2.807   6.696 -0.1514  0.2868 -0.9155
 6479TIP3   OH219393   0.558   2.976   4.791  0.2566  0.1007  0.0422
 6479TIP3    H119394   0.622   2.906   4.804  1.1180  1.1826  1.7958
 6479TIP3    H219395   0.512   2.982   4.875  0.8025  2.2234  0.2038
 6480TIP3   OH219396   3.741   2.066   5.547 -0.0722 -1.0952 -0.0529
 6480TIP3    H119397   3.762   2.116   5.467  2.1351 -0.3872  0.9306
 6480TIP3    H219398   3.656   2.101   5.575  0.3290  0.4438 -0.7011
 6481TIP3   OH219399   2.951   1.956   4.801  0.0691 -0.7144 -0.2627
 6481TIP3    H119400   2.952   1.870   4.843 -1.1919 -0.5488  0.1163
 6481TIP3    H219401   2.929   1.939   4.710 -4.0054 -0.5154  0.5709
 6482TIP3   OH219402   3.303   2.968   3.541  0.1898 -0.0079 -0.0151
 6482TIP3    H119403   3.357   2.892   3.564 -0.2404 -0.7391 -1.3851
 6482TIP3    H219404   3.358   3.019   3.481 -0.1269 -0.0681 -0.3578
 6483TIP3   OH219405   5.683   4.414   0.100  0.0125 -0.2354 -0.0248
 6483TIP3    H119406   5.673   4.340   0.040  1.1154  0.6713 -1.3659
 6483TIP3    H219407   5.775   4.411   0.125 -0.0348  0.4558  0.2249
 6484TIP3   OH219408   3.276   2.310   5.411  0.0498  0.6056 -0.1148
 6484TIP3    H119409   3.209   2.370   5.444 -1.0421  0.2385 -1.5700
 6484TIP3    H219410   3.293   2.341   5.322 -0.6659 -1.3068 -0.9632
 6485TIP3   OH219411   1.061   2.550   5.496 -0.4155  0.2823 -0.4372
 6485TIP3    H119412   1.016   2.626   5.459 -1.8866 -0.4346 -0.1738
 6485TIP3    H219413   0.990   2.489   5.519  0.7253 -1.1421 -0.5902
 6486TIP3   OH219414   4.777   3.778   2.822 -0.5579 -0.3571 -0.5742
 6486TIP3    H119415   4.785   3.763   2.916  0.8733 -0.0315 -0.6292
 6486TIP3    H219416   4.758   3.871   2.813  1.7886  0.1344 -0.6950
 6487TIP3   OH219417   5.977   6.160  -0.022  0.2206  0.0416 -0.2338
 6487TIP3    H119418   5.980   6.149   0.073  1.7518  0.9270 -0.1669
 6487TIP3    H219419   6.066   6.142  -0.051  0.0349  0.9370 -1.3709
 6488TIP3   OH219420   0.955   1.893   6.046  0.2069  0.2416 -0.2352
 6488TIP3    H119421   0.986   1.889   5.956 -1.4427 -2.0317 -0.7606
 6488TIP3    H219422   0.888   1.962   6.045 -0.4715 -0.4133 -0.9840
 6489TIP3   OH219423   1.957   2.581   4.457 -0.1503 -0.1612  0.3444
 6489TIP3    H119424   1.881   2.609   4.508  0.3538 -0.5046  1.2850
 6489TIP3    H219425   1.980   2.496   4.494  0.2591 -0.3796 -0.4142
 6490TIP3   OH219426   2.525   1.061   5.234  0.1680 -0.2057  0.3831
 6490TIP3    H119427   2.614   1.027   5.234  0.2213 -0.0758 -0.3493
 6490TIP3    H219428   2.470   0.986   5.212  0.1982 -0.0483 -0.2501
 6491TIP3   OH219429   2.765   0.932   3.447  0.6200 -0.6583  0.3358
 6491TIP3    H119430   2.784   1.020   3.480  0.9186 -0.5385 -0.1469
 6491TIP3    H219431   2.681   0.909   3.487  0.9605 -0.5008  1.1427
 6492TIP3   OH219432   2.254   1.335   4.063 -0.1641  0.2402 -0.1921
 6492TIP3    H119433   2.223   1.245   4.057  0.2993  0.0390  0.3573
 6492TIP3    H219434   2.188   1.387   4.017  0.1942 -0.5241 -1.5842
 6493TIP3   OH219435   5.165   0.406   3.229  0.3072 -0.2059 -0.5409
 6493TIP3    H119436   5.107   0.399   3.305  1.3604 -1.4973  0.1658
 6493TIP3    H219437   5.233   0.468   3.256  0.3673 -0.2376 -0.6178
 6494TIP3   OH219438   8.003   4.524   0.728 -0.2488  0.3404  0.1197
 6494TIP3    H119439   8.061   4.455   0.761 -0.0199  0.5016  0.0490
 6494TIP3    H219440   7.927   4.476   0.694 -0.0810  0.1212  0.0513
 6495TIP3   OH219441   2.469   0.072   4.908 -0.8874 -0.0765 -0.0180
 6495TIP3    H119442   2.469   0.018   4.829 -0.3829  0.5261 -0.4376
 6495TIP3    H219443   2.390   0.127   4.900  0.2308  1.4255 -1.1207
 6496TIP3   OH219444   4.787   2.495   5.439 -0.5726  0.2621  0.2213
 6496TIP3    H119445   4.781   2.411   5.394  0.1937  0.2707  0.1052
 6496TIP3    H219446   4.712   2.495   5.500 -0.9113 -0.2479 -0.1964
 6497TIP3   OH219447   4.894   2.519   5.757  0.5580 -0.3212 -0.0324
 6497TIP3    H119448   4.834   2.524   5.682  0.7385  0.5292 -0.1200
 6497TIP3    H219449   4.874   2.434   5.797 -2.4850  1.0297  1.4390
 6498TIP3   OH219450   0.331   2.464   4.830 -0.1507 -0.5914  0.0399
 6498TIP3    H119451   0.332   2.510   4.746  1.4546 -1.7872 -0.6258
 6498TIP3    H219452   0.239   2.463   4.856 -0.4138  1.5677 -0.7008
 6499TIP3   OH219453   3.646   6.034   0.776 -0.4043 -0.5272 -0.2031
 6499TIP3    H119454   3.583   5.992   0.717  0.1980 -0.7516 -0.6908
 6499TIP3    H219455   3.593   6.064   0.850 -1.0087 -1.1712 -0.3693
 6500TIP3   OH219456   2.564   2.797   6.494 -0.6055  0.2549 -0.2148
 6500TIP3    H119457   2.604   2.735   6.433  2.0515  0.6569  1.0490
 6500TIP3    H219458   2.470   2.778   6.490 -0.0866 -2.1537 -1.7059
 6501TIP3   OH219459   2.704   0.897   3.907 -0.1993  0.1722 -0.3810
 6501TIP3    H119460   2.695   0.991   3.922  0.7817  0.4834 -1.6780
 6501TIP3    H219461   2.663   0.881   3.822 -1.0528 -0.7105  0.1821
 6502TIP3   OH219462   3.931   2.682   5.486  0.4077 -0.2540  0.4298
 6502TIP3    H119463   3.952   2.716   5.399 -0.3004  0.0189  0.3656
 6502TIP3    H219464   3.980   2.738   5.546 -0.4556  0.6455  0.3044
 6503TIP3   OH219465   2.610   2.648   6.136  0.5219 -0.1799  0.1113
 6503TIP3    H119466   2.533   2.594   6.152  0.5355  0.0646  1.0428
 6503TIP3    H219467   2.662   2.640   6.216  1.3290 -0.1184 -0.3944
 6504TIP3   OH219468   4.421   4.427   2.815 -0.3759 -0.8310  0.0332
 6504TIP3    H119469   4.462   4.513   2.829 -2.0475  0.2030 -1.2966
 6504TIP3    H219470   4.340   4.446   2.768 -0.7780 -3.1547 -0.2718
 6505TIP3   OH219471   0.292   7.626   5.050 -0.1067  0.2560 -0.1867
 6505TIP3    H119472   0.244   7.707   5.069 -0.2026  0.2834 -0.5287
 6505TIP3    H219473   0.357   7.652   4.985 -0.3655 -0.0097 -0.5560
 6506TIP3   OH219474   1.949   2.075   6.193 -0.4162 -0.4815  0.4512
 6506TIP3    H119475   1.889   2.004   6.216  1.3025 -1.8136  0.8891
 6506TIP3    H219476   2.036   2.040   6.211  0.5146  1.3731 -0.3222
 6507TIP3   OH219477   4.045   0.826   5.196  0.0215 -0.6379  0.1631
 6507TIP3    H119478   4.096   0.836   5.276  0.5529  1.1904 -0.3797
 6507TIP3    H219479   3.958   0.800   5.226  0.0504  0.6190  1.4008
 6508TIP3   OH219480   3.391   1.190   5.083 -0.0279  0.0346  0.3613
 6508TIP3    H119481   3.422   1.280   5.091 -1.6790  0.3180  5.0333
 6508TIP3    H219482   3.470   1.136   5.087  0.6694  1.1220  1.1205
 6509TIP3   OH219483   2.347   1.177   5.851  0.4062  0.6949 -0.0026
 6509TIP3    H119484   2.431   1.163   5.894  1.3558 -0.3833 -2.1606
 6509TIP3    H219485   2.354   1.132   5.767 -2.1629  0.9633 -0.4282
 6510TIP3   OH219486   1.310   0.738   4.268  0.4023  0.3271 -0.2864
 6510TIP3    H119487   1.300   0.748   4.362  0.2378 -0.4890 -0.2153
 6510TIP3    H219488   1.404   0.733   4.254  0.4098 -0.0129 -0.1160
 6511TIP3   OH219489   2.152   2.862   2.480 -0.0229 -0.0437  0.2276
 6511TIP3    H119490   2.230   2.809   2.464  0.0317  0.2126 -0.3623
 6511TIP3    H219491   2.125   2.840   2.569 -0.0888 -1.1790 -0.0709
 6512TIP3   OH219492   3.579   4.355   5.280 -0.0778 -0.2635  0.1057
 6512TIP3    H119493   3.585   4.331   5.187 -0.4680 -2.8082  0.6899
 6512TIP3    H219494   3.653   4.310   5.321 -0.0137  0.6970  1.0537
 6513TIP3   OH219495   3.045   2.131   6.268  0.6773  0.1568 -0.0906
 6513TIP3    H119496   2.967   2.075   6.262  1.6039 -1.1611 -0.1371
 6513TIP3    H219497   3.017   2.215   6.232 -0.7920 -0.2191  0.1196
 6514TIP3   OH219498   3.729   2.938   4.366  0.0578  0.0308  0.1274
 6514TIP3    H119499   3.659   2.919   4.429 -0.7320  2.2662 -0.0563
 6514TIP3    H219500   3.774   3.013   4.402 -2.2425  3.2777 -3.3514
 6515TIP3   OH219501   6.583   2.298   2.303  0.0324  0.1504 -0.1268
 6515TIP3    H119502   6.633   2.358   2.247  0.4090 -0.7203 -0.7288
 6515TIP3    H219503   6.627   2.302   2.388 -0.6945  1.6761  0.2104
 6516TIP3   OH219504   4.920   2.844   3.194 -0.1314  0.3346 -0.3138
 6516TIP3    H119505   4.835   2.879   3.166  0.0978 -0.9422 -2.6758
 6516TIP3    H219506   4.966   2.824   3.112  1.6052 -0.9991  0.9614
 6517TIP3   OH219507   4.853   2.817   5.076  0.2672 -0.7035  0.1279
 6517TIP3    H119508   4.793   2.753   5.039  1.6145 -1.5444 -0.6581
 6517TIP3    H219509   4.838   2.897   5.026 -0.7254 -0.6823  0.4515
 6518TIP3   OH219510   4.397   3.101   2.533 -0.1149 -0.4941 -0.3464
 6518TIP3    H119511   4.323   3.047   2.560  1.2781 -1.4670  1.6350
 6518TIP3    H219512   4.414   3.075   2.442 -1.2387 -1.3557 -0.3166
 6519TIP3   OH219513   2.668   1.423   2.999  0.4921 -0.0902  0.5908
 6519TIP3    H119514   2.669   1.392   2.909  0.5826  0.1973  0.4918
 6519TIP3    H219515   2.759   1.451   3.015  0.7710 -1.3090  1.1739
 6520TIP3   OH219516   5.133   1.011   4.017 -0.0449 -0.4867  0.2798
 6520TIP3    H119517   5.101   0.996   4.106  0.9495  0.5867  0.8393
 6520TIP3    H219518   5.158   1.103   4.015  0.8965 -0.7446 -0.7990
 6521TIP3   OH219519   1.159   0.571   4.089 -0.2070  0.3479  0.7625
 6521TIP3    H119520   1.150   0.478   4.107  2.0531  0.0855  0.7298
 6521TIP3    H219521   1.205   0.606   4.165 -0.3661  1.2816  0.4362
 6522TIP3   OH219522   6.403   2.730   6.189 -0.4748 -0.2493  0.1498
 6522TIP3    H119523   6.316   2.691   6.190 -1.1827  1.2966  0.3040
 6522TIP3    H219524   6.459   2.666   6.232 -1.2677 -1.8530 -1.1229
 6523TIP3   OH219525   4.283   0.828   2.914  0.0002  0.4216 -0.1913
 6523TIP3    H119526   4.286   0.924   2.910 -0.3632  0.4952  1.1308
 6523TIP3    H219527   4.298   0.807   3.006  2.4239 -0.9195 -0.8627
 6524TIP3   OH219528   4.525   1.181   6.585 -0.2738  0.1045 -0.0044
 6524TIP3    H119529   4.449   1.146   6.631  0.0500 -1.0394 -0.3293
 6524TIP3    H219530   4.572   1.104   6.554 -0.6968  0.8457 -2.6087
 6525TIP3   OH219531   3.136   3.488   4.458  0.1023 -0.2498 -0.8597
 6525TIP3    H119532   3.166   3.409   4.413  1.6656 -0.3792  0.3443
 6525TIP3    H219533   3.041   3.478   4.464  0.1035 -1.1973 -2.2666
 6526TIP3   OH219534   5.073   3.074   6.195  0.4791  0.4931 -0.0512
 6526TIP3    H119535   5.079   3.142   6.128  1.3211 -1.1799 -1.7214
 6526TIP3    H219536   5.067   2.992   6.146  1.2876 -0.7814  1.9066
 6527TIP3   OH219537   2.784   2.991   4.505 -0.1904  0.1194  0.3251
 6527TIP3    H119538   2.721   3.062   4.515  0.3226  0.6573 -0.2576
 6527TIP3    H219539   2.840   2.997   4.582 -0.4601  0.0205  0.5327
 6528TIP3   OH219540   4.518   0.975   6.056  0.0362  0.2091  0.1509
 6528TIP3    H119541   4.459   0.992   6.130  1.2165  1.2538  0.8799
 6528TIP3    H219542   4.467   0.995   5.978 -1.5071 -1.7117  0.6254
 6529TIP3   OH219543   3.169   2.216   4.887 -0.2506  0.5022  0.2594
 6529TIP3    H119544   3.165   2.217   4.791 -0.5145 -1.0024  0.2334
 6529TIP3    H219545   3.100   2.154   4.912  1.2996 -0.8333  1.3194
 6530TIP3   OH219546   2.603   1.869   4.559 -0.7265  0.1571  0.0224
 6530TIP3    H119547   2.698   1.864   4.552 -0.6859 -0.4792  0.9643
 6530TIP3    H219548   2.585   1.959   4.584 -0.4189  0.4768 -0.9030
 6531TIP3   OH219549   6.626   7.297   0.264  0.3144  0.4392 -0.7813
 6531TIP3    H119550   6.569   7.244   0.320  1.4941 -0.4301 -0.3824
 6531TIP3    H219551   6.703   7.313   0.318  0.9900  0.5302 -1.7729
 6532TIP3   OH219552   6.069   5.362   0.079 -0.0134 -0.4301  0.0422
 6532TIP3    H119553   6.041   5.350   0.170 -2.7660 -0.3409 -0.7673
 6532TIP3    H219554   6.013   5.304   0.028  0.8421  0.2437 -1.7078
 6533TIP3   OH219555   5.974   2.683   3.944 -0.3361 -0.1368 -0.3418
 6533TIP3    H119556   5.910   2.743   3.905 -2.1810 -1.0005  1.2539
 6533TIP3    H219557   5.977   2.609   3.883 -1.1799 -0.2723 -0.2267
 6534TIP3   OH219558   1.888   2.218   6.483  0.1477  0.2740 -0.0844
 6534TIP3    H119559   1.924   2.151   6.542 -0.0414 -0.1753 -0.4703
 6534TIP3    H219560   1.925   2.196   6.397  0.0314  0.6264 -0.2223
 6535TIP3   OH219561   3.924   3.202   4.188  0.7661 -0.4751 -0.2393
 6535TIP3    H119562   3.838   3.162   4.173  1.0571 -1.3912  0.4726
 6535TIP3    H219563   3.935   3.199   4.283  1.7788 -0.7653 -0.3607
 6536TIP3   OH219564   1.764   1.368   5.339  0.4405  0.3325  0.0246
 6536TIP3    H119565   1.734   1.297   5.396 -2.0579 -0.1225 -1.8036
 6536TIP3    H219566   1.728   1.448   5.378 -0.0641  0.1684 -0.1009
 6537TIP3   OH219567   1.235   4.032   4.937  0.3948  0.3224  0.3844
 6537TIP3    H119568   1.214   3.949   4.894  2.6117 -0.1568  0.1338
 6537TIP3    H219569   1.190   4.098   4.885  1.0062 -0.4883 -1.2234
 6538TIP3   OH219570   2.638   3.359   5.753 -0.1152 -0.3166 -1.0504
 6538TIP3    H119571   2.714   3.315   5.790 -0.1844  0.3889 -0.0538
 6538TIP3    H219572   2.674   3.415   5.684  0.1345 -0.8629 -1.3619
 6539TIP3   OH219573   5.400   7.102   1.505  0.5479  0.1276 -0.4666
 6539TIP3    H119574   5.363   7.068   1.587  0.8547  0.4661 -0.1878
 6539TIP3    H219575   5.494   7.092   1.515  0.6473  1.2133 -0.3142
 6540TIP3   OH219576   0.134   1.590   4.568  0.0346 -0.8791  0.7857
 6540TIP3    H119577   0.200   1.657   4.552 -0.5044 -0.6515 -0.5501
 6540TIP3    H219578   0.072   1.631   4.628 -0.1426 -0.2725  0.1917
 6541TIP3   OH219579   5.994   0.287   4.637 -0.1020 -0.1825  0.0555
 6541TIP3    H119580   5.902   0.290   4.663  0.0800  0.2891  0.6650
 6541TIP3    H219581   6.043   0.291   4.720  0.4721  0.2658 -0.2988
 6542TIP3   OH219582   6.380   6.780   0.370 -0.0446  0.1094 -0.7486
 6542TIP3    H119583   6.397   6.695   0.330  1.3264 -0.2233  0.4940
 6542TIP3    H219584   6.291   6.802   0.342 -1.2799 -2.7508  0.6687
 6543TIP3   OH219585   0.883   3.636   4.943  0.3115 -0.2654 -0.1974
 6543TIP3    H119586   0.919   3.626   5.031 -0.5876 -0.4793  0.1531
 6543TIP3    H219587   0.911   3.557   4.897  0.3396 -0.4019  0.0513
 6544TIP3   OH219588   4.066   3.418   4.599  0.0680  0.1689  0.0084
 6544TIP3    H119589   4.086   3.395   4.508 -1.2151 -0.6634 -0.0705
 6544TIP3    H219590   3.983   3.375   4.617  0.4497  0.1050  1.6740
 6545TIP3   OH219591   6.945   7.076   0.557  0.0913  0.3720  0.4343
 6545TIP3    H119592   6.930   7.160   0.513 -0.0564 -0.3079 -0.8258
 6545TIP3    H219593   7.037   7.056   0.540 -0.3376 -0.5818 -0.7682
 6546TIP3   OH219594   2.569   2.927   5.735  0.2829 -0.4833  0.2696
 6546TIP3    H119595   2.578   2.853   5.794 -1.5622 -1.8147 -1.0540
 6546TIP3    H219596   2.631   2.909   5.664  1.6057  0.5017  1.1421
 6547TIP3   OH219597   1.428   4.129   5.149 -0.0164  0.2495 -0.2205
 6547TIP3    H119598   1.369   4.127   5.074  0.3185 -0.4584 -0.4678
 6547TIP3    H219599   1.485   4.203   5.133 -0.7050  0.8183 -0.0789
 6548TIP3   OH219600   1.818   2.154   4.722 -0.1699  0.2154  0.5502
 6548TIP3    H119601   1.825   2.244   4.754  1.1132  0.8083 -1.3596
 6548TIP3    H219602   1.907   2.121   4.723 -0.6358 -1.0636  1.2437
 6549TIP3   OH219603   1.985   3.461   5.120 -0.0315 -0.2433 -0.3309
 6549TIP3    H119604   1.961   3.408   5.196 -0.4784  0.4363  0.0167
 6549TIP3    H219605   1.906   3.462   5.066 -0.5364  1.3067  0.4052
 6550TIP3   OH219606   3.500   2.791   3.545 -0.3695  0.2998  0.0650
 6550TIP3    H119607   3.590   2.761   3.557 -1.2404 -1.4820  2.3739
 6550TIP3    H219608   3.449   2.711   3.531 -1.8104  1.1779  0.1383
 6551TIP3   OH219609   2.808   1.509   4.070 -0.0210 -0.8083  0.3694
 6551TIP3    H119610   2.825   1.525   3.977  1.1284  0.8295  0.8322
 6551TIP3    H219611   2.718   1.478   4.073 -0.2132 -0.4605 -1.2570
 6552TIP3   OH219612   3.761   2.522   6.379  0.4524 -0.2499  0.1512
 6552TIP3    H119613   3.785   2.582   6.449  1.6077 -0.9153  0.3468
 6552TIP3    H219614   3.835   2.524   6.319  0.2791 -1.0763 -0.1033
 6553TIP3   OH219615   1.951   1.010   6.411 -0.5548 -0.0489  0.5495
 6553TIP3    H119616   2.016   1.040   6.475 -0.4312 -0.2484  0.5171
 6553TIP3    H219617   2.000   0.953   6.352 -0.6897  0.0594  0.3329
 6554TIP3   OH219618   3.088   1.680   3.920  0.1208  0.6749 -0.2515
 6554TIP3    H119619   3.097   1.765   3.876  0.1739  0.5445 -0.4871
 6554TIP3    H219620   3.170   1.671   3.970 -0.0846  0.9800  0.1500
 6555TIP3   OH219621   4.099   1.718   4.163  0.2815 -0.2219 -0.1851
 6555TIP3    H119622   4.057   1.804   4.156  0.3284  0.0401  2.3021
 6555TIP3    H219623   4.159   1.714   4.088 -0.3065  1.5628 -0.7730
 6556TIP3   OH219624   2.985   0.506   3.722  0.6092  0.3774 -0.2696
 6556TIP3    H119625   2.947   0.479   3.805 -2.8683  0.1944 -1.8268
 6556TIP3    H219626   3.053   0.441   3.704  1.0076  0.1000  2.1215
 6557TIP3   OH219627   0.740   7.295   3.863 -0.3081 -0.3706 -0.2125
 6557TIP3    H119628   0.684   7.302   3.940 -0.2402 -1.5763 -0.0506
 6557TIP3    H219629   0.680   7.268   3.793 -0.6006  1.8659 -0.8763
 6558TIP3   OH219630   2.262   2.493   3.806  0.0572 -0.5700 -0.4571
 6558TIP3    H119631   2.282   2.448   3.888  1.5193 -2.4400 -1.8147
 6558TIP3    H219632   2.167   2.507   3.809  0.1559 -0.1182  1.7731
 6559TIP3   OH219633   1.982   1.203   5.913 -0.5903  0.1166  0.4047
 6559TIP3    H119634   1.906   1.173   5.963 -1.3231 -0.6492 -1.1127
 6559TIP3    H219635   2.058   1.172   5.962 -1.3103 -1.7717  0.3665
 6560TIP3   OH219636   1.860   0.033   3.304 -0.5437 -0.3954  0.0240
 6560TIP3    H119637   1.808   0.057   3.226 -1.2919 -2.4997 -0.1476
 6560TIP3    H219638   1.795   0.026   3.374 -0.0345  0.1746  0.5615
 6561TIP3   OH219639   2.955   3.695   4.700 -0.1410  0.2998  0.2484
 6561TIP3    H119640   2.879   3.643   4.674  0.0221  0.9894 -1.7375
 6561TIP3    H219641   2.929   3.785   4.681  0.9875  0.5875  0.0268
 6562TIP3   OH219642   3.621   4.316   4.794  0.2512  0.5546  0.7320
 6562TIP3    H119643   3.694   4.277   4.748 -1.0929 -2.2854  0.9036
 6562TIP3    H219644   3.650   4.321   4.885  0.1540 -0.8111  0.8451
 6563TIP3   OH219645   1.106   0.495   5.366  0.2370 -0.6501  0.3643
 6563TIP3    H119646   1.087   0.509   5.458  0.1671  1.4720  0.0410
 6563TIP3    H219647   1.202   0.490   5.361  0.3240  0.9031  0.3362
 6564TIP3   OH219648   1.824   7.589   6.882 -0.0488 -0.0731 -0.0766
 6564TIP3    H119649   1.768   7.576   6.806  0.1699  1.1821 -0.4582
 6564TIP3    H219650   1.905   7.627   6.847  0.7979 -1.2559  0.5511
 6565TIP3   OH219651   2.266   1.584   3.393  0.3719  0.8046  0.1443
 6565TIP3    H119652   2.288   1.545   3.308 -1.2156 -2.4778  1.1468
 6565TIP3    H219653   2.340   1.563   3.449  0.2540  0.6722  0.2510
 6566TIP3   OH219654   2.633   0.749   6.015 -0.0151 -0.3281  0.0556
 6566TIP3    H119655   2.698   0.694   5.970  0.3031 -0.2118  0.3759
 6566TIP3    H219656   2.559   0.752   5.954  0.3932 -0.2165 -0.4441
 6567TIP3   OH219657   4.066   2.543   5.876  0.3056 -0.0815  0.1479
 6567TIP3    H119658   4.061   2.461   5.925  1.3798 -1.1524 -1.5258
 6567TIP3    H219659   3.984   2.546   5.827 -0.3851  0.5757  1.3110
 6568TIP3   OH219660   6.226   3.305   2.418  0.0765 -0.1473 -0.1157
 6568TIP3    H119661   6.154   3.249   2.447 -0.6016  0.5065 -0.5264
 6568TIP3    H219662   6.201   3.393   2.446 -0.3936  0.4387 -2.2849
 6569TIP3   OH219663   1.624   7.813   4.806 -0.5191  0.0156  0.1180
 6569TIP3    H119664   1.692   7.845   4.866 -0.3720 -2.5355  1.3481
 6569TIP3    H219665   1.668   7.810   4.721  0.2492  0.4738  0.4879
 6570TIP3   OH219666   5.357   1.861   4.734 -0.2354 -0.0255 -0.2881
 6570TIP3    H119667   5.323   1.908   4.658 -3.4825  2.8700  2.7815
 6570TIP3    H219668   5.438   1.907   4.758  0.5577 -0.6816 -1.6510
 6571TIP3   OH219669   4.029   0.041   5.666 -0.0423 -0.1012  0.9389
 6571TIP3    H119670   3.939   0.010   5.656 -0.6295  1.9660 -0.5981
 6571TIP3    H219671   4.044   0.095   5.588  2.0334  0.7390  1.8926
 6572TIP3   OH219672   4.061   3.553   3.640 -0.4185  0.3007  0.7256
 6572TIP3    H119673   4.135   3.492   3.644 -1.8865 -1.5518  0.4503
 6572TIP3    H219674   4.082   3.612   3.567  0.1906 -1.0417 -0.2048
 6573TIP3   OH219675   3.044   2.669   2.615  0.3813  0.7892 -0.6591
 6573TIP3    H119676   3.046   2.592   2.558 -0.4419  0.5349 -0.3622
 6573TIP3    H219677   3.055   2.743   2.555  0.3333  0.4824 -1.0556
 6574TIP3   OH219678   4.312   1.346   4.635 -0.0654 -0.5707 -0.4471
 6574TIP3    H119679   4.339   1.342   4.543  1.8928  0.6661  0.0494
 6574TIP3    H219680   4.352   1.269   4.675 -3.7047 -3.0291 -1.2665
 6575TIP3   OH219681   4.795   3.308   4.638  0.0680 -0.2123 -0.0723
 6575TIP3    H119682   4.715   3.270   4.674  0.0122  1.2395  1.3811
 6575TIP3    H219683   4.845   3.232   4.606 -1.8224 -1.1383 -0.8969
 6576TIP3   OH219684   5.812   2.166   4.797  0.1085  0.4632 -0.2479
 6576TIP3    H119685   5.887   2.121   4.836 -1.2462 -0.7043  1.1045
 6576TIP3    H219686   5.831   2.169   4.703  2.7512  1.9810  0.2944
 6577TIP3   OH219687   5.069   1.473   3.680  0.3912  0.0179  0.1991
 6577TIP3    H119688   4.996   1.528   3.652 -0.7088 -1.0610  0.9062
 6577TIP3    H219689   5.147   1.519   3.649 -0.3547  3.2159  2.7777
 6578TIP3   OH219690   4.283   2.146   4.916 -0.0567  0.0461  0.6042
 6578TIP3    H119691   4.377   2.128   4.905 -0.1834  0.4935 -1.4063
 6578TIP3    H219692   4.249   2.149   4.827 -1.4331  2.8519  1.1740
 6579TIP3   OH219693   7.883   6.543   0.740  0.1082  0.2358 -0.1354
 6579TIP3    H119694   7.826   6.527   0.815 -0.9721  0.7380 -0.8242
 6579TIP3    H219695   7.850   6.485   0.672  0.2931  0.6742 -0.6043
 6580TIP3   OH219696   6.041   1.787   1.886  0.4798 -0.1712  0.1974
 6580TIP3    H119697   6.010   1.697   1.876 -2.3017  0.8467 -0.9170
 6580TIP3    H219698   5.972   1.831   1.936  2.1181  1.2103  1.3257
 6581TIP3   OH219699   4.951   1.131   6.146 -0.4515 -0.0950 -0.5666
 6581TIP3    H119700   4.952   1.039   6.172 -2.9168 -0.4815 -1.6713
 6581TIP3    H219701   4.874   1.140   6.090 -0.0599  2.5762 -0.7885
 6582TIP3   OH219702   4.853   2.460   2.152 -0.0618  0.2525  0.5580
 6582TIP3    H119703   4.810   2.406   2.218 -0.3547  1.1184  1.0874
 6582TIP3    H219704   4.801   2.540   2.149 -1.4065 -0.6351 -2.3420
 6583TIP3   OH219705   7.367   3.490   3.914 -0.1682  0.0159  0.0609
 6583TIP3    H119706   7.423   3.424   3.955  1.2891  0.8094 -0.6171
 6583TIP3    H219707   7.331   3.448   3.836 -2.3946 -1.2692  1.7280
 6584TIP3   OH219708   4.932   3.838   5.381  0.3396  0.6581 -0.1122
 6584TIP3    H119709   4.855   3.868   5.333  0.9608  0.6852 -1.0983
 6584TIP3    H219710   5.001   3.900   5.358  0.5816  0.8508  1.0553
 6585TIP3   OH219711   5.126   1.923   4.415  0.0564 -0.4601 -0.3854
 6585TIP3    H119712   5.084   1.876   4.343  0.6758  1.1471 -1.8276
 6585TIP3    H219713   5.216   1.936   4.386 -0.0863  1.5561 -0.0414
 6586TIP3   OH219714   3.993   3.255   3.628  0.2675 -0.7539 -0.3619
 6586TIP3    H119715   4.065   3.196   3.651 -0.1209 -0.8886  0.5496
 6586TIP3    H219716   3.952   3.276   3.712 -0.1081  0.1587 -0.7680
 6587TIP3   OH219717   2.860   0.201   2.419  0.0413 -0.1740 -0.0008
 6587TIP3    H119718   2.927   0.226   2.355 -0.6769  0.3344 -0.5651
 6587TIP3    H219719   2.906   0.146   2.482  1.4028  1.5784  0.5830
 6588TIP3   OH219720   6.151   1.179   6.462  0.2525 -0.2006  0.1760
 6588TIP3    H119721   6.174   1.139   6.546  1.0475 -0.0642  0.0277
 6588TIP3    H219722   6.139   1.105   6.403  1.5125 -0.2339 -0.0462
 6589TIP3   OH219723   5.367   2.842   3.830 -0.0365 -0.2038  0.1624
 6589TIP3    H119724   5.280   2.882   3.827 -0.2042 -0.6272 -0.8048
 6589TIP3    H219725   5.415   2.894   3.895 -0.7449  0.5703  0.0782
 6590TIP3   OH219726   3.556   2.130   2.676 -0.2721 -0.0273 -0.2106
 6590TIP3    H119727   3.560   2.062   2.743 -0.2649  0.2557  0.0749
 6590TIP3    H219728   3.627   2.109   2.616 -1.5213 -1.4513 -1.2432
 6591TIP3   OH219729   5.377   3.530   4.223 -0.2117 -0.6728  0.2676
 6591TIP3    H119730   5.421   3.486   4.149  0.1166 -0.0641  0.1007
 6591TIP3    H219731   5.306   3.470   4.247 -0.1799 -0.9833 -0.3975
 6592TIP3   OH219732   6.391   0.042   2.499 -0.0829 -0.9766  0.1237
 6592TIP3    H119733   6.340   0.054   2.419 -0.5822  0.0182  0.5778
 6592TIP3    H219734   6.338   0.081   2.568  0.3198 -1.8626  0.9600
 6593TIP3   OH219735   4.132   0.884   3.206  0.5369 -0.2672 -0.2750
 6593TIP3    H119736   4.070   0.938   3.254  1.5096  0.6626 -0.0727
 6593TIP3    H219737   4.189   0.946   3.161  0.3675 -1.1143 -1.7179
 6594TIP3   OH219738   7.759   2.363   2.638 -1.0658  0.3754  0.1003
 6594TIP3    H119739   7.781   2.283   2.591  0.1651 -0.1916  1.6279
 6594TIP3    H219740   7.673   2.389   2.603 -0.5660 -0.5039 -1.8219
 6595TIP3   OH219741   1.956   2.228   4.191  0.1615  0.4664  0.4148
 6595TIP3    H119742   1.872   2.270   4.173  0.8903  1.7523 -0.0489
 6595TIP3    H219743   1.933   2.141   4.224 -1.3212  0.4368 -0.6653
 6596TIP3   OH219744   6.016   2.960   3.298  0.4267  0.0411  0.8351
 6596TIP3    H119745   5.996   2.886   3.241 -0.3365 -0.2895  1.5251
 6596TIP3    H219746   6.069   2.923   3.369  0.9327  0.3501  0.6155
 6597TIP3   OH219747   6.387   1.299   1.977  0.3582  0.7506  0.3958
 6597TIP3    H119748   6.330   1.235   2.020  0.4581  0.4983  0.1520
 6597TIP3    H219749   6.357   1.384   2.011  0.7282  0.5227  1.3117
 6598TIP3   OH219750   4.362   2.550   2.558 -0.1478  0.0671 -0.4774
 6598TIP3    H119751   4.440   2.531   2.610 -0.2556  2.2439  0.5093
 6598TIP3    H219752   4.290   2.549   2.621 -0.9154 -1.7352 -1.3476
 6599TIP3   OH219753   5.880   1.274   3.314 -0.3985  0.0696  0.1369
 6599TIP3    H119754   5.925   1.191   3.326  1.1027  0.4542 -2.4099
 6599TIP3    H219755   5.948   1.333   3.281 -1.7232  1.9691  0.7468
 6600TIP3   OH219756   3.955   2.925   1.434  0.3705 -0.3798 -0.1889
 6600TIP3    H119757   4.031   2.982   1.428  0.2048  0.1151  1.8599
 6600TIP3    H219758   3.984   2.842   1.398  1.1326  0.5014 -1.6331
 6601TIP3   OH219759   7.270   2.627   4.242 -0.0146  0.0928 -0.6432
 6601TIP3    H119760   7.256   2.722   4.237 -0.3628  0.2230  2.3613
 6601TIP3    H219761   7.186   2.592   4.273  1.1999 -0.8168  1.6692
 6602TIP3   OH219762   3.535   3.487   2.760  0.5434 -0.0648  0.0701
 6602TIP3    H119763   3.608   3.428   2.782 -0.1362 -0.6873  0.6689
 6602TIP3    H219764   3.487   3.497   2.842  0.5452  1.1918 -0.0719
 6603TIP3   OH219765   5.558   3.233   4.684  0.2620  0.1541  0.0500
 6603TIP3    H119766   5.596   3.301   4.740  0.7009 -0.1296  0.1031
 6603TIP3    H219767   5.630   3.171   4.671  0.0696  0.0570 -0.5643
 6604TIP3   OH219768   4.392   0.493   3.506  0.1473  0.5242 -0.1109
 6604TIP3    H119769   4.422   0.514   3.418  0.5930  0.6690  0.0765
 6604TIP3    H219770   4.354   0.575   3.539  0.0456  0.4891 -0.1388
 6605TIP3   OH219771   1.213   4.433   2.004  0.5871  0.9106 -0.4432
 6605TIP3    H119772   1.270   4.485   1.947  0.3408  1.2260 -0.4041
 6605TIP3    H219773   1.169   4.498   2.059  0.1711  0.6658 -0.4898
 6606TIP3   OH219774   4.520   0.715   2.602  0.1240  0.0752 -0.2270
 6606TIP3    H119775   4.452   0.781   2.588 -0.4111 -0.7078 -1.3360
 6606TIP3    H219776   4.502   0.681   2.689 -0.5012  0.3466 -0.2436
 6607TIP3   OH219777   5.113   3.825   3.367  0.4090 -0.2734 -0.0341
 6607TIP3    H119778   5.202   3.858   3.356  0.5083 -0.8679 -1.1041
 6607TIP3    H219779   5.093   3.783   3.283 -0.2383 -1.6718  0.8047
 6608TIP3   OH219780   2.561   0.315   0.168  0.2484  0.4735  0.3262
 6608TIP3    H119781   2.523   0.269   0.243  1.9773 -0.7196  0.5107
 6608TIP3    H219782   2.536   0.406   0.180 -1.4571 -0.0841  1.1039
 6609TIP3   OH219783   6.802   3.208   5.352  0.9950  0.3165  0.0782
 6609TIP3    H119784   6.746   3.221   5.429  1.0384 -0.9910  0.3368
 6609TIP3    H219785   6.891   3.217   5.385  0.9835  0.7462 -0.0104
 6610TIP3   OH219786   3.404   4.942   5.218 -0.0730  0.4522  0.0362
 6610TIP3    H119787   3.375   5.015   5.273 -0.6861  0.3758 -0.1880
 6610TIP3    H219788   3.361   4.956   5.134 -1.0068 -0.7222  0.2991
 6611TIP3   OH219789   5.762   1.943   1.702 -0.4362  0.4152  0.6632
 6611TIP3    H119790   5.846   1.901   1.685  0.2507  1.9149  0.2520
 6611TIP3    H219791   5.712   1.931   1.622 -0.3647  0.0710  0.6728
 6612TIP3   OH219792   4.682   1.960   3.217  0.1716 -0.2174 -0.4533
 6612TIP3    H119793   4.659   1.905   3.293 -1.9971 -0.6012 -1.3410
 6612TIP3    H219794   4.645   2.046   3.239  1.6019  0.3026 -0.0554
 6613TIP3   OH219795   7.547   1.698   4.395 -0.0413  0.0439 -0.0701
 6613TIP3    H119796   7.641   1.698   4.414 -0.1111 -0.8927  0.2807
 6613TIP3    H219797   7.534   1.774   4.337  0.8564  0.4218  0.2191
 6614TIP3   OH219798   4.099   1.860   5.058  0.0210 -0.1954 -0.0794
 6614TIP3    H119799   4.188   1.846   5.027 -0.3995  0.1500 -1.4646
 6614TIP3    H219800   4.059   1.917   4.993 -1.6835 -1.5754 -0.2777
 6615TIP3   OH219801   4.783   4.155   5.345 -0.0829  0.0395  0.3849
 6615TIP3    H119802   4.748   4.245   5.343  0.7360  0.3430 -0.4889
 6615TIP3    H219803   4.707   4.101   5.365 -0.8990  0.7723 -0.6760
 6616TIP3   OH219804   6.455   3.808   4.317 -0.0230  0.5325 -0.2554
 6616TIP3    H119805   6.547   3.796   4.293 -0.0690  1.5543 -1.0101
 6616TIP3    H219806   6.439   3.901   4.302 -1.1063  0.4151  0.1435
 6617TIP3   OH219807   7.418   2.072   3.905 -0.4234 -0.5962 -0.0473
 6617TIP3    H119808   7.495   2.092   3.853 -0.4204 -0.4185  0.0257
 6617TIP3    H219809   7.435   2.113   3.990 -1.7444  1.7258 -0.8485
 6618TIP3   OH219810   2.465   3.783   3.221 -0.2131  0.1369  0.1949
 6618TIP3    H119811   2.460   3.823   3.307 -0.0399 -1.2862  0.8865
 6618TIP3    H219812   2.461   3.856   3.160 -1.4945  1.0754  1.3702
 6619TIP3   OH219813   4.677   2.771   6.025 -0.2171 -0.1973 -0.2701
 6619TIP3    H119814   4.644   2.786   5.936  0.0584 -0.7036 -0.4635
 6619TIP3    H219815   4.600   2.741   6.074 -0.7331  1.6572  0.0865
 6620TIP3   OH219816   7.114   4.049   3.238  0.3259  0.6104  0.4617
 6620TIP3    H119817   7.203   4.074   3.214  1.1848 -1.4652  1.3871
 6620TIP3    H219818   7.082   3.998   3.164 -0.3358  1.8440 -0.1248
 6621TIP3   OH219819   4.582   4.661   2.769 -0.3260  0.0854 -0.2411
 6621TIP3    H119820   4.563   4.681   2.677 -2.0933  1.2532  0.3395
 6621TIP3    H219821   4.594   4.747   2.809 -3.0087 -0.1872  1.2874
 6622TIP3   OH219822   6.932   4.104   3.841  0.1605  0.1178 -0.2841
 6622TIP3    H119823   6.837   4.102   3.829 -0.2408  2.3759  1.8926
 6622TIP3    H219824   6.963   4.020   3.809 -2.7786 -1.3107  0.4743
 6623TIP3   OH219825   3.329   1.954   3.990  0.4172 -0.3822 -0.4065
 6623TIP3    H119826   3.375   1.963   4.073  0.2562  2.1828 -0.5537
 6623TIP3    H219827   3.240   1.985   4.008  0.5609  0.8321 -1.6440
 6624TIP3   OH219828   4.281   3.337   3.488 -0.0527 -0.2992 -0.6283
 6624TIP3    H119829   4.267   3.427   3.459  1.0643 -0.4076 -1.5308
 6624TIP3    H219830   4.244   3.283   3.419 -0.1542 -0.5379 -0.3901
 6625TIP3   OH219831   5.388   0.329   5.720 -0.6283 -0.1477 -0.0658
 6625TIP3    H119832   5.383   0.381   5.800 -1.8540  1.2715 -1.0399
 6625TIP3    H219833   5.305   0.281   5.718 -0.1079 -1.0647  0.0992
 6626TIP3   OH219834   5.703   2.849   6.552 -0.1371 -0.5015  0.2219
 6626TIP3    H119835   5.738   2.797   6.480  0.4266  1.6424 -1.0831
 6626TIP3    H219836   5.652   2.918   6.511  1.8977  2.0229  1.7123
 6627TIP3   OH219837   4.879   2.661   3.391 -0.6497 -0.1224 -0.1039
 6627TIP3    H119838   4.876   2.728   3.323 -0.2894 -0.2249 -0.2201
 6627TIP3    H219839   4.947   2.600   3.363 -0.6663 -0.2982  0.2258
 6628TIP3   OH219840   4.823   1.222   5.115 -0.9319  0.6417  0.2320
 6628TIP3    H119841   4.808   1.182   5.029  1.2705  0.3865 -0.0532
 6628TIP3    H219842   4.903   1.273   5.104 -0.6641  0.6524  2.1353
 6629TIP3   OH219843   5.471   1.367   3.801 -0.0504 -0.6973  0.0996
 6629TIP3    H119844   5.472   1.363   3.897  0.9194  0.0031  0.1276
 6629TIP3    H219845   5.555   1.328   3.775  0.7538  1.2672 -0.3579
 6630TIP3   OH219846   4.397   0.359   3.048 -0.2097 -0.0207  0.1989
 6630TIP3    H119847   4.470   0.417   3.071 -0.6943  0.4555  0.5493
 6630TIP3    H219848   4.319   0.403   3.083 -0.5909 -0.8394  0.3979
 6631TIP3   OH219849   4.532   1.845   3.028 -0.4930 -0.5920  0.0211
 6631TIP3    H119850   4.599   1.873   3.091  0.0713  0.1352 -0.8902
 6631TIP3    H219851   4.465   1.803   3.082 -0.8966  1.6689  1.3265
 6632TIP3   OH219852   6.029   2.962   4.422  0.0653  0.3637  0.1945
 6632TIP3    H119853   6.096   2.993   4.360  1.6682 -2.3206  0.4842
 6632TIP3    H219854   6.077   2.905   4.482 -2.1186  0.1088  1.7391
 6633TIP3   OH219855   5.150   1.870   3.464  0.3133 -0.2194  0.3375
 6633TIP3    H119856   5.149   1.957   3.505  0.4920 -0.6691  1.3262
 6633TIP3    H219857   5.104   1.881   3.382 -0.0099  0.7286  0.6423
 6634TIP3   OH219858   4.303   2.469   3.993 -0.1317  0.3009 -0.1505
 6634TIP3    H119859   4.227   2.494   4.046 -0.6808  0.0759 -0.8329
 6634TIP3    H219860   4.282   2.498   3.904  0.0528 -0.8416 -0.5782
 6635TIP3   OH219861   4.551   2.570   1.501  0.1512  0.1698  0.2742
 6635TIP3    H119862   4.552   2.478   1.475 -1.0293  0.3420 -0.4289
 6635TIP3    H219863   4.634   2.605   1.471 -0.4504 -0.0621 -1.7383
 6636TIP3   OH219864   5.325   1.178   2.727  0.1150  0.0628 -0.4239
 6636TIP3    H119865   5.304   1.087   2.707 -1.0949  0.0567  0.7815
 6636TIP3    H219866   5.386   1.172   2.801 -0.0506  0.2348 -0.2744
 6637TIP3   OH219867   6.005   1.599   4.427 -0.6045 -0.2904 -0.2048
 6637TIP3    H119868   6.044   1.633   4.507 -1.0818 -0.2443  0.0072
 6637TIP3    H219869   5.916   1.635   4.425 -0.0798  0.9800 -1.5533
 6638TIP3   OH219870   4.825   1.125   3.202 -0.1273  0.3085 -0.1357
 6638TIP3    H119871   4.811   1.127   3.296 -0.6069  1.5198 -0.2234
 6638TIP3    H219872   4.751   1.174   3.166  0.0581 -0.1355 -1.1472
 6639TIP3   OH219873   3.267   1.534   4.796 -0.1014  0.2350 -0.3916
 6639TIP3    H119874   3.280   1.491   4.712  3.3970  0.2308  0.0597
 6639TIP3    H219875   3.328   1.608   4.795  2.1611 -1.4165  3.2080
 6640TIP3   OH219876   5.219   3.714   5.013  0.6370 -0.1888  0.0167
 6640TIP3    H119877   5.223   3.809   5.014 -0.5480 -0.1353  0.8122
 6640TIP3    H219878   5.150   3.692   5.076  0.1575 -1.5249 -0.9431
 6641TIP3   OH219879   4.814   0.594   4.730  0.3657 -0.1854 -0.0400
 6641TIP3    H119880   4.778   0.635   4.651  0.1555 -1.2911 -0.5231
 6641TIP3    H219881   4.909   0.598   4.718  0.3537  0.4385  0.0606
 6642TIP3   OH219882   6.077   2.878   3.675 -0.2724 -0.4889 -0.0612
 6642TIP3    H119883   6.077   2.959   3.624  1.2298 -0.3699  0.0982
 6642TIP3    H219884   6.009   2.824   3.634 -0.1419  0.2027 -1.2181
 6643TIP3   OH219885   5.209   0.846   3.642 -0.3684  0.3020  0.2193
 6643TIP3    H119886   5.195   0.874   3.552 -1.5391 -1.4416 -0.1697
 6643TIP3    H219887   5.127   0.866   3.687  0.1133  0.9142  0.8365
 6644TIP3   OH219888   6.488   2.700   6.879  0.3165 -0.1937 -0.2748
 6644TIP3    H119889   6.565   2.650   6.854 -0.0272  0.0576 -1.8889
 6644TIP3    H219890   6.521   2.789   6.895  0.6689 -0.5431  1.0637
 6645TIP3   OH219891   3.724   4.367   6.416 -0.1526 -0.3538  0.0233
 6645TIP3    H119892   3.741   4.377   6.322 -2.0513 -0.5686 -0.3590
 6645TIP3    H219893   3.781   4.295   6.443  1.1310  0.3574 -0.7514
 6646TIP3   OH219894   6.341   3.348   3.170  0.1332  0.2523 -0.2649
 6646TIP3    H119895   6.390   3.299   3.104  0.5457  0.6115 -0.2258
 6646TIP3    H219896   6.318   3.284   3.236 -0.7505 -0.2295 -1.0188
 6647TIP3   OH219897   5.189   3.881   4.428  0.1785 -0.1688  0.0069
 6647TIP3    H119898   5.258   3.817   4.445 -0.1151 -0.4832  0.0188
 6647TIP3    H219899   5.215   3.959   4.478  1.2943  0.2350 -1.1722
 6648TIP3   OH219900   2.089   7.763   6.399  0.0168 -0.1445  0.2826
 6648TIP3    H119901   2.094   7.752   6.494 -0.0925  0.7218  0.3952
 6648TIP3    H219902   2.167   7.719   6.365 -0.0455 -0.6191  0.7590
 6649TIP3   OH219903   4.291   1.459   3.360  0.9590 -0.3695  0.1462
 6649TIP3    H119904   4.338   1.444   3.278  2.3128 -0.7921  0.9807
 6649TIP3    H219905   4.324   1.543   3.392 -0.2905  0.2700 -0.2260
 6650TIP3   OH219906   6.747   2.339   3.617 -0.0001  0.0765  0.3667
 6650TIP3    H119907   6.843   2.344   3.620  0.0339  0.0818 -0.6575
 6650TIP3    H219908   6.718   2.406   3.680  0.6600  0.2736  0.4662
 6651TIP3   OH219909   6.015   1.977   3.012 -0.3337  0.0186  0.0762
 6651TIP3    H119910   6.047   1.930   2.935 -1.2261  0.5125 -0.6085
 6651TIP3    H219911   6.084   2.039   3.033 -1.0039  1.3869 -1.6577
 6652TIP3   OH219912   5.451   2.167   2.973 -0.1932  0.1067  0.6591
 6652TIP3    H119913   5.506   2.108   2.921 -1.0722  0.5288 -0.7714
 6652TIP3    H219914   5.456   2.131   3.062  3.2078  0.7512  0.7859
 6653TIP3   OH219915   4.556   2.466   2.730  0.3806  0.4052  0.1645
 6653TIP3    H119916   4.537   2.373   2.720  2.6260  0.1491 -2.1795
 6653TIP3    H219917   4.625   2.470   2.797  1.5227  0.1912 -0.9687
 6654TIP3   OH219918   3.183   1.473   2.589 -0.0110  0.1776  0.3236
 6654TIP3    H119919   3.257   1.412   2.594 -0.0225  0.0269 -1.0891
 6654TIP3    H219920   3.159   1.489   2.680  0.7490 -1.0169  0.7504
 6655TIP3   OH219921   3.960   1.739   3.374  0.2797 -0.4613 -0.3718
 6655TIP3    H119922   3.975   1.824   3.414  0.9744 -1.7716  2.2415
 6655TIP3    H219923   4.042   1.691   3.385 -1.0630 -2.5507  0.9916
 6656TIP3   OH219924   4.757   4.753   3.602  0.4896  0.0147 -0.4879
 6656TIP3    H119925   4.764   4.716   3.514  1.7569  1.0290 -0.8413
 6656TIP3    H219926   4.818   4.700   3.654 -2.3022 -2.3854  0.4495
 6657TIP3   OH219927   5.048   2.834   4.702  0.2028  0.0981  0.2684
 6657TIP3    H119928   5.000   2.917   4.690 -0.6460 -0.0508  2.3658
 6657TIP3    H219929   4.981   2.766   4.689 -0.2471 -0.1085  3.4637
 6658TIP3   OH219930   3.636   3.183   3.409  0.4490  0.0707 -0.1787
 6658TIP3    H119931   3.635   3.196   3.504 -0.8690 -2.7809  0.2539
 6658TIP3    H219932   3.548   3.207   3.380  0.7096  0.4981 -0.6358
 6659TIP3   OH219933   4.511   2.530   2.249 -0.4596  0.7005 -0.1616
 6659TIP3    H119934   4.462   2.454   2.279  0.2227  0.1349 -0.4651
 6659TIP3    H219935   4.450   2.603   2.258 -1.1694  0.0954 -0.0159
 6660TIP3   OH219936   6.057   1.397   5.989  0.1280  1.0793  0.1057
 6660TIP3    H119937   6.027   1.316   5.947  0.3967  0.7526  0.5404
 6660TIP3    H219938   6.134   1.423   5.940  0.2714  0.8569  0.2130
 6661TIP3   OH219939   7.728   2.988   1.763 -0.7631  0.1045  0.6247
 6661TIP3    H119940   7.809   3.037   1.771  0.0660 -1.1092 -0.1573
 6661TIP3    H219941   7.697   3.008   1.674 -1.2102  0.4066  0.8485
 6662TIP3   OH219942   4.628   5.431   4.779 -0.0047  0.1946  0.3190
 6662TIP3    H119943   4.613   5.361   4.842  0.8730 -1.5226 -1.3262
 6662TIP3    H219944   4.554   5.424   4.718  0.6082  0.0562 -0.4143
 6663TIP3   OH219945   4.362   2.909   3.829 -0.4294  0.1247 -0.0655
 6663TIP3    H119946   4.308   2.879   3.902 -0.5514 -0.8202 -0.5337
 6663TIP3    H219947   4.301   2.953   3.770 -0.6253 -0.5592 -0.3830
 6664TIP3   OH219948   6.190   2.155   3.161  0.2709  0.7828 -0.0356
 6664TIP3    H119949   6.129   2.179   3.230 -1.1273  0.6254 -1.1866
 6664TIP3    H219950   6.220   2.238   3.124 -0.3841  0.8446 -0.4349
 6665TIP3   OH219951   5.759   3.421   6.306  0.4348 -0.4448  0.2434
 6665TIP3    H119952   5.673   3.383   6.322  0.0103  0.0938 -0.7145
 6665TIP3    H219953   5.804   3.414   6.390 -1.0382  0.5717  1.1348
 6666TIP3   OH219954   4.222   2.420   2.777  0.0282 -0.8752 -0.1678
 6666TIP3    H119955   4.148   2.363   2.797  0.2174 -0.9892  0.2179
 6666TIP3    H219956   4.289   2.395   2.841  0.2260 -0.4389 -0.2015
 6667TIP3   OH219957   6.370   2.912   4.553  0.7363  0.0679 -0.0672
 6667TIP3    H119958   6.327   2.965   4.620  0.5616 -0.9866  0.6790
 6667TIP3    H219959   6.303   2.849   4.526  1.2795 -0.4965 -0.1232
 6668TIP3   OH219960   6.573   2.443   4.783 -0.0230 -0.0868  0.1655
 6668TIP3    H119961   6.547   2.487   4.864  0.0705  0.5191 -0.1308
 6668TIP3    H219962   6.655   2.486   4.758  0.7998 -1.3621  0.6022
 6669TIP3   OH219963   5.699   2.413   6.117  0.5491  0.2769  0.0854
 6669TIP3    H119964   5.606   2.427   6.137  0.7389  0.9605  0.5188
 6669TIP3    H219965   5.739   2.395   6.202  0.5567 -1.5166 -0.2970
 6670TIP3   OH219966   6.878   3.948   2.029  0.0530  0.0108  0.2929
 6670TIP3    H119967   6.831   3.866   2.014 -0.7638  0.2651  1.3527
 6670TIP3    H219968   6.881   3.956   2.124  1.6309  0.3656  0.2219
 6671TIP3   OH219969   3.758   0.627   5.581  0.4458 -0.0448 -0.0807
 6671TIP3    H119970   3.663   0.635   5.574  0.3441 -1.9009 -0.9559
 6671TIP3    H219971   3.774   0.599   5.671  0.1372 -0.2997 -0.1074
 6672TIP3   OH219972   5.805   3.093   3.888  0.5636  0.4590  0.5858
 6672TIP3    H119973   5.841   3.124   3.805  0.1083 -0.1429  0.1585
 6672TIP3    H219974   5.875   3.110   3.952 -0.1289  3.4593  0.6084
 6673TIP3   OH219975   4.192   2.606   5.209 -0.0873  0.3784  0.2210
 6673TIP3    H119976   4.193   2.558   5.127 -0.5232 -0.3069  0.6176
 6673TIP3    H219977   4.156   2.545   5.273  2.4389  0.0740  1.4250
 6674TIP3   OH219978   4.769   4.438   2.833  0.4506 -0.0990 -0.1969
 6674TIP3    H119979   4.686   4.437   2.786  1.6485 -1.5719 -2.3381
 6674TIP3    H219980   4.751   4.391   2.915 -0.2685 -2.3728 -1.6446
 6675TIP3   OH219981   3.912   4.228   3.207 -0.9869 -0.0744 -0.3013
 6675TIP3    H119982   3.961   4.308   3.189  1.5994 -1.4094  0.5398
 6675TIP3    H219983   3.821   4.256   3.216  0.2439  3.1977  2.8297
 6676TIP3   OH219984   4.466   0.832   5.272 -0.3012  0.3141  0.7211
 6676TIP3    H119985   4.418   0.778   5.210  1.6497  0.0097 -0.5412
 6676TIP3    H219986   4.439   0.922   5.251 -0.5329  0.1291  0.2293
 6677TIP3   OH219987   1.544   7.984   3.814  0.3332 -0.8996  0.0630
 6677TIP3    H119988   1.524   7.894   3.791 -1.5832  0.2011 -2.7767
 6677TIP3    H219989   1.466   8.034   3.791  1.4321  1.5551  1.3479
 6678TIP3   OH219990   3.722   5.338   2.848 -0.1291  0.5860  0.4193
 6678TIP3    H119991   3.736   5.297   2.762 -0.0210  0.6137  0.4225
 6678TIP3    H219992   3.648   5.291   2.886 -0.0344  0.4256  0.4037
 6679TIP3   OH219993   5.959   1.401   2.528  0.1064 -0.7003  0.0103
 6679TIP3    H119994   5.863   1.395   2.528  0.1294 -1.4760 -2.0614
 6679TIP3    H219995   5.989   1.310   2.528  0.7999 -0.4983 -2.7559
 6680TIP3   OH219996   5.919   0.842   3.920 -0.2121 -0.1063  0.2732
 6680TIP3    H119997   5.838   0.894   3.922 -1.7880 -2.4496 -0.3857
 6680TIP3    H219998   5.892   0.756   3.887  2.3717 -1.2772  1.0353
 6681TIP3   OH219999   7.727   7.873   5.943 -0.0770 -0.0158 -0.0324
 6681TIP3    H120000   7.646   7.909   5.908  0.1487  0.6116  0.0816
 6681TIP3    H220001   7.790   7.881   5.871  0.2688  0.8593  0.3577
 6682TIP3   OH220002   4.641   2.193   3.366 -0.0673  0.1900  0.0491
 6682TIP3    H120003   4.712   2.218   3.426 -0.5745 -0.1293  0.7865
 6682TIP3    H220004   4.585   2.270   3.362  1.6350  1.3632 -2.5097
 6683TIP3   OH220005   5.689   2.042   3.414  0.1425  0.0373 -0.5376
 6683TIP3    H120006   5.745   2.017   3.341 -1.6847 -2.5364 -1.1235
 6683TIP3    H220007   5.735   2.010   3.491  0.7117  0.2079 -0.8028
 6684TIP3   OH220008   7.487   1.883   4.225 -0.2225  0.0832  0.0406
 6684TIP3    H120009   7.540   1.946   4.177 -0.4323  1.2186  1.2767
 6684TIP3    H220010   7.420   1.936   4.269  0.1606 -0.8705  1.8433
 6685TIP3   OH220011   5.663   3.146   3.207  0.6705 -0.4060 -0.4739
 6685TIP3    H120012   5.673   3.201   3.130  3.8176 -0.5714 -0.2540
 6685TIP3    H220013   5.620   3.203   3.272  0.4079  0.5651 -1.4890
 6686TIP3   OH220014   3.905   1.650   2.647  0.1684 -0.5764 -0.5180
 6686TIP3    H120015   3.860   1.673   2.728  0.1976  0.0542 -0.6799
 6686TIP3    H220016   3.898   1.554   2.642  2.1676 -0.8620  1.4129
 6687TIP3   OH220017   3.803   3.003   5.597  0.1786  0.1247  0.0806
 6687TIP3    H120018   3.763   2.988   5.682  0.9690  0.2591  0.4754
 6687TIP3    H220019   3.897   2.995   5.612  0.2661 -1.0213 -1.0186
 6688TIP3   OH220020   6.022   2.400   4.130 -0.1225 -0.2710  0.5736
 6688TIP3    H120021   6.025   2.430   4.039  1.8714  2.8237  1.5848
 6688TIP3    H220022   5.950   2.450   4.169 -0.8491 -1.4496  0.7839
 6689TIP3   OH220023   4.052   2.638   4.913 -0.0285 -0.4230  0.2356
 6689TIP3    H120024   3.971   2.612   4.956 -0.3358 -2.2326 -1.3839
 6689TIP3    H220025   4.025   2.707   4.852 -0.1937 -0.3964  0.3367
 6690TIP3   OH220026   4.755   0.938   4.229  0.0407  0.1305  0.1933
 6690TIP3    H120027   4.797   1.015   4.191 -1.3167  0.0459 -1.5217
 6690TIP3    H220028   4.812   0.865   4.204  0.3689  0.3587  0.2775
 6691TIP3   OH220029   3.252   4.919   3.946  0.3119  0.0173  0.3776
 6691TIP3    H120030   3.190   4.984   3.913  0.3252  0.0976  0.5090
 6691TIP3    H220031   3.217   4.894   4.032 -0.1012 -0.7044 -0.0007
 6692TIP3   OH220032   5.566   2.896   4.413  0.2154  0.0168 -0.4490
 6692TIP3    H120033   5.645   2.944   4.385 -0.6559  0.3640 -2.4419
 6692TIP3    H220034   5.497   2.962   4.409 -0.5703 -0.8329 -0.9284
 6693TIP3   OH220035   5.903   3.952   2.027  0.3123 -0.3394  0.6357
 6693TIP3    H120036   5.980   3.896   2.020  1.7975  1.2535  3.2273
 6693TIP3    H220037   5.838   3.898   2.073  0.5838 -1.0221  0.2168
 6694TIP3   OH220038   6.358   2.002   5.365  0.0385  0.5504  0.2244
 6694TIP3    H120039   6.381   2.045   5.447 -2.2440 -0.8402  1.6742
 6694TIP3    H220040   6.435   1.949   5.343  1.9063  3.3825 -0.2803
 6695TIP3   OH220041   4.540   3.552   2.882 -0.2460  0.0878 -0.3350
 6695TIP3    H120042   4.621   3.603   2.895 -1.0221  1.1332  0.4509
 6695TIP3    H220043   4.527   3.552   2.787 -0.0090  1.0153 -0.3794
 6696TIP3   OH220044   4.184   3.716   5.140 -0.0199 -0.4037  0.1062
 6696TIP3    H120045   4.113   3.662   5.175  1.8108 -1.6382  2.0990
 6696TIP3    H220046   4.185   3.696   5.047 -0.4764 -2.5711  0.5271
 6697TIP3   OH220047   4.557   3.351   3.427 -0.0758 -0.5320 -0.0473
 6697TIP3    H120048   4.466   3.330   3.449  0.3505 -1.5129  0.8316
 6697TIP3    H220049   4.581   3.288   3.360  0.1203 -0.6064  0.0921
 6698TIP3   OH220050   2.699   2.513   2.953  0.2170 -0.0349 -0.1562
 6698TIP3    H120051   2.637   2.585   2.943 -0.5866 -0.5490  1.1307
 6698TIP3    H220052   2.673   2.449   2.887  1.1987  1.0160 -1.6002
 6699TIP3   OH220053   3.599   3.521   3.126 -0.5747 -0.2223  0.2432
 6699TIP3    H120054   3.683   3.504   3.168 -1.0038  1.0881  1.6875
 6699TIP3    H220055   3.534   3.501   3.194 -1.3206  1.0025 -0.1002
 6700TIP3   OH220056   7.864   2.888   4.368  0.1901 -0.1563  0.1313
 6700TIP3    H120057   7.940   2.831   4.368  1.3758  1.3754 -0.0682
 6700TIP3    H220058   7.896   2.970   4.330 -1.3534  0.7718  0.7819
 6701TIP3   OH220059   5.582   3.745   6.357 -0.1153 -0.2253 -0.7657
 6701TIP3    H120060   5.581   3.763   6.263 -0.0059  0.7126 -0.5936
 6701TIP3    H220061   5.505   3.691   6.373  0.3795 -1.1690 -1.5471
 6702TIP3   OH220062   5.098   2.133   3.555  0.4843  0.2837 -0.2051
 6702TIP3    H120063   5.115   2.154   3.463 -0.0510 -1.9805 -0.8568
 6702TIP3    H220064   5.011   2.169   3.572 -0.2073 -0.9190 -1.1411
 6703TIP3   OH220065   2.072   2.035   6.601  0.1643  0.1699 -0.0746
 6703TIP3    H120066   2.156   2.020   6.645 -0.3902 -0.8470  0.6560
 6703TIP3    H220067   2.029   1.949   6.602 -0.5663  0.5148 -1.1178
 6704TIP3   OH220068   3.451   0.788   3.172 -0.2539 -0.5623  1.0844
 6704TIP3    H120069   3.538   0.749   3.183  0.5910  1.2246  0.9918
 6704TIP3    H220070   3.440   0.842   3.250 -0.3445  0.9208  0.0604
 6705TIP3   OH220071   4.039   1.522   4.996 -0.0813  0.2550  0.1120
 6705TIP3    H120072   4.078   1.444   4.957  0.6548  1.3613 -1.4629
 6705TIP3    H220073   4.100   1.548   5.066 -0.5393 -0.8001  0.9061
 6706TIP3   OH220074   4.351   4.559   0.893 -0.0991 -0.1985 -0.4860
 6706TIP3    H120075   4.443   4.538   0.908  0.2665 -0.4809 -2.8163
 6706TIP3    H220076   4.335   4.637   0.945  0.8626 -1.3723  1.6146
 6707TIP3   OH220077   5.196   2.212   4.168 -0.6416  0.1208  0.0779
 6707TIP3    H120078   5.208   2.305   4.153  1.3773  0.2893  2.3828
 6707TIP3    H220079   5.129   2.206   4.235 -0.8678 -0.0932 -0.1651
 6708TIP3   OH220080   5.406   3.097   5.276  0.3831  0.1685  0.2821
 6708TIP3    H120081   5.434   3.043   5.350  1.3440  0.0778 -0.1434
 6708TIP3    H220082   5.431   3.046   5.199 -1.1536 -0.0152 -0.1141
 6709TIP3   OH220083   0.204   7.762   5.579  0.3887  0.0525 -0.5733
 6709TIP3    H120084   0.260   7.758   5.501  0.5563  1.9217 -0.5721
 6709TIP3    H220085   0.140   7.692   5.565 -0.6510  1.4457 -3.2355
 6710TIP3   OH220086   3.459   7.563   4.957 -0.2830  0.1699 -0.5575
 6710TIP3    H120087   3.544   7.605   4.943  0.0639 -0.1618  0.5325
 6710TIP3    H220088   3.417   7.615   5.025 -1.3112  0.8332 -1.6693
 6711TIP3   OH220089   5.304   2.329   5.836 -0.4922  0.0166 -0.4395
 6711TIP3    H120090   5.309   2.419   5.869 -2.0533 -0.4718  1.2407
 6711TIP3    H220091   5.394   2.307   5.813  0.2093  1.3691  0.8906
 6712TIP3   OH220092   5.586   0.944   5.691  0.3919 -0.5413  0.5844
 6712TIP3    H120093   5.566   0.931   5.784  0.0793 -2.0642  0.3200
 6712TIP3    H220094   5.599   1.038   5.682  2.8586 -0.6388  2.6589
 6713TIP3   OH220095   6.264   1.747   1.065  0.2524  0.3282  0.5822
 6713TIP3    H120096   6.213   1.823   1.091 -0.7226 -0.0768 -0.1119
 6713TIP3    H220097   6.271   1.694   1.145 -1.0499  0.0305  0.5099
 6714TIP3   OH220098   4.006   0.566   3.804  0.1831  0.0946  0.0091
 6714TIP3    H120099   4.080   0.584   3.861 -0.7991  1.4614  0.8834
 6714TIP3    H220100   3.981   0.651   3.768 -0.4298 -0.4685 -0.9482
 6715TIP3   OH220101   6.250   0.997   4.096  0.3332  0.0328  0.5144
 6715TIP3    H120102   6.168   0.953   4.120  1.2630 -0.6648  2.5425
 6715TIP3    H220103   6.245   1.007   4.001 -1.3222 -1.5905  0.3979
 6716TIP3   OH220104   5.250   1.654   3.581 -0.0159 -0.0539  0.1870
 6716TIP3    H120105   5.243   1.700   3.665  0.5864  1.1067 -0.3909
 6716TIP3    H220106   5.210   1.714   3.518  0.1484 -0.6305 -0.4695
 6717TIP3   OH220107   1.919   2.110   5.669  0.8678  0.5302 -0.3366
 6717TIP3    H120108   1.877   2.121   5.754 -0.9904 -1.6900 -0.9056
 6717TIP3    H220109   1.954   2.021   5.672  1.7118  0.8269 -1.4920
 6718TIP3   OH220110   5.692   4.230   4.631 -0.1838  0.1117  0.5360
 6718TIP3    H120111   5.643   4.305   4.599 -0.4313 -0.0354  0.5670
 6718TIP3    H220112   5.752   4.267   4.696  0.1907  0.3781  0.0335
 6719TIP3   OH220113   8.191   5.698   0.356  0.0304  0.3144  0.0471
 6719TIP3    H120114   8.239   5.618   0.381 -1.3536  0.0270  1.8505
 6719TIP3    H220115   8.103   5.668   0.336  0.0061  1.1540 -1.1633
 6720TIP3   OH220116   3.770   2.487   1.246 -0.2723  0.3860  0.5504
 6720TIP3    H120117   3.815   2.478   1.330 -2.5139  0.3357  1.7905
 6720TIP3    H220118   3.692   2.540   1.266 -0.5027  0.9345 -1.6249
 6721TIP3   OH220119   6.534   3.137   4.221 -0.3241 -0.0493 -0.1884
 6721TIP3    H120120   6.611   3.083   4.240  0.7331  1.4301 -0.1878
 6721TIP3    H220121   6.565   3.202   4.158 -1.8109  0.0147 -0.8759
 6722TIP3   OH220122   3.619   3.266   4.186 -0.1053 -0.1975  0.1485
 6722TIP3    H120123   3.578   3.330   4.128  2.2873  1.1458 -0.1265
 6722TIP3    H220124   3.639   3.192   4.129 -0.8142 -0.2764 -0.0071
 6723TIP3   OH220125   4.816   4.346   4.846  0.0573  0.1789  0.3022
 6723TIP3    H120126   4.741   4.401   4.825  1.1370  1.9502  1.0448
 6723TIP3    H220127   4.858   4.389   4.920  2.2376 -0.3930 -0.5649
 6724TIP3   OH220128   6.180   4.327   6.195  0.2546  0.4291 -0.5417
 6724TIP3    H120129   6.208   4.408   6.153  2.3087  0.2544  0.4227
 6724TIP3    H220130   6.202   4.259   6.132 -0.2838  0.4987 -0.8098
 6725TIP3   OH220131   6.944   2.878   4.684 -0.0107  0.2514  0.4854
 6725TIP3    H120132   6.904   2.816   4.623  0.8737 -1.3923  1.5324
 6725TIP3    H220133   6.871   2.917   4.731 -0.4806 -1.7424  1.4500
 6726TIP3   OH220134   5.674   2.543   3.917  0.9857 -0.5005  0.5270
 6726TIP3    H120135   5.711   2.629   3.894 -1.1476  0.7881  1.7111
 6726TIP3    H220136   5.635   2.511   3.835  0.4739  0.3693  0.4165
 6727TIP3   OH220137   6.789   4.108   3.220 -0.4249  0.2310 -0.1438
 6727TIP3    H120138   6.822   4.047   3.286 -1.4357  1.4783  1.5641
 6727TIP3    H220139   6.727   4.163   3.267 -0.6498  1.6237 -1.9908
 6728TIP3   OH220140   4.925   1.847   3.838 -0.4665  0.0304  0.2513
 6728TIP3    H120141   4.935   1.914   3.770 -0.7201  1.1973  1.3440
 6728TIP3    H220142   4.907   1.897   3.918 -3.0394 -1.4428  0.6264
 6729TIP3   OH220143   2.858   4.240   1.982  0.1254  0.4332  0.2970
 6729TIP3    H120144   2.806   4.308   1.939 -1.5844 -0.0599  1.5455
 6729TIP3    H220145   2.835   4.159   1.936  1.8695  0.6154 -0.9366
 6730TIP3   OH220146   4.521   3.865   3.731 -0.4559  0.6528  0.3817
 6730TIP3    H120147   4.534   3.800   3.662 -0.7225  1.0338 -0.0286
 6730TIP3    H220148   4.609   3.887   3.760 -0.2486  1.6467 -0.9261
 6731TIP3   OH220149   4.762   1.852   2.858 -0.5097 -0.3107  0.0650
 6731TIP3    H120150   4.773   1.944   2.834 -0.8551 -0.4881 -0.7660
 6731TIP3    H220151   4.684   1.851   2.913 -0.3847 -0.0797  0.2493
 6732TIP3   OH220152   7.401   1.960   1.975  0.3206 -0.5392  0.2363
 6732TIP3    H120153   7.369   1.884   1.926 -1.5671  0.1650  0.3526
 6732TIP3    H220154   7.326   1.989   2.027  1.4386  0.5416  1.2928
 6733TIP3   OH220155   5.571   2.699   3.413  0.0415 -0.1695  0.4861
 6733TIP3    H120156   5.622   2.642   3.356 -1.4909  1.4514 -2.6606
 6733TIP3    H220157   5.616   2.783   3.410  0.6191 -0.3819  2.6835
 6734TIP3   OH220158   4.688   2.397   4.720 -0.2816 -0.8065  0.6803
 6734TIP3    H120159   4.759   2.353   4.767  0.3707 -2.4759 -1.7831
 6734TIP3    H220160   4.610   2.347   4.742 -0.4349 -0.0302  1.9800
 6735TIP3   OH220161   5.803   3.566   3.280  0.4134  0.7642  0.8003
 6735TIP3    H120162   5.848   3.623   3.342 -0.5941  1.6292  0.7565
 6735TIP3    H220163   5.722   3.612   3.260  0.6022  0.3653 -0.9568
 6736TIP3   OH220164   5.733   1.832   6.120 -0.2943 -0.2331 -0.8798
 6736TIP3    H120165   5.812   1.885   6.125 -1.3034  1.1459  1.2686
 6736TIP3    H220166   5.673   1.884   6.067 -0.4702 -0.2878 -0.7360
 6737TIP3   OH220167   5.316   2.265   1.919 -0.2535  0.3599 -0.1694
 6737TIP3    H120168   5.220   2.263   1.920 -0.2454  0.2361  1.0580
 6737TIP3    H220169   5.343   2.177   1.943  0.1575  0.6666  0.5318
 6738TIP3   OH220170   5.152   2.541   2.905 -0.5960  0.4397 -0.2597
 6738TIP3    H120171   5.175   2.569   2.816 -2.6929  1.5143 -0.4803
 6738TIP3    H220172   5.227   2.569   2.958 -0.5598  2.3405 -1.2414
 6739TIP3   OH220173   3.096   2.109   4.016  0.0917 -0.2436 -0.7566
 6739TIP3    H120174   3.152   2.184   4.036 -1.4475  0.8174 -0.3288
 6739TIP3    H220175   3.034   2.105   4.089  0.3831 -2.1718 -0.5841
 6740TIP3   OH220176   6.257   1.475   5.793 -0.4656 -0.0199  0.2326
 6740TIP3    H120177   6.329   1.481   5.730  0.3859  1.8308  1.3335
 6740TIP3    H220178   6.178   1.486   5.740  0.1968  0.6385 -0.6310
 6741TIP3   OH220179   5.341   0.764   4.970 -0.0476 -0.1100 -0.1807
 6741TIP3    H120180   5.310   0.853   4.953 -0.5696 -0.2366  0.0907
 6741TIP3    H220181   5.378   0.735   4.887  1.3910  0.8663  0.0944
 6742TIP3   OH220182   6.649   0.514   6.176 -0.2732 -0.3468  0.4158
 6742TIP3    H120183   6.598   0.543   6.100 -0.7398  0.3697  0.9953
 6742TIP3    H220184   6.650   0.419   6.169  1.3001 -0.1974 -1.5232
 6743TIP3   OH220185   4.109   0.855   5.475  0.4991 -0.7499 -0.3691
 6743TIP3    H120186   4.175   0.852   5.544 -0.5013  1.9643  0.7929
 6743TIP3    H220187   4.096   0.948   5.458 -2.0508 -1.2572 -1.5179
 6744TIP3   OH220188   5.437   3.020   6.484  0.1665 -0.4050  0.0839
 6744TIP3    H120189   5.380   2.944   6.495 -0.3429 -0.0116  0.1582
 6744TIP3    H220190   5.383   3.084   6.439 -0.3372  0.9443  2.4964
 6745TIP3   OH220191   4.230   0.969   4.526 -0.1271 -0.3300  0.0216
 6745TIP3    H120192   4.237   1.031   4.454 -0.7490  1.0559  1.1293
 6745TIP3    H220193   4.205   1.022   4.601 -0.4317 -1.8940  1.0555
 6746TIP3   OH220194   7.102   2.863   5.459 -0.1577 -0.2365  0.1325
 6746TIP3    H120195   7.127   2.776   5.489  4.0327  0.3534 -1.2049
 6746TIP3    H220196   7.078   2.911   5.538 -1.2006 -2.1964  1.0161
 6747TIP3   OH220197   4.432   2.690   2.958  0.3105  0.9484  0.7925
 6747TIP3    H120198   4.436   2.641   2.876  0.8656  0.0715  1.3258
 6747TIP3    H220199   4.413   2.623   3.025  0.7298  1.5113  1.4856
 6748TIP3   OH220200   3.847   1.493   5.232  0.3631  0.3606 -0.2060
 6748TIP3    H120201   3.844   1.547   5.153  1.6044  0.2798 -0.3124
 6748TIP3    H220202   3.933   1.452   5.230  0.6316  0.8021  1.4894
 6749TIP3   OH220203   7.762   4.426   3.416  0.1197  0.2948  0.4235
 6749TIP3    H120204   7.711   4.408   3.337 -0.0281 -0.2491  0.6411
 6749TIP3    H220205   7.697   4.453   3.481  0.0209 -1.0741  0.9068
 6750TIP3   OH220206   2.215   4.049   2.815  0.3089  0.2168 -0.0759
 6750TIP3    H120207   2.196   4.036   2.722  1.3483 -0.4945 -0.1966
 6750TIP3    H220208   2.167   4.128   2.839 -2.3316 -1.2199 -0.4829
 6751TIP3   OH220209   6.506   1.550   4.295 -0.0916  0.3579 -0.1471
 6751TIP3    H120210   6.440   1.561   4.363  0.0235  3.5505 -0.4833
 6751TIP3    H220211   6.457   1.521   4.218 -0.9611  1.5865 -0.0716
 6752TIP3   OH220212   3.948   3.462   4.092 -0.2826  0.0426  0.2087
 6752TIP3    H120213   4.018   3.478   4.029  1.0507 -1.0119  1.3744
 6752TIP3    H220214   3.944   3.367   4.100 -1.9350  0.0948  0.0843
 6753TIP3   OH220215   5.475   4.024   5.606 -0.4081 -0.0074 -0.4482
 6753TIP3    H120216   5.397   3.968   5.602 -0.2845 -0.2490  0.4051
 6753TIP3    H220217   5.487   4.040   5.699  0.8907 -0.4095 -0.5441
 6754TIP3   OH220218   3.828   3.379   6.352 -0.2111 -0.3248  0.0731
 6754TIP3    H120219   3.777   3.427   6.287  0.6899  0.0918 -0.3352
 6754TIP3    H220220   3.790   3.405   6.436 -0.5452  0.1289 -0.2143
 6755TIP3   OH220221   6.196   0.161   6.074 -0.4259  0.9446  0.5302
 6755TIP3    H120222   6.124   0.179   6.014 -0.8566  2.0649  1.3712
 6755TIP3    H220223   6.154   0.123   6.152  0.1416 -0.6674  0.0837
 6756TIP3   OH220224   4.359   3.986   4.456 -0.1191 -0.1691 -0.7429
 6756TIP3    H120225   4.390   4.040   4.529 -2.6300  0.8064 -0.3695
 6756TIP3    H220226   4.341   3.901   4.496 -0.6193  0.0957 -0.4014
 6757TIP3   OH220227   5.160   4.416   5.970  0.7883 -0.4214 -0.0751
 6757TIP3    H120228   5.165   4.351   5.900 -0.6134 -0.0947 -0.4950
 6757TIP3    H220229   5.218   4.381   6.038  2.9552 -0.2277 -1.7703
 6758TIP3   OH220230   6.314   2.507   4.370  0.0789 -0.4999 -0.3278
 6758TIP3    H120231   6.398   2.514   4.324 -0.0842  1.0638 -0.4343
 6758TIP3    H220232   6.260   2.575   4.330 -0.6278 -0.2485  1.0351
 6759TIP3   OH220233   5.449   4.724   2.389 -0.1304  0.0457 -0.0789
 6759TIP3    H120234   5.377   4.666   2.364 -0.4107  1.1599 -1.9685
 6759TIP3    H220235   5.421   4.811   2.359  0.7540  0.9832  1.7265
 6760TIP3   OH220236   4.475   4.581   4.427  0.2834  0.6827 -0.2520
 6760TIP3    H120237   4.427   4.556   4.506  0.0218 -0.1548 -0.6680
 6760TIP3    H220238   4.536   4.649   4.456 -0.2858  0.8682  0.5312
 6761TIP3   OH220239   2.709   3.290   6.729  0.1028  0.3213 -0.2629
 6761TIP3    H120240   2.741   3.320   6.814 -0.9692  2.1017 -0.4662
 6761TIP3    H220241   2.768   3.330   6.665  1.3761 -1.6305 -0.3564
 6762TIP3   OH220242   2.892   4.830   4.524  0.1823  0.1824  0.1304
 6762TIP3    H120243   2.830   4.857   4.456  0.9271  1.0773 -0.1970
 6762TIP3    H220244   2.942   4.759   4.483 -0.1785 -0.0903  0.1621
 6763TIP3   OH220245   3.750   3.979   4.902 -0.3573  0.1684 -0.7493
 6763TIP3    H120246   3.740   3.884   4.909 -0.3143  0.2599  0.6326
 6763TIP3    H220247   3.823   3.991   4.842  0.1470 -0.6948 -0.3090
 6764TIP3   OH220248   4.535   3.059   3.402  0.2424 -0.0750  0.2043
 6764TIP3    H120249   4.464   3.017   3.353  1.0150  0.1023 -1.0794
 6764TIP3    H220250   4.510   3.046   3.494 -0.7295 -1.2776 -0.1985
 6765TIP3   OH220251   5.748   2.513   2.691 -0.0463 -0.4045  0.3226
 6765TIP3    H120252   5.829   2.466   2.671  0.3840  0.3884  0.1786
 6765TIP3    H220253   5.684   2.444   2.708  0.3941 -1.0579 -0.5952
 6766TIP3   OH220254   2.969   1.383   5.199  0.1893 -0.0453  0.3002
 6766TIP3    H120255   2.933   1.297   5.176 -0.8633 -0.2085  2.3900
 6766TIP3    H220256   2.935   1.442   5.132 -0.2784 -1.0067 -0.3238
 6767TIP3   OH220257   3.162   2.718   4.443  0.0172  0.4566 -0.0087
 6767TIP3    H120258   3.187   2.781   4.376 -1.7206  2.0339  0.7826
 6767TIP3    H220259   3.069   2.705   4.429 -0.1306 -0.0291  1.4242
 6768TIP3   OH220260   3.940   2.487   3.834  0.1132  0.0091 -0.7502
 6768TIP3    H120261   3.854   2.514   3.866  0.4831 -1.4573  1.6222
 6768TIP3    H220262   3.940   2.392   3.841  1.5400 -0.0849 -1.7551
 6769TIP3   OH220263   4.257   3.862   5.562  0.0362 -0.3618 -0.0673
 6769TIP3    H120264   4.297   3.860   5.475 -0.6258  2.8322 -0.4965
 6769TIP3    H220265   4.189   3.794   5.559  0.5275 -0.8066 -1.7744
 6770TIP3   OH220266   6.235   1.821   4.120  0.6017 -0.4971  0.5033
 6770TIP3    H120267   6.217   1.755   4.187 -0.8493 -1.7772 -1.1116
 6770TIP3    H220268   6.322   1.798   4.087  0.4473 -1.1252  0.5230
 6771TIP3   OH220269   3.681   2.932   3.788 -0.0101 -0.7756 -0.6989
 6771TIP3    H120270   3.596   2.914   3.830  0.3877 -0.3026  0.3117
 6771TIP3    H220271   3.741   2.948   3.860  0.5964  0.4571 -1.4576
 6772TIP3   OH220272   4.138   3.836   2.867  0.5642  0.3266  0.3102
 6772TIP3    H120273   4.046   3.864   2.865  0.1662 -0.9372  0.6887
 6772TIP3    H220274   4.188   3.918   2.868 -0.5898  1.0297  2.0642
 6773TIP3   OH220275   3.670   1.706   5.103 -0.3126 -0.5219 -0.1349
 6773TIP3    H120276   3.579   1.709   5.073 -0.1479 -0.3294 -0.6337
 6773TIP3    H220277   3.720   1.689   5.023 -0.0549 -2.6381  0.4511
 6774TIP3   OH220278   1.323   7.551   4.129  0.8062  0.3965  0.2084
 6774TIP3    H120279   1.385   7.609   4.086 -0.4119  2.1814  0.7959
 6774TIP3    H220280   1.248   7.547   4.070 -0.9734  3.0539  2.2061
 6775TIP3   OH220281   5.073   4.610   0.157 -0.3444  0.2787  0.5259
 6775TIP3    H120282   4.978   4.601   0.165 -0.1069 -0.9972  2.2856
 6775TIP3    H220283   5.104   4.619   0.247  1.1184  1.7851 -0.0999
 6776TIP3   OH220284   6.561   2.461   2.939  0.5458  0.0843  0.3935
 6776TIP3    H120285   6.642   2.494   2.978  0.5224  1.1400 -0.4292
 6776TIP3    H220286   6.544   2.519   2.866 -0.1325 -1.0758 -0.3909
 6777TIP3   OH220287   3.077   2.114   5.513 -0.4088  0.6199 -0.4055
 6777TIP3    H120288   3.143   2.155   5.457 -0.4734 -1.3802 -1.9798
 6777TIP3    H220289   3.124   2.046   5.561 -0.9100  0.5056 -0.0670
 6778TIP3   OH220290   8.464   5.224   0.389 -0.1116  0.2956 -0.3689
 6778TIP3    H120291   8.490   5.141   0.429  3.7361  0.2138 -2.7690
 6778TIP3    H220292   8.408   5.198   0.315 -0.5603 -0.0287  0.0837
 6779TIP3   OH220293   3.838   1.608   2.333 -0.5260 -0.4428 -0.0919
 6779TIP3    H120294   3.837   1.596   2.428 -1.3926  2.0261  0.2481
 6779TIP3    H220295   3.886   1.690   2.319 -0.1750 -0.9029 -1.8229
 6780TIP3   OH220296   4.847   1.742   4.791  0.3999 -0.6309 -0.3552
 6780TIP3    H120297   4.854   1.687   4.869  0.6500 -0.6450 -0.3890
 6780TIP3    H220298   4.932   1.735   4.748  0.0195 -1.2075 -1.0266
 6781TIP3   OH220299   5.301   2.776   4.800 -0.4818  0.5276 -0.5404
 6781TIP3    H120300   5.216   2.809   4.770 -0.9667  0.3711  0.6322
 6781TIP3    H220301   5.354   2.855   4.813 -0.0563  0.5688 -2.3781
 6782TIP3   OH220302   8.028   5.362   2.746 -0.3540 -0.4340  0.1478
 6782TIP3    H120303   8.076   5.427   2.797 -0.1783  1.2013 -2.0431
 6782TIP3    H220304   8.095   5.307   2.707 -0.2583  1.0559 -1.8658
 6783TIP3   OH220305   7.612   0.530   3.757  0.1053 -0.3447 -0.3036
 6783TIP3    H120306   7.539   0.507   3.814  1.1162 -2.7252  0.0878
 6783TIP3    H220307   7.599   0.476   3.679  2.0167 -1.6672  0.2403
 6784TIP3   OH220308   7.344   2.350   3.042  0.0141 -0.1350 -0.6412
 6784TIP3    H120309   7.403   2.299   2.986  0.1497  0.1271 -0.7355
 6784TIP3    H220310   7.389   2.355   3.126  0.7477  1.2317 -1.1130
 6785TIP3   OH220311   7.445   4.133   4.612 -0.0300 -0.3276 -0.0357
 6785TIP3    H120312   7.397   4.136   4.695 -3.6613 -1.8243 -1.9736
 6785TIP3    H220313   7.406   4.202   4.559 -0.2629 -1.7780 -1.7748
 6786TIP3   OH220314   6.099   3.051   2.469 -0.3707 -0.2687 -0.2430
 6786TIP3    H120315   6.143   3.062   2.553 -1.2162 -2.1181  0.4670
 6786TIP3    H220316   6.008   3.072   2.486 -0.2263  1.1211 -1.1337
 6787TIP3   OH220317   3.881   1.823   4.597 -0.3074 -0.5494  0.4494
 6787TIP3    H120318   3.954   1.847   4.539 -1.9869  0.6579 -1.2315
 6787TIP3    H220319   3.924   1.792   4.677  2.0555  0.4525 -0.3571
 6788TIP3   OH220320   6.334   2.958   3.058 -0.1769 -0.6761  0.0440
 6788TIP3    H120321   6.425   2.967   3.084  0.2651 -0.8690 -1.3596
 6788TIP3    H220322   6.300   3.048   3.057  0.3255 -0.4890 -0.5421
 6789TIP3   OH220323   6.322   3.726   1.213 -0.1647 -0.4922 -0.1955
 6789TIP3    H120324   6.325   3.817   1.183  1.6399 -0.5552 -0.2601
 6789TIP3    H220325   6.229   3.707   1.223 -0.5626  1.3831 -0.1323
 6790TIP3   OH220326   5.420   3.724   4.419  0.1730 -0.5265 -0.4211
 6790TIP3    H120327   5.408   3.652   4.356 -3.5197 -2.1202  1.9231
 6790TIP3    H220328   5.440   3.680   4.502  2.6467  1.4502  0.0961
 6791TIP3   OH220329   1.550   2.372   6.283 -0.4355 -0.3192 -0.0971
 6791TIP3    H120330   1.584   2.308   6.220  0.2106 -0.6182  0.5548
 6791TIP3    H220331   1.624   2.431   6.299 -0.7436  0.0352  0.0235
 6792TIP3   OH220332   8.253   0.747   4.010 -0.0615  0.2904 -0.8140
 6792TIP3    H120333   8.319   0.686   4.045 -1.4682 -1.2491 -0.7873
 6792TIP3    H220334   8.206   0.696   3.944 -0.8512  1.5616 -1.2446
 6793TIP3   OH220335   6.326   1.163   2.618 -0.1192  0.2631 -0.1434
 6793TIP3    H120336   6.359   1.123   2.538 -1.0107 -0.4013 -0.1888
 6793TIP3    H220337   6.321   1.257   2.598  0.3177  0.1831 -0.6259
 6794TIP3   OH220338   6.205   0.059   5.039 -0.9582  0.0241 -0.0175
 6794TIP3    H120339   6.240   0.143   5.010  1.0645  0.3117  2.9957
 6794TIP3    H220340   6.140   0.082   5.106  0.9172 -0.7960  2.1551
 6795TIP3   OH220341   6.980   2.123   5.321 -0.2593 -0.2106  0.4072
 6795TIP3    H120342   7.060   2.158   5.282 -0.7333 -0.3765 -0.7228
 6795TIP3    H220343   6.910   2.159   5.268 -0.8694 -1.0986  0.6009
 6796TIP3   OH220344   7.732   0.710   4.909 -0.3054  0.3507  0.0213
 6796TIP3    H120345   7.813   0.690   4.863 -0.1823  2.8599 -0.9231
 6796TIP3    H220346   7.752   0.697   5.001  0.7871 -0.2769 -0.3012
 6797TIP3   OH220347   7.189   1.280   6.599 -0.4487 -0.5742 -0.1072
 6797TIP3    H120348   7.169   1.321   6.514  0.5499 -0.4803 -0.3048
 6797TIP3    H220349   7.264   1.223   6.580  0.0389 -0.2359  0.8035
 6798TIP3   OH220350   6.465   3.756   6.022 -0.0736  0.0327  0.7997
 6798TIP3    H120351   6.403   3.709   6.077  1.4912 -1.3480  1.4389
 6798TIP3    H220352   6.524   3.801   6.084 -0.8330  1.9097  0.2051
 6799TIP3   OH220353   8.456   0.291   3.726 -0.1231  0.1705 -0.2392
 6799TIP3    H120354   8.373   0.254   3.696 -0.0525 -0.6896  0.6267
 6799TIP3    H220355   8.521   0.224   3.705  0.1249  0.1564  0.5592
 6800TIP3   OH220356   7.689   3.058   4.075  0.1570  0.0545 -0.4186
 6800TIP3    H120357   7.598   3.052   4.047  0.1101  3.0690 -1.1354
 6800TIP3    H220358   7.738   3.007   4.010 -1.0178 -1.6889  0.0501
 6801TIP3   OH220359   7.062   0.920   3.612 -0.6015 -0.7550 -0.5354
 6801TIP3    H120360   7.136   0.979   3.630  0.3402 -2.2865  0.7987
 6801TIP3    H220361   6.990   0.978   3.589  0.3604  0.9180  0.5444
 6802TIP3   OH220362   4.443   7.944   4.691  0.4275 -0.3351 -1.0348
 6802TIP3    H120363   4.427   7.902   4.607  1.3273  0.1184 -1.4410
 6802TIP3    H220364   4.369   7.918   4.746  0.1466 -1.1178 -1.7815
 6803TIP3   OH220365   7.825   3.074   2.814  0.6112 -0.2543 -0.2507
 6803TIP3    H120366   7.872   3.157   2.805  0.1193 -0.0113 -0.5883
 6803TIP3    H220367   7.762   3.074   2.742  0.3021 -0.7182  0.0175
 6804TIP3   OH220368   7.042   1.723   1.717 -0.1359  0.5828  0.0193
 6804TIP3    H120369   6.979   1.717   1.789  0.7403  3.5958  1.1287
 6804TIP3    H220370   6.990   1.757   1.643 -0.2318  1.2268  0.3758
 6805TIP3   OH220371   6.995   5.043   4.761 -0.0640  0.0966 -0.1780
 6805TIP3    H120372   7.026   5.104   4.827  0.0120 -1.3597  1.1574
 6805TIP3    H220373   6.913   5.008   4.796  0.0225 -0.7624 -0.8125
 6806TIP3   OH220374   6.756   3.022   2.655 -0.2324 -0.3989  0.4185
 6806TIP3    H120375   6.759   3.008   2.560  1.0098 -1.8044  0.6556
 6806TIP3    H220376   6.767   2.935   2.692  1.7388  0.4551  1.8925
 6807TIP3   OH220377   8.092   3.258   5.434  0.2975 -0.0749 -0.7804
 6807TIP3    H120378   8.002   3.272   5.405 -0.2549  1.6157  1.5282
 6807TIP3    H220379   8.083   3.224   5.523  1.9224  1.2141 -0.0995
 6808TIP3   OH220380   7.141   2.049   2.038 -0.2162  0.3743  0.0188
 6808TIP3    H120381   7.057   2.094   2.039 -1.3609 -1.7121  0.5788
 6808TIP3    H220382   7.142   1.998   2.119  0.2552 -1.9792 -1.4213
 6809TIP3   OH220383   8.030   2.433   4.709  0.4059  0.0866  0.1948
 6809TIP3    H120384   8.008   2.341   4.719  0.5316  0.2047  1.6425
 6809TIP3    H220385   8.102   2.448   4.770 -1.3007  1.7211  1.8938
 6810TIP3   OH220386   8.450   3.831   6.169 -0.5453 -0.4475  0.1299
 6810TIP3    H120387   8.376   3.775   6.147 -0.7822 -0.4260  0.8685
 6810TIP3    H220388   8.524   3.793   6.120 -1.1262 -0.1983 -0.9538
 6811TIP3   OH220389   7.518   0.023   4.618 -0.3397 -0.5937 -0.3707
 6811TIP3    H120390   7.434  -0.021   4.630 -0.8294  0.2757 -0.5441
 6811TIP3    H220391   7.496   0.105   4.574  0.6430 -0.5255 -0.7622
 6812TIP3   OH220392   7.164   1.927   2.266 -0.0213 -0.1764 -0.0312
 6812TIP3    H120393   7.258   1.933   2.280 -0.1516  0.1147  0.7521
 6812TIP3    H220394   7.138   1.846   2.310  0.0108 -0.7802 -1.0994
 6813TIP3   OH220395   0.390   3.877   5.705 -0.0793  0.3275 -0.2495
 6813TIP3    H120396   0.389   3.960   5.657 -0.4655  1.0254  0.9240
 6813TIP3    H220397   0.300   3.869   5.739  0.1013 -0.3027  0.0803
 6814TIP3   OH220398   0.612   3.747   3.847 -0.1174  0.3277  0.3974
 6814TIP3    H120399   0.685   3.686   3.862  1.0245  0.9616 -2.2921
 6814TIP3    H220400   0.544   3.717   3.907  1.4128 -1.9228  1.1040
 6815TIP3   OH220401   7.704   3.018   4.957 -0.9395  0.2596  0.0499
 6815TIP3    H120402   7.612   3.031   4.978 -0.3352  2.7021  1.4706
 6815TIP3    H220403   7.741   2.974   5.034 -0.9027 -0.7024 -0.5081
 6816TIP3   OH220404   6.158   2.702   3.390  1.0495  0.2447 -0.3823
 6816TIP3    H120405   6.170   2.723   3.298  2.5965  1.7307  0.1296
 6816TIP3    H220406   6.193   2.613   3.400  0.9920  0.1324 -1.1883
 6817TIP3   OH220407   5.331   2.392   2.543  0.6169  0.2987 -0.1473
 6817TIP3    H120408   5.392   2.405   2.470  0.6333  0.2457 -0.1424
 6817TIP3    H220409   5.386   2.389   2.621  0.6473 -0.2138 -0.1908
 6818TIP3   OH220410   5.427   4.607   4.962  0.4780  0.6662 -0.4059
 6818TIP3    H120411   5.514   4.585   4.927  0.2566 -1.1429  0.1550
 6818TIP3    H220412   5.434   4.699   4.988  2.4844  0.2961  0.4185
 6819TIP3   OH220413   7.095   3.536   3.961 -0.2123  0.0112 -0.1048
 6819TIP3    H120414   7.037   3.473   3.919 -0.0271 -1.3083  1.5346
 6819TIP3    H220415   7.182   3.495   3.957  0.1926  0.8878 -0.4388
 6820TIP3   OH220416   4.600   3.596   3.637 -0.3006  0.0461 -0.2868
 6820TIP3    H120417   4.551   3.536   3.581  0.0240  0.6269 -1.1999
 6820TIP3    H220418   4.682   3.551   3.656  0.0349  0.2952 -1.1545
 6821TIP3   OH220419   6.020   1.741   3.466 -0.0907 -0.1145 -0.2465
 6821TIP3    H120420   5.987   1.764   3.379  0.1708 -2.1133 -0.9122
 6821TIP3    H220421   5.945   1.755   3.525  0.2465  2.9156 -0.4995
 6822TIP3   OH220422   5.597   1.688   3.158 -0.0141 -0.1561  0.3570
 6822TIP3    H120423   5.517   1.639   3.141 -1.5329  2.2827  0.2195
 6822TIP3    H220424   5.592   1.764   3.101  2.4437  0.0234  0.3131
 6823TIP3   OH220425   6.259   2.524   1.656 -0.5279 -0.3192 -0.0283
 6823TIP3    H120426   6.301   2.569   1.583 -0.0631 -0.9405 -0.1456
 6823TIP3    H220427   6.168   2.513   1.628 -0.6763  0.6901  0.0677
 6824TIP3   OH220428   7.656   3.233   5.693  0.5760 -0.2632 -0.3743
 6824TIP3    H120429   7.741   3.266   5.723 -0.3358  1.6490  0.1707
 6824TIP3    H220430   7.677   3.154   5.645  2.6230 -0.1684  0.3056
 6825TIP3   OH220431   6.469   2.207   4.531 -0.0961  0.3230  0.1149
 6825TIP3    H120432   6.559   2.231   4.509 -1.0932  2.4018 -1.9384
 6825TIP3    H220433   6.421   2.290   4.530 -1.5666 -0.3708  3.7749
 6826TIP3   OH220434   7.023   1.528   3.862 -0.2910 -0.0972  0.2279
 6826TIP3    H120435   6.961   1.586   3.817 -2.7662 -0.9270  2.4611
 6826TIP3    H220436   7.030   1.452   3.805 -0.4934  0.4449 -0.5390
 6827TIP3   OH220437   6.950   2.639   3.349 -0.1339  0.2581  0.4471
 6827TIP3    H120438   6.993   2.554   3.361 -2.8296 -1.2632 -0.1714
 6827TIP3    H220439   6.856   2.619   3.355 -0.8656  2.9444 -1.2317
 6828TIP3   OH220440   7.782   1.581   4.165 -0.2804  0.9342 -0.2766
 6828TIP3    H120441   7.859   1.578   4.108  0.1414  2.7477  0.1724
 6828TIP3    H220442   7.793   1.662   4.216 -3.0712  1.8396 -1.0574
 6829TIP3   OH220443   6.444   2.834   2.559  0.0407  0.3863 -0.3061
 6829TIP3    H120444   6.399   2.797   2.483 -0.3375 -1.1932  0.6680
 6829TIP3    H220445   6.466   2.924   2.533  0.9106 -0.4996 -2.6683
 6830TIP3   OH220446   6.203   4.595   4.477 -0.0607 -0.2181  0.2092
 6830TIP3    H120447   6.154   4.562   4.553  0.3493 -1.5922 -0.1030
 6830TIP3    H220448   6.280   4.539   4.473  1.3093  1.6161  0.3988
 6831TIP3   OH220449   6.182   0.583   2.436  0.8520 -0.1501  0.9316
 6831TIP3    H120450   6.216   0.496   2.458  1.0417 -0.1959  0.4624
 6831TIP3    H220451   6.231   0.609   2.359 -1.8443 -1.2541 -1.2455
 6832TIP3   OH220452   6.442   1.771   2.709  0.1450 -0.1531 -0.1131
 6832TIP3    H120453   6.402   1.851   2.676 -1.7990 -0.5182  1.2870
 6832TIP3    H220454   6.497   1.799   2.782  0.8453  0.0958 -0.7267
 6833TIP3   OH220455   5.951   3.559   2.161  0.0745 -0.2337 -0.0076
 6833TIP3    H120456   5.934   3.648   2.129 -1.1768 -0.4070  0.1573
 6833TIP3    H220457   5.991   3.571   2.247 -0.6553  0.1636  0.2780
 6834TIP3   OH220458   5.302   7.836   2.523 -0.0081 -0.1151  0.0625
 6834TIP3    H120459   5.319   7.871   2.435 -2.5876 -1.5894 -1.0942
 6834TIP3    H220460   5.341   7.748   2.521 -1.8773 -0.9668 -0.3809
 6835TIP3   OH220461   5.522   3.348   0.828 -0.5314  0.3763  0.1191
 6835TIP3    H120462   5.519   3.375   0.920  4.2114 -1.9107  1.0832
 6835TIP3    H220463   5.489   3.258   0.829  2.1794 -0.6504  0.1001
 6836TIP3   OH220464   7.994   3.303   3.896  0.4857  0.3983  0.0131
 6836TIP3    H120465   7.917   3.247   3.910  1.2262  0.1455  3.3364
 6836TIP3    H220466   7.966   3.364   3.827 -1.7022 -1.4739 -0.8468
 6837TIP3   OH220467   6.583   0.677   2.787  0.3389 -0.0948 -0.6206
 6837TIP3    H120468   6.504   0.694   2.736  0.5371 -0.6986 -1.1274
 6837TIP3    H220469   6.622   0.764   2.800  0.1554  0.0863 -1.2720
 6838TIP3   OH220470   6.582   2.979   3.715  0.3076  0.2598 -0.1566
 6838TIP3    H120471   6.495   2.984   3.754 -0.3725 -4.0674 -0.8182
 6838TIP3    H220472   6.639   2.954   3.788  0.0083 -2.2287 -0.7304
 6839TIP3   OH220473   0.776   2.646   5.269  0.5621 -0.4482 -0.0036
 6839TIP3    H120474   0.834   2.700   5.323  2.4976 -1.9975 -0.4943
 6839TIP3    H220475   0.820   2.562   5.262 -0.4440 -0.8122 -2.6494
 6840TIP3   OH220476   7.400   2.110   5.596 -0.1749 -0.8635  0.1027
 6840TIP3    H120477   7.441   2.171   5.535 -0.8580 -0.4130  0.0972
 6840TIP3    H220478   7.391   2.160   5.678  0.3436 -1.3283  0.4494
 6841TIP3   OH220479   7.681   4.022   3.622 -0.0823  0.0603 -0.0236
 6841TIP3    H120480   7.693   3.935   3.660  0.7595 -0.7124 -1.9537
 6841TIP3    H220481   7.602   4.014   3.569  1.1148 -0.1869 -1.8531
 6842TIP3   OH220482   6.961   0.244   3.845  0.1628  0.2808  0.5202
 6842TIP3    H120483   7.046   0.215   3.878  0.6057 -1.1246 -1.7326
 6842TIP3    H220484   6.981   0.316   3.785 -0.2851  0.3551  0.4539
 6843TIP3   OH220485   5.134   2.831   3.593  0.4888  0.0021 -0.0351
 6843TIP3    H120486   5.142   2.900   3.659  1.0420  0.5392 -0.6671
 6843TIP3    H220487   5.068   2.772   3.629  1.3314 -0.1203  1.3736
 6844TIP3   OH220488   6.519   1.940   2.902  0.0778 -0.6746  0.5697
 6844TIP3    H120489   6.588   2.004   2.917  0.5129 -0.5660 -1.6935
 6844TIP3    H220490   6.528   1.878   2.974  2.2342 -0.4049  0.5773
 6845TIP3   OH220491   6.347   3.383   2.754 -0.0441 -0.3526 -0.7303
 6845TIP3    H120492   6.363   3.298   2.795 -0.7429 -0.6937 -1.1580
 6845TIP3    H220493   6.262   3.411   2.788  0.2623  0.2508 -0.4640
 6846TIP3   OH220494   5.792   2.573   5.137 -0.0921  0.5812 -0.7346
 6846TIP3    H120495   5.749   2.515   5.200  0.2778 -0.2951 -1.2993
 6846TIP3    H220496   5.770   2.661   5.169 -2.0528  0.1583 -0.8402
 6847TIP3   OH220497   7.261   2.725   2.743 -0.5301 -0.0678 -0.1491
 6847TIP3    H120498   7.323   2.658   2.772  0.7690  0.4720 -1.6094
 6847TIP3    H220499   7.246   2.778   2.821  0.0208 -0.8273  0.4932
 6848TIP3   OH220500   8.312   1.132   5.085  0.3437 -0.3586  0.1042
 6848TIP3    H120501   8.251   1.118   5.157 -0.9590 -1.7691 -1.2779
 6848TIP3    H220502   8.270   1.197   5.030  0.7655 -0.2488 -0.0938
 6849TIP3   OH220503   5.739   7.851   3.621  0.2273  0.4642  0.0739
 6849TIP3    H120504   5.649   7.883   3.611 -0.8004 -1.6541  2.0724
 6849TIP3    H220505   5.776   7.904   3.692 -0.4083 -0.5692  1.1913
 6850TIP3   OH220506   5.088   0.739   4.402  0.0926 -0.1699 -0.1144
 6850TIP3    H120507   5.182   0.728   4.389 -0.1829  0.4478 -2.8979
 6850TIP3    H220508   5.076   0.833   4.417 -0.1256 -0.2213  0.0445
 6851TIP3   OH220509   4.723   1.728   4.502  0.0390 -0.0160  0.0472
 6851TIP3    H120510   4.734   1.641   4.465 -1.4743 -1.2855  2.4637
 6851TIP3    H220511   4.809   1.769   4.494  0.3234 -1.0415 -2.7326
 6852TIP3   OH220512   3.175   4.283   2.643  0.1806  0.1400 -0.3860
 6852TIP3    H120513   3.203   4.192   2.644  1.6524  0.5814  1.5100
 6852TIP3    H220514   3.096   4.283   2.589  0.5202 -2.1373 -0.9417
 6853TIP3   OH220515   7.439   1.762   3.614  0.1355  0.4456  0.1661
 6853TIP3    H120516   7.383   1.826   3.657  0.7024  0.6020  0.6782
 6853TIP3    H220517   7.481   1.714   3.686 -0.4281 -0.6296 -0.2104
 6854TIP3   OH220518   4.694   1.776   2.279 -0.2233  0.1499  0.0293
 6854TIP3    H120519   4.756   1.739   2.342  0.5937 -1.1302 -1.4862
 6854TIP3    H220520   4.711   1.870   2.281  1.5903 -0.1586 -0.1636
 6855TIP3   OH220521   6.235   2.174   1.632 -0.2091  0.2387  0.1277
 6855TIP3    H120522   6.282   2.255   1.614 -0.2175  0.2989  0.3745
 6855TIP3    H220523   6.143   2.196   1.615 -0.3604  0.6348  1.3749
 6856TIP3   OH220524   6.166   0.111   4.517 -0.3459  0.6773  0.3297
 6856TIP3    H120525   6.220   0.172   4.467  0.4324 -0.1923  0.1042
 6856TIP3    H220526   6.098   0.166   4.556 -0.6506  1.4437 -1.2313
 6857TIP3   OH220527   7.508   3.165   3.422 -0.2792  0.0874  0.1619
 6857TIP3    H120528   7.588   3.167   3.369 -0.8701 -2.5516 -0.9476
 6857TIP3    H220529   7.478   3.255   3.423  0.9451  0.5834 -2.1968
 6858TIP3   OH220530   6.909   3.583   4.161  0.0502  0.4874 -0.0114
 6858TIP3    H120531   6.981   3.600   4.100  0.9747 -0.1046  0.9075
 6858TIP3    H220532   6.902   3.488   4.164 -1.8219  0.5440 -1.2893
 6859TIP3   OH220533   5.968   2.695   4.966 -0.1605  0.3534 -0.1033
 6859TIP3    H120534   5.995   2.642   4.891  0.0429 -0.9562  0.8830
 6859TIP3    H220535   5.953   2.631   5.036  0.6088  1.6451  1.2592
 6860TIP3   OH220536   7.624   1.343   4.355  0.2872  0.7092 -0.1835
 6860TIP3    H120537   7.589   1.375   4.272  2.2764 -0.5999 -1.5918
 6860TIP3    H220538   7.701   1.397   4.371 -0.4023  1.3254  1.1167
 6861TIP3   OH220539   7.007   0.127   4.198  0.6253  0.4296  0.0701
 6861TIP3    H120540   7.021   0.090   4.110 -0.1346  2.0133 -0.7384
 6861TIP3    H220541   6.984   0.051   4.252  0.6994 -0.5160 -1.1868
 6862TIP3   OH220542   6.885   2.638   4.005  0.6490 -0.5970 -0.0759
 6862TIP3    H120543   6.831   2.564   3.976 -0.0050 -0.0486 -0.2715
 6862TIP3    H220544   6.898   2.690   3.926  0.3195 -0.0129  0.2513
 6863TIP3   OH220545   7.739   0.920   4.589  0.0313 -0.1614 -0.3910
 6863TIP3    H120546   7.796   0.844   4.582  0.1890  0.0450 -1.4288
 6863TIP3    H220547   7.745   0.947   4.681 -0.0284 -1.3966 -0.0209
 6864TIP3   OH220548   7.827   3.398   4.707  0.3252 -0.0145  0.3522
 6864TIP3    H120549   7.797   3.485   4.679  2.0504  1.5773  3.1242
 6864TIP3    H220550   7.755   3.364   4.761  0.1514  0.2522  0.2901
 6865TIP3   OH220551   6.832   1.359   3.465 -0.2572  0.2457 -0.1932
 6865TIP3    H120552   6.819   1.310   3.384  0.6109  0.3039 -0.3678
 6865TIP3    H220553   6.761   1.330   3.522 -0.5569 -0.1893 -0.7860
 6866TIP3   OH220554   6.290   2.306   4.102 -0.0780  0.5405 -0.5900
 6866TIP3    H120555   6.230   2.232   4.088  0.1036  0.0261  1.2570
 6866TIP3    H220556   6.235   2.374   4.141 -0.3623  1.6105 -2.7629
 6867TIP3   OH220557   8.461   0.890   3.493 -0.4438 -0.0817  0.2687
 6867TIP3    H120558   8.473   0.796   3.478  0.0208 -0.0421  0.3749
 6867TIP3    H220559   8.395   0.896   3.561 -0.8568 -0.3201 -0.1089
 6868TIP3   OH220560   5.231   1.028   5.472  0.0802  0.0850  0.5360
 6868TIP3    H120561   5.244   0.950   5.524  1.2290  0.3683  0.6914
 6868TIP3    H220562   5.318   1.067   5.465  0.1665 -0.4949 -2.4512
 6869TIP3   OH220563   7.043   3.079   4.506  0.1644  0.3540 -0.2453
 6869TIP3    H120564   6.979   3.143   4.474 -0.3889 -0.6817 -1.2406
 6869TIP3    H220565   6.994   3.022   4.564 -0.1766 -1.3058 -2.1101
 6870TIP3   OH220566   5.471   3.852   5.254 -0.1198 -0.1899  0.2889
 6870TIP3    H120567   5.514   3.807   5.182 -0.3422 -2.7061  1.6573
 6870TIP3    H220568   5.532   3.921   5.280  0.7697 -0.4476 -1.0756
 6871TIP3   OH220569   5.826   3.903   3.935  0.1527 -0.9317 -0.3797
 6871TIP3    H120570   5.804   3.979   3.988 -0.5987 -0.3875 -1.4451
 6871TIP3    H220571   5.761   3.837   3.959  0.5224 -1.0863  0.2090
 6872TIP3   OH220572   5.710   2.719   4.852 -0.5076 -0.5152  0.1446
 6872TIP3    H120573   5.713   2.631   4.815 -0.9269 -0.2221 -0.5804
 6872TIP3    H220574   5.774   2.716   4.924  0.1325 -1.1503 -0.4340
 6873TIP3   OH220575   8.237   0.489   3.433  0.3468 -0.9887  0.5987
 6873TIP3    H120576   8.297   0.445   3.372  1.1654  1.9360 -0.7992
 6873TIP3    H220577   8.294   0.537   3.493 -0.5389  0.0258  0.6548
 6874TIP3   OH220578   7.380   4.644   5.645 -0.1896 -0.4798  0.2826
 6874TIP3    H120579   7.452   4.580   5.645  0.2829  0.0483  0.8729
 6874TIP3    H220580   7.320   4.611   5.711  0.4666  0.1401  1.1980
 6875TIP3   OH220581   6.594   5.164   4.760 -0.7078  0.3971  0.0991
 6875TIP3    H120582   6.648   5.104   4.812 -0.8277  1.1473  1.0967
 6875TIP3    H220583   6.576   5.237   4.819 -0.5731  1.4179 -1.1115
 6876TIP3   OH220584   5.873   1.255   4.133 -0.2832 -0.2605  0.0450
 6876TIP3    H120585   5.844   1.346   4.124  0.6492 -0.0525 -0.8783
 6876TIP3    H220586   5.888   1.244   4.227 -0.5679  0.4811  0.1798
 6877TIP3   OH220587   4.474   3.203   2.040  0.1307  0.0907 -0.0618
 6877TIP3    H120588   4.543   3.156   1.994  0.6188  0.8055 -0.0584
 6877TIP3    H220589   4.415   3.233   1.971  1.4581  2.1397 -0.3449
 6878TIP3   OH220590   5.114   1.092   3.186  0.2028  0.6236  0.0015
 6878TIP3    H120591   5.019   1.096   3.181  0.0863 -1.1431  0.5611
 6878TIP3    H220592   5.144   1.128   3.103 -1.0622 -3.3452 -2.2794
 6879TIP3   OH220593   7.218   2.545   2.227 -0.2454 -0.1640 -0.2166
 6879TIP3    H120594   7.284   2.487   2.265  0.5359  1.0729  0.3466
 6879TIP3    H220595   7.241   2.551   2.135  0.2057 -0.0269 -0.0945
 6880TIP3   OH220596   7.616   4.770   5.110 -0.0551  0.4578 -0.3110
 6880TIP3    H120597   7.658   4.692   5.146  0.9418  0.9134 -0.4763
 6880TIP3    H220598   7.662   4.843   5.150 -1.2015  0.9730  0.0932
 6881TIP3   OH220599   7.507   3.267   3.740  0.4454  0.5022 -0.1125
 6881TIP3    H120600   7.449   3.304   3.674  0.2989 -1.2311 -0.9644
 6881TIP3    H220601   7.525   3.178   3.710  1.2642  0.0637  1.6002
 6882TIP3   OH220602   6.203   4.014   5.313 -0.4972  0.0368  0.0719
 6882TIP3    H120603   6.140   3.980   5.376 -0.5453  0.1580  0.0884
 6882TIP3    H220604   6.258   4.074   5.363  1.0855 -1.8108  0.5683
 6883TIP3   OH220605   5.319   1.046   2.354 -0.0695  0.0645  0.8248
 6883TIP3    H120606   5.326   0.974   2.291  1.1836  0.2145  0.7741
 6883TIP3    H220607   5.398   1.098   2.338  0.3371  0.0220  2.6138
 6884TIP3   OH220608   6.913   1.856   2.814  0.2909 -0.2053 -0.4033
 6884TIP3    H120609   6.833   1.805   2.807  0.3545 -0.2761 -0.5965
 6884TIP3    H220610   6.969   1.805   2.873 -0.2774  0.4350  0.7065
 6885TIP3   OH220611   7.144   5.443   4.597 -0.0777 -0.2378 -0.0758
 6885TIP3    H120612   7.165   5.420   4.687 -0.7198  0.0727  0.1546
 6885TIP3    H220613   7.064   5.494   4.603 -0.5174 -0.8192 -0.8845
 6886TIP3   OH220614   5.497   2.047   5.995  0.4321  0.0231  0.0932
 6886TIP3    H120615   5.511   2.133   5.956 -0.3782 -0.3328 -1.0062
 6886TIP3    H220616   5.474   1.990   5.921  1.1357 -1.1735  0.7854
 6887TIP3   OH220617   7.017   1.085   2.942  0.7799  0.2903 -0.3413
 6887TIP3    H120618   7.050   1.138   2.869  2.0452  0.1869  0.1557
 6887TIP3    H220619   6.936   1.130   2.969  0.3798  0.4124 -1.7016
 6888TIP3   OH220620   5.566   3.939   2.400 -0.4190  0.4400  0.4395
 6888TIP3    H120621   5.506   4.007   2.431  0.0799  1.0408  0.1033
 6888TIP3    H220622   5.510   3.865   2.377 -0.8473  0.1657  2.2674
 6889TIP3   OH220623   4.981   2.883   2.590 -0.2749 -0.3234 -0.1731
 6889TIP3    H120624   4.993   2.797   2.549 -0.2636 -0.0953 -0.6450
 6889TIP3    H220625   4.899   2.874   2.640 -0.3886 -0.5424 -0.3956
 6890TIP3   OH220626   8.488   4.937   3.520  0.2987 -0.1680  0.0289
 6890TIP3    H120627   8.506   4.962   3.611  3.2524 -0.9640 -0.2860
 6890TIP3    H220628   8.416   4.875   3.526 -0.4353  0.8198  1.7098
 6891TIP3   OH220629   5.059   4.000   1.090  0.1918 -0.0472  0.3718
 6891TIP3    H120630   5.147   4.016   1.058  0.4870  0.3033  1.3276
 6891TIP3    H220631   5.070   3.935   1.160 -0.1356  0.9612  1.3758
 6892TIP3   OH220632   7.187   3.625   3.268 -0.1454 -0.2643 -0.3760
 6892TIP3    H120633   7.264   3.662   3.311  0.0884 -0.2466 -0.8050
 6892TIP3    H220634   7.147   3.570   3.335 -0.2280  0.3868  0.1087
 6893TIP3   OH220635   3.212   7.287   1.114 -0.8197 -0.2961 -0.0676
 6893TIP3    H120636   3.200   7.193   1.106  0.1537 -0.5625  1.5157
 6893TIP3    H220637   3.306   7.298   1.129 -0.9917  0.9023  0.1621
 6894TIP3   OH220638   7.403   2.588   3.240  0.5608 -0.1669 -0.7346
 6894TIP3    H120639   7.402   2.674   3.282  1.0922  0.2653 -1.5814
 6894TIP3    H220640   7.484   2.587   3.189  0.0688 -0.7823 -1.5174
 6895TIP3   OH220641   5.524   2.124   2.257 -0.3307  0.3962 -0.1287
 6895TIP3    H120642   5.502   2.208   2.298 -3.2927 -1.1030  1.4793
 6895TIP3    H220643   5.520   2.061   2.328 -1.3080 -1.6101 -1.9257
 6896TIP3   OH220644   0.186   3.638   3.851  0.0681  0.4916 -0.2330
 6896TIP3    H120645   0.224   3.662   3.766  0.6220 -1.3531 -0.5307
 6896TIP3    H220646   0.108   3.587   3.829 -1.1512  2.0621  0.3825
 6897TIP3   OH220647   0.289   0.598   4.844 -0.0663  0.1972  0.1895
 6897TIP3    H120648   0.291   0.680   4.892 -1.2607  0.8317 -0.8042
 6897TIP3    H220649   0.208   0.603   4.792 -0.9475 -2.2343  1.2469
 6898TIP3   OH220650   5.871   3.401   4.217 -0.0414 -0.0125 -0.1412
 6898TIP3    H120651   5.870   3.410   4.121 -0.8064  1.0315 -0.0430
 6898TIP3    H220652   5.811   3.469   4.248 -0.9830 -1.3377  1.0013
 6899TIP3   OH220653   4.370   7.798   6.414  0.0816  0.8451  0.2439
 6899TIP3    H120654   4.274   7.799   6.403 -0.2547  0.4695  2.9709
 6899TIP3    H220655   4.400   7.875   6.365 -1.6748  1.2989 -0.1579
 6900TIP3   OH220656   6.772   2.133   4.095 -0.5740 -0.2436  0.3321
 6900TIP3    H120657   6.681   2.133   4.067 -0.2833 -0.2287 -0.6200
 6900TIP3    H220658   6.787   2.045   4.129 -0.9734 -0.2074  0.6029
 6901TIP3   OH220659   7.367   1.318   5.543 -0.0361 -0.2264 -0.1425
 6901TIP3    H120660   7.393   1.328   5.635 -0.3450  0.2597 -0.1019
 6901TIP3    H220661   7.284   1.271   5.547  0.0582 -0.3943 -0.1814
 6902TIP3   OH220662   7.083   2.808   3.519 -0.9281 -0.2064 -0.0960
 6902TIP3    H120663   7.120   2.893   3.493 -0.4458 -0.4439 -0.1801
 6902TIP3    H220664   7.057   2.767   3.437 -0.6300 -0.3847 -0.1033
 6903TIP3   OH220665   6.164   2.728   4.507 -0.0305  0.1002  0.0784
 6903TIP3    H120666   6.083   2.698   4.465  0.8746 -0.6734 -1.1296
 6903TIP3    H220667   6.178   2.667   4.579 -0.3225  0.0191  0.0685
 6904TIP3   OH220668   7.045   3.541   6.519  0.1372  0.3798  0.0133
 6904TIP3    H120669   6.983   3.508   6.584 -1.2096  1.9259 -0.4698
 6904TIP3    H220670   7.127   3.553   6.568 -0.5087  0.3158  1.1322
 6905TIP3   OH220671   6.284   1.095   5.906  0.0016  0.4367 -0.1886
 6905TIP3    H120672   6.351   1.068   5.844 -0.7663  0.5927 -1.0964
 6905TIP3    H220673   6.212   1.126   5.851 -0.4117  1.2162  0.7901
 6906TIP3   OH220674   4.834   3.323   3.406  0.4218  0.2665 -0.6758
 6906TIP3    H120675   4.762   3.361   3.457 -0.1667  0.3264 -1.5351
 6906TIP3    H220676   4.897   3.295   3.472 -0.7679 -0.5492  0.1559
 6907TIP3   OH220677   5.815   3.808   2.409 -0.2375 -0.1677  0.3938
 6907TIP3    H120678   5.743   3.864   2.436 -0.6421  0.2658 -1.5348
 6907TIP3    H220679   5.834   3.755   2.486 -0.6733  1.7417  1.8402
 6908TIP3   OH220680   5.797   4.183   2.196 -0.2057  0.2180 -0.7587
 6908TIP3    H120681   5.755   4.096   2.195 -0.8865  0.5438 -1.0253
 6908TIP3    H220682   5.829   4.195   2.107  2.2721 -0.8864 -0.0457
 6909TIP3   OH220683   6.710   2.928   2.065 -0.2423  0.2941  0.3134
 6909TIP3    H120684   6.626   2.929   2.020 -1.4078  0.0635  2.3807
 6909TIP3    H220685   6.688   2.902   2.155  2.1137 -0.3243  0.7409
 6910TIP3   OH220686   7.212   3.942   4.213 -0.2228  0.0720  0.6753
 6910TIP3    H120687   7.170   3.923   4.297  1.1754  0.3910  1.4536
 6910TIP3    H220688   7.299   3.973   4.236 -0.0238  0.7109 -0.8746
 6911TIP3   OH220689   5.857   2.760   1.600  0.0706  0.6398 -0.3564
 6911TIP3    H120690   5.801   2.696   1.643 -0.3885 -0.3763 -2.4170
 6911TIP3    H220691   5.797   2.831   1.576  0.5041  1.6763  1.5392
 6912TIP3   OH220692   7.052   2.703   2.359 -0.1288 -0.3589  0.1062
 6912TIP3    H120693   6.983   2.637   2.351 -0.3990 -0.3761  2.3436
 6912TIP3    H220694   7.132   2.657   2.333 -0.6771 -0.8916 -0.6401
 6913TIP3   OH220695   6.481   2.053   1.439 -0.2091  0.5041 -0.0681
 6913TIP3    H120696   6.472   2.138   1.482 -0.9528  0.2421  0.2963
 6913TIP3    H220697   6.412   2.052   1.373  0.0252  0.3251 -0.3103
 6914TIP3   OH220698   7.623   2.426   3.760  0.1334 -0.4940  0.1951
 6914TIP3    H120699   7.602   2.517   3.783  0.6065 -0.6021  1.0583
 6914TIP3    H220700   7.564   2.406   3.688  1.9402  1.4194 -1.8996
 6915TIP3   OH220701   6.302   2.446   3.042  0.0889  0.2869  0.0637
 6915TIP3    H120702   6.394   2.458   3.018 -0.4818  1.6534 -1.5138
 6915TIP3    H220703   6.270   2.535   3.056 -1.1191 -0.1594  0.1470
 6916TIP3   OH220704   6.374   1.815   3.411 -0.2998  0.2859  0.4284
 6916TIP3    H120705   6.287   1.810   3.370 -0.3860 -0.1933  0.6735
 6916TIP3    H220706   6.358   1.857   3.495  0.0280  2.2702 -0.4584
 6917TIP3   OH220707   6.578   2.136   5.024  0.4005  0.1276  0.2983
 6917TIP3    H120708   6.612   2.151   4.936  0.6763 -0.1613  0.3561
 6917TIP3    H220709   6.531   2.052   5.019  1.3666 -0.4396  0.6983
 6918TIP3   OH220710   7.320   3.168   4.461  0.1820 -0.6213 -0.4133
 6918TIP3    H120711   7.371   3.120   4.526  0.8208 -0.7375 -0.9914
 6918TIP3    H220712   7.229   3.160   4.490  0.4585 -0.6877  0.4494
 6919TIP3   OH220713   7.480   2.291   4.438 -0.4921 -0.0289 -0.5007
 6919TIP3    H120714   7.466   2.204   4.475  0.8263  0.1895  0.5888
 6919TIP3    H220715   7.566   2.286   4.396 -0.1070  0.9145  0.1501
 6920TIP3   OH220716   7.399   2.876   3.324 -0.4446 -0.6766  0.6043
 6920TIP3    H120717   7.419   2.969   3.313 -0.5168 -0.8657 -1.1832
 6920TIP3    H220718   7.458   2.847   3.394  0.3724  0.4614  0.3936
 6921TIP3   OH220719   7.648   2.938   5.985  0.2835  0.6218  0.0268
 6921TIP3    H120720   7.712   2.903   6.047 -1.3343 -0.6352  1.0243
 6921TIP3    H220721   7.683   3.025   5.962  3.4241 -0.8431 -1.1202
 6922TIP3   OH220722   7.649   3.918   2.752 -0.0286 -0.1931  0.7269
 6922TIP3    H120723   7.631   3.877   2.667  1.4718  1.1381 -0.2664
 6922TIP3    H220724   7.731   3.878   2.781 -0.0370  0.0564  1.0900
 6923TIP3   OH220725   0.320   1.987   2.201  0.2549 -0.1904  0.1644
 6923TIP3    H120726   0.396   1.929   2.208 -0.9939 -2.1435 -1.8935
 6923TIP3    H220727   0.343   2.046   2.128  0.8375  0.8757  1.1953
 6924TIP3   OH220728   6.499   1.742   4.014  0.5414 -0.1696  0.0527
 6924TIP3    H120729   6.539   1.795   3.945  1.1405 -0.0708  0.4781
 6924TIP3    H220730   6.543   1.657   4.009  1.6358  0.3173  1.2909
 6925TIP3   OH220731   5.641   1.003   5.023  0.1258  0.1127  0.4971
 6925TIP3    H120732   5.708   1.071   5.029  0.0169  0.1643  1.1627
 6925TIP3    H220733   5.574   1.030   5.086  0.5656 -1.1413  1.5255
 6926TIP3   OH220734   7.678   2.065   3.766 -0.3207  0.1624 -0.0473
 6926TIP3    H120735   7.773   2.060   3.755 -0.3677  0.4661 -0.6295
 6926TIP3    H220736   7.643   2.025   3.686 -0.6875 -1.2657  0.8002
 6927TIP3   OH220737   7.640   3.699   4.820  0.0086  0.3214  0.4432
 6927TIP3    H120738   7.643   3.772   4.758  1.2224 -0.0809  0.0056
 6927TIP3    H220739   7.558   3.654   4.799  1.0079 -0.5673 -1.7892
 6928TIP3   OH220740   8.278   1.834   2.644 -0.0584 -0.1065  0.1299
 6928TIP3    H120741   8.274   1.819   2.549  1.1849 -2.6742  0.4748
 6928TIP3    H220742   8.361   1.880   2.658 -1.7693  3.3214 -0.3665
 6929TIP3   OH220743   7.093   2.934   4.007 -0.3088 -0.0962 -0.4556
 6929TIP3    H120744   7.123   3.025   4.016 -0.3758 -0.1660  0.6253
 6929TIP3    H220745   7.167   2.882   4.037  0.4401 -0.4849 -2.9412
 6930TIP3   OH220746   7.432   3.182   4.995 -0.6785  0.3903  0.4687
 6930TIP3    H120747   7.381   3.111   5.034 -1.6718  1.9250  2.0658
 6930TIP3    H220748   7.375   3.258   5.001  0.7613  1.5483 -0.2772
 6931TIP3   OH220749   6.884   3.139   2.885 -0.1514  0.1658  0.3377
 6931TIP3    H120750   6.828   3.131   2.962  0.0241  0.3464  0.4819
 6931TIP3    H220751   6.830   3.105   2.813 -0.9420  1.5923  0.2355
 6932TIP3   OH220752   0.070   1.569   2.645  0.3684 -0.3913  0.3490
 6932TIP3    H120753   0.008   1.502   2.615 -0.1383  0.4601 -0.5164
 6932TIP3    H220754   0.069   1.561   2.741  1.1462 -2.3583  0.2032
 6933TIP3   OH220755   0.416   3.138   5.916  0.1330 -0.7426  0.1007
 6933TIP3    H120756   0.327   3.172   5.923  0.3953 -0.0264  0.0289
 6933TIP3    H220757   0.415   3.084   5.837  0.3700  1.1856 -1.2615
 6934TIP3   OH220758   5.809   0.272   4.302 -0.3361 -0.6469 -0.4611
 6934TIP3    H120759   5.859   0.323   4.238 -0.2283 -0.9086 -0.5864
 6934TIP3    H220760   5.822   0.318   4.384 -1.8081  0.6305 -0.9232
 6935TIP3   OH220761   7.748   0.885   5.256 -0.1112 -1.2088 -0.2295
 6935TIP3    H120762   7.656   0.902   5.276  0.0646  0.8146 -1.0070
 6935TIP3    H220763   7.757   0.790   5.264 -1.9441 -1.2943  1.1678
 6936TIP3   OH220764   6.815   1.364   2.416 -0.3015  0.1562 -0.2312
 6936TIP3    H120765   6.813   1.457   2.440 -0.7455  0.3633 -1.0536
 6936TIP3    H220766   6.766   1.359   2.334  1.1498 -0.5529 -1.0787
 6937TIP3   OH220767   8.438   3.700   3.631 -0.4951  0.5121  0.2417
 6937TIP3    H120768   8.353   3.711   3.589 -0.6183  1.5382  0.7428
 6937TIP3    H220769   8.458   3.786   3.667  0.5934  0.1827  0.4342
 6938TIP3   OH220770   7.000   3.607   5.552 -0.1608  0.6962  0.8062
 6938TIP3    H120771   7.007   3.590   5.646  0.2165  1.0139  0.8347
 6938TIP3    H220772   7.069   3.671   5.534  1.9714 -1.7941 -0.2898
 6939TIP3   OH220773   4.314   2.059   5.574 -0.2892  0.1336 -0.2463
 6939TIP3    H120774   4.243   2.074   5.512 -2.3709 -0.1270  2.0231
 6939TIP3    H220775   4.277   2.000   5.640  1.8250  0.5197  1.3416
 6940TIP3   OH220776   8.097   3.927   2.790  0.3890 -0.0623  1.3445
 6940TIP3    H120777   8.186   3.897   2.769  0.5134 -0.1462  1.9629
 6940TIP3    H220778   8.040   3.857   2.760  0.4136  0.6803 -0.4853
 6941TIP3   OH220779   7.863   3.467   4.251 -0.0330  0.0548  0.3151
 6941TIP3    H120780   7.936   3.468   4.189 -0.1911 -1.9681  0.0354
 6941TIP3    H220781   7.785   3.463   4.196 -0.2163 -0.6956  0.6199
 6942TIP3   OH220782   6.741   4.096   6.527 -0.4696  0.1183 -0.0166
 6942TIP3    H120783   6.786   4.144   6.457  0.3780 -1.6697 -0.7259
 6942TIP3    H220784   6.689   4.030   6.481 -0.5088 -0.5704  1.0023
 6943TIP3   OH220785   7.678   2.051   4.134  0.8598  0.3566 -0.0817
 6943TIP3    H120786   7.656   2.121   4.196  0.5410 -0.8278  1.1570
 6943TIP3    H220787   7.746   2.089   4.078  0.9892  1.5199  0.8470
 6944TIP3   OH220788   7.182   0.660   4.221 -0.1464 -0.5485  0.3577
 6944TIP3    H120789   7.210   0.745   4.256 -1.6459 -0.1713  0.6717
 6944TIP3    H220790   7.263   0.608   4.217  0.8422  0.9836 -0.1216
 6945TIP3   OH220791   6.503   3.699   4.642  0.0862 -0.2162 -0.4503
 6945TIP3    H120792   6.434   3.743   4.691  0.4334 -1.3206  1.0952
 6945TIP3    H220793   6.457   3.643   4.580 -0.3945  0.0017 -0.2885
 6946TIP3   OH220794   0.451   2.907   4.351  0.0039  0.3131  0.1811
 6946TIP3    H120795   0.389   2.980   4.359 -0.9602 -0.2713 -1.7884
 6946TIP3    H220796   0.401   2.830   4.378 -0.2459 -0.2024 -1.6867
 6947TIP3   OH220797   6.883   0.529   3.093  0.1847  0.0132  0.7377
 6947TIP3    H120798   6.948   0.511   3.025 -0.4143 -1.3956  0.5069
 6947TIP3    H220799   6.921   0.494   3.173  0.8918  1.6783  1.1238
 6948TIP3   OH220800   6.237   1.559   5.349 -0.3584  0.3704 -0.3954
 6948TIP3    H120801   6.207   1.650   5.344 -0.8499  0.1911 -0.9320
 6948TIP3    H220802   6.325   1.561   5.312  0.1256  0.8351  0.7715
 6949TIP3   OH220803   7.120   1.557   2.727 -0.3826 -0.1791  0.1393
 6949TIP3    H120804   7.084   1.573   2.814 -0.8500  1.2438 -0.3104
 6949TIP3    H220805   7.044   1.554   2.669  0.0910  1.5028 -0.6155
 6950TIP3   OH220806   3.860   0.067   4.365 -0.2407 -0.6503  0.3746
 6950TIP3    H120807   3.774   0.062   4.405  0.2807  0.3690  1.6522
 6950TIP3    H220808   3.918   0.023   4.427  0.3796 -0.1130  0.1850
 6951TIP3   OH220809   6.999   0.653   3.539  0.2256  0.3072 -0.3887
 6951TIP3    H120810   6.905   0.664   3.529  0.2750 -1.0545 -2.6086
 6951TIP3    H220811   7.030   0.739   3.568 -1.8255  0.4136  1.6738
 6952TIP3   OH220812   7.442   4.392   5.424  0.2552  0.1567 -0.4151
 6952TIP3    H120813   7.424   4.329   5.494 -0.2361  0.8175  0.0570
 6952TIP3    H220814   7.525   4.432   5.448  2.0388 -2.3203 -2.1808
 6953TIP3   OH220815   6.554   2.744   5.536  0.7256 -0.2443  0.3255
 6953TIP3    H120816   6.541   2.791   5.619  0.4134  0.9121 -0.3693
 6953TIP3    H220817   6.624   2.792   5.492  1.3820 -1.2819  0.2263
 6954TIP3   OH220818   4.536   7.708   5.192 -0.3366 -0.4552  0.1422
 6954TIP3    H120819   4.525   7.790   5.144  0.5886 -0.5421 -0.2254
 6954TIP3    H220820   4.462   7.654   5.165 -0.1839 -0.2575 -0.6903
 6955TIP3   OH220821   7.037   2.135   4.525  0.5844 -0.0289  0.0246
 6955TIP3    H120822   7.016   2.220   4.563 -2.5321 -1.0937  0.8312
 6955TIP3    H220823   7.044   2.151   4.431 -2.1140  0.7612 -0.0582
 6956TIP3   OH220824   8.191   3.510   5.326 -0.5580 -0.0102  0.2861
 6956TIP3    H120825   8.185   3.435   5.384 -1.8013  0.6987  1.1109
 6956TIP3    H220826   8.195   3.473   5.238 -0.1479 -1.0615  0.7517
 6957TIP3   OH220827   5.500   1.317   6.493  0.1459 -0.0137 -0.0009
 6957TIP3    H120828   5.426   1.267   6.529 -1.2537  0.6023 -1.9657
 6957TIP3    H220829   5.459   1.383   6.437  2.0728  1.9805  0.8737
 6958TIP3   OH220830   0.701   1.837   5.936  0.2285 -0.3607  0.0060
 6958TIP3    H120831   0.659   1.829   5.850 -0.2292 -0.7328  0.2646
 6958TIP3    H220832   0.709   1.747   5.967  0.2454 -0.2159  0.4236
 6959TIP3   OH220833   8.143   1.880   4.496 -0.1766 -0.3120 -0.5364
 6959TIP3    H120834   8.129   1.852   4.406 -2.0228 -1.0759 -0.0409
 6959TIP3    H220835   8.137   1.799   4.547 -1.9261  0.4573  0.5349
 6960TIP3   OH220836   7.861   3.988   4.125 -0.6946  0.1986  0.0671
 6960TIP3    H120837   7.813   3.940   4.192  0.2650  0.8048  1.2001
 6960TIP3    H220838   7.902   4.061   4.171  1.6568 -0.5283 -0.7735
 6961TIP3   OH220839   5.834   1.416   2.154  0.4935  0.4827 -0.2823
 6961TIP3    H120840   5.886   1.492   2.177  0.0724  0.1893  1.6741
 6961TIP3    H220841   5.747   1.451   2.135  0.8711  0.7354 -1.6340
 6962TIP3   OH220842   7.633   4.719   3.045 -0.5530  0.4045 -0.6487
 6962TIP3    H120843   7.630   4.777   3.120  0.4637  1.4932 -1.4424
 6962TIP3    H220844   7.605   4.773   2.971  0.9567  0.0719 -1.4921
 6963TIP3   OH220845   2.015   1.801   2.712  0.4018 -0.1458 -0.1647
 6963TIP3    H120846   2.008   1.869   2.646 -1.2156 -0.6063 -0.4723
 6963TIP3    H220847   1.939   1.814   2.769  2.3756  1.0072  2.3655
 6964TIP3   OH220848   6.064   3.655   1.574 -0.6082 -0.2503 -0.0342
 6964TIP3    H120849   6.134   3.602   1.534  0.0219  1.8761 -1.8499
 6964TIP3    H220850   6.108   3.708   1.639 -0.9179 -0.5105  0.3906
 6965TIP3   OH220851   1.060   3.017   5.262  0.1556  0.2538  0.3201
 6965TIP3    H120852   1.155   3.012   5.271  0.1510  0.4406  0.4701
 6965TIP3    H220853   1.037   2.940   5.210  0.2893 -0.2612  1.0171
 6966TIP3   OH220854   7.631   4.453   3.163  0.1424 -0.2909 -0.0175
 6966TIP3    H120855   7.552   4.411   3.130  0.6557 -2.2028  1.0640
 6966TIP3    H220856   7.630   4.541   3.126 -2.0449 -0.5825 -0.6905
 6967TIP3   OH220857   4.526   2.882   4.610 -0.1157  0.1353  0.2123
 6967TIP3    H120858   4.504   2.870   4.518  1.8019 -1.5199 -0.0591
 6967TIP3    H220859   4.485   2.809   4.655 -0.8412  0.8040  0.6510
 6968TIP3   OH220860   4.669   2.975   3.168  0.5770  0.3701 -0.6144
 6968TIP3    H120861   4.598   2.969   3.104 -0.5477 -0.6433  0.6945
 6968TIP3    H220862   4.628   3.013   3.246  1.7478  0.8626 -0.2222
 6969TIP3   OH220863   8.260   5.111   5.486  0.4653 -0.1830  0.0697
 6969TIP3    H120864   8.302   5.116   5.400  0.5297  2.2476  0.2034
 6969TIP3    H220865   8.166   5.114   5.467  0.4323 -1.2122  0.0223
 6970TIP3   OH220866   5.550   1.650   3.887  0.4798 -0.2922 -0.2858
 6970TIP3    H120867   5.518   1.564   3.859 -0.0898 -0.6755  1.4694
 6970TIP3    H220868   5.642   1.652   3.858  0.9916 -2.1715  1.0716
 6971TIP3   OH220869   7.413   0.732   3.655 -0.1032  0.1679 -0.1616
 6971TIP3    H120870   7.497   0.695   3.681  0.1781  0.3379 -0.8093
 6971TIP3    H220871   7.359   0.726   3.733  0.0037 -1.4069 -0.1802
 6972TIP3   OH220872   6.935   4.393   4.314  0.0198 -0.0128  0.1248
 6972TIP3    H120873   6.866   4.456   4.295 -0.4542 -0.0965  1.5645
 6972TIP3    H220874   6.919   4.322   4.251 -0.1996  0.7044 -0.6463
 6973TIP3   OH220875   7.312   3.011   5.364  0.1688 -0.0949  0.1396
 6973TIP3    H120876   7.330   3.087   5.420 -0.0806  0.0525  0.0243
 6973TIP3    H220877   7.244   2.962   5.410 -0.7069  0.5217 -0.4723
 6974TIP3   OH220878   5.123   4.701   5.996  0.0725 -0.4074 -0.2586
 6974TIP3    H120879   5.064   4.772   6.021  1.2031  0.9721 -1.4168
 6974TIP3    H220880   5.066   4.625   5.986 -1.3980  0.7218 -0.6263
 6975TIP3   OH220881   5.129   5.231   2.499 -0.0668  0.4146 -0.0297
 6975TIP3    H120882   5.209   5.237   2.447 -0.2881  0.6788 -0.3380
 6975TIP3    H220883   5.081   5.311   2.479 -0.2330  0.4388  0.4527
 6976TIP3   OH220884   7.397   4.088   3.149  0.2044 -0.3509 -0.1559
 6976TIP3    H120885   7.453   4.032   3.096  1.2357  0.0939  0.4407
 6976TIP3    H220886   7.409   4.176   3.113  1.2118  0.0155  1.0208
 6977TIP3   OH220887   5.642   2.973   4.683 -0.3158  0.6579 -0.5088
 6977TIP3    H120888   5.679   2.896   4.726 -0.8061  1.4685  1.4366
 6977TIP3    H220889   5.610   2.941   4.599 -0.3264 -1.2219  0.1962
 6978TIP3   OH220890   7.099   2.905   2.100 -0.0954  0.9495 -0.0245
 6978TIP3    H120891   7.119   2.832   2.159  0.5239  0.8557 -0.3433
 6978TIP3    H220892   7.125   2.983   2.150 -0.1915  0.9108  0.0854
 6979TIP3   OH220893   6.690   1.353   4.317 -0.3836  0.2883 -0.3377
 6979TIP3    H120894   6.635   1.276   4.318  1.8096 -1.3016  0.9958
 6979TIP3    H220895   6.629   1.427   4.323 -2.6355 -1.2110 -3.5458
 6980TIP3   OH220896   7.795   3.468   3.286 -0.5751  0.3916  0.3746
 6980TIP3    H120897   7.704   3.438   3.285 -0.4473 -0.0171  0.9569
 6980TIP3    H220898   7.801   3.527   3.361 -0.7811  1.7580 -0.6703
 6981TIP3   OH220899   0.584   2.444   4.394  0.1218 -0.7457 -0.2394
 6981TIP3    H120900   0.651   2.502   4.358  0.8505 -1.6111 -0.2845
 6981TIP3    H220901   0.597   2.447   4.489 -1.3001  0.9259 -0.0713
 6982TIP3   OH220902   5.265   2.183   3.345 -0.2345  0.0502 -0.6671
 6982TIP3    H120903   5.347   2.222   3.314 -0.2821 -0.8574 -1.9754
 6982TIP3    H220904   5.292   2.126   3.417  0.0144  1.3362  0.2767
 6983TIP3   OH220905   2.442   7.354   1.057  0.0402  0.1251  0.2661
 6983TIP3    H120906   2.369   7.336   0.997  0.0506  0.1372  0.2496
 6983TIP3    H220907   2.519   7.359   1.001 -0.2865  2.5411 -0.0556
 6984TIP3   OH220908   5.098   7.674   3.793  0.0353 -0.3257  0.8216
 6984TIP3    H120909   5.077   7.626   3.872 -0.8902 -0.0273  0.7618
 6984TIP3    H220910   5.132   7.758   3.824  1.8379 -1.0715  0.9285
 6985TIP3   OH220911   8.434   1.425   5.495  0.0446  0.2448 -0.2324
 6985TIP3    H120912   8.434   1.378   5.412 -3.2660 -0.9090  0.3671
 6985TIP3    H220913   8.346   1.464   5.501 -0.3411 -0.9793  3.4069
 6986TIP3   OH220914   0.343   1.709   3.384 -0.1140  1.0069  0.2918
 6986TIP3    H120915   0.389   1.783   3.423  0.3709  0.6516  0.4118
 6986TIP3    H220916   0.409   1.639   3.382 -0.6189  0.5280  0.3464
 6987TIP3   OH220917   1.308   2.488   2.305 -0.0181 -0.0663  0.1394
 6987TIP3    H120918   1.236   2.488   2.369 -0.9725  1.6526 -0.8973
 6987TIP3    H220919   1.303   2.402   2.264 -0.9430 -0.2916  0.6948
 6988TIP3   OH220920   8.082   2.049   2.703  0.5943 -0.0567 -0.1346
 6988TIP3    H120921   8.116   2.069   2.790 -0.3960 -0.0144  0.2545
 6988TIP3    H220922   8.153   2.002   2.660  1.1351  0.0081  0.6634
 6989TIP3   OH220923   6.476   1.287   3.153 -0.0675 -0.1328 -0.3494
 6989TIP3    H120924   6.465   1.380   3.170 -0.4502 -0.1116 -0.7010
 6989TIP3    H220925   6.394   1.247   3.183 -0.3847 -0.2044 -1.2781
 6990TIP3   OH220926   7.232   2.900   2.944  0.0530 -0.2186  0.4381
 6990TIP3    H120927   7.317   2.939   2.965 -0.2556  0.5643  0.2453
 6990TIP3    H220928   7.174   2.975   2.927 -0.3452 -0.7836 -0.7162
 6991TIP3   OH220929   7.119   3.479   1.828  0.9227  0.9374  0.0816
 6991TIP3    H120930   7.122   3.385   1.845  0.3659  0.9346  0.1938
 6991TIP3    H220931   7.194   3.496   1.771  1.2352  0.4890  0.3588
 6992TIP3   OH220932   6.257   0.322   6.897  0.0139  0.5421  0.0424
 6992TIP3    H120933   6.226   0.338   6.987  4.0304 -0.3984  1.6901
 6992TIP3    H220934   6.227   0.233   6.878  0.4786  0.1436  1.0892
 6993TIP3   OH220935   7.353   2.571   5.414  0.0901 -0.1078  0.6863
 6993TIP3    H120936   7.381   2.600   5.500  1.7364 -0.8736  0.4223
 6993TIP3    H220937   7.425   2.594   5.356 -0.4573 -0.7653 -0.2686
 6994TIP3   OH220938   5.002   0.522   6.070  0.6971  0.4479  0.0102
 6994TIP3    H120939   4.927   0.481   6.027 -0.2681  0.3796  1.7010
 6994TIP3    H220940   5.002   0.612   6.037 -0.2002  0.4835  0.0960
 6995TIP3   OH220941   1.286   0.900   6.071  0.1667 -0.4870 -0.0174
 6995TIP3    H120942   1.283   0.901   6.167  1.0122  0.5403 -0.0000
 6995TIP3    H220943   1.355   0.837   6.049 -0.2759 -0.9960  0.0361
 6996TIP3   OH220944   7.602   3.091   5.343 -0.4339  0.1087 -0.2761
 6996TIP3    H120945   7.554   3.024   5.392  0.7952  0.1462  1.0164
 6996TIP3    H220946   7.537   3.159   5.326 -1.1180 -0.3406  0.4791
 6997TIP3   OH220947   0.159   0.839   5.500  0.4748  0.0810  0.3161
 6997TIP3    H120948   0.122   0.751   5.511  0.7772 -0.1373 -0.3455
 6997TIP3    H220949   0.225   0.846   5.568  0.6979 -0.3429  0.1447
 6998TIP3   OH220950   6.453   3.711   5.281 -0.0058 -0.1991  0.4289
 6998TIP3    H120951   6.394   3.785   5.299 -0.6159 -0.9638  1.6579
 6998TIP3    H220952   6.487   3.729   5.193 -3.6447 -0.7532 -1.1978
 6999TIP3   OH220953   7.364   1.563   2.039  0.5712  0.5953  0.3120
 6999TIP3    H120954   7.275   1.531   2.056  0.8217 -0.2052  0.1421
 6999TIP3    H220955   7.352   1.643   1.988 -0.0322 -0.0265 -0.5298
 7000TIP3   OH220956   0.431   2.904   4.030 -0.2831 -0.0056 -1.1342
 7000TIP3    H120957   0.468   2.839   4.090 -0.6625  0.9562  0.1652
 7000TIP3    H220958   0.469   2.987   4.058 -3.0333  0.9402 -0.0529
 7001TIP3   OH220959   1.671   2.223   4.122  0.9968 -0.0615  0.0517
 7001TIP3    H120960   1.654   2.152   4.185  1.7323 -0.2427  0.0531
 7001TIP3    H220961   1.658   2.303   4.172 -2.7371 -0.0984 -0.6734
 7002TIP3   OH220962   0.180   3.999   3.476  0.3216 -0.1675  0.3443
 7002TIP3    H120963   0.096   3.964   3.449  0.0193  1.1755 -0.5186
 7002TIP3    H220964   0.244   3.932   3.450 -0.4588 -1.0953  0.8256
 7003TIP3   OH220965   7.526   3.341   4.443 -0.1547 -0.5200  0.1137
 7003TIP3    H120966   7.446   3.289   4.431 -0.2920 -0.3190  0.1667
 7003TIP3    H220967   7.597   3.282   4.416 -0.2368 -1.0643  1.0714
 7004TIP3   OH220968   7.487   1.218   2.412  0.4239 -0.2284 -0.0721
 7004TIP3    H120969   7.502   1.268   2.332 -2.8329 -1.9555 -1.8568
 7004TIP3    H220970   7.440   1.278   2.470  0.0805  0.0487 -0.6407
 7005TIP3   OH220971   1.034   4.509   2.799 -0.4194 -0.8090 -0.4324
 7005TIP3    H120972   1.040   4.423   2.841 -0.1494 -0.3488  0.4747
 7005TIP3    H220973   1.069   4.570   2.864  0.3027 -0.1258 -1.4428
 7006TIP3   OH220974   8.275   1.432   3.539 -0.3989  0.4755  0.6777
 7006TIP3    H120975   8.186   1.429   3.501 -0.6928  0.6620  1.3530
 7006TIP3    H220976   8.321   1.497   3.486 -0.7539  0.5987  0.5160
 7007TIP3   OH220977   1.187   2.428   3.699  0.3571  0.0641 -0.1278
 7007TIP3    H120978   1.186   2.507   3.645  0.1202 -0.8880 -1.5299
 7007TIP3    H220979   1.247   2.450   3.771  1.9510  0.7927 -1.6347
 7008TIP3   OH220980   6.508   2.494   4.051  0.2165  0.3905 -0.0225
 7008TIP3    H120981   6.529   2.503   4.144 -1.8387  2.1088  0.3129
 7008TIP3    H220982   6.422   2.453   4.049  0.3815  0.0735 -1.1800
 7009TIP3   OH220983   0.483   5.125   3.796 -0.0694 -0.1430 -0.5423
 7009TIP3    H120984   0.549   5.193   3.805 -0.6202  0.5578 -1.7614
 7009TIP3    H220985   0.523   5.059   3.740  0.7062 -1.1494  1.1611
 7010TIP3   OH220986   8.069   1.503   3.808 -0.6177 -0.1515  0.2808
 7010TIP3    H120987   7.990   1.466   3.768 -1.2450  1.6087 -0.1578
 7010TIP3    H220988   8.140   1.473   3.752 -1.1250 -0.6626 -0.0929
 7011TIP3   OH220989   6.378   4.905   3.672  0.7097 -0.1168  0.3627
 7011TIP3    H120990   6.450   4.909   3.735  1.6059 -0.2021 -0.6412
 7011TIP3    H220991   6.417   4.932   3.589 -0.2443 -0.8470 -0.3384
 7012TIP3   OH220992   8.438   4.116   4.040  0.5186  0.0837 -0.6619
 7012TIP3    H120993   8.414   4.192   4.093 -0.2686 -1.5427  1.4092
 7012TIP3    H220994   8.530   4.131   4.017  1.0377  0.6387  1.5966
 7013TIP3   OH220995   8.145   3.577   2.329  0.2589  0.0397  0.0333
 7013TIP3    H120996   8.227   3.578   2.280  0.5448  1.1288  0.5170
 7013TIP3    H220997   8.170   3.554   2.418 -0.2451 -1.7960 -0.2655
 7014TIP3   OH220998   1.175   2.146   3.711 -0.2826 -0.5631 -0.4097
 7014TIP3    H120999   1.101   2.184   3.664  0.4756 -0.0044 -1.1660
 7014TIP3    H221000   1.137   2.112   3.792 -0.9450  2.0763  0.4429
 7015TIP3   OH221001   2.809   7.795   0.188  0.1274  0.0966 -0.3949
 7015TIP3    H121002   2.715   7.778   0.196  0.3230 -1.0658 -0.3984
 7015TIP3    H221003   2.815   7.876   0.138 -0.8807  0.3380 -0.1313
 7016TIP3   OH221004   7.535   4.445   5.160 -0.3982  0.0943  0.2455
 7016TIP3    H121005   7.501   4.439   5.249  1.1488  0.8749  0.9186
 7016TIP3    H221006   7.625   4.412   5.166 -0.9271 -1.7128 -1.4290
 7017TIP3   OH221007   7.806   4.628   4.385  0.3153  0.1281 -0.5718
 7017TIP3    H121008   7.716   4.595   4.397  0.5941 -0.6641 -0.6533
 7017TIP3    H221009   7.805   4.715   4.426 -0.8180  0.6420 -1.6521
 7018TIP3   OH221010   8.172   2.931   3.493  0.1612 -0.4539  0.0310
 7018TIP3    H121011   8.259   2.940   3.454  0.0776  1.1559  0.1672
 7018TIP3    H221012   8.112   2.951   3.422 -0.0080  1.7278  0.7403
 7019TIP3   OH221013   0.464   5.513   3.852  0.2602 -0.0432 -0.3192
 7019TIP3    H121014   0.506   5.427   3.846  2.0462  0.8179 -0.7049
 7019TIP3    H221015   0.413   5.521   3.772 -0.4953 -1.0393  0.0578
 7020TIP3   OH221016   7.179   5.394   3.938 -0.2640 -0.1595 -0.6511
 7020TIP3    H121017   7.169   5.471   3.994  0.3649  0.5400 -1.4990
 7020TIP3    H221018   7.273   5.375   3.940 -0.3024 -0.4111 -1.1008
 7021TIP3   OH221019   7.684   1.444   4.980 -0.0884 -0.0006 -0.2668
 7021TIP3    H121020   7.640   1.368   4.943  0.8160 -0.1737 -1.0004
 7021TIP3    H221021   7.714   1.495   4.904 -1.4556  1.5489  0.2053
 7022TIP3   OH221022   7.332   5.516   2.589  0.3024  0.6371  0.5821
 7022TIP3    H121023   7.367   5.560   2.513  0.4068 -0.4217  0.0108
 7022TIP3    H221024   7.401   5.456   2.617  0.6044  1.6228  2.0322
 7023TIP3   OH221025   0.267   5.220   2.920 -0.3049 -0.3706 -0.2687
 7023TIP3    H121026   0.229   5.143   2.962 -1.0815  0.5707  0.7781
 7023TIP3    H221027   0.254   5.291   2.983 -0.7432  0.8801 -1.7286
 7024TIP3   OH221028   0.357   3.495   3.676  0.3038 -0.1744  0.8067
 7024TIP3    H121029   0.372   3.523   3.767  0.7380 -2.4120  1.4615
 7024TIP3    H221030   0.415   3.420   3.665 -0.9462 -0.9119 -0.8187
 7025TIP3   OH221031   7.213   5.110   3.437 -0.4933  0.2626  0.1893
 7025TIP3    H121032   7.191   5.200   3.413 -1.5901 -0.1544 -0.4284
 7025TIP3    H221033   7.144   5.057   3.396  0.1056 -0.8487  0.5985
 7026TIP3   OH221034   1.796   2.772   1.863  0.2329  0.3148 -0.0325
 7026TIP3    H121035   1.839   2.819   1.935  1.7975 -2.1789  0.7178
 7026TIP3    H221036   1.735   2.713   1.907  1.2853 -1.3113 -0.7182
 7027TIP3   OH221037   2.229   1.643   2.642  0.6092  0.3413 -0.2690
 7027TIP3    H121038   2.286   1.699   2.695  0.9826  3.5020 -3.7635
 7027TIP3    H221039   2.140   1.667   2.670  0.8406  0.6156  0.2422
 7028TIP3   OH221040   6.936   1.311   1.748  0.2237  0.1420 -0.6133
 7028TIP3    H121041   6.908   1.324   1.839  0.0729 -1.7772 -0.3524
 7028TIP3    H221042   7.026   1.278   1.755 -0.5377 -2.1395 -1.0171
 7029TIP3   OH221043   8.483   4.378   5.179  0.7550 -0.5178 -0.0110
 7029TIP3    H121044   8.502   4.298   5.229 -1.9643 -1.4601 -0.3761
 7029TIP3    H221045   8.453   4.346   5.094 -2.8712  0.7527  0.7254
 7030TIP3   OH221046   7.733   3.105   3.195 -0.0612 -0.2316  0.2711
 7030TIP3    H121047   7.772   3.018   3.196 -0.1406 -0.2688  0.2026
 7030TIP3    H221048   7.805   3.164   3.175 -0.0851 -0.3240 -0.0859
 7031TIP3   OH221049   8.429   0.203   5.341  0.2799 -0.0210 -0.0995
 7031TIP3    H121050   8.521   0.185   5.363  0.9479  1.3459 -1.6914
 7031TIP3    H221051   8.423   0.187   5.247 -1.2986 -0.7776  0.1201
 7032TIP3   OH221052   7.736   1.137   5.583 -0.2541  0.3640 -0.3120
 7032TIP3    H121053   7.717   1.045   5.601 -1.3370  0.5105 -0.6864
 7032TIP3    H221054   7.796   1.163   5.653 -0.6309 -0.3838  0.2999
 7033TIP3   OH221055   6.704   2.043   3.335  0.0060  0.0175 -0.1120
 7033TIP3    H121056   6.762   2.000   3.271  0.4227 -1.1499  1.0328
 7033TIP3    H221057   6.619   2.047   3.291  0.2288 -1.0120 -0.6632
 7034TIP3   OH221058   7.598   3.594   4.121  0.9262 -0.1437  0.2613
 7034TIP3    H121059   7.620   3.686   4.131 -1.6024  0.7988 -2.0109
 7034TIP3    H221060   7.628   3.572   4.032 -1.2406 -0.5919 -0.4013
 7035TIP3   OH221061   4.763   2.516   2.904  0.1347 -0.1492 -0.7282
 7035TIP3    H121062   4.814   2.437   2.920  0.5041  0.0685 -0.8252
 7035TIP3    H221063   4.766   2.564   2.987  1.6761  0.7638 -1.2839
 7036TIP3   OH221064   6.780   2.973   3.928 -0.5166 -0.4948 -0.2345
 7036TIP3    H121065   6.717   2.921   3.978  0.5577 -0.4088  1.2393
 7036TIP3    H221066   6.855   2.915   3.916 -0.6120 -0.3915 -1.4722
 7037TIP3   OH221067   7.861   2.640   1.889 -0.3035 -0.1574  0.6317
 7037TIP3    H121068   7.948   2.620   1.854 -0.7592 -0.4469 -0.3523
 7037TIP3    H221069   7.802   2.628   1.815 -1.1279  0.5216  1.1714
 7038TIP3   OH221070   7.067   4.675   3.816  0.4785 -0.2395 -0.2902
 7038TIP3    H121071   7.026   4.645   3.897 -1.1987 -1.3611 -1.5429
 7038TIP3    H221072   7.137   4.612   3.800  0.8721  0.0348  0.3146
 7039TIP3   OH221073   7.052   3.295   3.808 -0.2491  0.5130  0.2356
 7039TIP3    H121074   7.102   3.253   3.878 -0.0687  0.2704 -0.0391
 7039TIP3    H221075   7.107   3.285   3.730 -0.8335  0.0348 -0.1157
 7040TIP3   OH221076   8.032   4.809   3.257 -0.1570  0.4331 -0.1180
 7040TIP3    H121077   8.108   4.751   3.259 -0.0035  0.6443  0.5721
 7040TIP3    H221078   8.064   4.890   3.217  0.0205  0.5720  0.3025
 7041TIP3   OH221079   6.653   2.165   4.755 -0.0081  0.2221  0.0281
 7041TIP3    H121080   6.625   2.252   4.725  0.5841  0.7600  1.0027
 7041TIP3    H221081   6.667   2.115   4.675  1.0330  1.4688 -0.5774
 7042TIP3   OH221082   7.813   2.059   2.696 -0.4681 -0.5955 -0.3986
 7042TIP3    H121083   7.795   2.069   2.789 -1.3897 -1.9203 -0.4161
 7042TIP3    H221084   7.908   2.047   2.691 -0.4818 -1.1121  0.4353
 7043TIP3   OH221085   7.328   0.952   3.992  0.3007  0.4320  0.1028
 7043TIP3    H121086   7.330   1.048   4.000  0.1557  0.3722  0.8567
 7043TIP3    H221087   7.363   0.920   4.075 -1.0623 -0.1830  0.4471
 7044TIP3   OH221088   7.616   2.867   3.483 -0.1050  0.0807  0.0431
 7044TIP3    H121089   7.650   2.780   3.506  0.7594  0.5692  0.6127
 7044TIP3    H221090   7.692   2.924   3.486 -0.0793  0.3441 -3.1909
 7045TIP3   OH221091   7.724   3.785   6.061  0.5354  0.1874 -0.2910
 7045TIP3    H121092   7.659   3.799   6.130 -1.5833 -3.7620 -1.2769
 7045TIP3    H221093   7.707   3.853   5.997 -0.7724  0.8863  0.7783
 7046TIP3   OH221094   1.206   1.676   0.505 -0.5369 -0.0965 -0.3724
 7046TIP3    H121095   1.145   1.735   0.460 -1.7626 -0.3064  0.9946
 7046TIP3    H221096   1.203   1.703   0.597 -1.1415 -2.2965  0.2824
 7047TIP3   OH221097   7.531   4.159   4.248  0.0363 -0.0175 -0.4725
 7047TIP3    H121098   7.551   4.126   4.161 -0.5520  0.8228 -0.9362
 7047TIP3    H221099   7.486   4.086   4.292 -0.0978 -0.2779 -1.0390
 7048TIP3   OH221100   8.170   5.360   4.282  0.0157  0.2832  0.2868
 7048TIP3    H121101   8.240   5.398   4.230 -0.2098 -0.8084 -0.8420
 7048TIP3    H221102   8.092   5.411   4.259 -0.0280 -0.0228 -0.2423
 7049TIP3   OH221103   6.817   1.989   5.535 -0.0925  0.0008  0.6163
 7049TIP3    H121104   6.858   1.911   5.571  1.7762  0.4097 -0.5925
 7049TIP3    H221105   6.852   2.061   5.587  0.4265  0.3057 -0.1399
 7050TIP3   OH221106   5.983   4.485   3.391 -0.3541  0.0979 -0.9205
 7050TIP3    H121107   6.019   4.528   3.469  0.3977  0.1499 -1.2984
 7050TIP3    H221108   5.910   4.541   3.365 -2.2262 -1.2686  1.2222
 7051TIP3   OH221109   8.070   4.004   3.742 -0.6094  0.2162  0.8317
 7051TIP3    H121110   8.149   4.013   3.795 -2.1417  1.2281  3.0162
 7051TIP3    H221111   8.093   3.940   3.675  2.1590  0.7671  1.2194
 7052TIP3   OH221112   1.861   0.991   4.418 -0.0731  0.3980 -0.8004
 7052TIP3    H121113   1.776   1.034   4.428  0.2060  0.9659 -0.8715
 7052TIP3    H221114   1.839   0.902   4.390 -0.6292  0.6593 -1.2015
 7053TIP3   OH221115   6.004   3.728   4.128 -0.5716 -0.1521 -0.0249
 7053TIP3    H121116   5.993   3.656   4.065  0.9318  1.1592 -1.8540
 7053TIP3    H221117   6.019   3.805   4.074  0.4430  1.0872  1.9435
 7054TIP3   OH221118   7.443   3.008   3.687  0.6022 -0.2235 -0.8434
 7054TIP3    H121119   7.370   3.042   3.635 -1.4308 -2.5766  0.3925
 7054TIP3    H221120   7.484   2.943   3.630 -0.0711 -0.9848 -0.4687
 7055TIP3   OH221121   7.696   5.228   1.358 -0.0153 -0.4016 -0.1063
 7055TIP3    H121122   7.652   5.187   1.433  0.2947  0.0493  0.3261
 7055TIP3    H221123   7.789   5.216   1.375  0.0565 -0.4258 -0.4987
 7056TIP3   OH221124   8.020   1.992   2.995 -0.3241 -0.1673 -0.4319
 7056TIP3    H121125   8.021   2.088   3.002 -0.3511 -0.3046  1.7638
 7056TIP3    H221126   7.927   1.970   2.985 -0.2737  0.0530 -1.4629
 7057TIP3   OH221127   0.243   2.163   2.850  0.0183  0.5221 -0.9370
 7057TIP3    H121128   0.195   2.245   2.841 -2.2158 -0.6234  0.1308
 7057TIP3    H221129   0.274   2.163   2.941  0.2424  0.2971 -1.0112
 7058TIP3   OH221130   2.752   3.179   3.960  0.2202 -0.3948  0.0340
 7058TIP3    H121131   2.666   3.140   3.976  0.8441 -2.3555 -1.1263
 7058TIP3    H221132   2.809   3.103   3.944  1.8607  0.9449 -0.5541
 7059TIP3   OH221133   7.080   4.749   3.020  0.1402 -0.0343 -0.0618
 7059TIP3    H121134   7.150   4.811   3.039 -0.1128 -0.3602  2.0494
 7059TIP3    H221135   7.125   4.664   3.013  0.0494 -0.1173  0.4070
 7060TIP3   OH221136   1.093   2.135   6.000 -0.4479  0.1317  0.4161
 7060TIP3    H121137   1.099   2.124   6.095  2.4440  2.3308  0.5465
 7060TIP3    H221138   1.056   2.223   5.989  1.9046  1.0502 -0.4384
 7061TIP3   OH221139   7.880   4.022   3.424  0.4214 -0.1438 -0.2795
 7061TIP3    H121140   7.810   4.026   3.489 -1.3508 -0.7330 -2.1020
 7061TIP3    H221141   7.922   4.108   3.429 -1.1439  0.6143  0.0622
 7062TIP3   OH221142   4.345   0.375   0.042  0.5434 -0.1253 -0.2744
 7062TIP3    H121143   4.378   0.356  -0.045 -0.0197  1.2360 -0.8081
 7062TIP3    H221144   4.418   0.359   0.100  0.5875 -2.1798 -0.8624
 7063TIP3   OH221145   7.986   3.174   1.323  0.6985  0.0608  0.3599
 7063TIP3    H121146   8.036   3.175   1.404  0.7335 -0.6017  0.3448
 7063TIP3    H221147   7.966   3.266   1.306  0.4824  0.1795  1.2453
 7064TIP3   OH221148   6.290   4.526   1.620  0.0802  0.1122  0.2559
 7064TIP3    H121149   6.275   4.510   1.713  0.0504 -3.1991 -0.2605
 7064TIP3    H221150   6.386   4.525   1.610  0.0776  0.2624  0.1994
 7065TIP3   OH221151   7.415   2.882   2.507 -0.1982  0.6585  0.0242
 7065TIP3    H121152   7.394   2.966   2.548 -1.9178 -0.8433  2.3390
 7065TIP3    H221153   7.386   2.816   2.570  0.2096 -1.7109 -2.1702
 7066TIP3   OH221154   8.028   4.385   4.442  0.2676  0.4593 -0.0960
 7066TIP3    H121155   8.100   4.419   4.497  0.2675 -0.6746  0.6067
 7066TIP3    H221156   7.957   4.447   4.457  0.2049  0.0674  1.3483
 7067TIP3   OH221157   7.636   2.629   3.131 -0.0576 -0.3377 -0.3473
 7067TIP3    H121158   7.724   2.637   3.167  0.5962 -1.6047 -1.6257
 7067TIP3    H221159   7.648   2.583   3.048 -1.7368  0.9755 -1.3472
 7068TIP3   OH221160   1.319   2.058   2.455 -0.6180 -0.0583  0.7459
 7068TIP3    H121161   1.238   2.035   2.501 -0.2340 -1.2140  0.8589
 7068TIP3    H221162   1.387   2.051   2.522 -0.1498 -1.0772  0.1712
 7069TIP3   OH221163   7.225   3.188   3.982 -0.3656  0.5718 -0.5958
 7069TIP3    H121164   7.290   3.122   3.958  0.3427  1.7679 -2.0353
 7069TIP3    H221165   7.269   3.242   4.048 -0.8091 -0.1439  0.2966
 7070TIP3   OH221166   5.318   4.332   5.327  0.5506 -0.5893  0.4149
 7070TIP3    H121167   5.286   4.308   5.414  1.9927 -0.7523  0.9265
 7070TIP3    H221168   5.240   4.353   5.277 -0.3224 -0.8010  1.6667
 7071TIP3   OH221169   0.355   3.126   3.126  0.0642  0.0614 -0.2200
 7071TIP3    H121170   0.350   3.217   3.100 -1.5264  0.3236  0.9371
 7071TIP3    H221171   0.331   3.076   3.048 -1.0562  0.7000 -0.2797
 7072TIP3   OH221172   1.045   2.334   4.480 -0.4372 -0.2039 -0.9285
 7072TIP3    H121173   0.981   2.404   4.466  0.0475  0.4748  0.1531
 7072TIP3    H221174   1.119   2.356   4.424  1.0809  1.9514  1.8139
 7073TIP3   OH221175   1.010   4.074   3.917 -0.3814  0.6890 -0.0768
 7073TIP3    H121176   0.929   4.035   3.950 -0.5192 -0.6999 -1.9774
 7073TIP3    H221177   0.984   4.117   3.836  1.0413 -0.9904 -1.4460
 7074TIP3   OH221178   0.789   3.141   3.743 -0.1072  0.0948  0.2584
 7074TIP3    H121179   0.835   3.067   3.702  0.0833  0.6551 -0.5430
 7074TIP3    H221180   0.752   3.190   3.670 -2.0629 -0.3839  0.8932
 7075TIP3   OH221181   6.797   2.429   1.863  0.1457 -0.3620  0.0269
 7075TIP3    H121182   6.845   2.465   1.788  0.6105 -0.3206  0.3429
 7075TIP3    H221183   6.705   2.438   1.839  0.2567  0.8054 -0.0219
 7076TIP3   OH221184   7.991   4.471   2.586  0.2258  0.6312  0.2792
 7076TIP3    H121185   7.909   4.452   2.630 -0.8069  2.1176 -0.9567
 7076TIP3    H221186   8.056   4.416   2.631 -1.6658 -1.6603  0.2939
 7077TIP3   OH221187   6.839   3.240   4.421 -0.1548  0.2434 -1.0562
 7077TIP3    H121188   6.752   3.203   4.438  0.4874 -1.4063 -1.3031
 7077TIP3    H221189   6.842   3.319   4.475 -0.7286 -1.2302  1.1965
 7078TIP3   OH221190   7.368   5.181   2.788  0.0554 -0.2672 -0.5667
 7078TIP3    H121191   7.393   5.205   2.878 -0.1945  0.0513 -0.5815
 7078TIP3    H221192   7.432   5.226   2.733 -0.0961 -0.0531 -0.5696
 7079TIP3   OH221193   7.186   4.317   3.605 -0.1774  0.2232  0.6749
 7079TIP3    H121194   7.112   4.331   3.663 -0.1427 -0.1429  0.8056
 7079TIP3    H221195   7.165   4.238   3.556  0.0778  0.1732  0.6413
 7080TIP3   OH221196   6.316   4.579   2.188 -0.3553 -0.4058  0.0744
 7080TIP3    H121197   6.394   4.619   2.226  0.5376  0.6192 -2.7058
 7080TIP3    H221198   6.244   4.636   2.217  0.2628  0.2409  0.3513
 7081TIP3   OH221199   7.703   1.182   3.084  0.0845  0.6847 -0.1980
 7081TIP3    H121200   7.683   1.103   3.134  1.5567  0.0017 -0.6560
 7081TIP3    H221201   7.637   1.245   3.111 -0.9825 -0.6349  0.3371
 7082TIP3   OH221202   7.731   3.869   4.362  0.5139 -0.3785  0.3263
 7082TIP3    H121203   7.753   3.942   4.420 -1.0973 -0.8415  1.5378
 7082TIP3    H221204   7.636   3.869   4.357  0.5614 -1.3561 -1.0476
 7083TIP3   OH221205   0.073   1.314   3.215 -0.0212 -0.3750  0.2489
 7083TIP3    H121206   0.032   1.236   3.251  0.1278 -0.8259 -0.5461
 7083TIP3    H221207   0.089   1.293   3.123 -1.9974  1.3882 -0.5441
 7084TIP3   OH221208   8.267   1.229   5.737  0.5281  0.0442 -0.6957
 7084TIP3    H121209   8.351   1.261   5.703  1.2341  1.9104  2.5107
 7084TIP3    H221210   8.272   1.134   5.727  1.9106  0.3294 -2.9705
 7085TIP3   OH221211   8.421   5.905   4.295  0.2654 -0.0211 -0.0300
 7085TIP3    H121212   8.464   5.975   4.247 -0.4092  0.5967  0.2403
 7085TIP3    H221213   8.372   5.951   4.364  0.9767 -0.8590  1.0590
 7086TIP3   OH221214   8.001   3.088   5.688  0.2201  0.0971 -0.2355
 7086TIP3    H121215   8.094   3.084   5.710  0.4122  2.7970 -0.4875
 7086TIP3    H221216   7.957   3.065   5.770  1.0648 -2.3070 -0.3879
 7087TIP3   OH221217   0.947   5.555   4.316  0.8070 -0.7822 -0.6119
 7087TIP3    H121218   0.944   5.469   4.357  0.5909 -0.2775  0.4393
 7087TIP3    H221219   0.900   5.612   4.376  0.1381 -0.1023 -1.7493
 7088TIP3   OH221220   7.628   3.670   5.119  0.5718  0.3759 -0.2429
 7088TIP3    H121221   7.656   3.704   5.034  1.4506 -1.6104 -0.7762
 7088TIP3    H221222   7.707   3.628   5.155 -0.6803 -1.8506 -0.0220
 7089TIP3   OH221223   7.461   4.877   4.492 -0.0641  0.2540  0.1657
 7089TIP3    H121224   7.488   4.801   4.442  1.1187 -0.5330  1.9428
 7089TIP3    H221225   7.526   4.944   4.470  1.1832 -0.4691  1.5430
 7090TIP3   OH221226   7.138   4.552   5.194 -0.3174 -0.1095 -0.1001
 7090TIP3    H121227   7.203   4.622   5.200  0.1801 -0.4479 -1.3857
 7090TIP3    H221228   7.120   4.527   5.284  0.9472  0.3453  0.2811
 7091TIP3   OH221229   0.727   5.472   3.412 -0.2510 -0.2610 -0.2324
 7091TIP3    H121230   0.812   5.504   3.442 -0.2950 -0.2038 -0.1673
 7091TIP3    H221231   0.663   5.524   3.462 -0.3243 -0.1592 -0.4326
 7092TIP3   OH221232   7.336   1.211   2.649 -0.5612 -0.0526  0.4298
 7092TIP3    H121233   7.364   1.296   2.683 -1.4476  0.1800  0.5721
 7092TIP3    H221234   7.247   1.200   2.681 -1.1616 -0.1565 -1.2033
 7093TIP3   OH221235   8.091   4.642   3.683  0.1092 -0.3537  0.1470
 7093TIP3    H121236   8.012   4.669   3.637 -0.6227  1.3956  2.3518
 7093TIP3    H221237   8.071   4.552   3.712 -1.4182  0.3521  1.3766
 7094TIP3   OH221238   1.205   7.411   0.087 -0.2216 -0.3017  0.4599
 7094TIP3    H121239   1.271   7.395   0.154  0.1233  0.4345  0.3041
 7094TIP3    H221240   1.248   7.469   0.024 -0.9535  0.0312  0.2565
 7095TIP3   OH221241   1.061   1.205   3.449 -0.0878  0.1696  0.8365
 7095TIP3    H121242   1.028   1.212   3.538 -2.1721 -1.0083  0.1866
 7095TIP3    H221243   1.136   1.265   3.446  0.1302  0.0511  3.4192
 7096TIP3   OH221244   8.005   0.545   3.294  0.2537  0.5958 -0.0871
 7096TIP3    H121245   8.089   0.522   3.334 -0.1540  2.0447  1.6776
 7096TIP3    H221246   8.029   0.602   3.221  0.8645  0.1092 -0.2731
 7097TIP3   OH221247   7.746   2.431   2.927  0.0103 -0.4657 -0.0138
 7097TIP3    H121248   7.737   2.412   2.834  1.7339 -1.6494  0.0311
 7097TIP3    H221249   7.747   2.345   2.969  1.5423 -0.0403  0.8511
 7098TIP3   OH221250   8.117   1.632   2.525 -0.6932 -0.0817 -0.1246
 7098TIP3    H121251   8.025   1.649   2.506 -0.6693 -0.6864 -0.8103
 7098TIP3    H221252   8.165   1.685   2.462 -0.5552  0.5855  0.5275
 7099TIP3   OH221253   8.288   3.035   2.373 -0.8491 -0.3810  0.0641
 7099TIP3    H121254   8.278   2.947   2.336  0.8145 -1.0550  1.1254
 7099TIP3    H221255   8.207   3.050   2.420 -1.8679 -0.6276 -1.5592
 7100TIP3   OH221256   0.089   2.029   3.416 -0.0549  0.0105  0.2502
 7100TIP3    H121257   0.110   1.988   3.500  0.9435 -1.1629 -0.5458
 7100TIP3    H221258   0.047   1.959   3.365  2.3134 -0.2899 -1.3732
 7101TIP3   OH221259   7.936   4.461   3.825  0.3301 -0.2379  0.3186
 7101TIP3    H121260   7.908   4.383   3.777 -0.3318  0.9578 -1.2695
 7101TIP3    H221261   7.858   4.489   3.874 -0.3212  1.1400 -1.4625
 7102TIP3   OH221262   7.536   3.455   1.886  0.3696  0.2897  0.0918
 7102TIP3    H121263   7.449   3.420   1.872 -0.3911  2.4197 -0.8074
 7102TIP3    H221264   7.589   3.380   1.913 -1.8094 -0.9489  0.9892
 7103TIP3   OH221265   1.927   2.062   5.209  0.0213 -0.0025 -0.1923
 7103TIP3    H121266   2.009   2.083   5.254 -0.5014 -0.2204  0.8603
 7103TIP3    H221267   1.951   1.995   5.146  0.2830 -1.5035  1.4784
 7104TIP3   OH221268   1.424   3.994   5.796 -0.5744  0.4761 -0.5849
 7104TIP3    H121269   1.368   3.940   5.851 -0.2626  1.3229  0.5775
 7104TIP3    H221270   1.495   3.935   5.768 -1.2578 -0.2086 -0.8776
 7105TIP3   OH221271   0.196   2.452   6.344 -0.1905  0.2301  0.3058
 7105TIP3    H121272   0.174   2.359   6.348  0.5697  0.1428  2.9561
 7105TIP3    H221273   0.137   2.494   6.406  1.3266  1.1359  1.1617
 7106TIP3   OH221274   7.785   5.576   6.109 -0.1889  0.0880  1.1828
 7106TIP3    H121275   7.767   5.539   6.023  0.2829  0.2948  0.9918
 7106TIP3    H221276   7.703   5.565   6.158 -0.2147 -0.7157  0.9570
 7107TIP3   OH221277   7.308   3.870   6.346  0.1530  0.8897 -0.0370
 7107TIP3    H121278   7.300   3.868   6.251  0.9145  0.0759 -0.1003
 7107TIP3    H221279   7.218   3.877   6.378 -0.0544  1.9362 -0.8225
 7108TIP3   OH221280   0.168   5.568   5.967 -0.0330 -0.0410  0.0480
 7108TIP3    H121281   0.147   5.599   5.878 -2.2573  0.2494  0.6305
 7108TIP3    H221282   0.187   5.647   6.016 -1.0280  0.0126  0.3644
 7109TIP3   OH221283   8.092   4.360   6.460 -0.1615 -0.3900  0.5908
 7109TIP3    H121284   8.026   4.380   6.393 -0.1358  1.1742  1.0266
 7109TIP3    H221285   8.043   4.356   6.542  0.1410 -0.1142  0.7883
 7110TIP3   OH221286   2.149   3.465   6.161  0.1697 -0.0452  0.6040
 7110TIP3    H121287   2.181   3.554   6.146 -0.9130  0.6055  2.0223
 7110TIP3    H221288   2.103   3.442   6.080  0.5790  0.6284  0.1801
 7111TIP3   OH221289   6.883   3.879   5.750 -0.3593 -0.3438 -0.1192
 7111TIP3    H121290   6.937   3.814   5.795 -0.2181  0.6832  1.2394
 7111TIP3    H221291   6.930   3.962   5.762 -1.0043  0.1594 -1.0110
 7112TIP3   OH221292   1.766   2.402   4.807 -0.6774  0.3464  0.3060
 7112TIP3    H121293   1.785   2.481   4.857  0.0479 -0.4474  1.3277
 7112TIP3    H221294   1.672   2.405   4.790 -0.4121  2.1584 -0.9787
 7113TIP3   OH221295   8.442   1.715   4.250  0.4568  0.1376  0.4879
 7113TIP3    H121296   8.444   1.719   4.155  1.5705  0.9877  0.5377
 7113TIP3    H221297   8.409   1.802   4.277 -1.5769 -0.7058  0.8384
 7114TIP3   OH221298   2.996   3.682   5.676  0.2937 -0.0179  0.7227
 7114TIP3    H121299   3.087   3.655   5.677  0.2652 -0.2813 -1.6307
 7114TIP3    H221300   2.960   3.650   5.759  1.9244 -1.3260  0.9398
 7115TIP3   OH221301   4.774   1.381   1.371 -0.0452 -0.3684 -0.4675
 7115TIP3    H121302   4.736   1.380   1.459  1.0963  0.1178  0.0494
 7115TIP3    H221303   4.713   1.431   1.318 -0.7104 -0.6068  0.0691
 7116TIP3   OH221304   3.771   0.599   0.078  0.4680 -0.0952  0.0310
 7116TIP3    H121305   3.774   0.513   0.035  0.7307  0.6672 -1.4833
 7116TIP3    H221306   3.808   0.659   0.014 -0.4906  1.2932  0.7627
 7117TIP3   OH221307   1.357   1.568   6.853 -0.0605 -0.4462 -0.4584
 7117TIP3    H121308   1.378   1.475   6.866 -0.5613 -0.6141 -0.8542
 7117TIP3    H221309   1.434   1.614   6.886 -0.7390 -0.9113  1.8887
 7118TIP3   OH221310   7.309   2.722   3.975  0.0941 -0.0173  0.7432
 7118TIP3    H121311   7.301   2.681   3.889 -0.2246  0.5026  0.5238
 7118TIP3    H221312   7.285   2.653   4.037 -1.0890  0.0148  0.3413
 7119TIP3   OH221313   7.960   4.864   5.107 -0.4620 -0.4799  0.5244
 7119TIP3    H121314   7.956   4.852   5.012  1.8045  1.0579  0.1938
 7119TIP3    H221315   7.888   4.923   5.127  0.0546  0.5289 -0.5068
 7120TIP3   OH221316   0.271   6.447   6.411 -0.2468 -0.2433 -0.1698
 7120TIP3    H121317   0.303   6.374   6.357  1.4492 -0.2733  0.8354
 7120TIP3    H221318   0.249   6.406   6.494  2.2313  0.5814  0.9530
 7121TIP3   OH221319   7.566   5.509   5.643  0.5720  0.2210 -0.3677
 7121TIP3    H121320   7.622   5.483   5.569  0.7384  0.2316 -0.2452
 7121TIP3    H221321   7.488   5.455   5.633  0.4469  0.4720 -0.7518
 7122TIP3   OH221322   0.746   5.127   5.912  0.3462 -0.3472  0.2812
 7122TIP3    H121323   0.667   5.175   5.936 -0.2206 -1.0357 -0.1738
 7122TIP3    H221324   0.773   5.165   5.829 -1.3919 -2.2756 -1.2418
 7123TIP3   OH221325   1.070   4.301   6.573  0.0830 -0.1891 -0.6574
 7123TIP3    H121326   1.117   4.371   6.527  0.8391  0.7260  1.4635
 7123TIP3    H221327   1.124   4.224   6.560  1.3322  0.4978  0.3403
 7124TIP3   OH221328   0.532   3.349   6.037 -0.6800 -0.4090 -0.2566
 7124TIP3    H121329   0.511   3.438   6.065 -0.2382 -0.4168  0.0935
 7124TIP3    H221330   0.450   3.315   6.000 -0.5582  0.5386 -1.4351
 7125TIP3   OH221331   0.118   3.955   5.771  0.0745  0.3033  0.2566
 7125TIP3    H121332   0.084   3.930   5.686 -0.9242  0.6587  0.5443
 7125TIP3    H221333   0.057   3.917   5.834  0.3299  0.7507  0.7844
 7126TIP3   OH221334   7.790   1.127   5.086 -0.5735 -0.3944  0.0294
 7126TIP3    H121335   7.789   1.036   5.117 -1.0504 -0.6638 -0.7551
 7126TIP3    H221336   7.700   1.143   5.058 -0.2709  0.0161 -0.7131
 7127TIP3   OH221337   1.488   3.181   3.922  0.1466  0.4668 -0.0252
 7127TIP3    H121338   1.428   3.255   3.924  0.8723  1.0330  0.7210
 7127TIP3    H221339   1.465   3.134   3.841  0.5965  2.2517 -1.2174
 7128TIP3   OH221340   1.073   3.971   5.163  0.3151  0.1881 -0.6996
 7128TIP3    H121341   1.110   4.027   5.231 -0.6329  1.2137 -1.0117
 7128TIP3    H221342   1.122   3.994   5.084  1.2583 -0.8367 -0.4200
 7129TIP3   OH221343   2.890   5.168   6.582 -0.8725 -0.0423  0.5959
 7129TIP3    H121344   2.978   5.196   6.558 -0.8090  0.9514  1.9479
 7129TIP3    H221345   2.903   5.092   6.639 -0.9394 -0.6871 -0.2368
 7130TIP3   OH221346   8.377   4.217   4.975 -0.2130  0.6963 -0.0350
 7130TIP3    H121347   8.416   4.130   4.968  0.7993  1.1547 -0.2160
 7130TIP3    H221348   8.288   4.206   4.941 -0.0700 -0.2482 -0.1190
 7131TIP3   OH221349   8.436   3.812   6.556  0.6661  0.0309  0.0577
 7131TIP3    H121350   8.422   3.892   6.607  0.0966  0.4368 -0.7099
 7131TIP3    H221351   8.521   3.826   6.513  0.6239  0.1714  0.0189
 7132TIP3   OH221352   0.939   3.037   4.660 -0.4390  0.2231  0.0723
 7132TIP3    H121353   0.905   3.046   4.749  2.2768  2.0168  0.9881
 7132TIP3    H221354   0.885   3.096   4.607 -1.2564  0.0778  0.7348
 7133TIP3   OH221355   2.959   4.345   5.274  0.1099 -0.0709  0.7805
 7133TIP3    H121356   3.018   4.381   5.340  1.1064  1.5081 -0.9100
 7133TIP3    H221357   2.990   4.382   5.191  0.3167 -3.7466 -0.9064
 7134TIP3   OH221358   0.085   4.333   4.775  0.3873  0.0975 -0.0008
 7134TIP3    H121359   0.034   4.252   4.780  0.3212 -0.0016 -1.8853
 7134TIP3    H221360   0.175   4.303   4.765  0.3839  0.2445 -0.4969
 7135TIP3   OH221361   4.789  -0.000   0.576  0.1036 -0.3632  0.3398
 7135TIP3    H121362   4.849   0.074   0.572  0.0727 -0.3844 -0.6111
 7135TIP3    H221363   4.832  -0.063   0.634 -0.0999  0.5852  1.5536
 7136TIP3   OH221364   8.239   3.163   4.247 -0.2254  0.5841  0.3379
 7136TIP3    H121365   8.154   3.123   4.265  0.0675 -0.0843  0.2203
 7136TIP3    H221366   8.271   3.118   4.169 -0.3155  1.6840 -0.3516
 7137TIP3   OH221367   0.405   2.789   6.906  0.6275  0.1248  0.3379
 7137TIP3    H121368   0.403   2.865   6.849  0.7887 -0.1389 -0.0230
 7137TIP3    H221369   0.349   2.725   6.862  1.2284 -0.2898  0.1736
 7138TIP3   OH221370   8.084   6.856   5.625  0.0002 -0.2198 -0.2780
 7138TIP3    H121371   8.018   6.864   5.557 -2.3492 -2.7827  1.6196
 7138TIP3    H221372   8.055   6.915   5.694 -0.1165 -1.0900  0.4227
 7139TIP3   OH221373   1.352   3.185   6.111  0.0791 -0.1639  0.3601
 7139TIP3    H121374   1.398   3.185   6.194  1.7127 -0.6672 -0.5225
 7139TIP3    H221375   1.262   3.207   6.133  0.7937  1.0932  2.0798
 7140TIP3   OH221376   1.967   1.785   6.577  0.0385  0.1367 -0.0062
 7140TIP3    H121377   1.944   1.758   6.666 -2.5237 -0.8817 -0.9299
 7140TIP3    H221378   2.041   1.729   6.553 -1.6169 -2.1458  0.1586
 7141TIP3   OH221379   0.769   4.306   5.484 -0.8802 -0.0470 -0.6418
 7141TIP3    H121380   0.710   4.374   5.517 -0.1579  0.6852 -0.8423
 7141TIP3    H221381   0.819   4.278   5.560 -0.4669  0.3751 -0.7526
 7142TIP3   OH221382   1.718   5.972   4.588  0.3998 -0.6255  0.1235
 7142TIP3    H121383   1.700   6.040   4.653 -0.9559 -0.2714 -0.5834
 7142TIP3    H221384   1.721   6.019   4.504 -0.1540 -1.3761 -0.3249
 7143TIP3   OH221385   4.398   6.991   1.151 -0.0836 -0.0366  0.3408
 7143TIP3    H121386   4.325   6.976   1.211  0.1480  0.8886  0.8648
 7143TIP3    H221387   4.465   6.928   1.177  0.2362  0.7339  1.4315
 7144TIP3   OH221388   0.951   1.656   4.093 -0.4364 -0.1827 -0.1277
 7144TIP3    H121389   0.939   1.708   4.013  1.2713 -1.3538 -1.1643
 7144TIP3    H221390   0.992   1.717   4.154 -1.9785  0.7973 -0.0288
 7145TIP3   OH221391   5.131   7.547   5.084  0.1389  0.4602  0.6499
 7145TIP3    H121392   5.115   7.457   5.114 -1.7376  0.0506 -1.3554
 7145TIP3    H221393   5.224   7.561   5.099  0.2461 -1.4236  2.0300
 7146TIP3   OH221394   0.237   3.455   5.538 -0.3094  0.0229  0.3213
 7146TIP3    H121395   0.293   3.482   5.611 -0.7795  0.2427  0.6055
 7146TIP3    H221396   0.169   3.522   5.534 -0.0655  0.2123 -0.5713
 7147TIP3   OH221397   8.421   7.438   5.077  0.2741  0.4612  0.0314
 7147TIP3    H121398   8.497   7.381   5.087  1.2827  1.7682 -0.0414
 7147TIP3    H221399   8.449   7.522   5.113 -1.2297  0.8846  0.2402
 7148TIP3   OH221400   7.079   5.555   5.815  0.0192 -0.3758  0.1475
 7148TIP3    H121401   7.052   5.645   5.833 -0.5808 -0.8268  1.5320
 7148TIP3    H221402   7.170   5.562   5.786  0.0763  0.6300  0.5560
 7149TIP3   OH221403   1.529   4.771   4.023 -0.0018  0.3968 -0.3994
 7149TIP3    H121404   1.437   4.797   4.011 -0.4575  0.1765  2.4275
 7149TIP3    H221405   1.527   4.676   4.015  0.1086  0.4414 -1.0073
 7150TIP3   OH221406   1.547   3.184   5.780  0.2781  0.1469  0.1932
 7150TIP3    H121407   1.574   3.114   5.840 -0.3640  0.0710  0.4011
 7150TIP3    H221408   1.505   3.249   5.836 -1.3788 -0.4634 -0.3083
 7151TIP3   OH221409   0.369   4.115   4.470  0.0149  0.2084 -0.4065
 7151TIP3    H121410   0.298   4.071   4.423 -0.4978  0.4947  0.0979
 7151TIP3    H221411   0.372   4.203   4.433 -1.9978  1.2290  1.7510
 7152TIP3   OH221412   2.720   3.862   5.967  0.1402  0.5322 -0.4011
 7152TIP3    H121413   2.783   3.832   6.033 -0.6532  0.9974  0.5961
 7152TIP3    H221414   2.675   3.935   6.010 -0.7948  0.4622 -1.2545
 7153TIP3   OH221415   3.579   7.533   3.239 -0.3600 -0.1111  0.0328
 7153TIP3    H121416   3.664   7.523   3.280 -1.2013 -0.6250  1.6871
 7153TIP3    H221417   3.559   7.627   3.246 -0.5261 -0.2050  0.8736
 7154TIP3   OH221418   1.567   3.668   4.878  0.1467  0.0472  0.1718
 7154TIP3    H121419   1.527   3.690   4.963 -2.1269 -2.6857 -0.1230
 7154TIP3    H221420   1.542   3.741   4.821  0.3860  1.1465  1.4524
 7155TIP3   OH221421   1.703   4.782   4.672  0.3775 -0.5035  0.2792
 7155TIP3    H121422   1.691   4.877   4.668  1.6497 -0.4027 -1.3124
 7155TIP3    H221423   1.637   4.752   4.734 -0.4109  1.3559  0.3471
 7156TIP3   OH221424   0.709   5.894   5.064  0.1720 -0.5494  0.2147
 7156TIP3    H121425   0.727   5.987   5.051  0.8980 -0.4148  1.9836
 7156TIP3    H221426   0.657   5.868   4.988  0.0975  1.2622 -0.3699
 7157TIP3   OH221427   2.157   2.733   2.731  0.2136  0.0081  0.2055
 7157TIP3    H121428   2.158   2.816   2.778 -0.0540  0.7405 -1.0538
 7157TIP3    H221429   2.065   2.704   2.735  0.2271 -0.0203  0.2978
 7158TIP3   OH221430   1.251   3.741   5.994 -0.4897  0.0960  0.4907
 7158TIP3    H121431   1.203   3.718   5.915  1.3146 -2.8815  0.1753
 7158TIP3    H221432   1.191   3.797   6.043 -2.3781  0.4166 -2.0657
 7159TIP3   OH221433   7.989   2.225   5.946 -0.4566 -0.3387 -0.1602
 7159TIP3    H121434   7.943   2.288   5.890  0.1706 -0.0594 -0.3615
 7159TIP3    H221435   8.073   2.211   5.902 -0.6524 -1.4198 -0.1837
 7160TIP3   OH221436   8.172   1.733   5.967 -0.2270 -0.5058  0.0073
 7160TIP3    H121437   8.168   1.655   5.911 -1.4452  0.0907 -0.7568
 7160TIP3    H221438   8.239   1.712   6.032  0.2601 -1.7466 -0.8674
 7161TIP3   OH221439   8.270   4.890   6.562  0.2333 -0.3093 -0.5606
 7161TIP3    H121440   8.180   4.920   6.548 -0.4875 -0.4208  3.1860
 7161TIP3    H221441   8.262   4.810   6.614  2.4841 -0.3429 -0.1797
 7162TIP3   OH221442   7.278   3.744   5.377 -0.2482  0.7659 -0.0729
 7162TIP3    H121443   7.319   3.667   5.417 -0.2352  1.0150  0.4031
 7162TIP3    H221444   7.238   3.790   5.451  0.0191  1.3819 -0.3086
 7163TIP3   OH221445   8.348   3.327   6.589  0.2504 -0.1140 -0.1962
 7163TIP3    H121446   8.270   3.365   6.631  0.6761 -0.6691  1.1323
 7163TIP3    H221447   8.322   3.311   6.499 -0.0708  3.0101 -0.7304
 7164TIP3   OH221448   6.130   7.603   3.983  0.6005  0.0988 -0.4985
 7164TIP3    H121449   6.091   7.690   3.969  1.5855  0.7938  0.8733
 7164TIP3    H221450   6.160   7.575   3.897  1.6291  1.8132 -0.7223
 7165TIP3   OH221451   7.720   4.309   6.623 -0.1571 -0.2461 -0.0236
 7165TIP3    H121452   7.732   4.376   6.557 -0.6544  1.4453  1.5716
 7165TIP3    H221453   7.668   4.241   6.579 -4.1325  2.7322 -0.2080
 7166TIP3   OH221454   8.116   1.167   5.987 -0.1252 -0.1253 -0.0207
 7166TIP3    H121455   8.165   1.086   5.970  1.2635  0.8973 -1.0638
 7166TIP3    H221456   8.087   1.159   6.078 -0.3938 -1.9969 -0.2560
 7167TIP3   OH221457   6.488  -0.013   0.591  0.0197  0.8646 -0.3268
 7167TIP3    H121458   6.513  -0.048   0.505 -3.6912 -1.8950 -0.4204
 7167TIP3    H221459   6.437   0.066   0.570  0.0552  0.8177 -0.5997
 7168TIP3   OH221460   1.537   1.619   3.807  0.1584 -0.3676 -0.2418
 7168TIP3    H121461   1.568   1.703   3.773  0.6372  0.0276  1.1557
 7168TIP3    H221462   1.609   1.558   3.789  0.2227 -0.2618 -0.3459
 7169TIP3   OH221463   7.175   4.423   4.116 -0.4190 -0.1174  0.3978
 7169TIP3    H121464   7.254   4.407   4.168 -0.5563 -0.9103  0.3770
 7169TIP3    H221465   7.103   4.422   4.180 -0.3732  1.0701  0.4823
 7170TIP3   OH221466   8.489   2.519   5.495  0.2340  0.3083  0.6439
 7170TIP3    H121467   8.449   2.514   5.582  0.2054  1.5800  0.7094
 7170TIP3    H221468   8.499   2.427   5.468 -2.1649 -0.0465  0.8783
 7171TIP3   OH221469   0.513   3.924   6.135 -0.1805 -0.4555  0.3689
 7171TIP3    H121470   0.541   4.009   6.099 -0.5641  0.4981  2.2527
 7171TIP3    H221471   0.590   3.891   6.181 -0.8422  0.1664  1.9482
 7172TIP3   OH221472   8.376   1.525   3.303 -0.1469 -0.1535 -0.2942
 7172TIP3    H121473   8.437   1.452   3.289 -1.7967 -1.7418  0.5791
 7172TIP3    H221474   8.298   1.501   3.252 -1.6433 -0.2117  1.9400
 7173TIP3   OH221475   3.702   7.483   0.776  0.2382 -0.4945 -0.3594
 7173TIP3    H121476   3.651   7.446   0.704 -0.0769  0.3669 -0.5825
 7173TIP3    H221477   3.719   7.573   0.750  0.1248 -0.1710  0.6461
 7174TIP3   OH221478   0.381   3.505   6.759 -0.8829 -0.0129 -0.2330
 7174TIP3    H121479   0.328   3.546   6.690 -1.6831  2.5525  1.8253
 7174TIP3    H221480   0.441   3.574   6.787 -0.9900 -0.8181  2.0759
 7175TIP3   OH221481   3.447   5.460   0.026  0.4396  0.3615 -0.3345
 7175TIP3    H121482   3.391   5.466   0.104 -0.4594  0.2074 -0.9607
 7175TIP3    H221483   3.414   5.384  -0.022  1.7441 -0.2429 -0.2903
 7176TIP3   OH221484   6.511   2.132   4.079  0.6472  0.8758  0.2565
 7176TIP3    H121485   6.525   2.106   4.170  1.7046  1.1423  0.1749
 7176TIP3    H221486   6.432   2.186   4.082  0.3300  0.3815  0.9226
 7177TIP3   OH221487   1.483   3.071   4.843  0.3749 -0.1116  0.1470
 7177TIP3    H121488   1.567   3.048   4.802  0.9630  1.2745  0.5302
 7177TIP3    H221489   1.485   3.167   4.848 -1.3651 -0.0503 -0.0984
 7178TIP3   OH221490   1.626   2.912   5.935 -0.1727  0.0216  0.0008
 7178TIP3    H121491   1.665   2.897   5.849 -0.0424 -1.4783  0.3125
 7178TIP3    H221492   1.635   2.829   5.980 -1.9024  0.2604  0.8206
 7179TIP3   OH221493   1.991   2.421   5.832 -0.2483  0.0082 -0.1984
 7179TIP3    H121494   1.960   2.350   5.889  0.3863  1.7190  2.3998
 7179TIP3    H221495   1.926   2.491   5.842  1.1506  1.2584  0.4027
 7180TIP3   OH221496   7.132   2.402   4.469 -0.5841  0.2267  0.2678
 7180TIP3    H121497   7.068   2.456   4.422  2.1199  1.1118 -2.5464
 7180TIP3    H221498   7.200   2.463   4.496 -0.3396 -0.8901  2.2495
 7181TIP3   OH221499   0.880   3.881   4.844 -0.1809 -0.2295 -0.2363
 7181TIP3    H121500   0.815   3.930   4.893 -0.3773 -1.0344  0.3052
 7181TIP3    H221501   0.872   3.791   4.875  0.9026 -0.4152 -0.4616
 7182TIP3   OH221502   3.105   2.948   5.902  0.2067  0.0650  0.1775
 7182TIP3    H121503   3.166   3.017   5.875 -0.2251  0.3189 -0.1603
 7182TIP3    H221504   3.073   2.977   5.988  0.3245  0.0908  0.2127
 7183TIP3   OH221505   7.686   5.413   5.875 -0.4377  0.2240  0.1203
 7183TIP3    H121506   7.646   5.444   5.795 -1.6891 -0.8636  0.3129
 7183TIP3    H221507   7.623   5.351   5.912  1.8004 -2.3062 -0.0905
 7184TIP3   OH221508   0.843   3.710   4.214 -0.3226 -0.0804  0.0355
 7184TIP3    H121509   0.781   3.639   4.229  0.0447 -0.2725  0.6871
 7184TIP3    H221510   0.868   3.702   4.122 -0.1802 -0.8813  0.1432
 7185TIP3   OH221511   1.264   5.275   6.033 -0.1683 -0.6137  0.1186
 7185TIP3    H121512   1.239   5.294   6.123 -1.7293  2.0816 -0.8203
 7185TIP3    H221513   1.188   5.231   5.995  0.1808 -1.0254 -0.1113
 7186TIP3   OH221514   1.138   3.560   6.909  0.0778  0.0960  0.0062
 7186TIP3    H121515   1.128   3.483   6.966 -1.4000  0.4356  0.2290
 7186TIP3    H221516   1.207   3.536   6.848 -0.7656 -1.6357 -0.2933
 7187TIP3   OH221517   1.872   3.073   4.984  0.1035 -0.4521 -0.6064
 7187TIP3    H121518   1.945   3.011   4.977  1.1238  0.5823  0.7777
 7187TIP3    H221519   1.819   3.040   5.056 -1.1400 -1.5044 -1.9479
 7188TIP3   OH221520   8.194   4.109   6.389  0.1404 -0.0806 -0.0081
 7188TIP3    H121521   8.269   4.106   6.330 -0.9018 -1.0567 -1.3091
 7188TIP3    H221522   8.153   4.193   6.372 -0.2547 -0.4280 -0.8266
 7189TIP3   OH221523   7.372   2.087   4.811  0.5706  0.3348 -0.2771
 7189TIP3    H121524   7.408   2.097   4.899  1.6048 -0.7456 -0.5663
 7189TIP3    H221525   7.409   2.004   4.779  0.9869  1.1998 -2.0960
 7190TIP3   OH221526   1.192   4.468   5.025 -0.1252 -0.2282  0.2512
 7190TIP3    H121527   1.126   4.494   4.961 -0.7397 -1.6279  0.3007
 7190TIP3    H221528   1.159   4.386   5.063  1.7886 -1.1367  0.0381
 7191TIP3   OH221529   1.182   7.726   0.721  0.2558  0.4003  0.6079
 7191TIP3    H121530   1.193   7.821   0.726 -0.9988  0.5114  1.4588
 7191TIP3    H221531   1.092   7.715   0.689  0.5776 -0.5003  0.0161
 7192TIP3   OH221532   7.918   1.150   3.405  0.6426  0.1096 -0.2096
 7192TIP3    H121533   7.953   1.068   3.440  0.4341  0.4624  0.8574
 7192TIP3    H221534   7.824   1.146   3.423  0.9028  1.4386  1.6833
 7193TIP3   OH221535   1.469   4.519   3.997 -0.4924 -0.0693 -0.1381
 7193TIP3    H121536   1.387   4.473   3.983 -0.1046 -0.6582 -0.4948
 7193TIP3    H221537   1.524   4.458   4.046 -0.3263  0.3872  0.2555
 7194TIP3   OH221538   7.389   6.275   4.874  0.4711 -0.0876  0.1911
 7194TIP3    H121539   7.377   6.342   4.941 -0.0564 -1.4720  1.5329
 7194TIP3    H221540   7.473   6.234   4.896  0.2047 -0.6738  0.1336
 7195TIP3   OH221541   8.264   4.682   4.919 -0.6879 -0.1362 -0.1015
 7195TIP3    H121542   8.319   4.666   4.843  0.5965 -0.0491  0.8015
 7195TIP3    H221543   8.190   4.733   4.885  1.2905  2.3173 -0.8089
 7196TIP3   OH221544   0.640   3.944   5.373 -0.1196 -0.0384 -0.0560
 7196TIP3    H121545   0.674   3.987   5.451 -0.3794 -1.1738  0.6797
 7196TIP3    H221546   0.714   3.894   5.339  0.0780  0.6862 -0.7139
 7197TIP3   OH221547   0.586   3.837   4.743 -0.1799 -0.3729 -0.2527
 7197TIP3    H121548   0.510   3.797   4.786 -0.9184  1.5351  0.2480
 7197TIP3    H221549   0.631   3.884   4.813  1.5496 -1.5536 -0.5295
 7198TIP3   OH221550   6.568   1.346   0.151 -0.2300  0.4108 -0.1731
 7198TIP3    H121551   6.630   1.302   0.093 -0.1947 -0.0565  0.2168
 7198TIP3    H221552   6.496   1.372   0.094  0.9534  2.2031 -0.8890
 7199TIP3   OH221553   1.126   4.293   4.293 -0.3216  0.0600  0.1898
 7199TIP3    H121554   1.190   4.258   4.231 -0.2160 -0.7270  0.7393
 7199TIP3    H221555   1.050   4.235   4.284  0.4076 -1.2560  2.1876
 7200TIP3   OH221556   2.701   5.068   0.664  0.7077 -0.1864  0.6353
 7200TIP3    H121557   2.770   5.114   0.712  0.3888  2.0690 -0.9477
 7200TIP3    H221558   2.625   5.072   0.722  0.0598  3.3221 -0.3049
 7201TIP3   OH221559   7.884   4.023   6.084  0.0797 -0.5662  0.3928
 7201TIP3    H121560   7.822   3.957   6.114 -0.7048  0.9263  2.1478
 7201TIP3    H221561   7.831   4.087   6.037  0.5176 -0.1151  0.5049
 7202TIP3   OH221562   0.187   3.794   5.184 -0.3873  0.0105 -0.1414
 7202TIP3    H121563   0.275   3.768   5.157 -1.1271 -2.8134  0.0173
 7202TIP3    H221564   0.198   3.833   5.271  0.8628  1.0189 -0.7423
 7203TIP3   OH221565   0.875   4.041   6.891  0.0649 -0.2449 -0.3391
 7203TIP3    H121566   0.833   4.083   6.817 -1.1682  0.0926  0.5257
 7203TIP3    H221567   0.968   4.038   6.868  0.0734  2.2103 -0.7633
 7204TIP3   OH221568   8.036   2.660   4.425  0.0834  0.4314  0.5829
 7204TIP3    H121569   8.038   2.568   4.451  0.1144  0.3547  0.3027
 7204TIP3    H221570   8.128   2.686   4.423  0.0185  0.7789  1.7774
 7205TIP3   OH221571   7.878   6.822   5.463 -0.0786  0.1335 -0.3830
 7205TIP3    H121572   7.844   6.769   5.535  0.5564 -1.0822 -0.9650
 7205TIP3    H221573   7.799   6.851   5.416 -0.5077  1.2032  0.9715
 7206TIP3   OH221574   1.424   2.869   4.080  0.1500 -0.3197  0.1511
 7206TIP3    H121575   1.330   2.861   4.091  0.5452 -3.1682  2.0368
 7206TIP3    H221576   1.459   2.862   4.169  2.0943  1.5333 -0.4359
 7207TIP3   OH221577   0.346   7.289   5.581  0.4602 -0.1185 -0.3959
 7207TIP3    H121578   0.420   7.271   5.640  0.0847 -0.8142 -0.1291
 7207TIP3    H221579   0.334   7.208   5.532 -0.0559  0.0333 -0.5217
 7208TIP3   OH221580   4.156   6.906   0.713 -0.8376  0.0751  0.0116
 7208TIP3    H121581   4.162   6.824   0.664  2.3531  1.1068 -1.4644
 7208TIP3    H221582   4.210   6.891   0.791  1.3258  1.3596 -1.2033
 7209TIP3   OH221583   1.031   4.873   5.870  0.5860  0.3003 -0.5248
 7209TIP3    H121584   0.955   4.824   5.901 -0.2963  1.9490  0.0275
 7209TIP3    H221585   1.024   4.870   5.774 -0.7944  1.3012 -0.4855
 7210TIP3   OH221586   0.758   2.947   6.184 -0.0215  0.2524 -0.4400
 7210TIP3    H121587   0.769   3.006   6.259 -1.0937  0.0125 -0.0870
 7210TIP3    H221588   0.665   2.952   6.162 -0.2336 -1.6369 -0.1183
 7211TIP3   OH221589   2.989   3.845   6.767 -0.1093 -0.1651  0.5055
 7211TIP3    H121590   2.990   3.886   6.681 -1.2852 -0.9733  0.1012
 7211TIP3    H221591   3.036   3.906   6.823 -2.4315  2.0712  0.0884
 7212TIP3   OH221592   2.012   5.420   5.392  0.0580  0.4464 -0.1455
 7212TIP3    H121593   1.924   5.411   5.357 -0.8149 -0.2066  2.1245
 7212TIP3    H221594   2.011   5.367   5.472  2.4502  0.5917  0.0054
 7213TIP3   OH221595   0.048   6.222   5.929 -0.3057  0.4468 -0.1064
 7213TIP3    H121596   0.045   6.311   5.965 -1.5702  0.8443 -1.1283
 7213TIP3    H221597  -0.044   6.197   5.920  0.0316 -0.6354 -0.6051
 7214TIP3   OH221598   7.944   2.022   3.745 -0.6539  0.3466  0.1068
 7214TIP3    H121599   7.951   2.117   3.739  0.2201  0.3157  0.5107
 7214TIP3    H221600   7.985   1.990   3.664  2.1517  0.2300  1.4967
 7215TIP3   OH221601   1.477   5.449   4.273  0.1091 -0.0104 -0.2124
 7215TIP3    H121602   1.382   5.448   4.276  0.0948 -0.4478 -0.7059
 7215TIP3    H221603   1.502   5.356   4.275  0.4701  0.0471 -1.7145
 7216TIP3   OH221604   7.788   2.042   6.284  0.1797  0.6106  0.1853
 7216TIP3    H121605   7.724   1.973   6.271 -1.0209  1.8301 -0.4762
 7216TIP3    H221606   7.823   2.060   6.197  1.0120  0.3456  0.4604
 7217TIP3   OH221607   0.747   5.682   6.186 -0.3830 -0.6440  0.3388
 7217TIP3    H121608   0.725   5.752   6.124 -0.3670 -0.9909 -0.0600
 7217TIP3    H221609   0.744   5.725   6.272  2.3105  0.5141 -0.0819
 7218TIP3   OH221610   1.310   2.818   5.055  0.1430 -0.0086 -0.2044
 7218TIP3    H121611   1.344   2.786   5.138  0.7953 -0.0262 -0.4776
 7218TIP3    H221612   1.217   2.798   5.058 -0.0944  1.1940  1.0976
 7219TIP3   OH221613   1.015   6.165   6.749  0.0838  0.0997 -0.0389
 7219TIP3    H121614   1.023   6.188   6.656  0.4847 -0.4117 -0.1348
 7219TIP3    H221615   1.062   6.082   6.757  1.0171  0.7047  0.8436
 7220TIP3   OH221616   8.070   3.025   3.826  0.5266  0.1820 -0.0776
 7220TIP3    H121617   8.152   2.981   3.804  1.0743  1.1069  0.0692
 7220TIP3    H221618   8.097   3.098   3.882 -0.3917  0.5134 -0.0647
 7221TIP3   OH221619   8.439   4.865   5.321 -0.7596 -0.0147 -0.0259
 7221TIP3    H121620   8.423   4.788   5.266  0.7757 -0.2096 -0.2086
 7221TIP3    H221621   8.371   4.927   5.294 -1.3720 -0.9161 -0.6021
 7222TIP3   OH221622   1.224   2.208   5.102 -0.2033  0.4220  0.2302
 7222TIP3    H121623   1.314   2.193   5.132 -0.0793 -0.3956 -0.5500
 7222TIP3    H221624   1.234   2.240   5.013 -0.6361  1.6122  0.6041
 7223TIP3   OH221625   1.203   1.596   6.291  0.0366  0.1362 -0.3661
 7223TIP3    H121626   1.152   1.570   6.367  0.5164 -0.6938 -0.3207
 7223TIP3    H221627   1.283   1.635   6.326 -0.6654  1.6669 -0.4350
 7224TIP3   OH221628   8.042   5.381   4.544  0.4548  0.5988 -0.0409
 7224TIP3    H121629   8.105   5.350   4.479 -2.3445  0.4125 -2.7890
 7224TIP3    H221630   8.094   5.433   4.605  3.1907  0.8804 -2.4776
 7225TIP3   OH221631   1.358   2.601   6.013  0.2361 -0.2614  0.1052
 7225TIP3    H121632   1.292   2.592   5.945  1.4234  1.8793 -1.3785
 7225TIP3    H221633   1.433   2.551   5.981  1.1641  1.6058 -0.6623
 7226TIP3   OH221634   0.684   3.029   4.501  0.2361  0.3352 -0.5866
 7226TIP3    H121635   0.592   3.030   4.475 -0.0430 -0.6281  0.3466
 7226TIP3    H221636   0.703   2.937   4.518  1.4459  0.5004 -1.0067
 7227TIP3   OH221637   6.679   4.926   5.425 -0.6566  0.2185  0.3374
 7227TIP3    H121638   6.593   4.883   5.434  0.0555 -1.0599  1.1666
 7227TIP3    H221639   6.707   4.942   5.515  0.0098  0.5543  0.0682
 7228TIP3   OH221640   1.537   5.634   4.454 -0.0116  0.6241  0.3214
 7228TIP3    H121641   1.513   5.567   4.390 -1.3416  3.1019 -1.8428
 7228TIP3    H221642   1.480   5.616   4.529 -0.8803 -0.2087 -0.5243
 7229TIP3   OH221643   2.713   2.873   6.702  0.3729 -0.1266 -0.8443
 7229TIP3    H121644   2.672   2.861   6.616  1.3125 -1.1656 -1.1635
 7229TIP3    H221645   2.725   2.785   6.735  1.6595  0.1865 -0.4350
 7230TIP3   OH221646   6.557   1.500   0.368 -0.2392  0.4221 -0.2556
 7230TIP3    H121647   6.635   1.546   0.399 -0.4676 -1.6099  3.6203
 7230TIP3    H221648   6.588   1.446   0.295  1.8532  0.2136  0.7430
 7231TIP3   OH221649   0.399   4.758   6.296 -0.4575 -0.7455 -0.0789
 7231TIP3    H121650   0.459   4.815   6.344  0.8730 -3.1338  1.1770
 7231TIP3    H221651   0.410   4.784   6.204  0.8077  0.3768  0.3763
 7232TIP3   OH221652   0.750   2.955   6.851  0.3971  0.4999  0.4164
 7232TIP3    H121653   0.746   2.866   6.886  0.9354  0.6799  0.9314
 7232TIP3    H221654   0.675   2.961   6.792  0.6980 -0.4910 -0.0759
 7233TIP3   OH221655   5.119   6.921   0.704 -0.2767  0.3620 -0.0356
 7233TIP3    H121656   5.046   6.868   0.735 -0.9151  1.7532  0.9054
 7233TIP3    H221657   5.185   6.858   0.674 -1.7577 -0.9147 -0.6718
 7234TIP3   OH221658   7.750   3.814   5.641 -0.0035  0.3314  0.6626
 7234TIP3    H121659   7.810   3.740   5.643 -1.7859 -1.2490 -1.4104
 7234TIP3    H221660   7.695   3.798   5.564 -3.2830  1.5190  2.6418
 7235TIP3   OH221661   7.112   1.711   6.221  0.3509 -0.3792  0.6024
 7235TIP3    H121662   7.135   1.698   6.129 -0.2706  1.1320  0.2068
 7235TIP3    H221663   7.196   1.711   6.267  0.7401 -0.2729 -0.0941
 7236TIP3   OH221664   0.960   3.673   6.089  0.3223  0.1992  0.2883
 7236TIP3    H121665   0.891   3.705   6.147  0.9681  0.2107  1.0564
 7236TIP3    H221666   0.913   3.634   6.015 -0.4954  1.0183  0.3593
 7237TIP3   OH221667   0.950   0.836   6.045 -0.0493 -0.1651 -0.7420
 7237TIP3    H121668   0.896   0.903   6.085  0.8164  0.4678 -0.6201
 7237TIP3    H221669   0.986   0.878   5.967 -1.2302 -1.1836 -1.8646
 7238TIP3   OH221670   1.337   0.600   6.196  0.0023 -0.0154  0.3447
 7238TIP3    H121671   1.243   0.618   6.194  0.3969  2.1263 -0.5870
 7238TIP3    H221672   1.370   0.639   6.115  1.9165  0.7595  1.4786
 7239TIP3   OH221673   0.346   2.899   6.187 -0.3007  0.2597  0.2498
 7239TIP3    H121674   0.349   2.856   6.272 -1.3440 -1.8557 -0.7510
 7239TIP3    H221675   0.423   2.957   6.187  1.6424 -2.2419  1.3016
 7240TIP3   OH221676   3.521   7.671   0.169 -0.4976 -0.0957  0.1479
 7240TIP3    H121677   3.439   7.701   0.132 -0.0076  1.3284  0.2087
 7240TIP3    H221678   3.546   7.597   0.114 -0.1381  1.5563 -1.9591
 7241TIP3   OH221679   1.928   4.142   6.130 -0.8872  0.1215 -0.1854
 7241TIP3    H121680   1.892   4.158   6.217  1.5460  1.5269  0.6103
 7241TIP3    H221681   1.939   4.047   6.125 -2.0369 -0.0670  0.6106
 7242TIP3   OH221682   3.223   7.448   0.394 -0.1315  0.0301 -0.1374
 7242TIP3    H121683   3.242   7.454   0.300  2.2116  0.5398  0.3423
 7242TIP3    H221684   3.163   7.522   0.411  0.1154  0.4529 -1.0701
 7243TIP3   OH221685   1.535   2.300   3.334 -0.1377  0.2774  0.1941
 7243TIP3    H121686   1.588   2.224   3.358  1.0254  1.1767  0.5722
 7243TIP3    H221687   1.510   2.285   3.243 -0.9782 -1.1461  0.6533
 7244TIP3   OH221688   2.466   7.319   6.496  0.1000  0.2463 -0.4866
 7244TIP3    H121689   2.526   7.380   6.452  1.5908 -1.6496 -1.1703
 7244TIP3    H221690   2.506   7.233   6.482 -0.7049 -0.6488  2.5331
 7245TIP3   OH221691   1.550   4.148   6.396  0.1365  0.0652  0.2496
 7245TIP3    H121692   1.584   4.066   6.430  1.3353 -0.3143 -1.7560
 7245TIP3    H221693   1.624   4.209   6.403  1.2016 -0.6033 -3.5637
 7246TIP3   OH221694   1.483   3.812   5.083  0.0112  0.6737 -0.2190
 7246TIP3    H121695   1.414   3.869   5.115  0.1802 -0.1979  1.7364
 7246TIP3    H221696   1.559   3.834   5.136  1.0184  1.0059 -1.7647
 7247TIP3   OH221697   5.760   0.986   0.945 -0.0290 -0.2386 -0.3192
 7247TIP3    H121698   5.821   0.929   0.898  0.2210  0.7613 -1.2354
 7247TIP3    H221699   5.718   0.928   1.009  1.5231 -1.0461  0.0078
 7248TIP3   OH221700   0.769   2.567   4.257  0.2708 -0.2117  0.5900
 7248TIP3    H121701   0.794   2.572   4.165  1.6723 -0.3872  0.9505
 7248TIP3    H221702   0.842   2.608   4.304  0.2189 -1.3839  1.7239
 7249TIP3   OH221703   6.752   4.609   4.246 -0.4539  0.3352  0.1050
 7249TIP3    H121704   6.770   4.647   4.332  0.9328 -1.4349  0.6279
 7249TIP3    H221705   6.666   4.644   4.222  0.5855  3.4382  0.7137
 7250TIP3   OH221706   3.265   2.538   3.062  0.0471 -0.4305 -0.3129
 7250TIP3    H121707   3.254   2.443   3.065  0.1848 -0.4216  0.9922
 7250TIP3    H221708   3.272   2.559   2.969 -3.8881 -1.2471 -0.8746
 7251TIP3   OH221709   2.351   3.038   3.613  0.7879  0.1439  0.3245
 7251TIP3    H121710   2.321   2.970   3.672 -1.4420  1.0649  0.2983
 7251TIP3    H221711   2.390   2.991   3.540 -0.9059 -1.1366  0.2055
 7252TIP3   OH221712   1.468   1.863   4.514  0.0175  0.4250  0.1169
 7252TIP3    H121713   1.374   1.844   4.513  0.0653  0.1498  0.7685
 7252TIP3    H221714   1.502   1.812   4.587  0.5313  1.2182  0.4330
 7253TIP3   OH221715   5.386   7.817   0.159  0.1026  0.0669  0.9604
 7253TIP3    H121716   5.472   7.806   0.199  0.3406  0.9128  0.7033
 7253TIP3    H221717   5.324   7.794   0.228  0.5364 -1.5250  0.8332
 7254TIP3   OH221718   2.192   4.371   3.297 -0.6147 -0.4654  0.1230
 7254TIP3    H121719   2.254   4.299   3.312 -0.2310 -0.1651 -0.0159
 7254TIP3    H221720   2.241   4.450   3.319 -0.5874 -0.1436 -1.0254
 7255TIP3   OH221721   2.014   2.787   3.702 -0.2349  0.1811  0.2840
 7255TIP3    H121722   2.089   2.819   3.752 -0.3783  1.6705 -0.4198
 7255TIP3    H221723   1.995   2.701   3.739  2.4887 -0.6876 -0.2094
 7256TIP3   OH221724   2.790   3.334   4.235 -0.5862  0.1282 -0.1046
 7256TIP3    H121725   2.820   3.255   4.191  1.3236 -0.1352  1.5504
 7256TIP3    H221726   2.696   3.338   4.218 -0.4703 -1.7529 -1.3232
 7257TIP3   OH221727   1.293   4.650   6.657 -0.2013 -0.0334  0.3038
 7257TIP3    H121728   1.308   4.716   6.590 -0.3758 -0.2150  0.0849
 7257TIP3    H221729   1.265   4.699   6.734 -1.1243  0.0730 -0.1025
 7258TIP3   OH221730   0.543   3.001   6.611 -0.4050  0.2191  0.0028
 7258TIP3    H121731   0.494   2.945   6.551 -1.4840 -0.9021  1.8777
 7258TIP3    H221732   0.479   3.065   6.641 -0.0134  0.4422  0.3594
 7259TIP3   OH221733   0.648   1.180   6.814  0.0338 -0.2688 -0.2858
 7259TIP3    H121734   0.642   1.253   6.752  2.1038  1.0429  0.9982
 7259TIP3    H221735   0.671   1.105   6.760  0.4549  0.5753 -1.3078
 7260TIP3   OH221736   2.883   5.214   4.571 -0.1816 -0.3243 -0.0831
 7260TIP3    H121737   2.793   5.193   4.596  0.0556 -1.4462 -0.1624
 7260TIP3    H221738   2.873   5.278   4.500 -0.8749  2.4797  2.4153
 7261TIP3   OH221739   2.235   2.532   4.775 -0.3139 -0.4597  0.0605
 7261TIP3    H121740   2.214   2.570   4.860  0.6910 -0.1298  0.1647
 7261TIP3    H221741   2.286   2.600   4.730 -0.6830 -0.6976 -0.7307
 7262TIP3   OH221742   7.753   1.866   6.701 -0.4959 -0.3163 -0.3032
 7262TIP3    H121743   7.794   1.923   6.636 -0.2130 -0.8350 -0.5814
 7262TIP3    H221744   7.667   1.846   6.665 -0.5353 -0.1923 -0.2788
 7263TIP3   OH221745   4.319   7.140   0.184 -0.1034 -0.2177  0.8266
 7263TIP3    H121746   4.255   7.121   0.116  0.2394  0.0162  0.4416
 7263TIP3    H221747   4.268   7.138   0.265 -0.4505 -0.8068  0.5989
 7264TIP3   OH221748   7.868   2.348   3.442  0.0050 -0.3648  0.1746
 7264TIP3    H121749   7.854   2.263   3.400  0.8149 -1.2019  1.5332
 7264TIP3    H221750   7.959   2.370   3.421 -1.1380  1.7385 -2.8621
 7265TIP3   OH221751   0.322   4.106   5.565  0.1615  0.0801 -0.9040
 7265TIP3    H121752   0.333   4.160   5.487 -1.4159  0.8394 -0.6078
 7265TIP3    H221753   0.312   4.169   5.637  0.4259 -0.6075 -0.2585
 7266TIP3   OH221754   1.595   5.802   4.005 -0.1066  0.1459 -0.4528
 7266TIP3    H121755   1.617   5.709   4.001 -0.3037  0.0371  0.6889
 7266TIP3    H221756   1.635   5.832   4.087 -1.8130  0.5911  0.2383
 7267TIP3   OH221757   0.611   1.443   6.635 -0.0690  0.4996 -0.1759
 7267TIP3    H121758   0.636   1.521   6.684  0.4432  0.2391 -0.0192
 7267TIP3    H221759   0.537   1.471   6.580 -1.2258  0.5872  1.3792
 7268TIP3   OH221760   7.099   6.553   5.789  0.8756 -0.0756  0.2097
 7268TIP3    H121761   7.032   6.515   5.731 -0.2506 -0.2784  1.6094
 7268TIP3    H221762   7.146   6.615   5.733 -0.5531  0.1601 -0.7752
 7269TIP3   OH221763   7.054   4.607   5.597  0.0501  0.1244 -0.2182
 7269TIP3    H121764   6.975   4.627   5.547  0.5396  0.8629 -0.6923
 7269TIP3    H221765   7.088   4.692   5.624 -0.8782 -0.2856  2.4093
 7270TIP3   OH221766   0.351   4.456   5.824 -0.2561 -0.5969  0.1848
 7270TIP3    H121767   0.306   4.374   5.841 -1.4048  0.1362  0.6984
 7270TIP3    H221768   0.288   4.510   5.776 -0.0219  0.5137  1.0982
 7271TIP3   OH221769   1.801   2.255   6.754  0.3310 -0.0267  0.2838
 7271TIP3    H121770   1.820   2.288   6.666 -1.2271  1.7698  0.5904
 7271TIP3    H221771   1.860   2.305   6.811  3.2187 -3.0298  0.0530
 7272TIP3   OH221772   7.759   7.058   5.263 -0.2050  0.4440  0.2486
 7272TIP3    H121773   7.854   7.075   5.264  0.0214 -0.6571 -0.9391
 7272TIP3    H221774   7.719   7.143   5.282  1.0174  0.8735  0.9953
 7273TIP3   OH221775   5.598   0.010   0.056  0.2435  0.3660  0.2494
 7273TIP3    H121776   5.521   0.060   0.084 -0.7919 -1.8408  1.5640
 7273TIP3    H221777   5.672   0.068   0.073 -0.9233  1.5563  1.4474
 7274TIP3   OH221778   1.261   4.314   5.513  0.2535 -0.3898 -0.9193
 7274TIP3    H121779   1.323   4.386   5.499 -0.1824  0.6534  2.2184
 7274TIP3    H221780   1.178   4.347   5.477  0.1942  0.4385 -0.0269
 7275TIP3   OH221781   0.477   5.000   5.384 -0.1072 -0.2859  0.1028
 7275TIP3    H121782   0.390   4.961   5.383  0.1284 -0.8126  0.1699
 7275TIP3    H221783   0.508   4.992   5.294 -0.4298  0.5816 -0.0878
 7276TIP3   OH221784   0.507   4.104   5.889  0.0963  0.1625  0.2484
 7276TIP3    H121785   0.441   4.065   5.832 -0.9319  0.5456  1.1744
 7276TIP3    H221786   0.589   4.097   5.839 -0.6356 -0.3142 -0.8926
 7277TIP3   OH221787   1.029   4.402   5.409 -0.1384  0.3937  0.7240
 7277TIP3    H121788   0.954   4.346   5.430 -1.5807  1.6700 -0.8651
 7277TIP3    H221789   0.992   4.490   5.407  1.5023  1.0726  0.2957
 7278TIP3   OH221790   6.959   2.801   3.798  0.5537 -0.2073  0.2399
 7278TIP3    H121791   6.976   2.816   3.705 -0.3466 -0.3266  0.0505
 7278TIP3    H221792   7.035   2.837   3.842  1.2366 -0.6349 -0.5784
 7279TIP3   OH221793   7.200   0.948   0.780 -0.3666 -0.2898 -0.0643
 7279TIP3    H121794   7.215   0.969   0.688 -0.9168  0.9721  0.1191
 7279TIP3    H221795   7.286   0.928   0.815  0.2655  2.0816 -0.1687
 7280TIP3   OH221796   3.115   1.894   4.411  0.7953  0.5359  0.0567
 7280TIP3    H121797   3.192   1.942   4.443  1.0767  0.2111 -0.1318
 7280TIP3    H221798   3.131   1.803   4.435 -0.4552  0.7477  1.7842
 7281TIP3   OH221799   8.501   0.942   4.879 -0.5380 -0.2850 -0.1436
 7281TIP3    H121800   8.430   0.947   4.943  0.2843  1.2626  0.6777
 7281TIP3    H221801   8.499   0.852   4.847 -2.6869 -0.3227  0.0692
 7282TIP3   OH221802   2.228   1.613   5.439  0.3740  0.6626  0.4975
 7282TIP3    H121803   2.216   1.631   5.346 -0.0871 -1.4098  0.1375
 7282TIP3    H221804   2.221   1.518   5.446 -1.8850  0.9717  2.9872
 7283TIP3   OH221805   2.534   6.088   5.112  0.2242  0.0018 -0.4407
 7283TIP3    H121806   2.620   6.049   5.099 -0.4950 -2.2928  1.2797
 7283TIP3    H221807   2.551   6.169   5.160  1.5622  0.7049 -2.0445
 7284TIP3   OH221808   7.274   1.369   6.094  0.6008  0.6593 -0.4303
 7284TIP3    H121809   7.362   1.349   6.063  1.8732  3.2117  1.3697
 7284TIP3    H221810   7.257   1.459   6.064 -1.1850  0.3762 -0.3450
 7285TIP3   OH221811   8.446   2.186   4.828 -0.2841 -0.6091  0.7883
 7285TIP3    H121812   8.537   2.177   4.855  0.3207  0.5674 -0.7926
 7285TIP3    H221813   8.448   2.179   4.733 -1.8211 -0.4135  0.7265
 7286TIP3   OH221814   8.409   3.358   4.199 -0.1577 -0.3725 -0.0526
 7286TIP3    H121815   8.375   3.272   4.221  0.3206 -0.1606  1.5142
 7286TIP3    H221816   8.499   3.358   4.230 -0.3043  0.8660  0.4087
 7287TIP3   OH221817   7.203   3.048   3.504  0.3963 -0.2181 -0.3217
 7287TIP3    H121818   7.194   3.126   3.558  1.5785 -0.1594 -0.2010
 7287TIP3    H221819   7.189   3.079   3.414  0.3137  0.0208 -0.2283
 7288TIP3   OH221820   8.371   6.488   3.713  0.6613  0.2040 -0.1912
 7288TIP3    H121821   8.407   6.436   3.785  0.3225 -1.0614 -0.9262
 7288TIP3    H221822   8.284   6.513   3.743  1.1621  1.1258  0.5331
 7289TIP3   OH221823   8.454   6.353   3.966  0.0012  0.4258 -0.6374
 7289TIP3    H121824   8.469   6.296   4.042 -0.1057 -1.1870 -1.7979
 7289TIP3    H221825   8.541   6.376   3.935  0.0460  0.6627 -0.3323
 7290TIP3   OH221826   2.217   5.085   1.712  0.2401  0.2717 -0.1332
 7290TIP3    H121827   2.203   4.992   1.731 -2.3765  0.8568  0.9615
 7290TIP3    H221828   2.145   5.109   1.654  0.5499  1.7674  0.0819
 7291TIP3   OH221829   1.501   3.644   6.063  0.2760 -0.4780  0.8276
 7291TIP3    H121830   1.499   3.564   6.011  0.1420 -0.6790  1.1422
 7291TIP3    H221831   1.416   3.685   6.048  1.2580  0.8619 -1.2941
 7292TIP3   OH221832   1.091   2.010   6.862  0.3078 -0.1556  0.7568
 7292TIP3    H121833   1.042   2.027   6.782  1.3292  1.3883  0.4373
 7292TIP3    H221834   1.031   2.034   6.933 -0.1137 -0.2357  0.4295
 7293TIP3   OH221835   0.608   4.455   4.027 -0.2084  0.5551  0.1726
 7293TIP3    H121836   0.618   4.503   3.944  2.2632 -0.3100 -0.0559
 7293TIP3    H221837   0.593   4.523   4.092  0.2811  1.4308 -0.6166
 7294TIP3   OH221838   3.577   3.431   5.093 -0.3054 -0.4202  0.5312
 7294TIP3    H121839   3.530   3.512   5.071 -2.1131 -2.0250 -1.7107
 7294TIP3    H221840   3.658   3.436   5.042 -0.6530 -0.2841 -0.0031
 7295TIP3   OH221841   1.569   5.729   3.715 -0.5230  0.3900 -0.4403
 7295TIP3    H121842   1.643   5.674   3.689 -0.6843  0.1256 -0.3419
 7295TIP3    H221843   1.605   5.789   3.780 -0.7319 -0.7169  0.7198
 7296TIP3   OH221844   3.209   4.403   3.774 -0.1880  0.2165 -0.3291
 7296TIP3    H121845   3.118   4.375   3.785  0.9871 -2.7781  2.6925
 7296TIP3    H221846   3.238   4.359   3.695 -0.9326 -0.0387 -0.4650
 7297TIP3   OH221847   1.426   4.540   4.535 -0.0126 -0.2979  0.1227
 7297TIP3    H121848   1.402   4.523   4.626 -0.4967 -1.4651 -0.1987
 7297TIP3    H221849   1.342   4.551   4.490  0.2017 -0.1967 -0.2564
 7298TIP3   OH221850   2.727   4.470   5.410 -0.0860 -0.0384  0.2776
 7298TIP3    H121851   2.778   4.548   5.390 -0.2090  0.3548  1.4626
 7298TIP3    H221852   2.766   4.436   5.491 -0.3380 -0.9359  0.0358
 7299TIP3   OH221853   1.552   5.188   4.341 -0.1877  0.1140 -0.3467
 7299TIP3    H121854   1.532   5.111   4.287 -0.7045 -1.3393  1.8823
 7299TIP3    H221855   1.589   5.152   4.421 -0.2665  2.2185  0.6509
 7300TIP3   OH221856   3.901   3.272   3.369  0.0266 -0.3339 -0.4635
 7300TIP3    H121857   3.943   3.244   3.450  0.6041 -1.3542 -1.1093
 7300TIP3    H221858   3.808   3.250   3.381 -0.0119  0.1683  0.1900
 7301TIP3   OH221859   1.626   3.977   3.771  0.6265  0.2225  0.6563
 7301TIP3    H121860   1.533   3.973   3.791  0.7207  0.4837  1.1634
 7301TIP3    H221861   1.638   4.061   3.727  0.5605  0.0267  0.2666
 7302TIP3   OH221862   2.770   2.192   4.604 -0.6672 -0.0946  0.1880
 7302TIP3    H121863   2.677   2.200   4.626 -0.5376  1.7709  0.1552
 7302TIP3    H221864   2.816   2.218   4.684 -0.1960  1.9380 -0.6983
 7303TIP3   OH221865   1.292   5.558   2.818  0.2621 -0.0387 -0.5764
 7303TIP3    H121866   1.289   5.519   2.731 -0.1523 -0.1103 -0.5315
 7303TIP3    H221867   1.293   5.483   2.878  0.1092  0.0154 -0.5071
 7304TIP3   OH221868   2.697   2.642   5.623  0.0523 -0.1968 -0.0213
 7304TIP3    H121869   2.671   2.671   5.711 -0.0403  2.2202 -0.7972
 7304TIP3    H221870   2.627   2.583   5.596 -0.6273  0.1223  1.0016
 7305TIP3   OH221871   5.759   4.615   3.334 -0.2893 -0.0729 -0.0535
 7305TIP3    H121872   5.771   4.673   3.259  0.4291 -2.3089 -1.7003
 7305TIP3    H221873   5.718   4.537   3.298 -2.3085 -0.1703  2.3275
 7306TIP3   OH221874   3.898   6.164   1.855  0.3754  0.2097  0.2218
 7306TIP3    H121875   3.843   6.099   1.812  0.5164  0.7429 -0.7808
 7306TIP3    H221876   3.854   6.181   1.939  0.1500 -0.9027  0.3344
 7307TIP3   OH221877   2.435   3.928   3.993 -0.5835  0.2304  0.1134
 7307TIP3    H121878   2.354   3.877   3.996 -1.5743  1.7925  0.6939
 7307TIP3    H221879   2.478   3.908   4.076 -0.6105 -0.2363  0.0156
 7308TIP3   OH221880   0.999   5.308   4.107  0.0350  0.7281 -0.1725
 7308TIP3    H121881   0.919   5.262   4.085  0.4130  0.6075 -1.3021
 7308TIP3    H221882   0.970   5.395   4.136 -0.5805  0.2397  0.7097
 7309TIP3   OH221883   5.996   3.122   4.092  0.1879 -0.6631 -0.1277
 7309TIP3    H121884   6.080   3.092   4.127  0.8550 -0.8742 -1.8524
 7309TIP3    H221885   5.983   3.209   4.130  0.9805 -0.8046  0.4749
 7310TIP3   OH221886   1.406   5.868   4.813 -0.2498  0.1343  0.6577
 7310TIP3    H121887   1.495   5.837   4.834 -0.5947  0.4040  2.6776
 7310TIP3    H221888   1.389   5.936   4.878 -1.3532  1.1984 -0.7101
 7311TIP3   OH221889   1.782   2.674   4.665 -0.1213 -0.1280  0.2734
 7311TIP3    H121890   1.826   2.697   4.747 -1.9877  1.7675  0.7742
 7311TIP3    H221891   1.689   2.676   4.686 -0.6224  0.0974 -1.8286
 7312TIP3   OH221892   0.341   1.976   5.733  0.1857 -0.9377  0.3055
 7312TIP3    H121893   0.298   2.040   5.790  0.3368 -1.3861  0.9305
 7312TIP3    H221894   0.329   2.011   5.645  0.0215 -0.1919  0.6148
 7313TIP3   OH221895   3.760   4.558   3.529 -0.5067  0.1665  0.1349
 7313TIP3    H121896   3.666   4.569   3.517 -0.6202 -0.8233  0.0836
 7313TIP3    H221897   3.777   4.589   3.618 -0.8712  0.3794  0.1293
 7314TIP3   OH221898   4.157   3.189   5.980 -0.1398 -0.1254  0.0231
 7314TIP3    H121899   4.099   3.251   5.936 -0.7126  0.7449  1.9430
 7314TIP3    H221900   4.101   3.113   5.999  0.2316 -0.7134 -1.1286
 7315TIP3   OH221901   5.793   3.511   4.565 -0.0353 -0.2954 -0.2421
 7315TIP3    H121902   5.770   3.590   4.516  0.1064  0.8909  1.5334
 7315TIP3    H221903   5.888   3.503   4.552 -0.0374 -0.1307 -0.3694
 7316TIP3   OH221904   0.591   6.836   4.335 -0.5089 -0.3710 -0.0215
 7316TIP3    H121905   0.648   6.831   4.258 -1.5233  2.0537 -1.0033
 7316TIP3    H221906   0.509   6.796   4.306 -1.0304  0.9256 -0.3434
 7317TIP3   OH221907   3.824   3.693   4.084  0.3028  0.1556  0.1818
 7317TIP3    H121908   3.789   3.723   4.168  1.5559  0.9886  0.4296
 7317TIP3    H221909   3.875   3.615   4.105  0.6987  0.4218  0.2063
 7318TIP3   OH221910   3.415   2.952   6.409 -0.1528  0.3727 -0.4521
 7318TIP3    H121911   3.397   2.863   6.378  1.0356  0.0584 -0.2493
 7318TIP3    H221912   3.507   2.951   6.433 -0.0287  1.7848 -0.8444
 7319TIP3   OH221913   1.289   4.179   4.620 -0.0137  0.1390 -0.5675
 7319TIP3    H121914   1.378   4.215   4.618  0.1013 -0.1876 -1.6232
 7319TIP3    H221915   1.288   4.113   4.550 -0.9589 -0.1539 -0.2847
 7320TIP3   OH221916   5.248   3.906   4.068 -0.4742 -0.5499 -0.4975
 7320TIP3    H121917   5.191   3.914   4.144 -0.1313  0.7133 -0.3702
 7320TIP3    H221918   5.224   3.822   4.029 -0.6376 -1.2164  1.0098
 7321TIP3   OH221919   6.808   6.948   0.850  0.0550  0.2599  0.4882
 7321TIP3    H121920   6.781   6.928   0.761  0.7515  0.4981  0.2179
 7321TIP3    H221921   6.900   6.975   0.842  0.0818  0.4182  1.2544
 7322TIP3   OH221922   3.598   3.807   3.875 -0.0185 -0.0953 -0.4047
 7322TIP3    H121923   3.574   3.800   3.967  0.6208  1.9011 -0.0624
 7322TIP3    H221924   3.694   3.804   3.875  0.1240  2.8110 -0.6784
 7323TIP3   OH221925   4.781   3.259   5.545  0.3415  0.6140 -0.1897
 7323TIP3    H121926   4.778   3.231   5.453  0.8920 -0.6896  0.1750
 7323TIP3    H221927   4.689   3.275   5.568  0.1380  0.3388 -0.7879
 7324TIP3   OH221928   2.020   5.273   1.896  0.3321  0.5768  0.2642
 7324TIP3    H121929   2.032   5.226   1.814  0.3650  0.5451  0.2875
 7324TIP3    H221930   2.099   5.254   1.947 -0.6434 -1.1442  1.1783
 7325TIP3   OH221931   0.316   4.036   4.851 -0.2252 -0.2829 -0.5336
 7325TIP3    H121932   0.359   3.953   4.830 -1.5886 -1.3410  0.7002
 7325TIP3    H221933   0.245   4.043   4.786 -1.9098 -1.5454  1.1152
 7326TIP3   OH221934   4.121   3.699   2.464 -0.2887 -0.1492 -0.1615
 7326TIP3    H121935   4.178   3.734   2.533  0.4442  0.7603 -1.2044
 7326TIP3    H221936   4.081   3.622   2.503  0.3966  0.1490  1.1639
 7327TIP3   OH221937   1.615   5.428   5.969  0.1733  0.0715 -0.9664
 7327TIP3    H121938   1.645   5.396   6.054  0.2261  0.7044 -0.7363
 7327TIP3    H221939   1.642   5.362   5.906 -0.5353 -0.7793 -0.3927
 7328TIP3   OH221940   3.531   2.322   2.303 -0.8856 -0.5004  0.1360
 7328TIP3    H121941   3.546   2.387   2.372 -0.0506 -1.0344  0.4675
 7328TIP3    H221942   3.541   2.371   2.222  0.0392 -0.2763  0.3827
 7329TIP3   OH221943   1.607   4.570   3.758 -0.1757 -0.6016  0.2758
 7329TIP3    H121944   1.699   4.553   3.782  0.0169  2.0737  1.5522
 7329TIP3    H221945   1.563   4.585   3.841 -1.2535  0.5715 -0.4885
 7330TIP3   OH221946   0.930   5.443   2.998 -0.5342  0.0760 -0.5665
 7330TIP3    H121947   1.008   5.404   2.959 -1.4978 -1.3712 -1.0923
 7330TIP3    H221948   0.950   5.449   3.092 -0.5893 -2.2966 -0.3824
 7331TIP3   OH221949   1.319   2.999   6.667  0.0545  0.3159 -0.0877
 7331TIP3    H121950   1.263   2.943   6.722 -1.0362  0.3876 -1.0985
 7331TIP3    H221951   1.258   3.038   6.604  0.8200  2.6134  0.5719
 7332TIP3   OH221952   2.585   3.557   4.308  0.1719  0.2842 -0.1569
 7332TIP3    H121953   2.545   3.555   4.221  1.4335 -0.3928 -0.7352
 7332TIP3    H221954   2.512   3.547   4.368 -0.5984 -0.3781 -1.1840
 7333TIP3   OH221955   5.161   0.010   3.270 -0.5965 -0.3324 -0.0917
 7333TIP3    H121956   5.078   0.047   3.300 -0.9501 -0.6257 -0.6937
 7333TIP3    H221957   5.146  -0.010   3.178 -0.6959 -2.7301  0.4180
 7334TIP3   OH221958   1.169   3.673   5.735 -0.2264  0.2820  0.3540
 7334TIP3    H121959   1.146   3.646   5.647 -1.0009  0.5008  0.4849
 7334TIP3    H221960   1.151   3.767   5.737 -1.9239 -0.0409  1.2687
 7335TIP3   OH221961   1.118   6.485   5.717  0.1086  0.7472  0.2401
 7335TIP3    H121962   1.144   6.440   5.798 -2.0475  0.2830  0.7126
 7335TIP3    H221963   1.155   6.573   5.726  1.5822  0.0953  0.7975
 7336TIP3   OH221964   0.705   4.528   4.349 -0.3511  0.3716  0.5318
 7336TIP3    H121965   0.693   4.525   4.444 -0.5015  0.3037  0.5095
 7336TIP3    H221966   0.619   4.549   4.314 -0.5932 -0.9122  0.3242
 7337TIP3   OH221967   4.089   5.449   4.814  0.3032 -0.2199 -0.3850
 7337TIP3    H121968   4.098   5.358   4.785 -1.0870 -0.3891 -0.3084
 7337TIP3    H221969   4.061   5.443   4.905 -0.7985  0.2643 -0.6781
 7338TIP3   OH221970   2.848   2.782   4.070 -0.0262  0.1656  0.0294
 7338TIP3    H121971   2.795   2.723   4.016 -1.3771  1.2099  0.1858
 7338TIP3    H221972   2.896   2.836   4.006  0.9097 -0.8247 -0.1128
 7339TIP3   OH221973   3.497   2.440   5.907  0.0410 -0.6334 -0.4353
 7339TIP3    H121974   3.478   2.511   5.969  1.1728 -0.5442 -0.1733
 7339TIP3    H221975   3.422   2.438   5.849 -0.2064  0.4976 -0.1656
 7340TIP3   OH221976   2.583   5.350   2.660  0.2601  0.7553 -0.1546
 7340TIP3    H121977   2.653   5.343   2.726  0.9560  1.7214 -0.7697
 7340TIP3    H221978   2.628   5.334   2.577 -0.3712  0.7721 -0.4957
 7341TIP3   OH221979   1.663   3.480   3.934  0.1597 -0.3838  0.0963
 7341TIP3    H121980   1.586   3.434   3.900 -0.2107 -0.2839  0.7873
 7341TIP3    H221981   1.667   3.560   3.881 -0.3889 -0.2478  0.2511
 7342TIP3   OH221982   3.641   2.711   6.085  0.2833 -0.1107 -0.0760
 7342TIP3    H121983   3.663   2.796   6.125  1.0813  0.8632 -2.5071
 7342TIP3    H221984   3.547   2.700   6.104  0.7070  0.1144  2.3657
 7343TIP3   OH221985   1.752   3.396   6.056 -0.3502 -0.1948  0.5152
 7343TIP3    H121986   1.670   3.379   6.011 -0.8113  0.2659  1.1757
 7343TIP3    H221987   1.732   3.468   6.117  0.2985 -0.7208  1.3592
 7344TIP3   OH221988   2.068   2.044   4.739  0.0418  0.2310 -0.3899
 7344TIP3    H121989   2.096   2.095   4.815  0.2989 -0.2512 -0.1667
 7344TIP3    H221990   2.149   2.012   4.700 -0.0961  0.3967 -0.8125
 7345TIP3   OH221991   5.550   2.719   2.701  0.6831 -0.0250  0.5428
 7345TIP3    H121992   5.633   2.765   2.710  1.0218 -0.3241 -0.8332
 7345TIP3    H221993   5.574   2.626   2.707  0.0077 -0.0623  3.3113
 7346TIP3   OH221994   1.303   1.742   5.407  0.2336  0.5268 -0.0617
 7346TIP3    H121995   1.311   1.649   5.428  0.2838  0.9722  1.9538
 7346TIP3    H221996   1.256   1.743   5.324 -4.1552 -1.1675  2.2327
 7347TIP3   OH221997   2.875   4.749   5.708  0.0050 -0.2677 -0.6595
 7347TIP3    H121998   2.939   4.679   5.691 -0.9937 -1.9293  2.0849
 7347TIP3    H221999   2.881   4.764   5.802 -2.0967  1.0916 -0.7230
 7348TIP3   OH222000   1.784   2.933   6.375 -0.0221  0.4850  0.5095
 7348TIP3    H122001   1.773   3.014   6.425 -1.1083  0.6832 -0.0181
 7348TIP3    H222002   1.699   2.921   6.332  1.3906  1.1861 -2.5760
 7349TIP3   OH222003   3.756   4.790   3.133  0.2240  0.2904 -0.1527
 7349TIP3    H122004   3.779   4.710   3.180  1.5894  0.5565 -0.3524
 7349TIP3    H222005   3.704   4.759   3.058 -0.2952 -0.2979  0.4470
 7350TIP3   OH222006   4.314   6.841   0.928  0.2433  0.9214 -0.0279
 7350TIP3    H122007   4.386   6.887   0.972 -0.9336  1.5911  1.2322
 7350TIP3    H222008   4.311   6.755   0.970  0.6064  0.7124 -0.4193
 7351TIP3   OH222009   1.539   2.766   6.188 -0.2062  0.1886 -0.5618
 7351TIP3    H122010   1.492   2.772   6.272 -1.2757 -2.3490 -0.9373
 7351TIP3    H222011   1.473   2.737   6.126  1.5099 -1.8965 -1.4354
 7352TIP3   OH222012   2.088   4.631   4.469 -0.1798  0.1637 -0.2131
 7352TIP3    H122013   2.094   4.555   4.411  0.9606 -0.6079  0.8904
 7352TIP3    H222014   2.019   4.608   4.531  2.0927 -1.2552  1.9014
 7353TIP3   OH222015   0.472   2.469   2.764 -0.7278 -0.3763 -0.4851
 7353TIP3    H122016   0.480   2.496   2.672  0.9291  0.1635 -0.1874
 7353TIP3    H222017   0.453   2.550   2.811 -0.2489 -0.4448 -0.1741
 7354TIP3   OH222018   1.072   2.218   5.366  0.4514 -0.1397  0.0727
 7354TIP3    H122019   1.141   2.218   5.300 -0.7704 -0.6496 -1.1960
 7354TIP3    H222020   1.061   2.126   5.390 -0.2376 -0.1269 -0.1926
 7355TIP3   OH222021   3.537   3.033   5.162 -0.3296  0.7459  0.1432
 7355TIP3    H122022   3.452   2.992   5.144 -0.9113  2.0545 -0.1701
 7355TIP3    H222023   3.572   2.983   5.235 -1.4269  0.2525  0.3479
 7356TIP3   OH222024   2.784   1.188   5.107  0.0744  0.1912 -0.1105
 7356TIP3    H122025   2.765   1.208   5.015 -0.0157 -0.5249 -0.2555
 7356TIP3    H222026   2.797   1.093   5.108  2.5832  0.5120  0.1747
 7357TIP3   OH222027   4.294   4.424   5.888 -0.3389 -0.0688  0.1266
 7357TIP3    H122028   4.268   4.484   5.958 -0.3907 -0.5695  0.5371
 7357TIP3    H222029   4.224   4.359   5.885  0.9961 -1.5785  1.4280
 7358TIP3   OH222030   2.464   3.506   4.077 -0.5055 -0.4756  0.2861
 7358TIP3    H122031   2.445   3.556   3.998 -0.9732 -0.6426  0.2935
 7358TIP3    H222032   2.454   3.414   4.051  0.5059 -0.5815  0.2282
 7359TIP3   OH222033   7.750   2.511   6.162 -0.1481 -0.5340  0.2045
 7359TIP3    H122034   7.656   2.530   6.159 -0.4340 -2.0862 -1.1917
 7359TIP3    H222035   7.767   2.458   6.084  1.9541 -0.0355  0.2760
 7360TIP3   OH222036   8.343   4.817   4.184  0.0362  0.2125 -0.0309
 7360TIP3    H122037   8.250   4.823   4.164  0.2257 -0.3947 -1.1142
 7360TIP3    H222038   8.378   4.903   4.161 -0.0605  0.0807 -0.6695
 7361TIP3   OH222039   2.997   5.795   3.629 -0.2270 -0.0199  0.1995
 7361TIP3    H122040   2.993   5.886   3.661 -1.0014 -0.3094  0.9699
 7361TIP3    H222041   2.944   5.746   3.692 -0.6491 -0.8416 -0.7876
 7362TIP3   OH222042   1.959   2.901   3.465  0.2083 -0.3879 -0.0096
 7362TIP3    H122043   1.974   2.856   3.548  0.2368 -0.5767 -0.1161
 7362TIP3    H222044   1.864   2.908   3.457  0.2098 -0.2152  0.1209
 7363TIP3   OH222045   3.293   4.374   3.491 -0.0520  0.1769 -0.0998
 7363TIP3    H122046   3.305   4.282   3.513  1.1549  0.5907  1.0478
 7363TIP3    H222047   3.279   4.375   3.397  0.9260 -1.0985 -0.2695
 7364TIP3   OH222048   0.765   3.777   4.517  0.1690  0.2250  0.4510
 7364TIP3    H122049   0.690   3.812   4.565  0.3925 -1.8795  2.4688
 7364TIP3    H222050   0.779   3.691   4.556  1.7982 -0.6349 -1.9287
 7365TIP3   OH222051   1.506   3.779   4.115  0.2319  0.0578  0.3347
 7365TIP3    H122052   1.454   3.732   4.181  1.1463 -0.1965  0.8711
 7365TIP3    H222053   1.444   3.792   4.043 -0.2701 -1.2799  0.4935
 7366TIP3   OH222054   3.460   3.398   3.975  0.0543 -0.0714  0.0473
 7366TIP3    H122055   3.443   3.421   3.883 -0.8241 -0.2371  0.1668
 7366TIP3    H222056   3.399   3.453   4.025 -1.7860 -2.3586  0.3656
 7367TIP3   OH222057   1.777   4.144   4.729 -0.1105 -0.1453  0.2646
 7367TIP3    H122058   1.762   4.075   4.794  1.7589 -0.6282  0.2252
 7367TIP3    H222059   1.871   4.141   4.713 -0.2402  1.4117 -0.8812
 7368TIP3   OH222060   1.349   5.736   4.100  0.4528  0.4107  0.2389
 7368TIP3    H122061   1.277   5.797   4.086  0.8914  1.2477  1.5188
 7368TIP3    H222062   1.427   5.783   4.070  0.4971 -0.4496 -1.0452
 7369TIP3   OH222063   2.003   6.085   3.823 -0.6705  0.0128 -0.2646
 7369TIP3    H122064   1.965   6.169   3.846 -0.2097 -0.4944  2.5662
 7369TIP3    H222065   1.971   6.024   3.890 -0.0512 -1.8039 -1.5605
 7370TIP3   OH222066   3.795   2.012   4.367 -0.4690 -0.1659 -0.7146
 7370TIP3    H122067   3.819   1.959   4.443 -0.0867  0.0875 -0.6596
 7370TIP3    H222068   3.852   2.088   4.372 -0.3026 -0.2473 -1.3638
 7371TIP3   OH222069   2.759   3.714   2.684  0.2547 -0.3025  0.0467
 7371TIP3    H122070   2.746   3.655   2.609 -0.1872 -0.8454  0.5391
 7371TIP3    H222071   2.791   3.656   2.754  0.1926  0.1120  0.4179
 7372TIP3   OH222072   3.326   5.704   4.564 -0.4998  0.3511 -0.1919
 7372TIP3    H122073   3.308   5.667   4.651  2.0803  0.8753  0.6125
 7372TIP3    H222074   3.339   5.628   4.508 -1.2681  0.0139  0.0755
 7373TIP3   OH222075   1.891   3.839   4.856  0.1331 -0.6630 -0.4231
 7373TIP3    H122076   1.869   3.806   4.769 -0.2602 -1.7748  0.0945
 7373TIP3    H222077   1.983   3.866   4.849 -0.5591  1.4170 -1.8177
 7374TIP3   OH222078   1.983   1.347   3.873  0.1068  0.2554  0.1618
 7374TIP3    H122079   2.048   1.407   3.838 -1.8992  2.3279 -0.0974
 7374TIP3    H222080   2.003   1.263   3.832  2.1312  1.0396 -0.4876
 7375TIP3   OH222081   1.561   5.514   4.025 -0.1872  0.5428 -0.3209
 7375TIP3    H122082   1.554   5.432   3.976 -0.7483  1.3589 -1.6657
 7375TIP3    H222083   1.509   5.500   4.104 -0.3637 -0.3650 -0.5955
 7376TIP3   OH222084   2.402   5.483   4.642 -0.4342  0.2991 -0.2707
 7376TIP3    H122085   2.420   5.445   4.557 -2.2373 -0.4324 -0.3591
 7376TIP3    H222086   2.319   5.443   4.669 -0.5363  1.4733  1.2473
 7377TIP3   OH222087   0.772   4.002   4.238 -0.0014  0.4385 -0.0155
 7377TIP3    H122088   0.787   4.095   4.258 -0.9593  0.6225 -0.1500
 7377TIP3    H222089   0.725   4.003   4.154  0.4780 -0.1900 -0.2928
 7378TIP3   OH222090   2.081   4.380   4.907 -0.4377  0.2568 -0.7686
 7378TIP3    H122091   2.098   4.386   5.001  1.9193  2.5368 -1.2622
 7378TIP3    H222092   2.054   4.290   4.893 -3.4679  0.5700  2.4602
 7379TIP3   OH222093   3.028   5.022   5.018 -0.2908 -0.9734  0.0416
 7379TIP3    H122094   3.030   5.041   4.925  0.1758  2.6548  0.7359
 7379TIP3    H222095   3.095   4.955   5.031 -1.1262 -2.3105 -2.3504
 7380TIP3   OH222096   3.153   6.128   3.516 -0.0898  0.7788 -0.5325
 7380TIP3    H122097   3.160   6.038   3.482  2.2130  0.3561  0.9311
 7380TIP3    H222098   3.086   6.123   3.584  0.7703 -0.0773  0.2640
 7381TIP3   OH222099   8.473   0.047   1.557 -0.5447  0.4271 -0.4826
 7381TIP3    H122100   8.468   0.019   1.648 -1.4758 -0.4215 -0.7819
 7381TIP3    H222101   8.527  -0.019   1.515 -0.8308  0.3419 -0.7195
 7382TIP3   OH222102   2.684   5.109   2.893 -0.2003  0.1605 -0.2440
 7382TIP3    H122103   2.723   5.119   2.980 -0.8655  2.0501 -0.1216
 7382TIP3    H222104   2.758   5.086   2.837 -0.0828 -2.9755  1.1228
 7383TIP3   OH222105   2.842   4.505   4.784 -0.1539 -0.5211  0.5786
 7383TIP3    H122106   2.784   4.443   4.739 -0.9440  0.7597 -0.2126
 7383TIP3    H222107   2.792   4.587   4.787  1.0723  0.2239  1.1295
 7384TIP3   OH222108   2.144   3.396   4.070 -0.2477  0.0404 -0.2549
 7384TIP3    H122109   2.059   3.387   4.114 -1.8152  1.8714 -2.7756
 7384TIP3    H222110   2.207   3.404   4.142 -2.0933 -1.9532  1.6804
 7385TIP3   OH222111   1.550   4.346   3.189 -0.2789  0.1519  0.4607
 7385TIP3    H122112   1.627   4.375   3.239  1.2828 -1.2943 -1.0842
 7385TIP3    H222113   1.523   4.424   3.140  0.8741  0.3497  0.1387
 7386TIP3   OH222114   0.717   2.693   3.740 -0.0486  0.1433 -0.0661
 7386TIP3    H122115   0.676   2.779   3.750 -0.9281 -0.1857 -0.7545
 7386TIP3    H222116   0.704   2.671   3.648  1.0271 -0.3062 -0.1164
 7387TIP3   OH222117   2.751   4.309   2.974 -0.3772  0.3816 -0.3508
 7387TIP3    H122118   2.671   4.261   2.995 -0.5672  1.1586  0.7485
 7387TIP3    H222119   2.807   4.244   2.930 -1.1623 -0.4659 -0.1125
 7388TIP3   OH222120   4.578   2.548   4.465 -0.0034 -0.1804 -0.9074
 7388TIP3    H122121   4.532   2.515   4.542 -1.0938 -0.4836 -1.6758
 7388TIP3    H222122   4.543   2.636   4.451  0.1111 -0.1691 -1.1293
 7389TIP3   OH222123   7.075   6.896   4.218  0.0682  0.3488 -0.2364
 7389TIP3    H122124   7.101   6.971   4.164 -0.1371  1.3672  1.0607
 7389TIP3    H222125   6.980   6.904   4.226  0.0934  0.1738  0.2503
 7390TIP3   OH222126   3.056   2.408   3.318  0.3152  0.1525 -0.0750
 7390TIP3    H122127   3.045   2.322   3.359 -0.9216  0.8908  1.1664
 7390TIP3    H222128   3.010   2.401   3.235  0.4445 -0.4793 -0.0944
 7391TIP3   OH222129   4.388   2.645   4.749 -0.2203 -0.3424 -0.4359
 7391TIP3    H122130   4.427   2.570   4.793  0.3318  0.2734  0.1554
 7391TIP3    H222131   4.322   2.677   4.811  1.3856  1.2529  0.5171
 7392TIP3   OH222132   3.721   1.749   5.372 -0.8773 -0.0465  0.2035
 7392TIP3    H122133   3.672   1.827   5.348 -0.7170 -0.4990 -1.6160
 7392TIP3    H222134   3.705   1.687   5.301 -0.7053 -1.5441  1.4499
 7393TIP3   OH222135   1.603   6.072   4.298 -0.2445 -0.5400 -0.3307
 7393TIP3    H122136   1.597   5.979   4.316  0.3608 -0.5167  0.0052
 7393TIP3    H222137   1.648   6.078   4.214  0.6877 -0.5273  0.1565
 7394TIP3   OH222138   1.570   2.840   5.387  0.4607 -0.1646  0.6036
 7394TIP3    H122139   1.600   2.759   5.428 -0.2004 -0.8966 -0.3024
 7394TIP3    H222140   1.474   2.832   5.385  0.4344  0.2411 -0.2675
 7395TIP3   OH222141   2.482   2.451   4.624 -0.5811 -0.1360 -0.0300
 7395TIP3    H122142   2.407   2.402   4.658 -0.6730 -0.5651 -0.8371
 7395TIP3    H222143   2.497   2.414   4.537 -0.6776  1.3003 -0.6686
 7396TIP3   OH222144   2.060   5.555   4.510  0.7647  0.2898  0.3144
 7396TIP3    H122145   2.104   5.622   4.458 -1.2984  1.1253 -0.4145
 7396TIP3    H222146   2.078   5.580   4.601 -0.3550  2.1196  0.0596
 7397TIP3   OH222147   7.494   3.647   4.402  0.3574  0.1334 -0.0413
 7397TIP3    H122148   7.504   3.560   4.441 -3.2476 -0.0321  0.7320
 7397TIP3    H222149   7.529   3.638   4.313 -0.4579 -2.2937 -0.1641
 7398TIP3   OH222150   3.084   7.610   4.835  0.2658 -0.0866 -0.1781
 7398TIP3    H122151   3.045   7.534   4.791  2.4398 -0.8961 -0.7494
 7398TIP3    H222152   3.114   7.576   4.919 -0.1830  0.5278  0.2380
 7399TIP3   OH222153   2.834   4.124   5.380  0.2087  0.4035  0.4076
 7399TIP3    H122154   2.874   4.209   5.366 -0.4505  0.4356 -1.3263
 7399TIP3    H222155   2.800   4.098   5.295 -1.6481 -0.5521  1.4089
 7400TIP3   OH222156   1.498   4.167   3.389  0.2558 -0.5493  0.0677
 7400TIP3    H122157   1.537   4.241   3.435 -1.0520  0.0122  0.2880
 7400TIP3    H222158   1.487   4.198   3.299  1.4638 -1.1428 -0.2945
 7401TIP3   OH222159   2.092   1.301   5.497 -0.4256 -0.6115  0.1241
 7401TIP3    H122160   2.024   1.352   5.452 -0.4599 -0.6816  0.0974
 7401TIP3    H222161   2.085   1.328   5.589 -0.6359 -0.7818  0.1596
 7402TIP3   OH222162   3.075   5.961   4.080  0.7740 -0.3168  0.0955
 7402TIP3    H122163   3.130   5.979   4.004 -0.4466 -0.3992 -0.8269
 7402TIP3    H222164   3.022   6.040   4.092 -0.0999 -0.8640 -0.0739
 7403TIP3   OH222165   0.247   3.306   2.605  0.5706  0.7469 -0.0930
 7403TIP3    H122166   0.308   3.287   2.534 -0.3735  0.9884 -0.9820
 7403TIP3    H222167   0.238   3.223   2.651  1.2032  0.5891 -0.2413
 7404TIP3   OH222168   6.072   7.409   0.331 -0.0138  0.2010 -0.2968
 7404TIP3    H122169   6.058   7.356   0.410 -0.3539  0.8332  0.0626
 7404TIP3    H222170   6.160   7.445   0.341  0.5345 -0.9146 -0.9091
 7405TIP3   OH222171   0.858   2.362   5.317  0.0086  0.0046 -0.4509
 7405TIP3    H122172   0.944   2.320   5.324  1.0084  1.9262 -0.8952
 7405TIP3    H222173   0.829   2.369   5.408  0.4307 -0.4217 -0.2764
 7406TIP3   OH222174   4.055   7.346   0.131 -0.0520 -0.5467 -0.1601
 7406TIP3    H122175   4.070   7.338   0.225  1.2496  0.3261 -0.2779
 7406TIP3    H222176   4.143   7.352   0.093 -0.4951 -2.2856 -1.5727
 7407TIP3   OH222177   8.067   5.797   3.855 -0.1195  0.7673 -0.1740
 7407TIP3    H122178   8.028   5.721   3.811 -0.9712  0.0441  1.8060
 7407TIP3    H222179   8.004   5.820   3.923  1.2678  1.7543  0.7984
 7408TIP3   OH222180   2.307   4.301   4.307  0.0760 -0.0436  0.4751
 7408TIP3    H122181   2.226   4.350   4.291  0.8994  0.3789 -2.6553
 7408TIP3    H222182   2.279   4.210   4.312 -0.8741  0.3031  1.7338
 7409TIP3   OH222183   3.496   2.824   3.954 -0.1257  0.3022  0.0758
 7409TIP3    H122184   3.433   2.753   3.942 -1.0578  0.6964  2.4457
 7409TIP3    H222185   3.463   2.873   4.030  1.3710  2.3201 -0.5305
 7410TIP3   OH222186   5.665   7.521   1.208 -0.0664 -0.0943 -0.1820
 7410TIP3    H122187   5.604   7.485   1.273  0.5966 -0.3743  0.2834
 7410TIP3    H222188   5.634   7.487   1.124 -0.3173 -0.5519  0.0985
 7411TIP3   OH222189   0.607   0.245   0.076  0.2123  0.6462 -0.0492
 7411TIP3    H122190   0.515   0.268   0.087 -0.1363 -0.9620  0.4857
 7411TIP3    H222191   0.617   0.162   0.122  1.6188  0.1047 -1.2900
 7412TIP3   OH222192   1.702   2.285   4.525  0.2098 -0.3562  0.5164
 7412TIP3    H122193   1.623   2.233   4.535 -0.0358  0.0299  0.5720
 7412TIP3    H222194   1.766   2.244   4.584 -0.3133  0.0635  1.3825
 7413TIP3   OH222195   2.715   1.975   6.399  0.1877  0.1481  0.4556
 7413TIP3    H122196   2.716   2.064   6.434 -3.0410  0.8502 -1.0488
 7413TIP3    H222197   2.747   1.984   6.310  0.0390 -0.2282  0.3641
 7414TIP3   OH222198   3.346   2.524   4.599 -0.0216  0.2726  0.2414
 7414TIP3    H122199   3.312   2.558   4.516  0.4529 -0.6745 -0.3599
 7414TIP3    H222200   3.441   2.525   4.588 -0.0092 -1.9092 -0.0921
 7415TIP3   OH222201   2.673   6.380   3.636 -0.4054  0.0237  0.6146
 7415TIP3    H122202   2.738   6.339   3.580  0.3318 -1.0649  2.2252
 7415TIP3    H222203   2.591   6.373   3.587  0.4586  0.3136 -0.8962
 7416TIP3   OH222204   2.507   6.744   2.471  0.1263  0.1110 -0.1135
 7416TIP3    H122205   2.509   6.821   2.528 -2.7720  0.3608 -0.2932
 7416TIP3    H222206   2.466   6.676   2.525 -0.1956 -0.4094 -1.0126
 7417TIP3   OH222207   6.848   6.680   0.002  0.0026  0.6216  0.6317
 7417TIP3    H122208   6.823   6.606   0.057  0.0998  0.9477  1.1164
 7417TIP3    H222209   6.765   6.719  -0.026 -0.0476  0.7087  0.8966
 7418TIP3   OH222210   2.781   5.551   4.997  0.0552  0.4758  0.3468
 7418TIP3    H122211   2.864   5.504   4.990  0.1112  0.7089 -0.7094
 7418TIP3    H222212   2.718   5.495   4.951 -0.1504  0.8025  0.2284
 7419TIP3   OH222213   3.525   3.638   5.763  0.0118 -0.2591  0.1109
 7419TIP3    H122214   3.566   3.634   5.677  0.2747  0.9291  0.1678
 7419TIP3    H222215   3.578   3.701   5.812 -0.7281 -0.1772  0.8246
 7420TIP3   OH222216   1.673   5.464   3.550 -0.3364  0.0238  0.0567
 7420TIP3    H122217   1.605   5.525   3.522 -1.6356 -1.4557 -0.0903
 7420TIP3    H222218   1.685   5.483   3.644 -0.5209  0.6779 -0.0465
 7421TIP3   OH222219   3.655   4.137   5.544 -0.0234 -0.2433 -0.0593
 7421TIP3    H122220   3.658   4.222   5.589 -0.3159  0.2729 -1.0211
 7421TIP3    H222221   3.562   4.116   5.539  0.0460 -0.6027  0.1274
 7422TIP3   OH222222   2.549   4.765   6.157  0.4684 -0.0113 -0.6808
 7422TIP3    H122223   2.618   4.757   6.091  0.1087 -1.5208 -0.8907
 7422TIP3    H222224   2.500   4.684   6.150 -0.8235  0.6925  0.0583
 7423TIP3   OH222225   0.251   0.029   0.002  0.2354 -0.0331 -0.2598
 7423TIP3    H122226   0.212   0.105   0.045  1.1233  0.0432  0.4282
 7423TIP3    H222227   0.254  -0.039   0.069  1.5826  0.0771 -0.1853
 7424TIP3   OH222228   1.739   3.404   5.000  0.2811  0.2824 -0.1476
 7424TIP3    H122229   1.673   3.392   4.932  1.7090  0.4122 -1.5844
 7424TIP3    H222230   1.752   3.316   5.036 -0.0353  0.1055 -0.4539
 7425TIP3   OH222231   5.863   7.564   0.197 -0.4253  0.0292 -0.4913
 7425TIP3    H122232   5.819   7.505   0.135  0.8318 -1.0808 -0.3373
 7425TIP3    H222233   5.930   7.510   0.238 -0.5230  1.0610  1.0502
 7426TIP3   OH222234   0.797   2.376   5.583  0.3333  0.0717  0.7008
 7426TIP3    H122235   0.801   2.430   5.661  0.7232  0.8799  0.1291
 7426TIP3    H222236   0.752   2.296   5.611 -0.5225  0.8107  1.4815
 7427TIP3   OH222237   3.328   4.077   5.866 -0.2693  0.4806 -0.0999
 7427TIP3    H122238   3.322   4.034   5.781 -1.1132  0.4168 -0.0149
 7427TIP3    H222239   3.349   4.006   5.927 -0.0173  0.4675 -0.2020
 7428TIP3   OH222240   2.402   3.645   5.380 -0.5494 -0.1201  0.1134
 7428TIP3    H122241   2.494   3.662   5.402 -1.1177  1.1841  1.5830
 7428TIP3    H222242   2.406   3.590   5.302  1.4935 -0.6499  0.5552
 7429TIP3   OH222243   1.160   3.957   3.491  0.9313  0.4341 -0.0784
 7429TIP3    H122244   1.107   3.999   3.423 -1.3983  0.9134  1.9757
 7429TIP3    H222245   1.203   4.029   3.537  0.4949  0.2992  0.5557
 7430TIP3   OH222246   2.253   5.041   5.042  0.2768 -0.0808 -0.0874
 7430TIP3    H122247   2.185   4.988   5.084 -0.5425  2.2038  1.6015
 7430TIP3    H222248   2.328   5.033   5.101 -0.0120  0.9778  0.4473
 7431TIP3   OH222249   0.712   5.717   3.619 -0.5450 -0.7693 -0.0273
 7431TIP3    H122250   0.715   5.772   3.697 -2.5054  0.1671 -0.5844
 7431TIP3    H222251   0.798   5.728   3.579 -1.5942  3.8073 -1.3534
 7432TIP3   OH222252   0.278   5.504   4.097 -0.2869  0.6094  0.5610
 7432TIP3    H122253   0.337   5.482   4.025 -0.8768 -0.1109  0.2861
 7432TIP3    H222254   0.216   5.431   4.100  0.3257  0.1204  2.4404
 7433TIP3   OH222255   0.822   3.565   3.913 -0.3024 -0.3624 -0.1619
 7433TIP3    H122256   0.841   3.472   3.910 -0.0927 -0.3476  0.7829
 7433TIP3    H222257   0.883   3.604   3.851  0.8400 -0.6377  0.7841
 7434TIP3   OH222258   0.218   5.959   2.954 -1.0891  0.1068 -0.4348
 7434TIP3    H122259   0.279   5.961   3.027 -0.6280 -1.3892 -0.7644
 7434TIP3    H222260   0.221   6.048   2.917  2.7461 -0.6027 -1.9919
 7435TIP3   OH222261   2.998   5.072   6.233  1.0217 -0.0450 -0.0868
 7435TIP3    H122262   3.051   5.028   6.300 -0.6211 -2.1318 -0.0959
 7435TIP3    H222263   3.046   5.152   6.214  2.7043 -0.5020  1.9466
 7436TIP3   OH222264   3.909   5.119   3.418 -0.3043  0.0308  0.2481
 7436TIP3    H122265   3.839   5.056   3.404 -0.9491  0.9271 -0.6618
 7436TIP3    H222266   3.879   5.174   3.490 -0.0267 -0.3097  0.6213
 7437TIP3   OH222267   2.942   4.279   4.164  0.0186 -0.5685  0.4659
 7437TIP3    H122268   2.974   4.191   4.145 -0.5184 -0.4308 -1.1445
 7437TIP3    H222269   2.893   4.304   4.085 -1.3035  0.4807  1.5934
 7438TIP3   OH222270   3.124   4.644   5.648 -0.0730  0.8527 -0.3958
 7438TIP3    H122271   3.193   4.608   5.703 -0.5777 -0.2251 -0.4589
 7438TIP3    H222272   3.148   4.736   5.636  0.5274  0.8682  0.8597
 7439TIP3   OH222273   2.478   2.097   3.115 -0.1916  0.8050  0.5718
 7439TIP3    H122274   2.384   2.093   3.136 -0.1672  1.1543  0.7494
 7439TIP3    H222275   2.513   2.162   3.176  0.1474  0.7482  0.4340
 7440TIP3   OH222276   4.213   4.251   3.539  0.7632 -0.4428 -0.3246
 7440TIP3    H122277   4.307   4.241   3.550  0.6166 -1.1776  0.3120
 7440TIP3    H222278   4.176   4.220   3.622 -0.0445 -0.2829 -0.6191
 7441TIP3   OH222279   2.261   3.042   5.189  0.1378  0.4187 -0.3129
 7441TIP3    H122280   2.264   3.071   5.097 -2.1680 -0.4833 -0.7092
 7441TIP3    H222281   2.203   2.965   5.187  2.3145 -1.3264  1.4618
 7442TIP3   OH222282   3.501   4.201   6.671  0.6917  0.0116 -0.0350
 7442TIP3    H122283   3.555   4.122   6.657  1.4225  0.3395  0.8987
 7442TIP3    H222284   3.453   4.183   6.752 -0.9271 -0.4479 -1.0847
 7443TIP3   OH222285   5.516   1.829   3.640  0.1646  0.0816  0.0695
 7443TIP3    H122286   5.425   1.812   3.617 -0.3106  0.4860  1.5756
 7443TIP3    H222287   5.532   1.773   3.716  0.7138  1.1169  0.7248
 7444TIP3   OH222288   2.068   3.596   4.680 -0.6253  0.1494  0.3564
 7444TIP3    H122289   2.010   3.645   4.622 -1.6437 -0.3868  0.9105
 7444TIP3    H222290   2.097   3.660   4.745  0.0193  0.5991 -0.3682
 7445TIP3   OH222291   3.353   3.762   4.284  0.9008 -0.2758  0.1421
 7445TIP3    H122292   3.259   3.781   4.288  1.1138  0.5833  1.8877
 7445TIP3    H222293   3.364   3.709   4.206 -0.9898 -0.0674 -0.2903
 7446TIP3   OH222294   1.366   2.956   5.926 -0.1297 -0.1331  0.1922
 7446TIP3    H122295   1.377   3.036   5.978 -0.4529  0.3447 -0.4661
 7446TIP3    H222296   1.455   2.921   5.918  0.1059  0.5095 -0.0587
 7447TIP3   OH222297   4.562   2.014   4.859 -0.0664  0.2045 -0.1784
 7447TIP3    H122298   4.650   1.996   4.893 -0.3472 -0.3293  0.2673
 7447TIP3    H222299   4.578   2.061   4.777  0.6458 -0.0966 -0.2210
 7448TIP3   OH222300   4.109   3.398   4.326 -0.3190 -0.7256  0.0289
 7448TIP3    H122301   4.198   3.390   4.291 -0.9243 -1.0003 -1.5002
 7448TIP3    H222302   4.059   3.440   4.255 -1.4541 -0.7573  0.7945
 7449TIP3   OH222303   4.791   5.538   2.086  0.6805 -0.0215  0.4107
 7449TIP3    H122304   4.875   5.537   2.132  0.0858  0.8678  1.5257
 7449TIP3    H222305   4.810   5.583   2.004  0.6131  3.2093  2.0656
 7450TIP3   OH222306   1.909   6.336   6.423  0.4051  0.3902  0.0474
 7450TIP3    H122307   1.876   6.341   6.513 -1.3977 -1.0679 -0.4929
 7450TIP3    H222308   1.836   6.299   6.373  2.3506 -1.4753 -1.5044
 7451TIP3   OH222309   3.435   3.881   6.049  0.8535 -0.0381  0.4086
 7451TIP3    H122310   3.425   3.785   6.054  1.7852 -0.1714 -0.2102
 7451TIP3    H222311   3.442   3.909   6.140  0.3921 -0.5358  0.6047
 7452TIP3   OH222312   3.298   3.099   2.717 -0.1959 -0.0638 -0.3064
 7452TIP3    H122313   3.233   3.033   2.694  0.6747 -1.0979  0.1169
 7452TIP3    H222314   3.255   3.155   2.781  0.1732 -2.3102  1.9707
 7453TIP3   OH222315   2.412   3.241   3.786 -0.5614 -0.7147  0.0346
 7453TIP3    H122316   2.504   3.265   3.769 -0.8116  0.9804  1.0237
 7453TIP3    H222317   2.390   3.181   3.714  2.2532 -3.6467  1.5005
 7454TIP3   OH222318   2.983   3.023   4.719  0.1678  0.2145 -0.0937
 7454TIP3    H122319   3.050   3.043   4.654  0.1571  0.3894 -0.0518
 7454TIP3    H222320   3.022   2.954   4.774 -0.4951 -1.1769 -1.3498
 7455TIP3   OH222321   1.984   4.697   5.043 -0.0766  0.2727  0.6056
 7455TIP3    H122322   2.063   4.709   4.990 -1.3676 -1.8427 -1.8725
 7455TIP3    H222323   1.990   4.607   5.076 -1.5595  0.0105  0.1912
 7456TIP3   OH222324   2.244   6.039   2.978  0.4284  0.0411 -0.0073
 7456TIP3    H122325   2.225   6.099   2.907  2.9638 -0.7934 -1.4407
 7456TIP3    H222326   2.322   6.075   3.020  0.9707 -1.3340  0.1831
 7457TIP3   OH222327   8.220   3.652   4.561  0.4332  0.1306  0.1324
 7457TIP3    H122328   8.227   3.602   4.479 -2.4145  0.1104 -0.1617
 7457TIP3    H222329   8.278   3.726   4.548  0.8949 -0.4761 -1.4617
 7458TIP3   OH222330   3.280   5.104   4.821  0.0096  0.3955  0.3222
 7458TIP3    H122331   3.282   5.009   4.835 -1.2491  0.3283  0.1191
 7458TIP3    H222332   3.328   5.117   4.740 -1.7504 -0.3374 -0.8925
 7459TIP3   OH222333   3.496   5.570   2.676 -0.1120  0.0261  0.0830
 7459TIP3    H122334   3.490   5.475   2.685 -1.2557  0.1899  1.0922
 7459TIP3    H222335   3.486   5.586   2.582  1.3740 -0.9375 -0.2561
 7460TIP3   OH222336   3.011   1.644   4.874  0.3521  0.3137  0.1030
 7460TIP3    H122337   3.105   1.632   4.861  0.3203  0.8163 -0.6378
 7460TIP3    H222338   3.003   1.673   4.965  0.8044 -0.8919  0.5350
 7461TIP3   OH222339   2.231   5.820   6.145  0.1264  0.1127 -0.1506
 7461TIP3    H122340   2.278   5.824   6.229  1.8954 -0.7332 -1.0730
 7461TIP3    H222341   2.241   5.908   6.108 -1.0188  0.6089  0.7165
 7462TIP3   OH222342   0.575   4.302   4.957  0.3769 -0.2107  0.3255
 7462TIP3    H122343   0.580   4.396   4.973 -1.3513  0.0199 -0.3757
 7462TIP3    H222344   0.606   4.262   5.039 -0.1844  0.9718  1.1324
 7463TIP3   OH222345   1.520   6.504   4.888 -0.5424  0.0607  0.0056
 7463TIP3    H122346   1.566   6.581   4.921  2.0205 -1.2135 -0.5069
 7463TIP3    H222347   1.442   6.540   4.845  2.1179  2.6306 -2.9025
 7464TIP3   OH222348   2.066   5.709   3.791  0.2109  0.1084  0.0500
 7464TIP3    H122349   2.000   5.760   3.838  0.2252 -0.2190  0.4309
 7464TIP3    H222350   2.089   5.763   3.715 -0.0348  0.5039  0.2561
 7465TIP3   OH222351   3.934   5.623   4.661 -0.2868 -0.1653 -0.2744
 7465TIP3    H122352   3.876   5.654   4.731  0.2080 -0.6699  0.3660
 7465TIP3    H222353   3.979   5.548   4.699  2.0919  1.2819 -0.1426
 7466TIP3   OH222354   1.335   4.271   5.997 -0.3171 -0.3037  0.3342
 7466TIP3    H122355   1.426   4.246   5.984 -0.3926 -1.0356  1.1615
 7466TIP3    H222356   1.339   4.357   6.039 -0.0214 -0.1390 -0.0286
 7467TIP3   OH222357   1.371   2.996   2.963 -0.0323  0.5160  0.0597
 7467TIP3    H122358   1.304   3.053   3.000 -0.8574  0.5354 -1.4410
 7467TIP3    H222359   1.336   2.908   2.975 -0.0697  0.4930 -0.2222
 7468TIP3   OH222360   2.807   4.320   6.157  0.2771 -0.0932  0.6850
 7468TIP3    H122361   2.744   4.254   6.128  0.3130  0.1470  0.0395
 7468TIP3    H222362   2.873   4.321   6.088  0.0417  0.9428  0.4639
 7469TIP3   OH222363   5.142   6.248   5.544  0.0990  0.3584 -0.3579
 7469TIP3    H122364   5.207   6.288   5.486  2.6840 -0.1338  2.0767
 7469TIP3    H222365   5.157   6.154   5.536 -0.7040  0.2179 -0.2133
 7470TIP3   OH222366   3.398   2.438   4.880  0.3677 -0.3111  0.3882
 7470TIP3    H122367   3.337   2.473   4.816  2.3995  1.7850 -0.4646
 7470TIP3    H222368   3.480   2.427   4.833  1.4197 -0.4322  2.1825
 7471TIP3   OH222369   1.771   3.675   3.229 -0.1044  0.2934 -0.4070
 7471TIP3    H122370   1.786   3.664   3.135  0.4781  2.1328 -0.5489
 7471TIP3    H222371   1.741   3.765   3.238  0.6649  0.3941  1.2710
 7472TIP3   OH222372   2.246   3.284   5.357  0.6157  0.1341 -0.2932
 7472TIP3    H122373   2.282   3.354   5.302 -1.5394  0.7424 -0.9724
 7472TIP3    H222374   2.271   3.203   5.313  1.0375  0.5545 -0.8273
 7473TIP3   OH222375   1.934   3.823   4.554 -0.3561  0.6469 -0.1534
 7473TIP3    H122376   1.908   3.890   4.491  0.5226  0.0110 -1.2002
 7473TIP3    H222377   2.022   3.848   4.581 -0.4227  0.4773  0.2222
 7474TIP3   OH222378   1.394   1.900   6.079 -0.3023  0.0379 -0.4197
 7474TIP3    H122379   1.313   1.850   6.081  0.4745 -1.2237  0.9332
 7474TIP3    H222380   1.387   1.956   6.002 -2.1195 -0.6040 -0.7314
 7475TIP3   OH222381   4.072   1.404   5.585 -0.6496 -0.2342 -0.0748
 7475TIP3    H122382   4.099   1.440   5.500  0.6402 -1.0202 -0.0252
 7475TIP3    H222383   4.061   1.311   5.569 -1.2585 -0.2517  0.4275
 7476TIP3   OH222384   2.201   1.522   3.812 -0.5197  0.2723  0.4180
 7476TIP3    H122385   2.287   1.494   3.781 -0.9178  0.1624 -0.5964
 7476TIP3    H222386   2.212   1.614   3.835 -0.0627  0.1821  0.5644
 7477TIP3   OH222387   0.905   1.983   5.138  0.2388 -0.2046 -0.6505
 7477TIP3    H122388   1.000   1.991   5.147  0.3995 -2.1494 -0.3552
 7477TIP3    H222389   0.881   2.053   5.078  1.9217  0.0297 -1.0957
 7478TIP3   OH222390   2.687   2.108   4.320  0.1592 -0.1940  0.1753
 7478TIP3    H122391   2.691   2.082   4.412  0.3119 -0.4651  0.0898
 7478TIP3    H222392   2.778   2.109   4.291  0.1987  0.8590  0.2966
 7479TIP3   OH222393   4.078   2.065   5.424  0.0733  0.1325 -0.0709
 7479TIP3    H122394   4.048   1.976   5.406 -0.1992  0.1322  0.3489
 7479TIP3    H222395   3.998   2.118   5.417 -0.1160  0.0735  1.4569
 7480TIP3   OH222396   1.655   6.718   4.977 -0.1846 -0.8204 -0.2519
 7480TIP3    H122397   1.744   6.735   5.010 -0.3458  0.4065 -0.4088
 7480TIP3    H222398   1.650   6.769   4.896 -0.6111 -1.8881 -0.9014
 7481TIP3   OH222399   2.956   5.147   4.068 -0.2631  0.0576 -0.5840
 7481TIP3    H122400   2.894   5.215   4.040 -0.1628 -0.7138 -2.7505
 7481TIP3    H222401   2.944   5.076   4.005  0.5733 -1.4183  0.8746
 7482TIP3   OH222402   0.150   2.277   4.541 -0.0719 -0.0132  0.2314
 7482TIP3    H122403   0.114   2.319   4.463  0.9674  0.5899  0.0672
 7482TIP3    H222404   0.102   2.194   4.549 -0.6472  0.2363 -0.6566
 7483TIP3   OH222405   5.342   7.010   0.930 -0.0479  0.6303  0.2322
 7483TIP3    H122406   5.353   6.922   0.966  1.0068  0.6971  0.1121
 7483TIP3    H222407   5.329   6.996   0.836 -2.8599  0.4521  0.6182
 7484TIP3   OH222408   8.448   4.570   4.719 -0.1126  0.1344 -0.9630
 7484TIP3    H122409   8.481   4.490   4.759 -1.8379 -0.2776 -0.3001
 7484TIP3    H222410   8.525   4.615   4.685  0.8998 -1.6538 -1.0491
 7485TIP3   OH222411   1.321   3.353   4.984  0.2619  0.2547 -0.1445
 7485TIP3    H122412   1.344   3.413   4.913 -0.5003 -1.1989 -1.6645
 7485TIP3    H222413   1.253   3.297   4.946 -0.0137 -0.6700  1.6846
 7486TIP3   OH222414   3.684   3.018   6.094 -0.4901 -0.1289  0.0305
 7486TIP3    H122415   3.658   3.106   6.121  0.4550 -0.0685  0.7494
 7486TIP3    H222416   3.635   3.003   6.013  0.7183  1.7770 -1.1018
 7487TIP3   OH222417   4.703   4.407   3.116  0.5416  0.3840 -0.8278
 7487TIP3    H122418   4.641   4.480   3.124  1.3789  0.8605  2.0701
 7487TIP3    H222419   4.659   4.333   3.158  1.1098  0.2096 -0.5244
 7488TIP3   OH222420   3.848   4.066   3.644  0.0289  0.0629  0.4826
 7488TIP3    H122421   3.924   4.033   3.597 -0.6140 -0.3273 -0.2958
 7488TIP3    H222422   3.838   4.156   3.614  0.6740  0.3829  1.2102
 7489TIP3   OH222423   1.872   3.371   4.648  0.1826 -0.2408 -0.1010
 7489TIP3    H122424   1.926   3.297   4.619 -1.3858 -1.4734  0.0348
 7489TIP3    H222425   1.931   3.425   4.700  1.5965 -0.9186 -0.9720
 7490TIP3   OH222426   2.990   4.684   4.303  0.0122 -0.1988 -0.1926
 7490TIP3    H122427   2.920   4.691   4.238  0.3490 -0.9464 -0.6415
 7490TIP3    H222428   3.037   4.605   4.279 -0.1315 -0.7301  1.2456
 7491TIP3   OH222429   5.696   2.807   2.167 -0.4667 -0.3190 -0.2514
 7491TIP3    H122430   5.786   2.835   2.183 -0.8221  1.0514 -0.5743
 7491TIP3    H222431   5.666   2.773   2.251  0.7655 -2.0006 -0.4636
 7492TIP3   OH222432   5.808   3.577   5.773  0.5876  0.2399 -0.3741
 7492TIP3    H122433   5.858   3.568   5.854  1.0496  1.5438 -0.5010
 7492TIP3    H222434   5.760   3.494   5.765  0.3084  0.2058  1.3688
 7493TIP3   OH222435   4.412   2.006   4.115  0.2300 -0.1778 -0.5923
 7493TIP3    H122436   4.491   1.964   4.150  0.7235  2.1716  1.1866
 7493TIP3    H222437   4.432   2.019   4.022  1.4687 -0.6604 -0.4103
 7494TIP3   OH222438   4.069   3.902   3.551  0.0289 -0.4447  0.2980
 7494TIP3    H122439   4.135   3.935   3.612 -0.9925  0.3294  1.0084
 7494TIP3    H222440   4.085   3.952   3.470  0.1653 -0.0951  0.5382
 7495TIP3   OH222441   4.610   3.937   5.353  0.6742 -0.1049 -0.0090
 7495TIP3    H122442   4.629   3.875   5.424  0.6476  0.6202  0.6349
 7495TIP3    H222443   4.519   3.919   5.330  0.4430  0.1710  0.6668
 7496TIP3   OH222444   5.220   2.722   5.149 -0.1904  0.0210 -0.0475
 7496TIP3    H122445   5.297   2.705   5.095  0.0774  1.1738 -0.0182
 7496TIP3    H222446   5.192   2.810   5.125 -0.5987  0.1969  1.0626
 7497TIP3   OH222447   4.152   3.564   3.920 -0.1709  0.3950  0.3171
 7497TIP3    H122448   4.122   3.644   3.877  0.4482  0.6027  0.2561
 7497TIP3    H222449   4.243   3.583   3.944  0.4781 -0.8488 -1.0951
 7498TIP3   OH222450   3.684   3.551   4.628 -0.4068 -0.4130 -0.2176
 7498TIP3    H122451   3.696   3.494   4.552 -0.1261 -0.0518 -0.4487
 7498TIP3    H222452   3.632   3.625   4.595 -0.1412 -0.1721 -0.0995
 7499TIP3   OH222453   3.400   5.463   4.444 -0.1335 -0.5464  0.3727
 7499TIP3    H122454   3.366   5.374   4.453 -1.0875 -0.1516  0.7786
 7499TIP3    H222455   3.470   5.456   4.380 -0.0641 -1.6260  0.5614
 7500TIP3   OH222456   2.424   4.799   5.348 -0.3634 -0.2922  0.2921
 7500TIP3    H122457   2.345   4.777   5.397 -1.1990  1.3709 -0.2475
 7500TIP3    H222458   2.478   4.849   5.409  0.6487 -2.0873  0.9041
 7501TIP3   OH222459   5.402   3.526   6.372  0.0393  0.5025 -0.1818
 7501TIP3    H122460   5.338   3.551   6.305 -1.3927  0.6673  1.2018
 7501TIP3    H222461   5.424   3.436   6.351 -1.5055  0.0719 -0.0433
 7502TIP3   OH222462   5.513   4.498   5.224 -0.3498 -0.0493 -0.2455
 7502TIP3    H122463   5.515   4.553   5.145  0.9804  0.6576  0.2451
 7502TIP3    H222464   5.432   4.448   5.218 -0.6942  0.6640 -1.6132
 7503TIP3   OH222465   4.692   5.166   4.999  0.0734 -0.1379 -0.2108
 7503TIP3    H122466   4.672   5.223   5.074 -0.7859 -0.8161  0.0896
 7503TIP3    H222467   4.786   5.153   5.004  0.1533  0.5471  0.2299
 7504TIP3   OH222468   5.178   5.422   4.578 -0.2804 -0.1894 -0.0213
 7504TIP3    H122469   5.187   5.352   4.514 -2.7860  0.0622 -0.7133
 7504TIP3    H222470   5.256   5.415   4.634 -0.1000 -2.9915 -0.5773
 7505TIP3   OH222471   4.832   2.653   4.675 -0.3248 -0.3630  0.2679
 7505TIP3    H122472   4.777   2.583   4.709  0.5703 -0.6270  1.1751
 7505TIP3    H222473   4.770   2.722   4.650 -1.1002 -0.8663  0.7924
 7506TIP3   OH222474   3.742   5.843   4.531  0.0071  0.4482  0.3759
 7506TIP3    H122475   3.836   5.845   4.512 -0.1259  1.7761 -0.2341
 7506TIP3    H222476   3.737   5.815   4.622  0.9222 -0.9670  0.0065
 7507TIP3   OH222477   2.558   1.675   3.832  0.7303 -0.3907  0.2649
 7507TIP3    H122478   2.631   1.615   3.848  2.5635  1.8979  0.7732
 7507TIP3    H222479   2.588   1.759   3.866 -1.6989  0.8805 -0.6009
 7508TIP3   OH222480   2.931   4.264   4.875 -0.0495  0.3030 -0.3852
 7508TIP3    H122481   2.920   4.353   4.842 -1.6883  0.6300  0.9781
 7508TIP3    H222482   2.957   4.213   4.798  3.1808  2.3416 -0.7475
 7509TIP3   OH222483   4.863   2.965   5.625  0.1277 -0.3470 -0.8092
 7509TIP3    H122484   4.846   2.954   5.532 -0.2532 -0.1259 -0.7668
 7509TIP3    H222485   4.957   2.984   5.630  0.3120 -1.1817 -1.0765
 7510TIP3   OH222486   5.034   3.519   4.668 -0.4297  0.4027  0.1837
 7510TIP3    H122487   5.039   3.549   4.759 -0.3809  1.4998 -0.1705
 7510TIP3    H222488   4.966   3.451   4.669  0.0827 -0.1076  1.1701
 7511TIP3   OH222489   4.306   3.167   5.510  0.2989  0.0108 -0.0216
 7511TIP3    H122490   4.332   3.076   5.525 -2.6528 -0.9266 -0.3498
 7511TIP3    H222491   4.285   3.170   5.417  2.9215  1.7413 -0.6160
 7512TIP3   OH222492   3.256   3.975   2.618  0.4431 -0.0258  0.0822
 7512TIP3    H122493   3.258   3.892   2.571  0.2292  0.5285 -0.9442
 7512TIP3    H222494   3.264   3.952   2.710 -0.5788 -1.2336 -0.1280
 7513TIP3   OH222495   3.389   4.484   4.763  0.6473 -0.2263  0.0653
 7513TIP3    H122496   3.449   4.409   4.760  1.7281  0.6429 -0.8291
 7513TIP3    H222497   3.344   4.481   4.679 -0.8346 -1.0736  0.8768
 7514TIP3   OH222498   1.634   4.660   5.043  0.3901  0.3004  0.0144
 7514TIP3    H122499   1.644   4.747   5.082 -0.1630  1.1997 -1.7487
 7514TIP3    H222500   1.596   4.678   4.957  1.2558 -1.6197 -0.7880
 7515TIP3   OH222501   3.504   4.549   4.402 -0.2377 -0.0284  0.0120
 7515TIP3    H122502   3.424   4.524   4.448  1.1194 -0.9131  1.9523
 7515TIP3    H222503   3.516   4.641   4.425 -0.7628  0.1384 -0.3789
 7516TIP3   OH222504   6.633   4.124   3.467  0.3731 -0.2100 -0.0494
 7516TIP3    H122505   6.550   4.170   3.456  0.1957 -0.3052  0.8513
 7516TIP3    H222506   6.634   4.098   3.559  1.2980 -0.4138 -0.1116
 7517TIP3   OH222507   4.355   5.754   2.961  0.3711 -0.7252 -0.4615
 7517TIP3    H122508   4.446   5.729   2.943  0.2001 -0.7696 -1.3022
 7517TIP3    H222509   4.324   5.689   3.024  1.5357  0.4628  1.4064
 7518TIP3   OH222510   4.077   4.630   5.847 -0.5890  0.2426 -0.0006
 7518TIP3    H122511   4.131   4.686   5.793  0.7125 -1.6567 -0.7127
 7518TIP3    H222512   4.116   4.543   5.839 -3.2908 -1.0455  0.0396
 7519TIP3   OH222513   2.390   4.297   5.274 -0.1676 -0.2489  0.4511
 7519TIP3    H122514   2.356   4.228   5.331 -1.2843 -0.4049 -0.3961
 7519TIP3    H222515   2.479   4.268   5.253  0.9367  0.7148  3.5528
 7520TIP3   OH222516   2.683   5.000   5.727 -0.2376  0.7107  0.9755
 7520TIP3    H122517   2.748   5.025   5.661  1.8734  0.3975  2.8735
 7520TIP3    H222518   2.648   4.916   5.695  0.7789  0.5498  0.2457
 7521TIP3   OH222519   4.836   2.600   6.277  0.1918 -0.0312 -0.6225
 7521TIP3    H122520   4.825   2.679   6.225  0.3669  0.7585  0.5213
 7521TIP3    H222521   4.833   2.528   6.213 -1.4953  0.7887 -1.4816
 7522TIP3   OH222522   5.277   3.989   5.822  0.5491 -0.5018 -0.2991
 7522TIP3    H122523   5.323   3.960   5.901  1.8473  0.8503 -0.5385
 7522TIP3    H222524   5.279   3.913   5.764  0.8108 -1.0612  0.4364
 7523TIP3   OH222525   6.147   3.096   2.738 -0.2148 -0.1117  0.3495
 7523TIP3    H122526   6.112   3.136   2.817 -0.9377  0.7243 -0.3840
 7523TIP3    H222527   6.197   3.020   2.769  0.9882  1.2137  1.7221
 7524TIP3   OH222528   3.475   4.704   2.800  0.5755 -0.7085 -0.0647
 7524TIP3    H122529   3.422   4.634   2.763 -0.1314 -1.0770  1.6078
 7524TIP3    H222530   3.415   4.779   2.807  1.1931 -0.0713 -1.3711
 7525TIP3   OH222531   5.305   7.284   3.596 -0.1228  0.4316  0.4068
 7525TIP3    H122532   5.366   7.358   3.597  0.2242  0.1467  1.9927
 7525TIP3    H222533   5.269   7.282   3.685 -1.5726 -0.1223 -0.1826
 7526TIP3   OH222534   5.348   3.879   1.845  0.3555 -0.4161 -0.2375
 7526TIP3    H122535   5.436   3.910   1.868 -0.0503  0.8771 -0.3932
 7526TIP3    H222536   5.305   3.956   1.806 -1.2612 -0.6854  0.9616
 7527TIP3   OH222537   3.641   4.508   6.636  1.0268 -0.4149  0.1705
 7527TIP3    H122538   3.582   4.451   6.686  0.3164  0.7419  0.6748
 7527TIP3    H222539   3.650   4.465   6.551 -0.4719 -0.6730  0.1224
 7528TIP3   OH222540   0.862   0.390   0.118 -0.3887  0.4655  0.6897
 7528TIP3    H122541   0.793   0.351   0.065  1.5712 -0.1952 -1.4197
 7528TIP3    H222542   0.902   0.317   0.164  1.7915  0.2357 -1.5145
 7529TIP3   OH222543   5.712   3.594   6.583  0.2827  0.6513 -0.5500
 7529TIP3    H122544   5.654   3.574   6.510  0.6181 -1.7440 -0.1862
 7529TIP3    H222545   5.687   3.532   6.652  1.6464  1.2089  0.4753
 7530TIP3   OH222546   5.462   3.756   4.891  0.2872 -0.4207 -0.1362
 7530TIP3    H122547   5.519   3.726   4.962  0.5315  0.1771 -0.0805
 7530TIP3    H222548   5.374   3.734   4.921  0.2642  1.1791  1.0324
 7531TIP3   OH222549   4.544   4.200   3.219  0.1095 -0.9130  0.8172
 7531TIP3    H122550   4.524   4.245   3.301 -3.8590 -0.5842 -0.2075
 7531TIP3    H222551   4.466   4.214   3.164  3.3613  0.5562 -3.7834
 7532TIP3   OH222552   2.655   2.470   5.054  0.2163  0.3304  0.4367
 7532TIP3    H122553   2.668   2.445   4.963  0.4515 -0.8949  0.7943
 7532TIP3    H222554   2.577   2.526   5.054  0.0965  0.1603 -0.4783
 7533TIP3   OH222555   8.278   1.135   0.170  0.3732 -0.7693  0.2941
 7533TIP3    H122556   8.373   1.134   0.155  0.6233 -3.1565  1.6488
 7533TIP3    H222557   8.254   1.042   0.171 -1.8605 -0.1956  0.6794
 7534TIP3   OH222558   4.491   5.067   4.345  0.1975 -0.1802 -0.8152
 7534TIP3    H122559   4.460   5.130   4.279  0.4181  1.1146  0.3042
 7534TIP3    H222560   4.535   5.120   4.411  0.2041 -1.4887  0.2654
 7535TIP3   OH222561   5.309   3.525   3.735  0.5101  0.2213 -0.2943
 7535TIP3    H122562   5.343   3.587   3.670 -1.3136  1.3666 -0.1817
 7535TIP3    H222563   5.367   3.449   3.727  2.3141  1.6281 -0.9586
 7536TIP3   OH222564   2.047   4.137   4.730  0.0426  0.5861  0.3342
 7536TIP3    H122565   2.100   4.059   4.748 -2.3625 -1.4896 -1.2601
 7536TIP3    H222566   2.094   4.183   4.660  0.6998 -0.2281  0.2372
 7537TIP3   OH222567   4.706   1.207   5.594  0.5930 -0.2459 -0.2870
 7537TIP3    H122568   4.761   1.276   5.559  1.0501 -0.3885  0.1462
 7537TIP3    H222569   4.666   1.166   5.517 -0.2620  0.9750 -0.5056
 7538TIP3   OH222570   3.152   3.248   4.297 -0.2333  0.0660 -0.0884
 7538TIP3    H122571   3.215   3.217   4.231 -0.0185 -0.6549  0.4596
 7538TIP3    H222572   3.070   3.206   4.274 -0.1819 -0.1078  0.0453
 7539TIP3   OH222573   1.523   4.745   3.391 -0.2587  0.4080  0.2177
 7539TIP3    H122574   1.617   4.747   3.372 -0.3463 -0.4729 -0.3537
 7539TIP3    H222575   1.484   4.804   3.327 -0.3818 -1.3538 -1.3907
 7540TIP3   OH222576   5.423   6.108   4.833  0.1010 -0.0153 -0.3649
 7540TIP3    H122577   5.429   6.191   4.786  0.5141 -0.6992 -1.5288
 7540TIP3    H222578   5.500   6.059   4.806 -0.4660 -1.0285 -0.1735
 7541TIP3   OH222579   2.598   5.161   4.499 -0.3849  0.3818 -0.1474
 7541TIP3    H122580   2.504   5.150   4.511  0.1449 -1.4296  2.7705
 7541TIP3    H222581   2.611   5.255   4.492 -2.3070  0.7124  0.4465
 7542TIP3   OH222582   3.630   2.854   5.364 -0.7714 -0.2390  0.4347
 7542TIP3    H122583   3.713   2.810   5.346 -1.0666 -0.2441 -1.0140
 7542TIP3    H222584   3.637   2.885   5.454  1.2050  0.6288 -0.0039
 7543TIP3   OH222585   3.430   3.538   2.501  0.2768 -0.0685  0.1995
 7543TIP3    H122586   3.413   3.456   2.454  1.6167 -0.2836  0.0725
 7543TIP3    H222587   3.420   3.515   2.594 -0.9724  0.0279  0.1059
 7544TIP3   OH222588   4.750   4.565   6.556  0.4229  0.2386 -0.1267
 7544TIP3    H122589   4.740   4.651   6.516  0.9528  0.7295  0.7677
 7544TIP3    H222590   4.795   4.582   6.639 -0.7958 -0.7349  0.7580
 7545TIP3   OH222591   3.385   4.348   5.017 -0.1839  0.3758 -0.7705
 7545TIP3    H122592   3.466   4.298   5.004 -1.0931 -1.1764 -0.6712
 7545TIP3    H222593   3.360   4.375   4.928 -0.4324 -0.6020 -1.0156
 7546TIP3   OH222594   3.095   3.519   4.887  0.3780 -0.2149  0.3635
 7546TIP3    H122595   3.042   3.595   4.865  0.2201 -0.5742 -0.5352
 7546TIP3    H222596   3.104   3.472   4.804  0.1629 -1.3673  0.9928
 7547TIP3   OH222597   6.199   4.337   2.995  0.0339  0.0024 -0.1135
 7547TIP3    H122598   6.114   4.339   2.950  0.5921 -0.3874 -1.1907
 7547TIP3    H222599   6.192   4.264   3.056  0.7853 -2.1969 -2.5862
 7548TIP3   OH222600   5.822   5.021   5.794 -0.4472  0.4139  0.4122
 7548TIP3    H122601   5.812   4.934   5.833  0.2109  0.9255  1.7282
 7548TIP3    H222602   5.736   5.062   5.804 -0.8964 -0.2268 -0.6219
 7549TIP3   OH222603   3.444   3.963   3.115 -0.4688 -0.4595  0.0843
 7549TIP3    H122604   3.356   3.936   3.140 -1.3234  1.0908 -1.1748
 7549TIP3    H222605   3.498   3.941   3.191 -1.9060 -1.4954  0.8427
 7550TIP3   OH222606   4.060   4.327   5.618  0.2657  0.2894 -0.2394
 7550TIP3    H122607   4.057   4.293   5.707  0.0781  1.4964  0.2264
 7550TIP3    H222608   4.012   4.262   5.566 -0.0945 -0.1484  0.6266
 7551TIP3   OH222609   4.048   5.578   5.137 -0.6215 -0.0664 -0.3120
 7551TIP3    H122610   4.114   5.510   5.155 -1.5895 -0.9599 -0.0792
 7551TIP3    H222611   4.099   5.658   5.123  0.6070 -1.0624 -1.6773
 7552TIP3   OH222612   4.746   4.235   3.551 -0.3682  0.3889 -0.1467
 7552TIP3    H122613   4.816   4.301   3.553 -1.7409  1.8871 -0.7334
 7552TIP3    H222614   4.786   4.158   3.592  1.8377  1.0080 -1.0316
 7553TIP3   OH222615   2.688   3.657   5.398 -0.4962  0.0924 -0.5237
 7553TIP3    H122616   2.699   3.676   5.491  0.1524 -0.1496 -0.5512
 7553TIP3    H222617   2.758   3.706   5.355  0.1781 -1.0460 -0.7389
 7554TIP3   OH222618   4.973   5.343   5.054  0.0307 -0.0511 -0.0901
 7554TIP3    H122619   5.060   5.320   5.086  0.0746 -0.7915 -0.7084
 7554TIP3    H222620   4.947   5.420   5.104  0.4586 -0.6802  1.1051
 7555TIP3   OH222621   4.127   3.594   5.793  0.1397  0.6556 -0.6952
 7555TIP3    H122622   4.082   3.521   5.837 -0.0787  0.6584 -0.9132
 7555TIP3    H222623   4.099   3.588   5.702 -0.4149  1.4144 -0.5834
 7556TIP3   OH222624   5.758   4.340   4.138 -0.1452 -0.4740 -0.0683
 7556TIP3    H122625   5.697   4.310   4.070  0.4125 -1.4635 -0.1493
 7556TIP3    H222626   5.774   4.432   4.117 -1.3139 -0.3046 -0.2634
 7557TIP3   OH222627   4.098   5.387   3.588 -0.1528  0.0609 -0.1814
 7557TIP3    H122628   4.044   5.393   3.509 -0.9626  1.2288  0.4556
 7557TIP3    H222629   4.181   5.350   3.557 -0.9546 -0.8331 -1.3284
 7558TIP3   OH222630   5.456   1.781   0.961  0.1016 -0.2865 -0.1648
 7558TIP3    H122631   5.447   1.808   0.870  0.5830 -0.7154 -0.3349
 7558TIP3    H222632   5.391   1.711   0.972  1.0610 -1.2526 -0.5744
 7559TIP3   OH222633   2.091   4.395   3.613  0.1126 -0.5817  0.3639
 7559TIP3    H122634   2.165   4.455   3.602 -0.1101 -0.3920 -0.1135
 7559TIP3    H222635   2.096   4.368   3.705 -0.0594  0.5364  0.7127
 7560TIP3   OH222636   3.851   3.122   3.077 -0.5609  0.4250 -0.0601
 7560TIP3    H122637   3.853   3.056   3.147 -0.7160  1.4847  0.9532
 7560TIP3    H222638   3.936   3.165   3.081 -0.8846  1.0594  0.0300
 7561TIP3   OH222639   3.269   7.177   3.753  0.3809  0.1349  0.4071
 7561TIP3    H122640   3.363   7.167   3.765  0.5038  0.0231 -0.6633
 7561TIP3    H222641   3.252   7.146   3.664 -0.8711 -1.1249  1.0626
 7562TIP3   OH222642   2.742   5.316   4.014  0.2865 -0.0297  0.1338
 7562TIP3    H122643   2.693   5.390   3.977  0.4122 -0.7431 -1.5131
 7562TIP3    H222644   2.676   5.248   4.027  0.5281 -0.3618 -0.3722
 7563TIP3   OH222645   4.499   3.744   5.051  0.0032  0.2326 -0.0858
 7563TIP3    H122646   4.447   3.775   5.125 -0.4175  0.1051 -0.3292
 7563TIP3    H222647   4.590   3.754   5.080 -0.1659 -0.2729  0.6359
 7564TIP3   OH222648   4.931   4.668   2.794 -0.4428  0.9479  0.0562
 7564TIP3    H122649   4.979   4.660   2.712 -0.0351 -0.0379  0.3728
 7564TIP3    H222650   4.860   4.604   2.787 -0.2221  0.6358  0.5827
 7565TIP3   OH222651   2.038   4.825   3.806 -0.0682  0.2971  0.0003
 7565TIP3    H122652   1.993   4.878   3.873  0.9770  0.9526  0.1899
 7565TIP3    H222653   1.980   4.831   3.730  0.1286  1.9018 -0.0509
 7566TIP3   OH222654   3.607   5.669   3.563  0.2613  0.0534 -0.4099
 7566TIP3    H122655   3.643   5.585   3.537 -0.0449  0.2012 -1.3238
 7566TIP3    H222656   3.566   5.652   3.648  2.4518 -0.1127  0.6402
 7567TIP3   OH222657   5.364   3.773   5.669  0.4758 -0.9402  0.4014
 7567TIP3    H122658   5.347   3.727   5.587 -2.2233 -0.0335  0.3847
 7567TIP3    H222659   5.394   3.704   5.729  0.6134 -1.9442 -0.7908
 7568TIP3   OH222660   7.407   2.653   5.698 -0.1320 -0.0548 -0.6068
 7568TIP3    H122661   7.379   2.592   5.766 -1.7511  0.0442 -1.1481
 7568TIP3    H222662   7.350   2.730   5.710  0.8988  0.7508 -0.8388
 7569TIP3   OH222663   0.406   6.301   5.672 -0.0152 -0.5624  0.3813
 7569TIP3    H122664   0.471   6.265   5.611  0.6559 -0.1968  0.8641
 7569TIP3    H222665   0.340   6.232   5.681  0.2190 -0.8756 -0.2471
 7570TIP3   OH222666   3.911   4.401   2.616  0.0983  0.3871  0.2598
 7570TIP3    H122667   3.816   4.413   2.607 -0.1565 -1.7758  0.0062
 7570TIP3    H222668   3.921   4.352   2.698  0.9270 -0.3954 -0.3057
 7571TIP3   OH222669   3.951   2.931   6.235 -0.5543  0.2755  0.1788
 7571TIP3    H122670   3.958   2.864   6.303  0.0355 -0.2248 -0.3549
 7571TIP3    H222671   3.860   2.925   6.205 -0.9790  0.9014  1.3128
 7572TIP3   OH222672   6.202   2.667   4.123  0.3415 -0.0043 -0.5459
 7572TIP3    H122673   6.250   2.750   4.125  0.9570 -0.3687  0.1533
 7572TIP3    H222674   6.133   2.681   4.059  0.7842  0.8637 -0.8472
 7573TIP3   OH222675   4.908   4.684   4.102  0.3047  0.0357 -0.2212
 7573TIP3    H122676   4.848   4.629   4.151  1.1077  0.2522  1.0155
 7573TIP3    H222677   4.959   4.623   4.049 -0.8521 -0.1627 -1.1263
 7574TIP3   OH222678   4.589   2.976   4.107 -0.4847  0.1328  0.4562
 7574TIP3    H122679   4.584   3.059   4.061  1.4077  0.3460  0.5775
 7574TIP3    H222680   4.514   2.926   4.076  0.0519  0.7432 -1.9168
 7575TIP3   OH222681   6.009   3.742   5.316  0.4361 -0.3129  0.4039
 7575TIP3    H122682   5.967   3.691   5.247 -0.0876 -0.8380  1.0972
 7575TIP3    H222683   6.046   3.676   5.375  0.2573  0.1104  0.9998
 7576TIP3   OH222684   4.126   2.024   3.101  0.7158  0.2023 -0.3869
 7576TIP3    H122685   4.102   1.974   3.023  0.1195 -0.2814  0.0971
 7576TIP3    H222686   4.042   2.046   3.142  1.0344  0.1581  0.3001
 7577TIP3   OH222687   3.735   3.741   4.339 -0.2042 -0.2543  0.4346
 7577TIP3    H122688   3.647   3.776   4.327 -0.5210 -1.6153 -1.6022
 7577TIP3    H222689   3.769   3.784   4.417 -2.8779 -0.1343  1.5635
 7578TIP3   OH222690   3.260   3.569   4.032 -0.0748 -0.0984 -0.7348
 7578TIP3    H122691   3.167   3.574   4.013 -0.1939  1.0117  0.0861
 7578TIP3    H222692   3.295   3.655   4.009  0.6628 -0.3620 -0.6403
 7579TIP3   OH222693   4.193   6.071   5.425  0.0426 -0.1645 -0.7261
 7579TIP3    H122694   4.230   5.983   5.420 -0.2730 -0.3046 -0.6209
 7579TIP3    H222695   4.248   6.117   5.489  0.4817 -0.1498 -1.1201
 7580TIP3   OH222696   1.392   3.513   2.121  0.8882 -0.6236  0.1234
 7580TIP3    H122697   1.439   3.591   2.093 -0.7300  0.4561  0.3462
 7580TIP3    H222698   1.415   3.502   2.213  0.0565  0.3715  0.4470
 7581TIP3   OH222699   5.341   5.452   1.465  0.4410 -0.3753  0.3034
 7581TIP3    H122700   5.337   5.452   1.369  1.6786 -0.8333  0.2429
 7581TIP3    H222701   5.340   5.359   1.489 -0.0842 -0.2558  0.7525
 7582TIP3   OH222702   5.806   5.080   3.202 -0.1464 -0.3858 -0.3461
 7582TIP3    H122703   5.793   5.090   3.107 -0.3772 -0.3887 -0.3159
 7582TIP3    H222704   5.901   5.085   3.214 -0.0377 -1.5240 -0.7028
 7583TIP3   OH222705   5.231   4.161   3.693 -0.0436  0.4413 -0.2578
 7583TIP3    H122706   5.321   4.176   3.723 -0.2098 -1.3250  1.2200
 7583TIP3    H222707   5.183   4.240   3.720  0.3440 -0.0669  2.0728
 7584TIP3   OH222708   3.824   4.764   3.777  0.6374 -0.2362 -0.4524
 7584TIP3    H122709   3.862   4.826   3.840  0.4354  1.6473 -2.1605
 7584TIP3    H222710   3.730   4.781   3.780  0.4377 -1.3675  0.0103
 7585TIP3   OH222711   4.582   6.590   4.565 -0.5912 -0.0679  0.7259
 7585TIP3    H122712   4.547   6.639   4.639 -0.9029 -1.0497  1.2316
 7585TIP3    H222713   4.669   6.562   4.593 -0.0006  1.0452  0.0521
 7586TIP3   OH222714   1.569   4.927   4.231  0.0932 -0.0358 -0.4316
 7586TIP3    H122715   1.571   4.857   4.297  1.8494  0.8220  0.4576
 7586TIP3    H222716   1.581   4.882   4.148 -1.0644 -1.0234 -0.0804
 7587TIP3   OH222717   2.712   5.092   3.446 -0.3901  0.2961  0.1440
 7587TIP3    H122718   2.761   5.174   3.438  1.4456 -0.8465 -0.6273
 7587TIP3    H222719   2.760   5.043   3.513 -0.4358 -0.8756 -0.6823
 7588TIP3   OH222720   4.546   4.913   5.090  0.4313 -0.7896  0.0104
 7588TIP3    H122721   4.469   4.865   5.060 -0.6320  0.8069  0.1296
 7588TIP3    H222722   4.540   4.912   5.185 -0.8460  1.5425 -0.0260
 7589TIP3   OH222723   5.113   3.153   2.682  0.1313  0.0368 -0.1330
 7589TIP3    H122724   5.130   3.156   2.588  0.6452 -1.9407 -0.1243
 7589TIP3    H222725   5.094   3.061   2.700 -0.9366  0.5592  1.5359
 7590TIP3   OH222726   1.699   4.076   5.524  0.0649 -0.2831  0.0940
 7590TIP3    H122727   1.750   4.048   5.599 -0.0362 -2.3058 -0.5546
 7590TIP3    H222728   1.632   4.134   5.560  1.1680  0.2620  1.2964
 7591TIP3   OH222729   3.428   2.697   2.563  0.2110  0.6998 -0.1130
 7591TIP3    H122730   3.402   2.619   2.515 -0.7444  0.3090  1.0167
 7591TIP3    H222731   3.397   2.770   2.510 -0.6687  0.2730 -0.1888
 7592TIP3   OH222732   4.711   4.428   5.293 -0.2113  0.0364  0.5053
 7592TIP3    H122733   4.770   4.464   5.227 -0.9219 -0.4971 -0.4193
 7592TIP3    H222734   4.631   4.482   5.286 -0.0745  0.3709  1.3466
 7593TIP3   OH222735   5.781   4.795   3.115 -0.1937  0.2495  0.5437
 7593TIP3    H122736   5.805   4.797   3.022  1.1435 -0.2803  0.8643
 7593TIP3    H222737   5.806   4.881   3.148  0.5939 -0.0407  0.7115
 7594TIP3   OH222738   3.327   4.610   5.808 -0.0210 -0.7967  0.3752
 7594TIP3    H122739   3.404   4.667   5.811  0.4071 -1.3456 -0.0418
 7594TIP3    H222740   3.322   4.570   5.895  0.8090 -1.5920  0.0666
 7595TIP3   OH222741   2.509   2.765   2.978 -0.0923  0.0140 -0.1435
 7595TIP3    H122742   2.560   2.769   3.059  0.6003 -0.3305 -0.5635
 7595TIP3    H222743   2.500   2.857   2.952 -0.1190  0.1106  0.2000
 7596TIP3   OH222744   3.569   3.130   2.458  0.4148 -0.3062 -0.1042
 7596TIP3    H122745   3.659   3.140   2.427  1.1353 -2.9875  0.9859
 7596TIP3    H222746   3.575   3.136   2.553 -0.6176 -0.1935 -0.0364
 7597TIP3   OH222747   2.998   4.103   5.743  0.0887 -0.3125 -0.5639
 7597TIP3    H122748   2.988   4.031   5.680 -1.6308 -1.3527  0.8610
 7597TIP3    H222749   3.080   4.085   5.787 -0.3912 -1.4808 -0.1371
 7598TIP3   OH222750   4.121   2.029   4.687 -0.2843 -0.0387  0.1278
 7598TIP3    H122751   4.147   2.077   4.609 -0.9893 -0.0101 -0.0929
 7598TIP3    H222752   4.186   1.959   4.695 -0.1265  0.0477 -0.4015
 7599TIP3   OH222753   7.358   3.294   4.194 -0.3932 -0.1609  0.7596
 7599TIP3    H122754   7.360   3.228   4.264  0.5917 -0.5777  0.3527
 7599TIP3    H222755   7.437   3.346   4.208 -1.9321  1.8947  1.9656
 7600TIP3   OH222756   5.274   5.734   1.599 -0.6973  0.1190  0.0200
 7600TIP3    H122757   5.223   5.663   1.561 -2.1376  1.5999 -0.8965
 7600TIP3    H222758   5.272   5.803   1.533  1.4944  0.6692  0.4832
 7601TIP3   OH222759   3.952   5.306   4.257  0.2513 -0.7569 -0.5839
 7601TIP3    H122760   4.039   5.272   4.237  0.2817 -2.6179  2.3552
 7601TIP3    H222761   3.894   5.260   4.196  1.1082 -1.0069 -1.2159
 7602TIP3   OH222762   2.659   2.720   5.891 -0.2393  0.7303 -0.3323
 7602TIP3    H122763   2.618   2.710   5.978  0.0293  2.7473  0.0575
 7602TIP3    H222764   2.740   2.670   5.897 -1.0627 -0.5804  0.0040
 7603TIP3   OH222765   3.853   4.277   4.622  0.1505 -0.1809  0.2521
 7603TIP3    H122766   3.934   4.296   4.669  1.2165 -3.3980 -0.2142
 7603TIP3    H222767   3.877   4.213   4.555 -2.3757  0.3602 -1.2743
 7604TIP3   OH222768   4.809   1.969   4.913  0.4277  0.5745 -0.1224
 7604TIP3    H122769   4.866   1.936   4.983  1.7057 -1.1461 -1.9225
 7604TIP3    H222770   4.819   1.906   4.842 -2.2140  1.3419 -1.2333
 7605TIP3   OH222771   4.816   3.975   5.129  0.1260 -0.0999  0.1439
 7605TIP3    H122772   4.765   4.006   5.053  3.0449 -0.0280 -1.8786
 7605TIP3    H222773   4.778   4.022   5.203 -2.4069  0.3135 -1.3232
 7606TIP3   OH222774   4.841   3.044   4.898  0.0452  0.2080  0.3932
 7606TIP3    H122775   4.914   3.104   4.913  0.0594  0.4334 -0.5564
 7606TIP3    H222776   4.779   3.095   4.845  1.4162 -1.5838 -3.0628
 7607TIP3   OH222777   3.982   1.170   5.475 -0.0887  0.7217  0.1064
 7607TIP3    H122778   4.017   1.204   5.392  1.2613 -1.2161 -0.1453
 7607TIP3    H222779   3.889   1.194   5.473  0.1272  1.4833 -1.5624
 7608TIP3   OH222780   4.721   6.133   6.288 -0.6069  0.2656 -0.4500
 7608TIP3    H122781   4.652   6.144   6.223 -0.4506  0.6710 -0.5487
 7608TIP3    H222782   4.697   6.053   6.334 -1.1749  0.4344 -0.4424
 7609TIP3   OH222783   3.784   3.699   4.849 -0.5420  0.1498 -0.6418
 7609TIP3    H122784   3.743   3.640   4.786 -1.3058  0.1396 -0.1424
 7609TIP3    H222785   3.876   3.702   4.823  0.0227 -3.2101  0.8240
 7610TIP3   OH222786   4.599   4.050   4.365  0.2007 -0.1426 -0.3605
 7610TIP3    H122787   4.509   4.016   4.370 -0.4130  1.3341 -1.0190
 7610TIP3    H222788   4.616   4.084   4.453  0.5621 -1.5080  0.1026
 7611TIP3   OH222789   3.816   2.693   6.591  0.1480  0.0301 -0.2187
 7611TIP3    H122790   3.762   2.770   6.607  1.4628  1.0096 -0.4167
 7611TIP3    H222791   3.894   2.727   6.548  1.0353 -1.3366  0.2863
 7612TIP3   OH222792   3.683   3.663   5.550 -0.3937 -0.2288  0.1213
 7612TIP3    H122793   3.641   3.707   5.476 -1.2347  2.7946  2.3010
 7612TIP3    H222794   3.771   3.698   5.553 -0.5473  0.1154  0.8843
 7613TIP3   OH222795   4.765   4.590   6.236  0.6089  0.1215  0.3831
 7613TIP3    H122796   4.850   4.554   6.260  1.2392 -0.1843 -2.1100
 7613TIP3    H222797   4.778   4.685   6.237  1.8035  0.0503 -2.5484
 7614TIP3   OH222798   2.981   4.405   3.470 -0.2128  0.3129 -0.9565
 7614TIP3    H122799   2.971   4.370   3.382  0.9309 -0.6549 -0.7158
 7614TIP3    H222800   3.074   4.428   3.476 -0.2147  0.0640  0.0965
 7615TIP3   OH222801   2.610   4.143   3.405 -0.1455 -0.5000 -0.7073
 7615TIP3    H122802   2.667   4.185   3.469  0.0917 -0.3668 -1.0076
 7615TIP3    H222803   2.582   4.213   3.347  0.9712 -0.9036 -1.7536
 7616TIP3   OH222804   2.357   4.454   5.544 -0.0866 -0.6938  0.1056
 7616TIP3    H122805   2.364   4.359   5.554 -0.6382 -1.0308 -2.3351
 7616TIP3    H222806   2.411   4.474   5.468 -1.3732  0.7060 -0.4754
 7617TIP3   OH222807   2.496   6.071   3.130  0.0973  0.3961  0.2037
 7617TIP3    H122808   2.563   6.071   3.198  0.1694  0.5048  0.1329
 7617TIP3    H222809   2.540   6.034   3.053 -0.2503 -0.5825  0.4780
 7618TIP3   OH222810   5.786   4.279   5.394  0.4574 -0.9184  0.0227
 7618TIP3    H122811   5.812   4.266   5.485  0.8452 -0.8623 -0.0799
 7618TIP3    H222812   5.735   4.201   5.372 -2.6988  0.6245  1.3767
 7619TIP3   OH222813   5.524   4.840   3.735 -0.0460  0.5801 -0.5022
 7619TIP3    H122814   5.549   4.931   3.720 -0.6084  0.8905  0.3346
 7619TIP3    H222815   5.516   4.802   3.648  0.3368  1.2937 -0.8529
 7620TIP3   OH222816   5.875   2.732   3.075 -0.1011 -0.7215 -0.2278
 7620TIP3    H122817   5.784   2.759   3.086  0.2104  0.1528  0.2556
 7620TIP3    H222818   5.894   2.750   2.983 -0.2780 -0.4722 -0.2179
 7621TIP3   OH222819   4.230   5.061   3.744 -0.2258  0.1905  0.0334
 7621TIP3    H122820   4.295   5.120   3.782 -0.6164  1.1129 -0.6837
 7621TIP3    H222821   4.229   4.985   3.801 -0.0169  1.0720  1.2391
 7622TIP3   OH222822   3.230   4.855   4.557  0.3873 -0.1444  0.0787
 7622TIP3    H122823   3.204   4.775   4.602  1.8388 -1.2711 -1.0421
 7622TIP3    H222824   3.174   4.858   4.480  1.4615 -0.9711 -0.7473
 7623TIP3   OH222825   4.267   2.690   2.351  0.0796  0.1549 -0.2403
 7623TIP3    H122826   4.217   2.754   2.402 -2.9079 -1.5741 -0.8944
 7623TIP3    H222827   4.310   2.635   2.417 -2.2591 -0.9024  0.4749
 7624TIP3   OH222828   3.785   4.293   3.527 -0.6569 -0.1991  0.1397
 7624TIP3    H122829   3.715   4.273   3.465 -1.8614  0.0290  1.4113
 7624TIP3    H222830   3.792   4.388   3.525 -0.8448 -0.1789  0.5236
 7625TIP3   OH222831   5.001   4.199   4.973  0.3764  0.7243  0.1562
 7625TIP3    H122832   4.969   4.119   5.015  2.4073  0.2425  0.8317
 7625TIP3    H222833   4.923   4.237   4.933 -0.4334 -2.2116 -1.2067
 7626TIP3   OH222834   7.076   3.540   2.832 -0.0416  0.2951 -0.0357
 7626TIP3    H122835   7.138   3.492   2.777  0.8568 -0.1637  1.3505
 7626TIP3    H222836   7.130   3.605   2.878 -0.9093  1.2054 -0.2947
 7627TIP3   OH222837   5.931   4.216   2.442  0.2611 -0.8312  0.0486
 7627TIP3    H122838   5.981   4.135   2.451  0.3166 -0.7021  0.9943
 7627TIP3    H222839   5.881   4.205   2.361  2.0491 -0.8323 -1.0845
 7628TIP3   OH222840   6.516   3.959   2.270 -0.4421  0.3599  0.2056
 7628TIP3    H122841   6.458   3.885   2.250 -0.2286  0.4404 -0.7675
 7628TIP3    H222842   6.457   4.032   2.288 -0.6502  0.1701  0.2920
 7629TIP3   OH222843   5.428   3.556   5.893  0.1163  0.1377  0.7005
 7629TIP3    H122844   5.353   3.508   5.927 -0.0833  0.4807  0.7462
 7629TIP3    H222845   5.484   3.489   5.854 -0.3831 -0.0753  0.3500
 7630TIP3   OH222846   5.612   3.917   4.738  0.0813 -0.3219 -0.7083
 7630TIP3    H122847   5.550   3.868   4.792  1.9335 -0.4444  1.3849
 7630TIP3    H222848   5.618   4.002   4.781  2.8003 -0.9610  0.2481
 7631TIP3   OH222849   3.812   4.523   3.927  0.1384  1.2203 -0.2359
 7631TIP3    H122850   3.785   4.553   4.014  2.6727  0.6146  0.8050
 7631TIP3    H222851   3.807   4.601   3.872 -1.4393  1.6216  0.4516
 7632TIP3   OH222852   5.175   3.186   4.737 -0.4935  0.2242  0.3593
 7632TIP3    H122853   5.116   3.149   4.672 -0.3147 -0.8145  0.7696
 7632TIP3    H222854   5.218   3.259   4.692 -1.5978  0.5748 -0.1447
 7633TIP3   OH222855   4.415   2.758   4.376  0.3081  0.3300 -0.3512
 7633TIP3    H122856   4.408   2.681   4.320  0.1694 -0.9935  1.4764
 7633TIP3    H222857   4.332   2.804   4.363 -1.3453 -1.9811  1.6777
 7634TIP3   OH222858   7.533   3.899   3.017  0.1599  0.5265  0.2395
 7634TIP3    H122859   7.567   3.916   2.929  0.3645  2.1573  0.6114
 7634TIP3    H222860   7.607   3.860   3.064 -0.3282 -1.5392 -0.6493
 7635TIP3   OH222861   5.263   3.214   3.532 -0.6341 -0.7885 -0.7530
 7635TIP3    H122862   5.230   3.151   3.468  0.4780 -0.4409 -1.6984
 7635TIP3    H222863   5.356   3.193   3.539 -0.3654  0.4130 -0.6840
 7636TIP3   OH222864   3.869   2.255   3.038  0.3799  0.1768  0.3137
 7636TIP3    H122865   3.786   2.255   2.989 -0.3580  1.2620  1.5270
 7636TIP3    H222866   3.862   2.180   3.097  0.2722  0.2458  0.3897
 7637TIP3   OH222867   3.938   5.670   4.303  0.1406 -0.0166  0.4343
 7637TIP3    H122868   3.951   5.629   4.217 -0.4340 -1.1912  0.9081
 7637TIP3    H222869   3.843   5.674   4.314  0.2219 -0.4826  1.3134
 7638TIP3   OH222870   4.032   2.807   6.486 -0.4153  0.2395 -0.1062
 7638TIP3    H122871   4.097   2.874   6.507 -0.0767 -0.8328  2.4146
 7638TIP3    H222872   4.083   2.730   6.463 -0.8145  0.3374 -1.3862
 7639TIP3   OH222873   2.202   5.353   4.350 -0.2406  0.2591  0.0302
 7639TIP3    H122874   2.147   5.416   4.397  1.9633  3.8194 -1.9647
 7639TIP3    H222875   2.140   5.303   4.296 -1.8041  2.3047 -0.1032
 7640TIP3   OH222876   4.189   4.083   2.777  0.1867 -0.2622  0.5555
 7640TIP3    H122877   4.115   4.141   2.793  1.3793  0.9740  1.6626
 7640TIP3    H222878   4.177   4.053   2.687 -1.8440 -0.3752  0.8329
 7641TIP3   OH222879   3.797   6.894   6.258  0.4578 -0.0602  0.0819
 7641TIP3    H122880   3.857   6.833   6.301  3.0151  1.4653 -1.2277
 7641TIP3    H222881   3.772   6.955   6.328  0.8914 -0.3489  0.4935
 7642TIP3   OH222882   4.644   6.765   3.575  0.1426 -0.0480  0.2464
 7642TIP3    H122883   4.596   6.842   3.605 -1.2322 -0.9359  0.3720
 7642TIP3    H222884   4.678   6.790   3.489 -0.5321  0.6107  0.1660
 7643TIP3   OH222885   5.072   3.394   2.816 -0.2919 -0.1962  0.1388
 7643TIP3    H122886   5.010   3.376   2.887 -0.9054 -0.1836 -0.3836
 7643TIP3    H222887   5.078   3.312   2.768 -0.3134 -0.0460 -0.1241
 7644TIP3   OH222888   2.751   4.769   4.758  0.0563  0.3606  0.4815
 7644TIP3    H122889   2.795   4.789   4.675 -0.7006  0.7189  0.1678
 7644TIP3    H222890   2.685   4.837   4.767  0.2231  0.3991  1.4488
 7645TIP3   OH222891   2.279   5.192   3.907  0.4221 -0.3990  0.1609
 7645TIP3    H122892   2.309   5.283   3.909  1.5409 -0.7661  0.8522
 7645TIP3    H222893   2.192   5.196   3.868  1.8659  0.5593 -3.1780
 7646TIP3   OH222894   4.349   4.888   4.619  0.9366 -0.4791 -0.3781
 7646TIP3    H122895   4.420   4.838   4.578 -0.3069 -0.1180 -3.0682
 7646TIP3    H222896   4.382   4.978   4.624  1.1726 -0.5655 -0.3860
 7647TIP3   OH222897   4.154   5.263   4.595 -0.1759 -0.3070  0.5410
 7647TIP3    H122898   4.117   5.350   4.578 -2.0734 -1.4283 -1.3328
 7647TIP3    H222899   4.247   5.273   4.575 -0.2588  1.4382  0.9278
 7648TIP3   OH222900   6.770   7.272   4.543  0.4667  0.0484 -0.4703
 7648TIP3    H122901   6.787   7.358   4.504  0.1056  0.8627  1.1161
 7648TIP3    H222902   6.744   7.292   4.633 -1.4667 -1.6226 -0.6417
 7649TIP3   OH222903   4.428   4.116   3.864  0.0275  1.1526  0.0587
 7649TIP3    H122904   4.486   4.154   3.931 -1.2215  0.7050  1.4146
 7649TIP3    H222905   4.443   4.022   3.870  2.0701  1.2801 -2.3301
 7650TIP3   OH222906   3.453   4.848   5.491  0.3029  0.0038  0.4177
 7650TIP3    H122907   3.469   4.860   5.397 -0.6209  0.1379  0.2794
 7650TIP3    H222908   3.488   4.761   5.510  1.0744  0.2381  0.0820
 7651TIP3   OH222909   3.547   4.983   4.019  0.0763 -0.4006  0.0292
 7651TIP3    H122910   3.464   5.030   4.010 -1.0490 -1.9494  2.0396
 7651TIP3    H222911   3.551   4.925   3.943 -1.1596 -1.0166  0.4241
 7652TIP3   OH222912   5.225   2.730   6.272  0.0337 -0.4210  0.2768
 7652TIP3    H122913   5.241   2.809   6.220  0.2463  0.0612  1.0603
 7652TIP3    H222914   5.248   2.658   6.214 -1.3423  0.0476 -0.8607
 7653TIP3   OH222915   7.305   2.495   1.981 -0.1509 -0.6353  0.6594
 7653TIP3    H122916   7.398   2.481   2.001  0.3688  0.2043 -1.0594
 7653TIP3    H222917   7.268   2.407   1.974  1.1042 -1.0532 -1.1980
 7654TIP3   OH222918   6.207   4.031   4.192 -0.1016  0.3665 -0.0774
 7654TIP3    H122919   6.215   4.126   4.178 -0.5250  0.7964  2.3253
 7654TIP3    H222920   6.163   4.024   4.277  0.7725 -2.0061  0.1959
 7655TIP3   OH222921   3.714   3.030   4.090 -0.3542 -0.1630 -0.5327
 7655TIP3    H122922   3.690   2.971   4.162 -0.6494 -1.3650 -1.6065
 7655TIP3    H222923   3.779   2.982   4.040  1.0776  1.3412 -0.1491
 7656TIP3   OH222924   4.701   2.717   4.240  0.0647  0.0017 -0.4663
 7656TIP3    H122925   4.660   2.801   4.220  0.2712  0.1038 -0.4581
 7656TIP3    H222926   4.651   2.653   4.190  0.1645  0.1785 -0.7928
 7657TIP3   OH222927   5.212   2.784   5.419 -0.0194  0.4659  0.0053
 7657TIP3    H122928   5.226   2.793   5.324  0.4385 -1.6851 -0.1398
 7657TIP3    H222929   5.182   2.694   5.431 -0.4367  0.8347  1.8722
 7658TIP3   OH222930   5.819   4.270   3.453 -0.7367  0.0729  0.0657
 7658TIP3    H122931   5.896   4.318   3.423 -0.1244  1.1216  3.1516
 7658TIP3    H222932   5.835   4.180   3.427  0.4752  0.6642 -1.2875
 7659TIP3   OH222933   4.780   3.235   2.650  0.8482 -0.0428 -0.5367
 7659TIP3    H122934   4.840   3.211   2.579 -0.9856  0.2320 -2.2284
 7659TIP3    H222935   4.762   3.328   2.634  0.3467 -0.0066  0.2469
 7660TIP3   OH222936   4.304   7.794   4.183 -0.0753 -0.2045  1.0021
 7660TIP3    H122937   4.357   7.863   4.222  0.4501  0.5635 -1.0491
 7660TIP3    H222938   4.295   7.818   4.091 -3.2249 -0.7907  1.0798
 7661TIP3   OH222939   3.882   3.831   5.121 -0.0770 -0.6669 -0.3614
 7661TIP3    H122940   3.838   3.841   5.037  2.6797 -0.0376 -1.7821
 7661TIP3    H222941   3.878   3.737   5.140  0.0619 -0.9291 -1.6259
 7662TIP3   OH222942   4.116   4.089   3.331  0.5791  0.0345  0.5187
 7662TIP3    H122943   4.141   4.160   3.390  0.1285  1.3527 -0.8498
 7662TIP3    H222944   4.056   4.130   3.268 -0.4477 -1.7687  0.2857
 7663TIP3   OH222945   6.525   5.584   2.796  0.2002  0.2760 -0.0871
 7663TIP3    H122946   6.504   5.509   2.851  1.7148 -0.1448 -0.0866
 7663TIP3    H222947   6.531   5.548   2.708 -0.1679  0.5998 -0.2477
 7664TIP3   OH222948   5.440   5.511   4.316  0.2667  0.1009  0.1533
 7664TIP3    H122949   5.419   5.564   4.392 -0.4813  1.7203 -1.1653
 7664TIP3    H222950   5.356   5.498   4.271  0.9584  0.6618 -1.3464
 7665TIP3   OH222951   6.003   3.735   4.394  0.1147 -0.2776  0.4992
 7665TIP3    H122952   5.910   3.720   4.413  0.0210 -1.3057 -0.7101
 7665TIP3    H222953   6.009   3.737   4.299  1.1213  1.2888  0.5697
 7666TIP3   OH222954   4.320   2.895   3.131  0.4379 -0.3176  0.4456
 7666TIP3    H122955   4.292   2.986   3.121  0.6298 -0.0122  2.4525
 7666TIP3    H222956   4.371   2.876   3.052 -0.5996  0.9228 -0.5486
 7667TIP3   OH222957   3.765   3.406   5.628 -0.0403  0.3274  0.4810
 7667TIP3    H122958   3.713   3.478   5.593 -0.4715 -0.7503 -1.1627
 7667TIP3    H222959   3.707   3.330   5.622  0.9714 -0.4708  0.6727
 7668TIP3   OH222960   6.539   2.636   3.640  0.7145  0.4021 -0.3962
 7668TIP3    H122961   6.550   2.555   3.690 -0.2452  0.9769  0.7539
 7668TIP3    H222962   6.493   2.695   3.699  3.9944  2.8220 -0.1139
 7669TIP3   OH222963   4.817   5.116   4.029 -0.6120 -0.4158 -0.0324
 7669TIP3    H122964   4.769   5.148   3.953 -1.2917 -1.2415  0.0374
 7669TIP3    H222965   4.842   5.195   4.078  0.0291  0.1316 -1.2226
 7670TIP3   OH222966   5.605   2.901   5.770  0.1879 -0.1848  0.1274
 7670TIP3    H122967   5.559   2.909   5.854  0.5048 -0.5435  0.3327
 7670TIP3    H222968   5.578   2.816   5.736  0.1199 -0.0732 -0.0996
 7671TIP3   OH222969   2.860   5.323   3.452  0.3396  0.1764  0.5645
 7671TIP3    H122970   2.843   5.417   3.455  1.9288  0.6407 -2.4541
 7671TIP3    H222971   2.949   5.315   3.417  0.5111 -2.4393  1.4295
 7672TIP3   OH222972   5.872   5.718   4.353 -0.3740  0.0848 -0.2141
 7672TIP3    H122973   5.839   5.798   4.312 -0.1191 -0.3812 -1.3435
 7672TIP3    H222974   5.800   5.655   4.343  0.2987 -0.5033 -1.3786
 7673TIP3   OH222975   1.338   4.457   4.790  0.6600  0.2900 -0.2424
 7673TIP3    H122976   1.335   4.428   4.881 -0.8246 -0.6520 -0.5732
 7673TIP3    H222977   1.260   4.418   4.750  2.3989 -1.0467 -2.4235
 7674TIP3   OH222978   6.569   4.549   1.637  0.3477  0.3568 -0.7285
 7674TIP3    H122979   6.649   4.554   1.586  0.2876  0.0021 -0.8583
 7674TIP3    H222980   6.577   4.468   1.686  1.4725  1.8147  1.6003
 7675TIP3   OH222981   6.270   4.355   3.463 -0.0579 -0.2323 -0.0763
 7675TIP3    H122982   6.329   4.370   3.389  0.1532  0.4305  0.2250
 7675TIP3    H222983   6.183   4.371   3.428 -0.0179 -0.6464 -0.3731
 7676TIP3   OH222984   6.449   5.955   1.705 -0.3263  0.6203  0.0495
 7676TIP3    H122985   6.363   5.944   1.745  0.2624 -0.6686  1.0016
 7676TIP3    H222986   6.506   5.897   1.755  1.0676  1.3408 -0.6787
 7677TIP3   OH222987   8.435   4.082   2.619  0.0705 -0.4306 -0.3555
 7677TIP3    H122988   8.398   4.004   2.661  0.7230  0.5294  2.0685
 7677TIP3    H222989   8.501   4.113   2.680  0.4206  1.5520 -1.6963
 7678TIP3   OH222990   5.722   4.069   4.128  0.0127  0.4945  0.0228
 7678TIP3    H122991   5.669   4.026   4.195  0.1719  0.8071  0.3567
 7678TIP3    H222992   5.733   4.159   4.161  1.6325  0.1458  0.5087
 7679TIP3   OH222993   6.012   4.465   1.989  0.1072 -0.4990  0.1341
 7679TIP3    H122994   5.967   4.505   2.064  1.2191  1.2014 -0.0790
 7679TIP3    H222995   5.965   4.382   1.975 -2.1084  0.5948  0.7442
 7680TIP3   OH222996   5.418   4.873   5.065  0.2375 -0.1392 -0.3979
 7680TIP3    H122997   5.336   4.871   5.114 -0.3713  0.5329 -1.3755
 7680TIP3    H222998   5.465   4.949   5.098  0.0039  0.0805 -0.5723
 7681TIP3   OH222999   6.089   4.299   4.587 -0.4474 -0.8599 -0.2786
 7681TIP3    H123000   6.053   4.302   4.498 -0.5516 -0.0182 -0.2151
 7681TIP3    H223001   6.183   4.312   4.575 -0.8138  2.2965 -0.0573
 7682TIP3   OH223002   6.441   4.162   3.244 -0.2516 -0.2623 -0.3890
 7682TIP3    H123003   6.387   4.126   3.173  0.3319  0.2583 -1.1012
 7682TIP3    H223004   6.435   4.257   3.233  0.8010 -0.2066 -0.4559
 7683TIP3   OH223005   5.712   2.240   5.049 -0.5449 -0.3642  0.0034
 7683TIP3    H123006   5.752   2.167   5.001  2.4596  0.6091  0.8939
 7683TIP3    H223007   5.685   2.302   4.981  0.5112 -0.5553 -0.6043
 7684TIP3   OH223008   6.743   5.445   3.405 -0.3136 -0.2199 -0.5125
 7684TIP3    H123009   6.680   5.437   3.477  0.9270  1.6012  0.8309
 7684TIP3    H223010   6.792   5.363   3.406  1.5685  0.8678  2.5860
 7685TIP3   OH223011   5.160   5.683   2.492 -0.1247 -0.2497 -0.3679
 7685TIP3    H123012   5.158   5.772   2.456 -0.5127  0.0510  0.3875
 7685TIP3    H223013   5.217   5.635   2.432  0.9406  0.7669 -0.2021
 7686TIP3   OH223014   6.190   2.487   4.903 -0.2353 -0.3787 -0.1660
 7686TIP3    H123015   6.250   2.495   4.977  0.7449 -0.4442 -0.9476
 7686TIP3    H223016   6.245   2.501   4.826 -1.0385 -1.3866 -0.9327
 7687TIP3   OH223017   5.792   3.791   2.948 -0.2405 -0.8893 -0.8538
 7687TIP3    H123018   5.743   3.806   2.868 -1.5788  0.8680  0.2518
 7687TIP3    H223019   5.760   3.858   3.009  1.7207 -1.3100  0.7066
 7688TIP3   OH223020   5.612   4.755   2.855 -0.1422 -0.1650 -0.3257
 7688TIP3    H123021   5.555   4.790   2.786  0.7072 -0.9263 -1.4366
 7688TIP3    H223022   5.673   4.697   2.808  0.1993 -0.9962  1.1199
 7689TIP3   OH223023   7.736   4.822   3.611  0.2819  0.3443  0.4122
 7689TIP3    H123024   7.788   4.781   3.541  0.7018  2.4124 -0.5114
 7689TIP3    H223025   7.780   4.905   3.628 -2.2035  1.7455  0.2436
 7690TIP3   OH223026   7.300   3.712   1.362 -0.0583 -0.3486 -0.3235
 7690TIP3    H123027   7.225   3.686   1.310 -2.2897  0.8623  2.1710
 7690TIP3    H223028   7.352   3.632   1.371 -1.6212 -1.4759 -1.1084
 7691TIP3   OH223029   7.084   3.210   4.773  0.6877 -0.4487 -0.0049
 7691TIP3    H123030   7.084   3.165   4.689 -0.0271  0.1550 -0.3237
 7691TIP3    H223031   7.125   3.295   4.756  0.1346 -0.1470  0.1640
 7692TIP3   OH223032   7.305   4.365   4.512 -0.3316 -0.8853  0.0963
 7692TIP3    H123033   7.357   4.415   4.449 -0.0029 -3.0718 -1.3935
 7692TIP3    H223034   7.219   4.407   4.510  0.4945  0.8990  0.4084
 7693TIP3   OH223035   6.060   4.847   3.291  0.4966  0.0841  0.0314
 7693TIP3    H123036   6.100   4.932   3.307  1.9601 -0.6623  0.4158
 7693TIP3    H223037   6.113   4.809   3.221  1.2042 -1.3910  1.3455
 7694TIP3   OH223038   6.632   6.274   6.263 -0.6392  0.1806 -0.1342
 7694TIP3    H123039   6.590   6.208   6.318  0.7748 -1.0663 -0.5327
 7694TIP3    H223040   6.697   6.226   6.212  1.7976  2.1398  0.9818
 7695TIP3   OH223041   4.724   6.867   4.181 -0.3948 -0.5257 -0.0313
 7695TIP3    H123042   4.779   6.810   4.233 -0.3970  0.5001  1.1305
 7695TIP3    H223043   4.720   6.826   4.095  0.8185 -1.4658  0.3576
 7696TIP3   OH223044   5.226   5.871   4.476  0.1119  0.0877 -0.8322
 7696TIP3    H123045   5.156   5.911   4.528  0.4498  0.3474 -0.5783
 7696TIP3    H223046   5.256   5.940   4.418 -0.6783 -0.3782 -1.7958
 7697TIP3   OH223047   6.971   4.705   4.663 -0.2056 -0.1968 -0.0474
 7697TIP3    H123048   7.038   4.719   4.731  0.0996  0.8459 -0.5668
 7697TIP3    H223049   7.014   4.648   4.599 -0.4967 -1.1910  0.6314
 7698TIP3   OH223050   7.453   4.638   4.708  0.5204 -0.3518 -0.6109
 7698TIP3    H123051   7.425   4.571   4.771  0.8595 -0.8592 -0.9997
 7698TIP3    H223052   7.446   4.720   4.757 -0.8934 -0.5477 -0.4510
 7699TIP3   OH223053   5.925   3.204   4.997  0.3311  0.3147 -0.0871
 7699TIP3    H123054   5.964   3.272   4.942  2.3383 -0.8382 -0.1397
 7699TIP3    H223055   5.919   3.244   5.084 -3.9561  2.5633 -1.3010
 7700TIP3   OH223056   6.176   4.800   3.030  0.3859 -0.2672  0.3386
 7700TIP3    H123057   6.212   4.870   2.975 -1.8760  0.6416 -0.0179
 7700TIP3    H223058   6.095   4.773   2.987  0.3716 -1.9777  1.3610
 7701TIP3   OH223059   7.638   4.269   2.031  0.3496  0.4080  0.6640
 7701TIP3    H123060   7.610   4.274   1.940  1.1888 -0.8430  0.3254
 7701TIP3    H223061   7.558   4.279   2.082 -0.0448  1.7083 -0.1938
 7702TIP3   OH223062   6.423   5.000   1.957  0.2158  0.3851 -0.2170
 7702TIP3    H123063   6.431   5.037   2.045  0.9657 -0.6741  0.1787
 7702TIP3    H223064   6.490   4.931   1.955  0.0482  0.2606 -1.5409
 7703TIP3   OH223065   6.440   3.706   0.877  0.1598 -1.1047 -0.3800
 7703TIP3    H123066   6.444   3.697   0.781  1.5301 -0.8211 -0.3585
 7703TIP3    H223067   6.523   3.748   0.900 -0.8369  0.2501  0.7784
 7704TIP3   OH223068   6.091   4.983   2.010  0.3338 -0.7186  0.7907
 7704TIP3    H123069   6.049   4.910   1.967  1.2836 -0.4584 -0.6169
 7704TIP3    H223070   6.184   4.972   1.990  0.5023  0.7687  0.7206
 7705TIP3   OH223071   3.360   1.489   0.568  0.2759  0.1392 -0.0022
 7705TIP3    H123072   3.304   1.477   0.645  0.3475  1.4097  0.2753
 7705TIP3    H223073   3.442   1.524   0.604 -0.2836  2.3620 -0.7912
 7706TIP3   OH223074   7.526   4.616   4.459  0.6017  0.4633  0.0659
 7706TIP3    H123075   7.437   4.588   4.436  0.7278 -0.2854  0.4867
 7706TIP3    H223076   7.525   4.623   4.554  1.4337 -1.0802  0.2026
 7707TIP3   OH223077   7.114   4.681   4.187  0.5147  0.0196  0.1841
 7707TIP3    H123078   7.129   4.602   4.136  1.1459  0.0978  0.2476
 7707TIP3    H223079   7.181   4.679   4.256 -0.0953  0.1015  0.7885
 7708TIP3   OH223080   6.217   4.614   4.062 -0.0237 -0.0787 -0.0640
 7708TIP3    H123081   6.233   4.709   4.057  1.9605 -0.3538  0.5587
 7708TIP3    H223082   6.258   4.588   4.145 -1.2969 -1.3520  0.1733
 7709TIP3   OH223083   4.838   5.609   3.400 -0.1615 -0.0107  0.4526
 7709TIP3    H123084   4.845   5.515   3.416  1.4817  0.0866  0.3911
 7709TIP3    H223085   4.897   5.625   3.326 -1.2567  0.9044 -0.2440
 7710TIP3   OH223086   5.725   5.922   4.216 -0.1377  0.6757 -0.5918
 7710TIP3    H123087   5.646   5.871   4.199 -0.0090 -0.0207  0.7952
 7710TIP3    H223088   5.698   5.988   4.280  0.2885  0.7255 -0.4614
 7711TIP3   OH223089   6.511   2.484   5.621 -0.2754 -0.0355  0.4781
 7711TIP3    H123090   6.419   2.475   5.646 -0.1220  1.1672  1.5290
 7711TIP3    H223091   6.514   2.565   5.570  0.2206 -0.0141  0.5371
 7712TIP3   OH223092   5.900   5.347   4.380  0.3497 -0.3418 -0.0527
 7712TIP3    H123093   5.835   5.396   4.331 -1.3233 -1.9406  0.5250
 7712TIP3    H223094   5.936   5.285   4.316  0.0884 -0.6120  0.0631
 7713TIP3   OH223095   6.144   3.640   4.878  0.1231  0.2733  0.2902
 7713TIP3    H123096   6.103   3.685   4.804  1.7946 -1.8614 -2.0098
 7713TIP3    H223097   6.222   3.691   4.897 -0.0903  0.5895  0.3242
 7714TIP3   OH223098   6.305   5.125   5.355 -0.1561 -0.3625 -0.6086
 7714TIP3    H123099   6.241   5.055   5.368  2.8210 -3.3159 -1.0400
 7714TIP3    H223100   6.327   5.121   5.262 -0.8160  2.0060 -0.8991
 7715TIP3   OH223101   0.121   5.799   5.757 -0.3502  0.4414  0.2710
 7715TIP3    H123102   0.052   5.862   5.736 -0.0196  0.5242 -0.5992
 7715TIP3    H223103   0.183   5.807   5.685  0.7439  0.6110  1.2176
 7716TIP3   OH223104   6.222   2.521   2.619 -0.0816 -0.7450 -0.2490
 7716TIP3    H123105   6.235   2.439   2.666 -1.7184 -0.6377  0.4116
 7716TIP3    H223106   6.263   2.506   2.533  0.7621 -1.7856  0.3218
 7717TIP3   OH223107   5.808   2.920   6.025 -0.0044 -0.5604  0.4989
 7717TIP3    H123108   5.862   2.993   5.993  0.4374 -0.3924  1.6214
 7717TIP3    H223109   5.822   2.851   5.960 -0.2872  0.2804 -0.4823
 7718TIP3   OH223110   5.112   4.382   3.171 -0.0576  0.0338 -0.4226
 7718TIP3    H123111   5.090   4.300   3.127  1.4223 -0.3356 -0.5115
 7718TIP3    H223112   5.035   4.437   3.160 -1.4766 -1.7109  0.5290
 7719TIP3   OH223113   4.947   3.218   4.274  0.0311 -0.4374  0.0259
 7719TIP3    H123114   4.929   3.137   4.228  0.1744  0.4916 -1.6976
 7719TIP3    H223115   4.900   3.285   4.224 -0.9783  0.4093  2.0267
 7720TIP3   OH223116   6.734   5.282   4.558  0.1952  0.0908  0.2059
 7720TIP3    H123117   6.687   5.232   4.625 -0.4505 -0.4386 -0.6379
 7720TIP3    H223118   6.760   5.217   4.493  3.2761  0.1391  1.2781
 7721TIP3   OH223119   7.012   5.001   5.733  0.2339  0.0887  0.6233
 7721TIP3    H123120   6.948   4.931   5.745 -0.0873  0.5368  1.6006
 7721TIP3    H223121   7.091   4.956   5.700  0.3597 -0.8758  2.1874
 7722TIP3   OH223122   7.007   5.302   3.744  0.2151  1.0436 -1.1351
 7722TIP3    H123123   6.928   5.356   3.756 -0.1218  0.4635 -0.7181
 7722TIP3    H223124   7.057   5.315   3.825 -0.9586 -1.0578 -0.0371
 7723TIP3   OH223125   5.491   4.198   3.773  0.4945  0.1363 -0.1381
 7723TIP3    H123126   5.501   4.132   3.842 -0.1528  0.2639  0.0782
 7723TIP3    H223127   5.510   4.281   3.816  1.5063  0.0826 -0.4570
 7724TIP3   OH223128   5.342   4.556   3.383  0.0305  0.2768  0.1728
 7724TIP3    H123129   5.300   4.626   3.333 -0.1505  0.4511  0.5741
 7724TIP3    H223130   5.297   4.477   3.355  1.1294  0.1327 -1.3007
 7725TIP3   OH223131   6.025   3.994   4.903 -0.2787 -0.0293 -0.0441
 7725TIP3    H123132   6.025   3.946   4.821 -1.0011  0.3312 -0.2608
 7725TIP3    H223133   6.095   3.954   4.955 -0.1155 -0.5446 -0.6627
 7726TIP3   OH223134   5.590   2.483   4.164 -0.5746 -0.2942  0.6090
 7726TIP3    H123135   5.568   2.570   4.198 -2.2026 -1.2177  2.0270
 7726TIP3    H223136   5.618   2.499   4.074 -0.8433  1.6987  0.8517
 7727TIP3   OH223137   7.347   4.967   3.956  0.0485  0.4192  0.5351
 7727TIP3    H123138   7.265   4.999   3.917  1.6165  0.8508 -2.5894
 7727TIP3    H223139   7.337   4.872   3.958  0.5751  0.2389 -2.6373
 7728TIP3   OH223140   7.157   3.831   5.114  0.3181  0.3197 -0.0966
 7728TIP3    H123141   7.156   3.775   5.036  1.4529  0.5562 -0.2908
 7728TIP3    H223142   7.187   3.773   5.184  0.3642  0.3942 -0.0555
 7729TIP3   OH223143   6.562   4.172   3.963 -0.0341 -0.1236 -0.6360
 7729TIP3    H123144   6.556   4.253   4.013 -0.1468 -1.5992  1.7917
 7729TIP3    H223145   6.475   4.133   3.972  0.2357 -0.8528 -1.2221
 7730TIP3   OH223146   7.085   7.232   4.307  0.1220  0.0682  0.1756
 7730TIP3    H123147   7.016   7.279   4.354 -0.1753  0.1908 -0.3744
 7730TIP3    H223148   7.142   7.198   4.375 -0.4221  0.0692  0.6347
 7731TIP3   OH223149   5.619   4.770   4.385  0.0324 -0.6161  0.4121
 7731TIP3    H123150   5.578   4.788   4.301  0.0979  0.3250  0.5707
 7731TIP3    H223151   5.691   4.711   4.365 -1.4121 -2.3238  0.1368
 7732TIP3   OH223152   0.144   3.769   4.148  0.8874  0.0484 -0.1834
 7732TIP3    H123153   0.064   3.717   4.142 -0.0269  1.5271 -1.3678
 7732TIP3    H223154   0.176   3.775   4.058  2.3815 -0.5740  0.2890
 7733TIP3   OH223155   5.083   4.027   2.459 -0.2003 -0.1804 -0.0730
 7733TIP3    H123156   5.072   3.933   2.447 -1.9628  0.0361 -0.2242
 7733TIP3    H223157   5.005   4.066   2.420 -1.2823  1.1481  3.2495
 7734TIP3   OH223158   5.976   6.153   2.334  0.2572  0.0810  0.6070
 7734TIP3    H123159   6.028   6.138   2.413 -1.1977  0.0651  1.5682
 7734TIP3    H223160   6.006   6.237   2.301 -0.3799  0.9365  2.1719
 7735TIP3   OH223161   7.018   1.632   4.388  0.2641  0.0892 -0.1390
 7735TIP3    H123162   7.112   1.635   4.370 -0.0191  1.3908 -1.5612
 7735TIP3    H223163   6.999   1.718   4.427 -0.0582 -0.7793  1.6609
 7736TIP3   OH223164   6.431   4.310   5.139  0.1714  0.5575  0.1765
 7736TIP3    H123165   6.372   4.317   5.064  0.8638  0.3508 -0.3934
 7736TIP3    H223166   6.504   4.368   5.118  1.9752 -2.0115 -0.8496
 7737TIP3   OH223167   6.512   3.775   1.862 -0.3157  0.3856  0.2230
 7737TIP3    H123168   6.598   3.811   1.841 -0.9574  1.6177 -0.3981
 7737TIP3    H223169   6.454   3.852   1.864 -1.5477 -0.5138 -0.1644
 7738TIP3   OH223170   5.338   3.108   4.336 -0.6129 -0.1832  0.2952
 7738TIP3    H123171   5.264   3.083   4.281 -0.7126  0.4720  0.1300
 7738TIP3    H223172   5.348   3.202   4.322  0.2329 -0.2606  0.3391
 7739TIP3   OH223173   6.186   2.753   5.631 -0.1544 -0.8109  0.3367
 7739TIP3    H123174   6.142   2.759   5.715 -1.7250 -0.3821 -0.5016
 7739TIP3    H223175   6.200   2.659   5.617 -0.2184 -0.9023  0.8977
 7740TIP3   OH223176   6.906   5.581   6.155 -0.0433  0.1653 -0.0163
 7740TIP3    H123177   6.991   5.601   6.195  0.2676  1.4320 -1.2568
 7740TIP3    H223178   6.864   5.667   6.145 -1.1341 -0.3859 -0.1114
 7741TIP3   OH223179   5.918   5.619   3.866  0.3696  0.2983  0.2920
 7741TIP3    H123180   5.908   5.646   3.775 -1.5737 -1.7494 -0.1671
 7741TIP3    H223181   5.861   5.679   3.915  0.9761  1.0343  0.1127
 7742TIP3   OH223182   5.886   4.464   5.051 -0.2927  0.3876 -0.1588
 7742TIP3    H123183   5.895   4.385   4.999  0.7294  0.3510  0.0793
 7742TIP3    H223184   5.908   4.437   5.140 -0.4906  0.8111  0.0207
 7743TIP3   OH223185   5.920   4.279   4.832  0.2876 -0.1620 -0.1788
 7743TIP3    H123186   5.995   4.306   4.780  0.5955  1.2992  0.9999
 7743TIP3    H223187   5.942   4.191   4.863  0.3274 -0.8263 -2.0670
 7744TIP3   OH223188   1.211   5.264   0.069  0.1845  0.0235  0.0547
 7744TIP3    H123189   1.172   5.345   0.036  0.1278  0.0116  0.0902
 7744TIP3    H223190   1.174   5.255   0.157 -0.3261 -0.3871 -0.1987
 7745TIP3   OH223191   4.623   4.944   3.740  0.0433 -0.0332 -0.0090
 7745TIP3    H123192   4.674   4.889   3.680  0.1032 -0.2762  0.2696
 7745TIP3    H223193   4.645   4.912   3.827 -0.1208  0.2614  0.1412
 7746TIP3   OH223194   5.701   6.063   2.039  0.1292  0.6178  0.0919
 7746TIP3    H123195   5.749   5.999   1.985 -0.8509  0.6021 -0.7671
 7746TIP3    H223196   5.609   6.039   2.028 -0.0986  0.7422  1.6291
 7747TIP3   OH223197   4.763   2.458   6.057  0.5703 -0.2576  0.7991
 7747TIP3    H123198   4.685   2.499   6.021 -0.5667 -1.9400  1.3138
 7747TIP3    H223199   4.822   2.450   5.982  0.9111  2.4307  0.7217
 7748TIP3   OH223200   5.025   7.113   5.491 -0.0860 -0.3876 -0.5159
 7748TIP3    H123201   5.109   7.141   5.455 -0.5546  0.5636 -0.9063
 7748TIP3    H223202   5.046   7.080   5.578  0.3630  2.4046  0.4983
 7749TIP3   OH223203   6.810   5.880   2.558 -0.2050 -0.4701  0.1243
 7749TIP3    H123204   6.826   5.947   2.491 -1.0356  0.7215  1.0916
 7749TIP3    H223205   6.897   5.853   2.587  0.1383 -0.1046 -0.5566
 7750TIP3   OH223206   7.691   6.757   1.769 -0.4707  0.1067 -0.7592
 7750TIP3    H123207   7.690   6.680   1.827  1.6226  0.5466 -0.0744
 7750TIP3    H223208   7.608   6.753   1.723 -0.8160 -2.0516 -0.0424
 7751TIP3   OH223209   1.507   0.086   6.344  0.1383  0.2675 -0.1603
 7751TIP3    H123210   1.479   0.164   6.392  1.3004 -0.6856  2.1474
 7751TIP3    H223211   1.457   0.015   6.383  2.2818 -0.7619  0.7613
 7752TIP3   OH223212   0.208   6.868   2.787 -0.3304 -0.4645 -0.0817
 7752TIP3    H123213   0.168   6.829   2.865 -1.3334  1.2737  0.3097
 7752TIP3    H223214   0.302   6.849   2.796 -0.5199 -0.8119  1.2452
 7753TIP3   OH223215   6.070   4.795   4.351  0.0493 -0.2100 -0.2458
 7753TIP3    H123216   6.046   4.859   4.419  0.6794  1.0459 -1.1823
 7753TIP3    H223217   6.109   4.722   4.400 -1.4714 -0.2684  0.9017
 7754TIP3   OH223218   6.748   5.657   2.956 -0.4767 -0.1817 -0.4009
 7754TIP3    H123219   6.664   5.662   2.911 -0.3124  0.2375 -0.6669
 7754TIP3    H223220   6.799   5.731   2.920 -0.3728  0.1949  0.5122
 7755TIP3   OH223221   4.552   5.791   4.172 -0.4751  0.2445 -0.1585
 7755TIP3    H123222   4.478   5.732   4.168  1.1569 -1.8398 -0.7277
 7755TIP3    H223223   4.540   5.850   4.097 -2.6115  1.3124  0.9724
 7756TIP3   OH223224   5.309   3.563   2.725 -0.1699  0.1465 -0.3843
 7756TIP3    H123225   5.225   3.518   2.722  0.7834 -1.7001  0.0990
 7756TIP3    H223226   5.300   3.624   2.799 -1.0986  0.0114 -0.3727
 7757TIP3   OH223227   5.711   3.954   3.463  0.2139  0.3118  0.3881
 7757TIP3    H123228   5.735   3.965   3.555  1.9050  0.6901 -0.0718
 7757TIP3    H223229   5.776   3.894   3.428  0.2309  0.9981 -0.8096
 7758TIP3   OH223230   6.774   4.450   3.306  0.0871  0.4452  0.0960
 7758TIP3    H123231   6.854   4.417   3.266 -0.6848  1.3901 -2.3106
 7758TIP3    H223232   6.780   4.545   3.296 -1.8248  0.4527 -1.0629
 7759TIP3   OH223233   7.952   3.941   3.040  0.3346 -0.0354 -0.2184
 7759TIP3    H123234   7.988   3.919   2.954 -0.8306 -0.9136 -0.4942
 7759TIP3    H223235   7.893   4.015   3.023 -0.1899 -0.4576 -0.2390
 7760TIP3   OH223236   5.861   3.442   3.944 -0.4676 -0.0296 -0.7450
 7760TIP3    H123237   5.771   3.470   3.929 -0.4515  0.5546  0.1867
 7760TIP3    H223238   5.907   3.464   3.863 -1.1095 -0.1019 -1.1291
 7761TIP3   OH223239   7.764   2.991   4.619  0.7842 -0.2174  0.1635
 7761TIP3    H123240   7.784   2.941   4.698  1.0100 -0.7269 -0.2130
 7761TIP3    H223241   7.837   2.972   4.560  1.1361  0.9707  0.2103
 7762TIP3   OH223242   5.518   4.190   5.165  0.5791 -0.1378  0.5809
 7762TIP3    H123243   5.589   4.171   5.227  0.8970 -0.4764  0.1152
 7762TIP3    H223244   5.455   4.242   5.216  2.5119  2.6616  0.2224
 7763TIP3   OH223245   6.300   2.175   2.760 -0.4323 -0.2765 -0.2242
 7763TIP3    H123246   6.366   2.123   2.806 -1.8002 -2.5219 -0.7258
 7763TIP3    H223247   6.330   2.176   2.669  0.4807  1.2914  0.0730
 7764TIP3   OH223248   5.927   4.589   2.262  0.5705 -0.2339 -0.6421
 7764TIP3    H123249   5.864   4.631   2.321  0.9413 -1.0667  0.3671
 7764TIP3    H223250   5.991   4.657   2.243 -1.4868  1.1178 -2.9857
 7765TIP3   OH223251   4.994   3.601   4.403  0.6250 -0.3657  0.4722
 7765TIP3    H123252   5.059   3.544   4.362  2.0435  0.6205  1.3282
 7765TIP3    H223253   4.989   3.571   4.494 -0.0494 -0.3535  0.4476
 7766TIP3   OH223254   7.876   4.172   4.399  0.4951 -0.0543  0.3749
 7766TIP3    H123255   7.847   4.162   4.489 -2.5440  3.5601 -0.0897
 7766TIP3    H223256   7.937   4.245   4.400 -0.5385  0.8580 -0.6228
 7767TIP3   OH223257   6.771   4.032   4.990  0.1428  0.6690  0.0750
 7767TIP3    H123258   6.828   4.002   4.920  0.7908 -1.2904  1.3848
 7767TIP3    H223259   6.830   4.047   5.064 -0.7540  0.8850  0.7600
 7768TIP3   OH223260   6.995   3.602   2.565 -0.3194 -0.2888 -0.1000
 7768TIP3    H123261   7.015   3.510   2.544 -0.4244 -0.3036 -0.1329
 7768TIP3    H223262   7.028   3.613   2.654  0.3248 -0.1631 -0.3481
 7769TIP3   OH223263   4.009   2.835   3.165 -0.3543  0.1749  0.3218
 7769TIP3    H123264   3.969   2.748   3.175  3.9194 -2.0324 -0.3945
 7769TIP3    H223265   4.007   2.873   3.253 -1.1691 -1.1466  0.8930
 7770TIP3   OH223266   7.467   5.468   4.958 -0.7293 -0.2674  0.2110
 7770TIP3    H123267   7.385   5.421   4.946 -0.7582  0.0797 -1.0648
 7770TIP3    H223268   7.523   5.437   4.887  0.4878 -1.0146  1.4897
 7771TIP3   OH223269   5.343   3.363   4.592  0.0265  0.6843 -0.6447
 7771TIP3    H123270   5.386   3.448   4.599 -1.5070  1.4013  0.2033
 7771TIP3    H223271   5.409   3.300   4.620  0.4905  1.7849  0.7889
 7772TIP3   OH223272   6.160   5.198   3.474  0.0654  0.1327 -0.0679
 7772TIP3    H123273   6.162   5.122   3.532  0.8384 -0.6821 -1.1321
 7772TIP3    H223274   6.250   5.230   3.473  0.0699  0.1221 -0.8205
 7773TIP3   OH223275   5.514   6.153   5.745 -0.1690  0.4968 -0.1230
 7773TIP3    H123276   5.556   6.068   5.729 -0.2063  0.5038 -0.2623
 7773TIP3    H223277   5.420   6.133   5.745 -0.1682  0.4915  0.1177
 7774TIP3   OH223278   6.661   3.876   4.517  0.1666  0.0630  0.0176
 7774TIP3    H123279   6.605   3.952   4.505 -0.5918 -0.6265 -0.9305
 7774TIP3    H223280   6.606   3.813   4.563  0.7600  0.0583  0.7185
 7775TIP3   OH223281   5.746   6.748   4.435  0.3235  0.0535  0.7199
 7775TIP3    H123282   5.728   6.787   4.349  1.0943 -0.4431  0.3220
 7775TIP3    H223283   5.768   6.822   4.491 -1.7673  0.5593  0.9315
 7776TIP3   OH223284   6.477   2.757   2.933 -0.6141 -0.2510  0.4190
 7776TIP3    H123285   6.529   2.768   3.012 -2.0075 -0.9783  1.4415
 7776TIP3    H223286   6.393   2.798   2.952  0.3596  3.1498 -2.1155
 7777TIP3   OH223287   5.053   4.676   2.525 -0.0856  0.3033  0.4147
 7777TIP3    H123288   5.077   4.761   2.487  0.1061  0.9342  1.9377
 7777TIP3    H223289   5.036   4.621   2.449  1.0522  1.3370 -0.6213
 7778TIP3   OH223290   5.641   6.148   3.719 -0.4388 -0.1878 -0.4227
 7778TIP3    H123291   5.568   6.174   3.663  0.5367  2.5525 -0.4788
 7778TIP3    H223292   5.684   6.230   3.744  3.2349 -1.7446 -1.1983
 7779TIP3   OH223293   5.271   3.724   2.963  0.1846 -0.0515  0.1183
 7779TIP3    H123294   5.181   3.704   2.987 -0.0389  1.3499  0.4680
 7779TIP3    H223295   5.264   3.790   2.894  0.9034 -1.4556 -1.3314
 7780TIP3   OH223296   5.449   6.575   4.783  0.0719 -0.0891 -0.0182
 7780TIP3    H123297   5.486   6.663   4.772 -0.2671  0.0399 -0.1342
 7780TIP3    H223298   5.454   6.558   4.877 -1.1188  0.6069  0.1773
 7781TIP3   OH223299   6.823   4.274   2.121  0.3309 -0.2973 -0.2708
 7781TIP3    H123300   6.797   4.188   2.155  1.0201 -1.3448 -2.3227
 7781TIP3    H223301   6.917   4.278   2.135  0.1224  0.6530  0.9366
 7782TIP3   OH223302   5.952   3.060   5.825 -0.4226 -0.2039  0.3166
 7782TIP3    H123303   5.969   3.149   5.857 -2.3830  0.4156 -0.2897
 7782TIP3    H223304   5.998   3.056   5.741  0.1444  0.0453  0.6141
 7783TIP3   OH223305   5.042   5.402   5.760 -0.3218 -0.2742 -0.5128
 7783TIP3    H123306   5.116   5.417   5.702  0.4805 -0.6466  0.4035
 7783TIP3    H223307   5.044   5.308   5.779 -0.3614 -0.0987  0.3904
 7784TIP3   OH223308   7.978   4.841   2.422 -0.0094  0.3390  0.3230
 7784TIP3    H123309   8.038   4.770   2.398  0.1022  1.3487 -2.5829
 7784TIP3    H223310   7.891   4.805   2.405  0.0075  0.5753 -0.2729
 7785TIP3   OH223311   4.101   2.425   3.369 -0.2217  0.1785  0.0214
 7785TIP3    H123312   4.083   2.463   3.282  0.2648 -0.2254 -0.2550
 7785TIP3    H223313   4.014   2.416   3.409 -0.5068 -0.2386 -0.6782
 7786TIP3   OH223314   5.425   4.237   2.291 -0.1541 -0.0313  0.0015
 7786TIP3    H123315   5.386   4.200   2.371 -0.7761  2.6265  0.9934
 7786TIP3    H223316   5.375   4.198   2.220 -2.2285  0.5069  1.1131
 7787TIP3   OH223317   4.265   6.026   3.410 -0.7480  0.7145 -0.1853
 7787TIP3    H123318   4.340   6.083   3.395 -0.3090 -0.1260 -1.2891
 7787TIP3    H223319   4.297   5.960   3.472 -0.5388  0.2957 -0.7366
 7788TIP3   OH223320   7.164   6.028   2.681 -0.6386  0.5166  0.1491
 7788TIP3    H123321   7.094   5.963   2.669 -0.2191  0.1023 -0.0680
 7788TIP3    H223322   7.231   6.003   2.617  0.1672  0.2932  1.0648
 7789TIP3   OH223323   6.878   3.700   2.945  0.0626 -0.6154 -0.1572
 7789TIP3    H123324   6.934   3.628   2.916  2.3519  1.1656 -0.3739
 7789TIP3    H223325   6.792   3.680   2.909  0.9623 -2.5706 -1.3113
 7790TIP3   OH223326   5.062   4.574   4.442  0.4291 -0.1447  0.1481
 7790TIP3    H123327   4.981   4.623   4.453 -0.2394 -1.4202  1.1383
 7790TIP3    H223328   5.036   4.493   4.397  0.9378 -1.0811  1.4896
 7791TIP3   OH223329   5.391   4.629   4.674 -0.2922  0.3423  0.0980
 7791TIP3    H123330   5.423   4.712   4.638  1.8977 -0.4025  0.3016
 7791TIP3    H223331   5.423   4.627   4.764  0.6425 -1.2315 -0.2526
 7792TIP3   OH223332   8.056   7.034   4.208  0.2612  0.7330  0.1505
 7792TIP3    H123333   8.021   7.112   4.165 -1.5319 -0.3091 -0.3309
 7792TIP3    H223334   7.992   7.011   4.274  0.7373 -0.3704  0.2468
 7793TIP3   OH223335   6.466   4.065   4.469 -0.2039 -0.0048 -0.5506
 7793TIP3    H123336   6.475   4.161   4.465  0.8856 -0.0176  1.1423
 7793TIP3    H223337   6.376   4.051   4.499 -0.1696  0.5066 -0.1923
 7794TIP3   OH223338   7.064   4.216   6.500  0.3122 -0.5872 -0.1024
 7794TIP3    H123339   7.004   4.218   6.426 -0.1363 -1.6961  0.2339
 7794TIP3    H223340   7.010   4.242   6.575  0.6621  0.1012 -0.0835
 7795TIP3   OH223341   6.669   4.143   1.532  0.5191 -0.4780 -0.2176
 7795TIP3    H123342   6.736   4.117   1.468  0.6312 -0.4570 -0.1087
 7795TIP3    H223343   6.586   4.122   1.489  0.6194 -1.3019 -0.0001
 7796TIP3   OH223344   5.494   3.959   4.276  0.3508 -0.0262 -0.1515
 7796TIP3    H123345   5.458   4.020   4.341  0.2950 -0.0453 -0.1638
 7796TIP3    H223346   5.513   3.879   4.326  0.7483  0.1198 -0.0698
 7797TIP3   OH223347   4.960   4.659   3.761 -0.2174 -0.3446  0.2381
 7797TIP3    H123348   5.045   4.684   3.725  0.5391 -0.0429  2.1587
 7797TIP3    H223349   4.982   4.606   3.838 -1.7690 -0.7026  0.4389
 7798TIP3   OH223350   8.128   4.898   5.719  0.3369  0.1405  0.0937
 7798TIP3    H123351   8.078   4.931   5.644  0.7678  0.7513  0.0712
 7798TIP3    H223352   8.209   4.863   5.680 -0.4369 -1.6551  0.0352
 7799TIP3   OH223353   4.944   4.811   5.186 -0.0283 -0.0053 -0.0044
 7799TIP3    H123354   4.994   4.776   5.260  0.6324 -0.5398 -0.7028
 7799TIP3    H223355   4.890   4.880   5.225  0.6948  0.0709  0.8842
 7800TIP3   OH223356   4.933   4.566   3.056  0.1306  0.7049  0.2806
 7800TIP3    H123357   4.845   4.528   3.060 -0.0065  1.1150  1.3437
 7800TIP3    H223358   4.927   4.634   2.988  0.4318 -1.2837 -1.7855
 7801TIP3   OH223359   6.600   3.856   6.448  0.0299 -0.0720 -0.1837
 7801TIP3    H123360   6.539   3.921   6.413  0.1335 -0.3849 -0.9455
 7801TIP3    H223361   6.555   3.820   6.525  0.4795  1.7657  0.9876
 7802TIP3   OH223362   4.665   4.018   1.656  0.7508 -0.3034 -0.3371
 7802TIP3    H123363   4.622   4.049   1.736 -0.0145  1.0600 -1.2715
 7802TIP3    H223364   4.717   4.092   1.627  0.3079 -0.4874 -1.6146
 7803TIP3   OH223365   3.912   4.215   2.843 -0.4274 -0.2494 -0.3961
 7803TIP3    H123366   3.861   4.226   2.924  1.1214  1.9372  0.3131
 7803TIP3    H223367   3.872   4.139   2.800 -1.9399 -0.8099  1.9132
 7804TIP3   OH223368   2.507   3.698   2.438  0.0128  0.0780  0.4662
 7804TIP3    H123369   2.540   3.612   2.409 -1.6542 -0.4919  0.2083
 7804TIP3    H223370   2.467   3.680   2.523  1.0157  0.9130  1.1228
 7805TIP3   OH223371   5.429   3.520   5.536 -0.0502  0.2273  0.3847
 7805TIP3    H123372   5.378   3.569   5.471 -0.9953 -0.1445  0.8357
 7805TIP3    H223373   5.516   3.511   5.496 -0.3037  0.9517 -0.3522
 7806TIP3   OH223374   4.941   7.597   3.563 -0.9149 -0.1164  0.2303
 7806TIP3    H123375   5.005   7.632   3.625 -1.1161  1.5589 -0.4955
 7806TIP3    H223376   4.986   7.524   3.521  0.7421  1.3734 -0.6573
 7807TIP3   OH223377   6.623   6.500   5.219 -0.0042  0.1707 -0.1001
 7807TIP3    H123378   6.529   6.521   5.223  0.1009  0.8053 -0.7936
 7807TIP3    H223379   6.626   6.405   5.218 -0.6574  0.1458 -0.2564
 7808TIP3   OH223380   5.661   5.924   4.654 -0.0274 -0.3616 -0.1220
 7808TIP3    H123381   5.670   6.000   4.596 -0.2026  0.8554  1.4150
 7808TIP3    H223382   5.749   5.887   4.658  0.6699  1.3777  1.2542
 7809TIP3   OH223383   6.857   4.592   3.992 -0.0161  0.1923  0.9516
 7809TIP3    H123384   6.855   4.611   4.085  1.9682  0.4969  0.9487
 7809TIP3    H223385   6.905   4.509   3.985  0.9663  0.8136  0.1220
 7810TIP3   OH223386   6.931   6.086   2.408  0.3219  0.1566  0.3625
 7810TIP3    H123387   6.903   6.177   2.398  1.4011  0.6208  1.4822
 7810TIP3    H223388   7.022   6.086   2.377 -0.0733 -0.8134 -0.8433
 7811TIP3   OH223389   6.664   5.717   2.404  0.1040  0.3702 -0.3925
 7811TIP3    H123390   6.576   5.747   2.428 -0.1754  0.4953 -1.5509
 7811TIP3    H223391   6.721   5.752   2.473 -0.9367 -0.9666  1.1780
 7812TIP3   OH223392   5.568   5.052   5.191  0.2239 -0.2186 -0.0537
 7812TIP3    H123393   5.597   4.992   5.258 -0.1975  0.1212  0.4408
 7812TIP3    H223394   5.513   5.115   5.237 -2.0901 -1.4056 -1.0949
 7813TIP3   OH223395   5.915   4.976   2.498  0.7225 -0.4603 -0.2926
 7813TIP3    H123396   5.843   4.992   2.438  0.4159  0.3928  0.2940
 7813TIP3    H223397   5.994   4.991   2.445  0.4522  0.7374 -0.3708
 7814TIP3   OH223398   1.801   3.750   3.817  0.2254 -0.0075  0.1363
 7814TIP3    H123399   1.749   3.828   3.798  0.1213 -0.4792 -1.5921
 7814TIP3    H223400   1.807   3.748   3.913  0.4844  2.2726  0.1940
 7815TIP3   OH223401   6.595   5.026   5.151 -0.4397 -0.1176 -0.3535
 7815TIP3    H123402   6.624   4.971   5.224  0.2586  1.2479  0.4087
 7815TIP3    H223403   6.501   5.036   5.164 -0.4716 -0.6411 -0.1692
 7816TIP3   OH223404   6.879   3.724   4.396 -0.5186 -0.1883 -0.2853
 7816TIP3    H123405   6.789   3.747   4.421 -0.8184 -0.7522 -0.8141
 7816TIP3    H223406   6.869   3.676   4.314  0.3174  0.2476 -0.6428
 7817TIP3   OH223407   7.802   2.662   5.167 -0.4753 -0.0932  0.8718
 7817TIP3    H123408   7.788   2.754   5.189  1.1297  0.1745  0.8511
 7817TIP3    H223409   7.891   2.643   5.197  0.1860 -0.9071 -1.4456
 7818TIP3   OH223410   4.940   4.841   1.587 -0.4472  0.2966  0.2656
 7818TIP3    H123411   4.848   4.867   1.585 -0.8528 -0.7921  2.4219
 7818TIP3    H223412   4.964   4.830   1.495 -2.3776  0.8814 -0.3444
 7819TIP3   OH223413   0.140   3.213   4.123  0.2422 -0.0901 -0.4546
 7819TIP3    H123414   0.182   3.137   4.083 -1.7428 -2.0666  1.0942
 7819TIP3    H223415   0.091   3.254   4.051  1.8863  0.1503 -1.4519
 7820TIP3   OH223416   6.648   3.627   4.176  0.1520 -0.2111  0.3549
 7820TIP3    H123417   6.619   3.568   4.106  1.4316  1.3901 -1.5784
 7820TIP3    H223418   6.743   3.619   4.176  0.2535  0.9292  0.8881
 7821TIP3   OH223419   6.897   2.281   5.656  0.5798  0.1041 -0.5827
 7821TIP3    H123420   6.923   2.275   5.564 -1.8063 -0.1688 -1.2668
 7821TIP3    H223421   6.905   2.373   5.678 -0.9554  0.5196 -1.7222
 7822TIP3   OH223422   5.281   5.342   1.210 -0.4351 -0.0949  0.5665
 7822TIP3    H123423   5.248   5.259   1.246 -0.6453  0.1786  1.0137
 7822TIP3    H223424   5.261   5.337   1.117 -1.3730 -0.1183  0.7587
 7823TIP3   OH223425   7.672   4.431   4.767  0.3360  0.1002  0.6550
 7823TIP3    H123426   7.610   4.489   4.723  1.1690  0.0501 -0.6098
 7823TIP3    H223427   7.743   4.489   4.795  0.4273 -0.0704  0.7814
 7824TIP3   OH223428   6.583   2.791   3.188 -0.2709  0.0973  0.2177
 7824TIP3    H123429   6.678   2.797   3.184 -0.3833  1.9911 -0.1086
 7824TIP3    H223430   6.562   2.796   3.282 -0.1131  0.9629  0.2098
 7825TIP3   OH223431   6.258   3.035   4.788  0.0083 -0.2770 -1.2035
 7825TIP3    H123432   6.280   3.125   4.813 -0.8054 -0.2998 -0.3558
 7825TIP3    H223433   6.164   3.029   4.803 -0.3255 -0.6264 -3.3093
 7826TIP3   OH223434   6.678   4.414   5.103 -0.2677  0.5530 -0.2978
 7826TIP3    H123435   6.762   4.441   5.066  0.8191 -0.9830  1.0085
 7826TIP3    H223436   6.664   4.474   5.176  0.2413  0.1180  0.1640
 7827TIP3   OH223437   8.277   4.252   3.743  0.4881 -0.5408 -0.1601
 7827TIP3    H123438   8.190   4.232   3.710  0.3639 -0.5087  0.1438
 7827TIP3    H223439   8.315   4.166   3.764  0.3522 -0.5269  0.1506
 7828TIP3   OH223440   5.567   3.187   2.426 -0.3506 -1.0320 -0.0813
 7828TIP3    H123441   5.505   3.261   2.429  0.1281 -0.4828 -2.5549
 7828TIP3    H223442   5.512   3.110   2.439 -1.0695 -0.3515  1.0697
 7829TIP3   OH223443   7.317   4.637   1.597 -0.0002 -0.5961 -0.5069
 7829TIP3    H123444   7.381   4.596   1.655  0.1597 -0.4464 -0.5753
 7829TIP3    H223445   7.272   4.563   1.555 -1.1523 -0.7245  0.9199
 7830TIP3   OH223446   6.922   3.888   4.738 -0.4481 -0.0624 -0.0689
 7830TIP3    H123447   6.860   3.923   4.674 -0.7638 -2.2986 -1.0107
 7830TIP3    H223448   7.008   3.901   4.698 -0.5043  0.3227 -0.0705
 7831TIP3   OH223449   5.399   6.795   3.230  0.0005 -0.8530  0.4367
 7831TIP3    H123450   5.472   6.850   3.201  0.8114 -2.4846 -0.6748
 7831TIP3    H223451   5.322   6.831   3.185  0.2072  0.4363  1.0758
 7832TIP3   OH223452   6.164   6.754   4.461  0.1184  0.1849  0.0025
 7832TIP3    H123453   6.157   6.728   4.369 -2.9432 -0.4156  0.3603
 7832TIP3    H223454   6.188   6.673   4.506 -0.1088  0.0923 -0.0434
 7833TIP3   OH223455   6.757   3.698   4.814  0.5546  0.1914  0.1265
 7833TIP3    H123456   6.817   3.767   4.785 -0.5935  1.1986  0.1273
 7833TIP3    H223457   6.687   3.698   4.748 -0.3829  0.2789  1.1040
 7834TIP3   OH223458   7.272   4.160   4.825  0.1151 -0.1686 -0.4598
 7834TIP3    H123459   7.195   4.211   4.850 -0.1467 -1.6033  1.8089
 7834TIP3    H223460   7.332   4.170   4.899  2.1772  1.0148 -2.2419
 7835TIP3   OH223461   6.103   3.426   2.890 -0.4195 -0.2550 -0.0028
 7835TIP3    H123462   6.014   3.460   2.878 -0.1523  0.1749 -0.8180
 7835TIP3    H223463   6.150   3.498   2.932 -0.1492 -0.0417 -0.6720
 7836TIP3   OH223464   4.538   6.916   3.910  0.2289  0.2927  0.8307
 7836TIP3    H123465   4.529   7.007   3.938  0.7531  1.5293 -2.7989
 7836TIP3    H223466   4.451   6.892   3.877  0.4123 -0.1001  0.6307
 7837TIP3   OH223467   5.708   5.081   3.465  0.3105 -0.3454  0.2571
 7837TIP3    H123468   5.737   4.994   3.493  1.5832  0.1132  0.3765
 7837TIP3    H223469   5.735   5.088   3.374 -1.1587 -0.6622 -0.2156
 7838TIP3   OH223470   6.388   4.724   4.813 -0.2434 -0.6616 -0.0372
 7838TIP3    H123471   6.445   4.725   4.890  0.2905 -2.2566 -0.3867
 7838TIP3    H223472   6.356   4.814   4.805 -0.9840 -0.6584  2.5341
 7839TIP3   OH223473   5.987   6.153   5.082  0.0873  0.9598  0.0811
 7839TIP3    H123474   5.981   6.246   5.104 -0.8795  0.6643  1.1045
 7839TIP3    H223475   5.897   6.127   5.062 -0.1590 -0.5030  2.9420
 7840TIP3   OH223476   6.063   6.158   3.021  0.2003  0.2842 -0.2069
 7840TIP3    H123477   6.133   6.188   2.962  0.3025 -1.4233 -0.9732
 7840TIP3    H223478   5.994   6.128   2.963  0.7068 -2.3661  0.4994
 7841TIP3   OH223479   4.454   4.839   4.166  0.2760 -0.2584 -0.0538
 7841TIP3    H123480   4.476   4.922   4.209 -1.3516  1.0022 -1.5553
 7841TIP3    H223481   4.526   4.825   4.104  0.7217 -0.1650  0.4301
 7842TIP3   OH223482   5.791   5.582   3.170 -0.1688  0.3881  0.2324
 7842TIP3    H123483   5.770   5.528   3.246  1.3539 -0.3590  0.1444
 7842TIP3    H223484   5.832   5.521   3.108  1.2821  1.5645  0.0011
 7843TIP3   OH223485   5.720   5.050   2.329 -0.7528 -0.8762 -0.3361
 7843TIP3    H123486   5.742   5.142   2.311  1.0808 -1.1660  0.2878
 7843TIP3    H223487   5.655   5.027   2.262 -1.3473  0.9152 -0.3950
 7844TIP3   OH223488   8.069   5.076   3.074 -0.3710 -0.6770  0.1588
 7844TIP3    H123489   8.103   5.002   3.023 -0.0691 -1.1146  0.9730
 7844TIP3    H223490   8.147   5.119   3.109 -0.5779 -0.5403  0.4594
 7845TIP3   OH223491   7.649   2.744   4.569  0.2675 -0.0099  1.2429
 7845TIP3    H123492   7.674   2.832   4.540 -0.3571  0.2041  1.3329
 7845TIP3    H223493   7.722   2.714   4.621  0.3332  0.6081  1.5135
 7846TIP3   OH223494   6.887   5.228   3.454  0.2638 -0.5091 -0.4783
 7846TIP3    H123495   6.919   5.227   3.544 -1.6422 -1.4076  0.2172
 7846TIP3    H223496   6.916   5.144   3.417 -2.0655 -1.7748  0.4659
 7847TIP3   OH223497   6.832   3.485   3.433 -0.6065  0.5145  0.2656
 7847TIP3    H123498   6.777   3.411   3.409 -1.6264  1.4644 -0.3874
 7847TIP3    H223499   6.805   3.556   3.374  1.0887  1.1017  0.1615
 7848TIP3   OH223500   5.597   3.801   2.755 -0.0216  0.6024  0.1097
 7848TIP3    H123501   5.620   3.773   2.667  1.0758 -0.2915  0.6784
 7848TIP3    H223502   5.535   3.874   2.741 -0.3395  0.0653 -1.3728
 7849TIP3   OH223503   5.355   2.989   2.132 -0.3540 -0.6896  0.1691
 7849TIP3    H123504   5.369   2.915   2.072  0.5085  1.5450 -2.5146
 7849TIP3    H223505   5.422   2.978   2.199  2.8209  0.1031 -2.7381
 7850TIP3   OH223506   6.022   3.825   3.771  0.0290 -0.4031  0.5666
 7850TIP3    H123507   5.945   3.862   3.814 -0.7049 -2.0839  0.7605
 7850TIP3    H223508   5.987   3.774   3.698  0.9081 -1.5669  0.9295
 7851TIP3   OH223509   6.065   4.065   3.469 -0.0050  0.0643 -0.2559
 7851TIP3    H123510   6.120   4.065   3.547 -2.3779  1.2631  1.5118
 7851TIP3    H223511   6.044   3.973   3.454  1.6068 -0.3035 -0.3500
 7852TIP3   OH223512   5.871   4.293   3.133 -0.2150  0.3786  0.1131
 7852TIP3    H123513   5.875   4.323   3.042  0.0403  0.4321  0.1395
 7852TIP3    H223514   5.834   4.367   3.181 -0.7844  0.1770 -0.0198
 7853TIP3   OH223515   6.217   1.740   3.163  0.3233 -0.2353  0.8354
 7853TIP3    H123516   6.244   1.741   3.071  0.7758 -0.4390  0.9655
 7853TIP3    H223517   6.127   1.709   3.161  0.0773  0.4899  0.3934
 7854TIP3   OH223518   5.360   3.240   1.996 -0.2500 -0.0936  0.1600
 7854TIP3    H123519   5.311   3.190   1.931 -1.3693  0.0367  0.8911
 7854TIP3    H223520   5.386   3.176   2.062  2.8592 -0.6546 -1.5121
 7855TIP3   OH223521   5.629   5.584   1.461 -0.3293 -0.5062 -0.3137
 7855TIP3    H123522   5.552   5.553   1.414  0.7423 -1.8925 -1.1964
 7855TIP3    H223523   5.686   5.620   1.393  0.5665 -1.0984  0.1196
 7856TIP3   OH223524   6.102   7.788   3.151  0.0448 -0.1711 -0.6398
 7856TIP3    H123525   6.043   7.727   3.195 -0.8439  0.0244 -1.5496
 7856TIP3    H223526   6.088   7.871   3.195 -0.1437 -0.1888 -0.6681
 7857TIP3   OH223527   7.248   5.385   2.313 -0.1102 -0.3650 -0.0798
 7857TIP3    H123528   7.306   5.459   2.328 -1.2556  0.6594 -0.5935
 7857TIP3    H223529   7.272   5.353   2.226  1.2712 -1.4391  0.6767
 7858TIP3   OH223530   6.327   5.055   3.940  0.5438 -0.0519 -0.0997
 7858TIP3    H123531   6.265   5.038   4.010  0.8599  1.7905  0.6524
 7858TIP3    H223532   6.400   4.995   3.956  0.2445 -0.1973  0.6873
 7859TIP3   OH223533   3.470   5.791   1.699 -0.2227  0.0022  0.2027
 7859TIP3    H123534   3.514   5.709   1.721 -0.8750 -0.5797 -0.6054
 7859TIP3    H223535   3.498   5.811   1.610  2.0584  2.1068  1.3191
 7860TIP3   OH223536   4.720   3.347   3.895 -0.3558  0.3376 -0.2730
 7860TIP3    H123537   4.780   3.397   3.840  0.2778 -1.2110 -1.0248
 7860TIP3    H223538   4.714   3.397   3.976  1.8094  0.5895 -0.2586
 7861TIP3   OH223539   4.267   4.384   5.114  0.0183  0.1683 -0.1110
 7861TIP3    H123540   4.261   4.444   5.189  1.4559  0.2059 -0.0181
 7861TIP3    H223541   4.219   4.429   5.044 -0.6179  0.5157  0.5388
 7862TIP3   OH223542   7.553   5.963   4.006  0.0977 -0.1795 -0.7793
 7862TIP3    H123543   7.584   5.876   4.033  0.8082  0.1225 -0.6164
 7862TIP3    H223544   7.481   5.945   3.946 -0.1903 -0.8810 -0.2322
 7863TIP3   OH223545   7.514   2.310   3.527 -0.3198 -0.1124 -0.3914
 7863TIP3    H123546   7.526   2.218   3.549  0.1249  0.3977  1.6465
 7863TIP3    H223547   7.541   2.317   3.436  0.7156 -1.8049 -0.2297
 7864TIP3   OH223548   7.548   5.905   2.984  0.0227 -0.5323 -0.2592
 7864TIP3    H123549   7.462   5.947   2.974  0.2868  0.0320 -0.1604
 7864TIP3    H223550   7.529   5.825   3.034 -0.3039  0.1305  0.6969
 7865TIP3   OH223551   0.394   6.148   3.939 -0.0322 -0.2017 -0.3646
 7865TIP3    H123552   0.343   6.194   3.872  0.2523  0.0285 -0.4240
 7865TIP3    H223553   0.467   6.207   3.959 -0.0605 -0.3144  0.0764
 7866TIP3   OH223554   7.195   5.158   4.539 -0.0212  0.0875 -0.2961
 7866TIP3    H123555   7.258   5.147   4.468 -0.7007 -0.7841 -0.7880
 7866TIP3    H223556   7.190   5.252   4.554  0.1671  0.2709 -1.3744
 7867TIP3   OH223557   7.021   5.466   4.257  0.0426  0.0073  0.4899
 7867TIP3    H123558   6.977   5.381   4.250 -1.6702  0.5382  3.5341
 7867TIP3    H223559   6.985   5.518   4.185 -0.3277 -1.2589 -0.2453
 7868TIP3   OH223560   7.981   4.880   1.204 -0.1864 -0.1130  0.1700
 7868TIP3    H123561   7.894   4.849   1.178  1.0342 -2.1751 -1.5519
 7868TIP3    H223562   7.985   4.863   1.298 -1.8318  0.4964  0.3724
 7869TIP3   OH223563   0.052   6.502   3.541 -0.1664  0.2488 -0.4574
 7869TIP3    H123564  -0.023   6.483   3.597  0.8871 -1.2301  0.4858
 7869TIP3    H223565   0.048   6.597   3.527 -2.1360  0.2058 -0.3358
 7870TIP3   OH223566   8.300   4.810   3.127 -0.1286  0.1653 -0.2377
 7870TIP3    H123567   8.352   4.741   3.168 -0.3619  0.9064  1.3095
 7870TIP3    H223568   8.356   4.841   3.055  0.8595 -0.2148  0.3518
 7871TIP3   OH223569   7.700   3.514   2.155 -0.2021  0.0818  0.5678
 7871TIP3    H123570   7.651   3.594   2.176 -1.9035 -0.7740 -0.0601
 7871TIP3    H223571   7.784   3.546   2.123 -0.6192  1.6046  0.9179
 7872TIP3   OH223572   0.374   3.417   4.157  0.1403  0.0366  0.2179
 7872TIP3    H123573   0.429   3.432   4.234 -0.4077 -2.5315  1.1390
 7872TIP3    H223574   0.289   3.394   4.193 -1.1764  2.4979 -1.2104
 7873TIP3   OH223575   7.396   7.064   3.653 -0.4227 -0.3826  0.6488
 7873TIP3    H123576   7.484   7.061   3.689  0.6300  1.9848 -1.6060
 7873TIP3    H223577   7.386   6.981   3.606  0.7001 -0.5658  0.7244
 7874TIP3   OH223578   5.823   5.153   4.627  0.3582 -0.4727  0.0853
 7874TIP3    H123579   5.911   5.127   4.601 -0.0305 -0.1582 -1.6156
 7874TIP3    H223580   5.765   5.104   4.567 -0.4622  2.5642 -1.7262
 7875TIP3   OH223581   8.014   4.299   3.438  0.2365  0.0904  0.4342
 7875TIP3    H123582   7.975   4.307   3.351  1.0127 -2.0828 -0.1345
 7875TIP3    H223583   7.944   4.325   3.498 -1.1657 -1.0077 -0.7122
 7876TIP3   OH223584   6.437   6.836   5.172  0.0606 -0.1439 -0.5044
 7876TIP3    H123585   6.410   6.858   5.261  0.9771  0.2760 -0.3278
 7876TIP3    H223586   6.438   6.740   5.171  0.4392 -0.1472  0.0555
 7877TIP3   OH223587   6.795   3.682   3.250  0.1522 -0.3943  0.0618
 7877TIP3    H123588   6.810   3.725   3.166  0.1204 -1.0024 -0.2564
 7877TIP3    H223589   6.853   3.728   3.311 -0.1655  0.3438 -0.1974
 7878TIP3   OH223590   7.414   4.945   2.554 -0.5086  0.6700 -0.6776
 7878TIP3    H123591   7.454   4.929   2.640 -2.6418 -0.3635  0.1383
 7878TIP3    H223592   7.424   5.040   2.541  0.2230  0.7651  0.5039
 7879TIP3   OH223593   7.055   5.076   1.667  0.7139  0.1184  0.2399
 7879TIP3    H123594   7.140   5.106   1.699  1.1319 -1.0422  0.2396
 7879TIP3    H223595   7.005   5.058   1.747  0.8587 -0.2891  0.2377
 7880TIP3   OH223596   8.293   5.855   3.665  0.5694 -0.2046 -0.3065
 7880TIP3    H123597   8.223   5.849   3.730  0.7766  0.3138 -0.0339
 7880TIP3    H223598   8.261   5.919   3.601  0.5130 -0.4563 -0.5272
 7881TIP3   OH223599   7.122   5.518   5.127 -0.5416 -0.5417  0.3317
 7881TIP3    H123600   7.160   5.483   5.208 -2.4316 -0.6593  1.1939
 7881TIP3    H223601   7.165   5.603   5.115  0.0316 -0.6949  1.2400
 7882TIP3   OH223602   6.629   4.335   3.759  0.8556  0.4388  0.3996
 7882TIP3    H123603   6.595   4.269   3.699  1.1498 -0.0583  0.7777
 7882TIP3    H223604   6.631   4.291   3.844  1.2174  0.8773  0.6175
 7883TIP3   OH223605   7.508   4.527   2.455 -0.0683  0.2634  0.2911
 7883TIP3    H123606   7.533   4.519   2.363  0.1374  0.2608  0.3455
 7883TIP3    H223607   7.419   4.561   2.454 -0.0436  0.3191  0.0921
 7884TIP3   OH223608   8.266   3.921   1.075  0.5604  0.1035 -0.4066
 7884TIP3    H123609   8.244   3.831   1.099 -0.1913  0.4149  0.0983
 7884TIP3    H223610   8.343   3.913   1.019  0.5749 -0.8445 -0.2573
 7885TIP3   OH223611   1.234   4.006   2.848  0.0737 -0.0937 -0.2517
 7885TIP3    H123612   1.270   3.994   2.760 -0.8875 -0.3602 -0.6233
 7885TIP3    H223613   1.276   3.939   2.902 -0.8267 -1.2704 -0.9730
 7886TIP3   OH223614   8.355   3.618   2.877 -0.7906  0.0780 -0.1498
 7886TIP3    H123615   8.401   3.684   2.929 -1.4008  0.4885 -0.1226
 7886TIP3    H223616   8.406   3.538   2.888  1.3231  1.1072 -2.1056
 7887TIP3   OH223617   8.263   7.743   2.275  0.1979  0.6791 -0.0266
 7887TIP3    H123618   8.184   7.712   2.319  0.0350  1.6580  0.3652
 7887TIP3    H223619   8.320   7.666   2.274 -0.0997  0.4215  1.1985
 7888TIP3   OH223620   6.072   4.102   2.756 -0.1335 -0.3202  0.2782
 7888TIP3    H123621   5.980   4.094   2.781 -0.1613 -0.4936  0.1167
 7888TIP3    H223622   6.078   4.059   2.671  0.3820 -1.5950  0.9417
 7889TIP3   OH223623   5.544   4.751   3.490 -0.0580 -0.1869  0.8469
 7889TIP3    H123624   5.475   4.706   3.441 -0.8358 -0.8693  2.5120
 7889TIP3    H223625   5.626   4.715   3.455 -0.5788 -0.3440 -0.2279
 7890TIP3   OH223626   7.602   4.994   3.172  0.7483 -0.1449  0.0982
 7890TIP3    H123627   7.676   4.993   3.111  1.3439  0.7937  0.7806
 7890TIP3    H223628   7.633   5.046   3.247  0.0658 -1.3436  1.2410
 7891TIP3   OH223629   0.568   5.953   4.236  0.3124 -0.2082 -0.0158
 7891TIP3    H123630   0.559   5.864   4.271 -0.4616 -0.0033  0.3121
 7891TIP3    H223631   0.506   5.957   4.164 -1.9029  1.0309  1.8988
 7892TIP3   OH223632   6.330   3.889   4.839  0.5942 -0.3870  0.1647
 7892TIP3    H123633   6.361   3.974   4.807 -0.1269  0.1248  0.7851
 7892TIP3    H223634   6.311   3.904   4.932  2.3235 -1.7568  0.7652
 7893TIP3   OH223635   7.213   3.814   5.624  0.3002  0.6734 -0.1249
 7893TIP3    H123636   7.261   3.752   5.678 -0.0786 -1.1360 -1.8356
 7893TIP3    H223637   7.193   3.886   5.684  2.3521  0.0280  1.4193
 7894TIP3   OH223638   7.810   4.996   2.998  0.2694 -0.0483 -0.0047
 7894TIP3    H123639   7.883   5.037   3.045  0.5078  0.3697 -0.7207
 7894TIP3    H223640   7.849   4.967   2.915 -0.3750  0.1686 -0.3855
 7895TIP3   OH223641   6.302   5.580   4.917 -0.9915 -0.6770  0.1993
 7895TIP3    H123642   6.385   5.625   4.935  0.7953 -3.2790 -1.1829
 7895TIP3    H223643   6.238   5.650   4.908  1.2479  1.4566  0.3451
 7896TIP3   OH223644   5.460   3.911   3.359  0.2497  0.5324  0.1640
 7896TIP3    H123645   5.542   3.949   3.391 -0.1346  0.9867  0.6054
 7896TIP3    H223646   5.411   3.985   3.323 -0.8905  0.6204  1.8465
 7897TIP3   OH223647   6.720   4.678   4.821 -0.6597 -0.6068  0.2222
 7897TIP3    H123648   6.693   4.588   4.808 -0.8102 -0.3831 -1.0189
 7897TIP3    H223649   6.814   4.678   4.808 -0.4228 -0.8598  1.7741
 7898TIP3   OH223650   5.872   5.192   5.459  0.1618 -0.0791  0.6252
 7898TIP3    H123651   5.932   5.139   5.407  0.6741  0.9708  0.1357
 7898TIP3    H223652   5.928   5.254   5.505 -0.3676 -0.4231  1.7532
 7899TIP3   OH223653   6.587   6.136   2.771  0.1266 -0.0733 -0.6579
 7899TIP3    H123654   6.522   6.079   2.812  1.4065 -1.1031 -0.0275
 7899TIP3    H223655   6.568   6.131   2.678 -0.1202 -1.0989 -0.5596
 7900TIP3   OH223656   5.940   4.608   4.169  0.6135 -0.3619  0.0070
 7900TIP3    H123657   5.978   4.673   4.227  0.6892 -0.4737  0.0824
 7900TIP3    H223658   5.992   4.614   4.089 -0.8320  1.2767 -0.8434
 7901TIP3   OH223659   6.520   7.003   3.875  0.0081  0.3197  0.1411
 7901TIP3    H123660   6.446   6.946   3.896  1.3678 -1.8263 -0.7409
 7901TIP3    H223661   6.511   7.020   3.782  0.0349  0.9613  0.2535
 7902TIP3   OH223662   5.647   5.595   2.379 -0.1196 -0.1715 -0.2218
 7902TIP3    H123663   5.691   5.655   2.318 -0.1397 -0.1165 -0.1823
 7902TIP3    H223664   5.652   5.639   2.464  1.4872 -1.0637  0.1727
 7903TIP3   OH223665   0.777   4.358   1.559 -0.1235  0.3299 -0.4058
 7903TIP3    H123666   0.766   4.452   1.571  1.1420  0.3223  0.9391
 7903TIP3    H223667   0.765   4.343   1.465 -1.7756  1.6252 -0.4134
 7904TIP3   OH223668   8.090   6.163   1.883 -0.6918 -0.1891  0.5215
 7904TIP3    H123669   8.114   6.082   1.839 -1.5289  0.0075 -0.3191
 7904TIP3    H223670   8.134   6.232   1.832  0.6732 -0.1646  1.7106
 7905TIP3   OH223671   6.579   6.974   1.538 -0.1929  0.8848 -0.1554
 7905TIP3    H123672   6.594   6.912   1.466 -0.0066  1.5971 -0.7340
 7905TIP3    H223673   6.640   6.946   1.606 -0.1873  0.3579 -0.3713
 7906TIP3   OH223674   0.563   2.923   3.781  0.4761  0.4637  0.4483
 7906TIP3    H123675   0.626   2.993   3.800  1.3312 -0.7959  2.3174
 7906TIP3    H223676   0.519   2.907   3.864 -0.4758 -0.4927 -0.2323
 7907TIP3   OH223677   0.809   2.713   4.041  0.5226 -0.1880  0.5602
 7907TIP3    H123678   0.757   2.714   3.960  0.5791  0.5333  0.5277
 7907TIP3    H223679   0.779   2.790   4.089  2.8035  1.2717 -0.2570
 7908TIP3   OH223680   0.007   2.314   5.142  0.2303  0.3559  0.0321
 7908TIP3    H123681   0.075   2.250   5.123  1.0845  1.2354  0.1179
 7908TIP3    H223682   0.023   2.340   5.233 -1.0470 -0.4299  0.5050
 7909TIP3   OH223683   7.109   5.715   4.756  0.3267  0.3586 -0.2244
 7909TIP3    H123684   7.028   5.670   4.781  0.8979  0.1578  1.2823
 7909TIP3    H223685   7.082   5.805   4.740 -0.2644  0.2005 -0.1441
 7910TIP3   OH223686   5.625   3.338   2.676  0.1778 -0.4166  0.0129
 7910TIP3    H123687   5.606   3.424   2.637 -1.5566 -0.4187  0.8040
 7910TIP3    H223688   5.624   3.277   2.603  0.4417  0.0944 -0.4202
 7911TIP3   OH223689   0.033   5.004   1.267 -0.1898 -0.5708 -0.1895
 7911TIP3    H123690  -0.042   5.026   1.213 -0.8991 -1.4897  0.4054
 7911TIP3    H223691   0.083   4.941   1.214  0.2035  0.0876 -0.6093
 7912TIP3   OH223692   6.321   5.447   3.055  0.1683  0.4194 -0.6923
 7912TIP3    H123693   6.388   5.437   3.122 -0.7973  1.6940  0.5003
 7912TIP3    H223694   6.238   5.439   3.102 -0.5266  1.1721 -1.7598
 7913TIP3   OH223695   0.346   5.554   0.762 -0.2130  0.0071  0.0928
 7913TIP3    H123696   0.416   5.529   0.823 -0.6631  1.0649  1.0658
 7913TIP3    H223697   0.387   5.616   0.702 -0.6499  1.7935  1.5821
 7914TIP3   OH223698   2.232   2.928   6.155 -0.2827 -0.4801  0.0128
 7914TIP3    H123699   2.183   3.005   6.184 -0.1644 -0.5604  0.4270
 7914TIP3    H223700   2.302   2.964   6.100  0.5255 -0.1817  1.2072
 7915TIP3   OH223701   0.549   4.675   4.191 -0.2990  0.6289  0.1839
 7915TIP3    H123702   0.554   4.770   4.183 -0.2123  0.9574  3.3586
 7915TIP3    H223703   0.459   4.658   4.221 -0.7321 -0.4129 -1.6585
 7916TIP3   OH223704   0.368   4.698   3.296  0.1204 -0.2425 -0.3950
 7916TIP3    H123705   0.323   4.616   3.275  0.8245 -0.3836 -1.3868
 7916TIP3    H223706   0.298   4.761   3.310 -0.3978 -0.6600 -1.0868
 7917TIP3   OH223707   6.247   3.213   3.878  0.0791 -0.1515  0.2494
 7917TIP3    H123708   6.205   3.230   3.963  2.1955  0.2551  1.2602
 7917TIP3    H223709   6.266   3.119   3.880  1.1331  0.0646  0.7177
 7918TIP3   OH223710   6.591   2.688   4.524  0.2267 -0.5491  0.3096
 7918TIP3    H123711   6.511   2.739   4.534  0.9719  0.8469 -0.7145
 7918TIP3    H223712   6.623   2.676   4.614  1.2743  2.7975  0.4456
 7919TIP3   OH223713   6.867   4.505   2.399 -0.1240 -0.0223 -0.7000
 7919TIP3    H123714   6.818   4.452   2.462  1.5743 -0.8697 -0.0548
 7919TIP3    H223715   6.800   4.538   2.338 -2.0780  2.2085  2.4546
 7920TIP3   OH223716   2.503   4.929   4.797  0.2579  0.1160 -0.4575
 7920TIP3    H123717   2.485   4.885   4.880  1.4136  0.8507  0.1927
 7920TIP3    H223718   2.416   4.944   4.759 -0.1914 -1.7580 -0.2010
 7921TIP3   OH223719   4.742   6.085   4.833  0.2119 -0.3491  0.2454
 7921TIP3    H123720   4.824   6.119   4.868  0.4684 -1.6638  0.9259
 7921TIP3    H223721   4.754   5.991   4.829 -1.1042 -0.5174 -0.0947
 7922TIP3   OH223722   8.458   2.515   4.527  0.1647 -0.1623  0.0163
 7922TIP3    H123723   8.469   2.472   4.612  1.8199  0.7091  0.2523
 7922TIP3    H223724   8.422   2.446   4.471  0.9838 -1.3294  0.8866
 7923TIP3   OH223725   0.458   4.308   2.279  0.5940  0.5218 -0.4311
 7923TIP3    H123726   0.492   4.296   2.190  1.7141 -0.7927  0.1525
 7923TIP3    H223727   0.504   4.385   2.312 -0.7984  1.8112 -1.4327
 7924TIP3   OH223728   8.347   3.655   2.169  0.2595 -0.1983 -0.2721
 7924TIP3    H123729   8.294   3.631   2.093 -0.1433  0.3876 -0.1768
 7924TIP3    H223730   8.330   3.748   2.182  1.8150  0.1462 -0.6353
 7925TIP3   OH223731   2.934   0.036   4.328 -0.0819  0.0918  0.3693
 7925TIP3    H123732   2.963   0.072   4.412 -0.7063 -0.6015  0.8816
 7925TIP3    H223733   2.908  -0.054   4.347 -2.6601  0.7050 -0.0549
 7926TIP3   OH223734   5.760   3.681   4.859 -0.0945 -0.3536  0.1683
 7926TIP3    H123735   5.843   3.693   4.905  0.0279 -1.8905  0.3698
 7926TIP3    H223736   5.739   3.767   4.824  1.1355  0.2413  0.8805
 7927TIP3   OH223737   7.588   5.537   3.438  0.1158 -0.2976 -0.3386
 7927TIP3    H123738   7.587   5.528   3.533  1.1038 -2.1934 -0.4849
 7927TIP3    H223739   7.589   5.632   3.423 -0.8870  0.0357  1.5043
 7928TIP3   OH223740   5.996   4.778   3.829  0.7848 -0.0630 -0.0826
 7928TIP3    H123741   5.992   4.682   3.829  0.7029 -0.0720 -1.5240
 7928TIP3    H223742   5.911   4.805   3.862 -0.3846 -0.4897 -2.5957
 7929TIP3   OH223743   7.007   6.974   1.885  0.4082 -0.8595  0.1467
 7929TIP3    H123744   7.014   6.881   1.904 -1.7008 -0.7050  1.9565
 7929TIP3    H223745   7.050   7.017   1.959  0.6564 -0.3950 -0.2661
 7930TIP3   OH223746   7.904   4.124   1.695 -0.2652 -0.1363 -0.0385
 7930TIP3    H123747   7.836   4.062   1.719 -1.5120  1.4544  0.6063
 7930TIP3    H223748   7.867   4.210   1.714  1.1403  0.8687 -1.6075
 7931TIP3   OH223749   3.128   0.745   2.916 -0.1272 -0.2497  0.7157
 7931TIP3    H123750   3.108   0.684   2.845  2.5537 -1.1174  0.6872
 7931TIP3    H223751   3.166   0.691   2.985  2.1578  1.3453  0.7513
 7932TIP3   OH223752   1.423   6.751   0.931 -0.0318 -0.0053  0.1565
 7932TIP3    H123753   1.466   6.833   0.953  0.7287 -0.6537  1.1228
 7932TIP3    H223754   1.492   6.697   0.893 -0.3655 -0.4591  0.1838
 7933TIP3   OH223755   6.216   5.881   4.076  0.2740 -0.3437 -0.4147
 7933TIP3    H123756   6.183   5.814   4.135 -1.4395 -0.0682 -1.0355
 7933TIP3    H223757   6.138   5.929   4.047  1.3519  1.1601 -0.9002
 7934TIP3   OH223758   6.420   2.411   6.205 -0.5013  0.1076  0.3664
 7934TIP3    H123759   6.504   2.402   6.161 -1.7744  1.2237 -2.3568
 7934TIP3    H223760   6.439   2.461   6.284  1.4248  0.1325 -0.1084
 7935TIP3   OH223761   6.944   5.939   3.522  0.2504  0.3084  0.1491
 7935TIP3    H123762   6.901   5.996   3.586  1.2484  1.0922  0.1426
 7935TIP3    H223763   6.877   5.922   3.456 -0.0181  1.6272  0.0637
 7936TIP3   OH223764   6.427   5.904   4.253  0.5317  0.5766 -0.1411
 7936TIP3    H123765   6.365   5.881   4.184  0.2142 -0.7640  0.5770
 7936TIP3    H223766   6.435   5.999   4.247 -0.4601  0.6028 -1.2006
 7937TIP3   OH223767   5.704   5.928   5.395 -0.1422  0.5203 -0.0220
 7937TIP3    H123768   5.639   5.968   5.337 -1.3540  3.1582  2.9972
 7937TIP3    H223769   5.784   5.978   5.379  0.8160 -1.8250 -2.7472
 7938TIP3   OH223770   0.498   4.961   4.000  0.1338  0.0715 -0.3634
 7938TIP3    H123771   0.474   5.016   3.926  1.0595 -0.3735 -1.0005
 7938TIP3    H223772   0.433   4.891   3.999 -0.0603  0.2538 -0.5483
 7939TIP3   OH223773   7.074   5.180   4.163 -0.1145 -0.2760  0.2176
 7939TIP3    H123774   7.053   5.089   4.139  0.2230 -0.1481 -0.5654
 7939TIP3    H223775   7.040   5.232   4.091  0.7984  0.1231  0.0778
 7940TIP3   OH223776   0.067   6.775   3.397 -0.1659  0.3098  0.4599
 7940TIP3    H123777   0.083   6.852   3.342 -2.1894  1.8972  2.0202
 7940TIP3    H223778  -0.023   6.785   3.427  0.2496 -1.5484  2.4388
 7941TIP3   OH223779   7.667   4.269   2.464 -0.2907  0.2778 -0.5988
 7941TIP3    H123780   7.663   4.237   2.554  1.4807 -0.6678 -0.8286
 7941TIP3    H223781   7.596   4.333   2.458 -1.0233 -0.3335  1.1871
 7942TIP3   OH223782   7.747   3.768   3.152  0.0258  0.0881  0.0712
 7942TIP3    H123783   7.753   3.756   3.247  0.4034  1.5930  0.2456
 7942TIP3    H223784   7.837   3.788   3.125 -0.0355 -0.5682 -0.6459
 7943TIP3   OH223785   6.610   4.627   3.860 -0.3388  0.1788  0.5237
 7943TIP3    H123786   6.584   4.551   3.911  1.0274  0.7512  2.0972
 7943TIP3    H223787   6.706   4.630   3.868 -0.0741  0.2525 -2.1059
 7944TIP3   OH223788   7.318   4.090   1.708 -0.1480 -0.1381 -0.2973
 7944TIP3    H123789   7.237   4.131   1.739  0.5631  1.7122 -0.8346
 7944TIP3    H223790   7.303   4.077   1.614 -0.1967 -0.6983 -0.2123
 7945TIP3   OH223791   7.691   6.208   3.632 -0.3395  0.1191  0.4584
 7945TIP3    H123792   7.639   6.282   3.600 -1.0491 -0.4183  0.3648
 7945TIP3    H223793   7.775   6.215   3.585 -1.1410 -0.2902 -1.0535
 7946TIP3   OH223794   5.432   6.335   4.657 -0.1364 -0.6876 -0.1053
 7946TIP3    H123795   5.448   6.341   4.562  0.8583 -1.3304  0.0065
 7946TIP3    H223796   5.456   6.421   4.691  0.6049 -0.8170 -0.2936
 7947TIP3   OH223797   7.436   3.174   1.291 -0.1164  0.3143  0.4537
 7947TIP3    H123798   7.357   3.136   1.253  0.3180 -0.9753  0.8176
 7947TIP3    H223799   7.507   3.142   1.237  0.5067 -1.5657  2.3454
 7948TIP3   OH223800   0.643   5.203   3.505 -0.3458 -0.1402 -0.3951
 7948TIP3    H123801   0.573   5.218   3.442 -0.4134  0.3400 -0.2092
 7948TIP3    H223802   0.717   5.253   3.471  0.0148 -0.9253 -0.7715
 7949TIP3   OH223803   0.063   3.936   3.741  0.0570 -0.5853  0.1398
 7949TIP3    H123804   0.128   3.921   3.809  0.0969  3.0287  0.9790
 7949TIP3    H223805   0.114   3.962   3.664 -0.3473  3.2732  1.0919
 7950TIP3   OH223806   7.140   5.721   2.327  0.2059  0.3264  0.0052
 7950TIP3    H123807   7.047   5.699   2.327  0.8019 -2.3566 -0.1118
 7950TIP3    H223808   7.158   5.750   2.237 -0.1818 -0.6590 -0.3957
 7951TIP3   OH223809   1.531   7.269   2.873 -0.0368  0.5182  0.0403
 7951TIP3    H123810   1.488   7.350   2.900 -0.5217  0.2019  0.2313
 7951TIP3    H223811   1.577   7.239   2.952 -1.3211 -0.3213  0.4864
 7952TIP3   OH223812   6.173   3.548   0.950  0.3824 -0.4973 -0.2443
 7952TIP3    H123813   6.195   3.479   1.013  2.9764 -0.8715 -1.4956
 7952TIP3    H223814   6.248   3.606   0.950 -1.4102  1.9161  0.1353
 7953TIP3   OH223815   8.154   4.077   0.796 -0.0130 -0.4753 -0.4130
 7953TIP3    H123816   8.234   4.029   0.820  0.6752  0.7433 -0.2133
 7953TIP3    H223817   8.182   4.168   0.791 -1.2831 -0.1066 -0.8946
 7954TIP3   OH223818   6.598   2.796   4.018 -0.6215 -0.1152  0.8395
 7954TIP3    H123819   6.512   2.819   4.053 -0.2576 -0.3975  1.9374
 7954TIP3    H223820   6.585   2.711   3.975 -0.8729 -0.1855  1.0519
 7955TIP3   OH223821   7.912   4.525   4.859 -0.2363 -0.5501  0.2196
 7955TIP3    H123822   7.986   4.472   4.830 -0.1819 -1.7991  2.4405
 7955TIP3    H223823   7.946   4.614   4.864  1.1945 -1.1292  1.3546
 7956TIP3   OH223824   8.414   2.590   4.153  0.2235  0.1368 -0.2795
 7956TIP3    H123825   8.446   2.516   4.101  0.4753  1.4438 -2.0161
 7956TIP3    H223826   8.331   2.559   4.190  0.7935 -1.3412 -0.2117
 7957TIP3   OH223827   6.822   5.947   1.413  0.0773 -0.1964 -0.2107
 7957TIP3    H123828   6.806   5.881   1.346  1.5616 -0.4778 -0.2942
 7957TIP3    H223829   6.811   5.901   1.496 -0.1472 -0.2449 -0.2685
 7958TIP3   OH223830   6.853   3.033   1.494  0.3665 -0.9402  0.0501
 7958TIP3    H123831   6.760   3.038   1.518  0.1615 -1.2357 -0.6617
 7958TIP3    H223832   6.889   2.968   1.554  0.2970 -0.2173  0.8846
 7959TIP3   OH223833   7.912   4.677   3.457 -0.4064 -0.2168  0.2277
 7959TIP3    H123834   7.884   4.591   3.427 -1.0394  0.1815 -0.3290
 7959TIP3    H223835   7.929   4.727   3.377  2.0049 -0.4634  0.5345
 7960TIP3   OH223836   7.556   3.707   0.968  0.1536 -0.1797 -0.2235
 7960TIP3    H123837   7.612   3.784   0.966  1.8339 -1.3373  0.8191
 7960TIP3    H223838   7.579   3.663   1.050  0.0124 -2.3690 -1.3221
 7961TIP3   OH223839   6.549   4.904   3.906 -0.0632 -0.1224  0.2482
 7961TIP3    H123840   6.590   4.821   3.928  1.8440  0.5125 -0.8170
 7961TIP3    H223841   6.607   4.970   3.943 -1.0519  0.7810  0.2285
 7962TIP3   OH223842   6.239   3.993   3.649 -0.4361 -0.5447 -0.7531
 7962TIP3    H123843   6.175   3.940   3.696 -0.9225 -1.0510 -1.9578
 7962TIP3    H223844   6.298   3.929   3.608  1.4510 -0.0749  1.1435
 7963TIP3   OH223845   1.612   5.629   3.151 -0.2549 -0.3093 -0.3643
 7963TIP3    H123846   1.687   5.677   3.188  0.5042 -0.0886 -2.1402
 7963TIP3    H223847   1.564   5.695   3.100 -0.9606 -0.7328 -0.2551
 7964TIP3   OH223848   7.084   3.143   2.410 -0.3506  0.1220  0.3346
 7964TIP3    H123849   7.007   3.115   2.458 -0.2984  1.5822  1.2869
 7964TIP3    H223850   7.155   3.141   2.474  0.3754 -0.9418 -0.4648
 7965TIP3   OH223851   8.028   6.439   3.699 -0.1269  0.0983  0.2347
 7965TIP3    H123852   7.962   6.508   3.706  0.2567  0.4561  0.3447
 7965TIP3    H223853   7.990   6.376   3.638 -0.1619  0.7733 -0.4481
 7966TIP3   OH223854   7.289   5.493   4.334  0.3047  0.9078 -0.0164
 7966TIP3    H123855   7.194   5.485   4.327  0.2216  2.3994 -0.8257
 7966TIP3    H223856   7.305   5.520   4.424 -0.1179  1.7802 -0.2079
 7967TIP3   OH223857   7.515   3.772   3.819 -0.7091  0.1556  0.2871
 7967TIP3    H123858   7.453   3.709   3.853 -0.8595 -0.7188 -1.5663
 7967TIP3    H223859   7.465   3.853   3.810 -0.4900  0.6051  2.7455
 7968TIP3   OH223860   7.812   4.349   2.236  0.0283  0.5246 -0.6640
 7968TIP3    H123861   7.757   4.327   2.161 -0.8695  1.0294 -0.1620
 7968TIP3    H223862   7.764   4.317   2.312 -0.0996  1.9201 -0.1328
 7969TIP3   OH223863   6.285   5.209   2.342 -0.2730 -0.1749  0.1097
 7969TIP3    H123864   6.220   5.141   2.326 -2.2345  1.8706 -0.7234
 7969TIP3    H223865   6.353   5.193   2.276 -0.7391 -1.2541 -0.1188
 7970TIP3   OH223866   8.388   6.194   3.563 -0.2387 -0.8373 -0.3628
 7970TIP3    H123867   8.475   6.154   3.564 -0.0647 -0.4547  0.4891
 7970TIP3    H223868   8.401   6.280   3.603 -1.2345 -1.2889  0.9734
 7971TIP3   OH223869   6.889   4.079   1.375 -0.1239  0.3906 -0.3797
 7971TIP3    H123870   6.845   4.030   1.306 -1.0956  1.0432 -0.2461
 7971TIP3    H223871   6.903   4.166   1.337 -1.4759  1.0315  0.5220
 7972TIP3   OH223872   8.032   4.892   4.085  0.1389  0.3952 -0.8202
 7972TIP3    H123873   8.055   4.883   3.993 -0.9677  0.0084 -1.0711
 7972TIP3    H223874   7.937   4.881   4.087  0.3050 -0.9054  0.5417
 7973TIP3   OH223875   6.099   5.046   2.263 -0.1245  0.1289  0.4988
 7973TIP3    H123876   6.060   5.133   2.266 -0.1692  0.1905 -1.0797
 7973TIP3    H223877   6.092   5.020   2.171  0.0905 -1.4489  0.9084
 7974TIP3   OH223878   0.224   6.411   4.131 -0.2318 -0.1535  0.0460
 7974TIP3    H123879   0.181   6.454   4.205  1.0651 -0.9094  1.2834
 7974TIP3    H223880   0.257   6.483   4.077 -1.6149  0.4102 -0.0633
 7975TIP3   OH223881   6.513   3.472   2.266 -0.5307  0.1176 -0.2353
 7975TIP3    H123882   6.441   3.420   2.301  0.3661 -0.9788  0.0003
 7975TIP3    H223883   6.551   3.515   2.343  0.9972 -1.7399  0.0876
 7976TIP3   OH223884   6.922   5.034   5.333  0.0064  1.0446 -0.0171
 7976TIP3    H123885   6.941   5.117   5.377 -0.1399 -0.3230  2.7787
 7976TIP3    H223886   6.832   5.014   5.357 -0.0395  0.1909 -0.8820
 7977TIP3   OH223887   8.136   3.514   2.035  0.3733 -0.0921  0.7140
 7977TIP3    H123888   8.060   3.572   2.042 -0.5614 -0.7987 -2.9727
 7977TIP3    H223889   8.128   3.455   2.110 -2.9855 -0.4569  0.1549
 7978TIP3   OH223890   7.837   6.180   1.825 -0.4395 -0.2824 -0.1997
 7978TIP3    H123891   7.791   6.176   1.908 -0.3253  1.9252  0.0032
 7978TIP3    H223892   7.929   6.164   1.847 -0.1133  2.2560  0.4183
 7979TIP3   OH223893   5.298   5.141   5.347 -0.0292 -0.1986 -0.0624
 7979TIP3    H123894   5.253   5.179   5.272  1.0318  0.8283 -0.1715
 7979TIP3    H223895   5.234   5.148   5.419 -1.7134 -2.7356 -1.2129
 7980TIP3   OH223896   7.273   5.629   4.077  0.4551 -0.1367 -0.1678
 7980TIP3    H123897   7.347   5.571   4.091  0.8268  0.1880 -0.7682
 7980TIP3    H223898   7.256   5.668   4.163 -0.1758 -1.5653  0.3708
 7981TIP3   OH223899   7.659   6.274   4.671 -0.3882  0.1503  0.0552
 7981TIP3    H123900   7.651   6.265   4.765 -0.2520  1.0365  0.1562
 7981TIP3    H223901   7.742   6.232   4.650 -0.8724 -0.8881  0.2019
 7982TIP3   OH223902   7.298   3.731   1.738 -0.1562  0.4488  0.6448
 7982TIP3    H123903   7.273   3.740   1.830  1.4157  1.7726  0.9578
 7982TIP3    H223904   7.393   3.743   1.738  0.0162 -0.7483 -1.0050
 7983TIP3   OH223905   1.297   5.211   4.573 -0.0673  0.0699  0.1417
 7983TIP3    H123906   1.241   5.282   4.540 -0.9999 -0.8027 -0.1619
 7983TIP3    H223907   1.384   5.250   4.575 -0.5007  1.1150 -0.3955
 7984TIP3   OH223908   0.806   5.926   5.652  0.1785 -0.3210 -0.4435
 7984TIP3    H123909   0.841   5.858   5.595 -1.4860  0.2179 -2.1648
 7984TIP3    H223910   0.719   5.894   5.677 -0.1274  0.6219 -0.2934
 7985TIP3   OH223911   7.683   3.968   4.657  0.0917 -0.1451 -0.5301
 7985TIP3    H123912   7.604   4.023   4.655 -0.3743 -0.7406  1.1830
 7985TIP3    H223913   7.752   4.027   4.688 -0.2585 -0.3102  0.5985
 7986TIP3   OH223914   5.580   7.190   4.412  0.0260 -0.2698 -0.0589
 7986TIP3    H123915   5.608   7.182   4.503  0.8609  1.3086 -0.1565
 7986TIP3    H223916   5.515   7.260   4.414  0.0585 -0.2221 -0.6792
 7987TIP3   OH223917   0.480   3.361   4.411  0.6876  1.0714 -0.3826
 7987TIP3    H123918   0.462   3.449   4.444  1.8207  0.8439  0.8748
 7987TIP3    H223919   0.472   3.305   4.488  1.6522  0.2964 -0.8413
 7988TIP3   OH223920   0.212   4.189   3.987  0.2481  0.0302 -0.7051
 7988TIP3    H123921   0.185   4.238   3.909  2.3398 -0.5933 -1.8782
 7988TIP3    H223922   0.241   4.257   4.049 -2.3218  0.5873 -0.0684
 7989TIP3   OH223923   6.170   3.622   3.892  0.2210 -0.2112 -0.3560
 7989TIP3    H123924   6.195   3.557   3.827  1.6905  1.4552 -1.5233
 7989TIP3    H223925   6.132   3.693   3.840  3.0951  1.9536  0.3742
 7990TIP3   OH223926   7.491   7.503   3.308  0.0886 -0.0081 -0.6823
 7990TIP3    H123927   7.570   7.470   3.352 -0.7533 -0.5760  0.4028
 7990TIP3    H223928   7.504   7.598   3.304  0.7336 -0.0771 -0.3384
 7991TIP3   OH223929   0.371   4.869   6.770 -0.1294  0.3729  0.1763
 7991TIP3    H123930   0.411   4.788   6.738  2.6455  1.9348 -0.5282
 7991TIP3    H223931   0.322   4.902   6.695 -0.2872 -0.0458  0.0925
 7992TIP3   OH223932   5.023   2.257   0.092  0.3860 -0.2880  0.5918
 7992TIP3    H123933   5.066   2.191   0.038 -0.5629 -1.0080  0.7063
 7992TIP3    H223934   5.054   2.341   0.057 -0.0279 -0.7486 -0.9085
 7993TIP3   OH223935   7.461   5.352   6.206 -0.7460  0.0388 -0.0245
 7993TIP3    H123936   7.510   5.374   6.285 -0.0351 -0.5843 -0.2865
 7993TIP3    H223937   7.526   5.311   6.148 -1.5335 -0.6137 -0.4531
 7994TIP3   OH223938   0.893   3.957   3.602 -0.3537  0.0626 -0.2873
 7994TIP3    H123939   0.920   4.049   3.609  0.3283 -0.2676  1.6021
 7994TIP3    H223940   0.803   3.956   3.636  0.5103 -0.3562  2.1048
 7995TIP3   OH223941   1.070   4.895   4.674  0.5734 -0.3148 -0.2485
 7995TIP3    H123942   0.992   4.947   4.692 -0.1601 -1.9949  1.4557
 7995TIP3    H223943   1.037   4.815   4.634  1.4897 -0.7630 -0.1067
 7996TIP3   OH223944   6.590   3.329   4.029 -0.2699 -0.2047  0.0886
 7996TIP3    H123945   6.631   3.308   3.945 -2.1906 -0.8603 -0.7284
 7996TIP3    H223946   6.527   3.398   4.008 -0.4657 -0.0794  1.0763
 7997TIP3   OH223947   6.771   5.904   2.825  0.0327 -0.0425  0.1543
 7997TIP3    H123948   6.772   5.892   2.730 -1.2596  0.0632  0.1149
 7997TIP3    H223949   6.699   5.965   2.841 -0.1027 -0.4679  1.2397
 7998TIP3   OH223950   6.605   6.166   3.874 -0.0771 -0.4148  0.1045
 7998TIP3    H123951   6.563   6.079   3.878 -0.2237 -0.2921  1.5008
 7998TIP3    H223952   6.685   6.151   3.823 -0.4076 -1.2417 -0.1924
 7999TIP3   OH223953   6.308   4.132   6.035  0.0518 -0.4489 -0.2881
 7999TIP3    H123954   6.277   4.162   5.950  0.6720 -2.8072 -1.3943
 7999TIP3    H223955   6.248   4.062   6.060  1.3113 -1.4420  0.0328
 8000TIP3   OH223956   6.416   4.226   1.795 -0.0627 -0.2920  0.4690
 8000TIP3    H123957   6.503   4.266   1.784  0.6195 -1.4429  1.5978
 8000TIP3    H223958   6.373   4.281   1.861 -0.4396  0.6560 -0.5526
 8001TIP3   OH223959   0.543   6.979   3.737  0.6107 -0.2338  0.9185
 8001TIP3    H123960   0.555   7.074   3.738  0.9807 -0.2650 -0.0202
 8001TIP3    H223961   0.449   6.966   3.746  0.5566  0.2216  1.0128
 8002TIP3   OH223962   7.447   7.197   2.563 -0.5112 -0.0050  0.0713
 8002TIP3    H123963   7.360   7.194   2.602 -0.7325  2.2859 -0.1884
 8002TIP3    H223964   7.494   7.263   2.613  0.7383 -0.4601 -0.4756
 8003TIP3   OH223965   1.047   6.182   5.188 -0.5041 -0.2081  0.1423
 8003TIP3    H123966   1.054   6.087   5.201  1.2087 -0.2650 -1.0712
 8003TIP3    H223967   1.107   6.220   5.252  0.4730 -0.0611 -0.8397
 8004TIP3   OH223968   7.815   4.194   2.968 -0.0050 -0.0461 -0.3501
 8004TIP3    H123969   7.858   4.167   2.887  0.9170 -0.3818  0.2472
 8004TIP3    H223970   7.725   4.215   2.941 -0.0293 -1.2351 -1.2667
 8005TIP3   OH223971   7.281   4.914   2.978 -0.4934  0.1672  0.1913
 8005TIP3    H123972   7.207   4.945   2.926 -0.7486  0.4018  0.6858
 8005TIP3    H223973   7.355   4.911   2.916 -0.2404  2.6185  0.3044
 8006TIP3   OH223974   6.784   3.905   6.245  0.0791 -0.1027 -0.0748
 8006TIP3    H123975   6.691   3.906   6.265 -0.0431 -3.1622 -0.2192
 8006TIP3    H223976   6.818   3.828   6.292  2.5195  0.8945 -0.1087
 8007TIP3   OH223977   0.259   6.314   3.753  0.2457  0.4610  0.3472
 8007TIP3    H123978   0.232   6.315   3.661 -4.0212  2.3788  1.4884
 8007TIP3    H223979   0.321   6.386   3.762 -0.7423  1.4424 -0.6672
 8008TIP3   OH223980   7.050   4.107   5.055 -0.5625 -0.3368 -0.2432
 8008TIP3    H123981   7.071   4.014   5.062  1.7794  0.0089 -2.1075
 8008TIP3    H223982   7.097   4.148   5.128 -0.4857 -0.4371 -0.2364
 8009TIP3   OH223983   5.746   4.962   1.834  0.0389  0.6380  0.2769
 8009TIP3    H123984   5.802   5.029   1.874 -0.4394 -0.6228  3.2069
 8009TIP3    H223985   5.799   4.882   1.837 -0.2633  0.3702 -1.0895
 8010TIP3   OH223986   8.094   5.703   1.311  0.0266  0.0288  0.1129
 8010TIP3    H123987   8.185   5.708   1.282  0.4005  0.2214  1.3241
 8010TIP3    H223988   8.084   5.615   1.346  0.5334  0.9144  2.5699
 8011TIP3   OH223989   7.203   4.953   5.343 -0.2861 -0.3905 -0.3380
 8011TIP3    H123990   7.202   4.870   5.295  0.8369  0.1995 -1.4241
 8011TIP3    H223991   7.111   4.977   5.352 -0.5353 -0.7741 -1.7613
 8012TIP3   OH223992   5.959   5.044   3.974  0.3212  0.6005 -0.1383
 8012TIP3    H123993   5.927   4.960   4.008  0.7405 -0.0396 -1.2978
 8012TIP3    H223994   5.977   5.027   3.881  2.8547  1.2670  0.1934
 8013TIP3   OH223995   5.678   5.164   4.971  0.1879 -0.0138 -0.1290
 8013TIP3    H123996   5.683   5.259   4.979 -1.1335  0.0623 -0.1119
 8013TIP3    H223997   5.640   5.134   5.054 -1.3664 -0.3611 -0.9416
 8014TIP3   OH223998   5.901   4.984   4.995 -0.4186 -0.7579  0.1896
 8014TIP3    H123999   5.924   4.969   4.903 -2.3959 -0.8330 -0.3010
 8014TIP3    H224000   5.827   5.043   4.993 -0.8189 -1.1726  1.7334
 8015TIP3   OH224001   0.662   5.883   3.824 -0.0987  0.0721 -0.0876
 8015TIP3    H124002   0.600   5.822   3.863 -2.5539  1.1557 -2.1904
 8015TIP3    H224003   0.647   5.965   3.870 -0.2782  0.3694 -0.6832
 8016TIP3   OH224004   5.682   5.448   4.972  0.3111  0.2504  0.0311
 8016TIP3    H124005   5.777   5.456   4.981  0.3886  0.0206 -0.5443
 8016TIP3    H224006   5.659   5.509   4.902  0.0559  0.1839  0.0559
 8017TIP3   OH224007   5.116   4.783   3.581 -0.1394 -0.5793 -0.1390
 8017TIP3    H124008   5.079   4.865   3.615  0.9670 -0.3705  0.5982
 8017TIP3    H224009   5.131   4.799   3.488  1.7640  0.7171  0.3496
 8018TIP3   OH224010   7.711   7.258   4.354 -0.1212  0.1529 -0.1423
 8018TIP3    H124011   7.639   7.218   4.306 -0.0864 -0.3904  0.2569
 8018TIP3    H224012   7.688   7.248   4.446  0.6089 -0.2963 -0.0052
 8019TIP3   OH224013   7.650   6.237   3.330  0.4660  0.0633 -0.3220
 8019TIP3    H124014   7.615   6.262   3.245 -2.5075 -2.5234  0.0277
 8019TIP3    H224015   7.575   6.246   3.390  2.3037  1.1467  1.9228
 8020TIP3   OH224016   7.640   5.277   1.744 -0.1063 -0.3088  0.2587
 8020TIP3    H124017   7.701   5.211   1.712 -1.7998 -1.7216 -0.1029
 8020TIP3    H224018   7.650   5.275   1.839 -1.5056 -2.4213  0.3730
 8021TIP3   OH224019   6.370   3.288   1.978 -0.1545 -0.1131 -0.4231
 8021TIP3    H124020   6.415   3.217   2.023 -0.2153  0.9214  1.3422
 8021TIP3    H224021   6.436   3.355   1.966 -0.0001 -0.6092 -2.4454
 8022TIP3   OH224022   0.673   0.929   6.701  0.5570 -0.5772  0.1980
 8022TIP3    H124023   0.678   0.877   6.781  0.1716 -2.1853 -0.8185
 8022TIP3    H224024   0.761   0.925   6.664  0.1455 -1.7487 -0.6582
 8023TIP3   OH224025   0.190   0.014   4.174 -0.0763  0.1179 -0.1304
 8023TIP3    H124026   0.208  -0.014   4.264 -2.1699 -0.2949  0.1897
 8023TIP3    H224027   0.240   0.095   4.163  0.6942 -0.1631  1.1899
 8024TIP3   OH224028   6.290   5.944   4.700  0.5203  0.1349  0.1469
 8024TIP3    H124029   6.212   5.988   4.666  0.5213 -0.5597 -0.7612
 8024TIP3    H224030   6.259   5.894   4.775  0.1519  0.1128 -0.0183
 8025TIP3   OH224031   7.849   2.421   4.241 -0.2103 -0.5165 -0.0919
 8025TIP3    H124032   7.812   2.508   4.258  0.3772 -0.3823  0.5304
 8025TIP3    H224033   7.815   2.397   4.155  0.2094  0.6463 -0.5955
 8026TIP3   OH224034   7.491   3.031   2.742  0.4849 -0.2197 -0.0731
 8026TIP3    H124035   7.496   3.035   2.837 -2.1201 -2.1499  0.1928
 8026TIP3    H224036   7.525   2.944   2.720  2.0146  0.5830 -1.0277
 8027TIP3   OH224037   7.768   4.457   2.761  0.3889 -0.3903  0.0531
 8027TIP3    H124038   7.806   4.468   2.848  2.1680 -1.8638 -0.4829
 8027TIP3    H224039   7.700   4.391   2.772 -0.6706  0.7842  0.6516
 8028TIP3   OH224040   0.607   4.959   3.610 -0.0461  0.3564 -0.0659
 8028TIP3    H124041   0.619   5.038   3.556 -0.4542 -0.5360 -1.4909
 8028TIP3    H224042   0.610   4.887   3.548  1.5206 -0.8673  1.3796
 8029TIP3   OH224043   5.174   5.623   4.345 -0.6196 -0.0790  0.6528
 8029TIP3    H124044   5.170   5.580   4.431  0.3215  1.8706  1.7246
 8029TIP3    H224045   5.194   5.715   4.366  0.4131  0.2638 -1.6955
 8030TIP3   OH224046   1.079   2.767   1.891 -0.3122  0.4515  0.3777
 8030TIP3    H124047   1.055   2.859   1.881 -0.4397  0.5448  1.4902
 8030TIP3    H224048   1.159   2.757   1.840  0.2263  1.4012  1.0389
 8031TIP3   OH224049   7.896   4.593   1.900 -0.0004  0.3302  0.1693
 8031TIP3    H124050   7.889   4.612   1.993 -2.0915  0.0887  0.0782
 8031TIP3    H224051   7.958   4.659   1.866 -1.7383  2.5010  1.1192
 8032TIP3   OH224052   6.983   6.195   4.948 -0.5561 -0.2919  0.0128
 8032TIP3    H124053   6.910   6.140   4.920 -1.2411  0.2413  0.7389
 8032TIP3    H224054   6.998   6.254   4.875 -0.8998 -0.3525 -0.1075
 8033TIP3   OH224055   7.899   4.405   1.696 -0.2099  0.2721 -0.0852
 8033TIP3    H124056   7.908   4.435   1.787 -0.5353  0.9772 -0.2805
 8033TIP3    H224057   7.938   4.476   1.644  1.1125 -0.6986 -0.4269
 8034TIP3   OH224058   6.704   5.425   5.384 -0.6955  0.2020  0.4883
 8034TIP3    H124059   6.682   5.401   5.474  0.9333  1.8893  1.3721
 8034TIP3    H224060   6.789   5.384   5.367 -0.5155  0.7327  0.0726
 8035TIP3   OH224061   1.274   5.434   2.568  0.5200 -0.1700 -0.4053
 8035TIP3    H124062   1.360   5.407   2.537  0.5360  0.0934 -0.5881
 8035TIP3    H224063   1.247   5.503   2.508 -0.6726 -1.5879 -1.5311
 8036TIP3   OH224064   6.177   6.412   3.967  0.2058  0.3114 -0.0750
 8036TIP3    H124065   6.260   6.416   4.014  0.9332  1.8087 -1.4272
 8036TIP3    H224066   6.113   6.447   4.028  1.0418  1.6918  0.0294
 8037TIP3   OH224067   6.903   6.206   3.239  0.0033  0.2819  0.2013
 8037TIP3    H124068   6.967   6.143   3.207  1.3658  1.0700  1.3271
 8037TIP3    H224069   6.838   6.153   3.284  0.9745 -0.3538  0.8771
 8038TIP3   OH224070   4.834   1.330   3.687  0.3472 -0.0214  0.0220
 8038TIP3    H124071   4.879   1.273   3.749 -1.2580  0.5609  1.7871
 8038TIP3    H224072   4.884   1.412   3.690  1.6102 -0.7332 -1.1851
 8039TIP3   OH224073   0.348   7.741   5.326  0.2472  0.0432  0.6012
 8039TIP3    H124074   0.368   7.777   5.239 -1.9903 -0.9305 -0.3542
 8039TIP3    H224075   0.403   7.664   5.333  0.5146  0.1825  0.0714
 8040TIP3   OH224076   7.944   6.302   3.449  0.3530 -0.0742  0.1398
 8040TIP3    H124077   7.975   6.219   3.413 -1.4937 -0.4440 -0.6574
 8040TIP3    H224078   7.865   6.321   3.399 -1.3642  0.2584  2.9180
 8041TIP3   OH224079   8.300   6.213   5.831 -0.3173  0.4683  0.5399
 8041TIP3    H124080   8.324   6.259   5.750 -0.2937 -2.2243 -1.0301
 8041TIP3    H224081   8.213   6.177   5.812 -0.2941 -0.2015  1.7197
 8042TIP3   OH224082   1.958   6.073   6.231  0.2592  0.5640  0.7220
 8042TIP3    H124083   1.933   6.161   6.204  0.7410 -0.0387 -1.7946
 8042TIP3    H224084   1.978   6.081   6.325  0.9152  3.2411  0.3792
 8043TIP3   OH224085   0.670   4.717   5.273  0.0643 -0.2703 -0.1701
 8043TIP3    H124086   0.714   4.651   5.219 -1.0466 -2.1032  1.0993
 8043TIP3    H224087   0.676   4.682   5.362 -0.3301  1.4849  0.5616
 8044TIP3   OH224088   2.686   3.354   5.311  0.3001 -0.3515  0.5852
 8044TIP3    H124089   2.682   3.369   5.406 -0.6773 -0.0885  0.5055
 8044TIP3    H224090   2.649   3.434   5.273  1.2170 -0.2197 -0.0382
 8045TIP3   OH224091   8.263   5.659   3.978 -0.0877  0.2919  0.2890
 8045TIP3    H124092   8.198   5.702   3.923  0.4809  1.7747  0.7447
 8045TIP3    H224093   8.345   5.667   3.929  0.0047 -0.3822  0.3273
 8046TIP3   OH224094   8.129   7.327   4.784 -0.5889  0.1231  0.2509
 8046TIP3    H124095   8.035   7.325   4.762 -0.4279  1.8774 -0.7280
 8046TIP3    H224096   8.134   7.381   4.862 -0.3783  0.1952  0.1872
 8047TIP3   OH224097   7.832   4.205   4.701  0.2433 -0.4206  0.3561
 8047TIP3    H124098   7.770   4.277   4.711 -0.9767 -1.5730  1.2807
 8047TIP3    H224099   7.912   4.236   4.744  1.0671  1.9156 -2.6725
 8048TIP3   OH224100   1.155   7.338   5.826 -0.3943  0.8499  0.0895
 8048TIP3    H124101   1.218   7.338   5.898  1.9078  1.0792 -1.8890
 8048TIP3    H224102   1.080   7.386   5.860  0.6830  1.0192  2.3039
 8049TIP3   OH224103   8.247   3.835   4.887  1.0395  0.1239 -0.4236
 8049TIP3    H124104   8.202   3.755   4.861  1.0233 -0.4529  1.3273
 8049TIP3    H224105   8.329   3.805   4.927  2.5584  1.1231 -2.6275
 8050TIP3   OH224106   0.396   5.084   4.537  0.2380 -0.2737  0.2967
 8050TIP3    H124107   0.446   5.107   4.615  0.8028  0.1508 -0.1822
 8050TIP3    H224108   0.460   5.088   4.465 -0.3018 -0.5249 -0.2047
 8051TIP3   OH224109   0.949   6.755   4.391  0.1126  0.4676  0.0241
 8051TIP3    H124110   0.931   6.848   4.375 -0.5388  0.6647  1.8159
 8051TIP3    H224111   1.043   6.746   4.373  0.1499  1.4470 -0.3165
 8052TIP3   OH224112   7.476   5.909   5.662  0.0136 -0.1370  0.5098
 8052TIP3    H124113   7.504   5.861   5.740  1.2428 -0.3617 -0.0424
 8052TIP3    H224114   7.381   5.904   5.663  0.1012 -2.6226  0.4729
 8053TIP3   OH224115   7.735   5.963   5.007  0.2444 -0.1527  0.3182
 8053TIP3    H124116   7.809   5.905   5.022  0.0517 -0.4117  0.2710
 8053TIP3    H224117   7.731   5.974   4.912 -0.6392 -1.2762  0.2110
 8054TIP3   OH224118   7.137   4.754   4.888 -0.1004  0.4150  0.0366
 8054TIP3    H124119   7.218   4.713   4.916 -0.2183 -0.6289 -1.1207
 8054TIP3    H224120   7.092   4.776   4.969 -0.2290 -2.1353  0.7027
 8055TIP3   OH224121   1.399   6.247   4.924  0.4612  0.2826  0.0421
 8055TIP3    H124122   1.419   6.334   4.959 -0.6100  0.9240 -0.9251
 8055TIP3    H224123   1.484   6.205   4.913  0.9525  1.0022  1.0161
 8056TIP3   OH224124   1.809  -0.000   4.454 -0.0538  0.3973  0.1307
 8056TIP3    H124125   1.883   0.060   4.458 -0.7781  1.4054 -1.2491
 8056TIP3    H224126   1.740   0.048   4.408 -0.6054 -1.5218 -1.1482
 8057TIP3   OH224127   8.149   6.278   4.687  0.3975  0.0142 -0.0733
 8057TIP3    H124128   8.179   6.214   4.751 -0.5257 -1.9889 -1.5881
 8057TIP3    H224129   8.226   6.295   4.632  0.3998 -0.5806 -0.2676
 8058TIP3   OH224130   5.651   2.873   0.654 -0.2843 -0.1116 -0.2460
 8058TIP3    H124131   5.628   2.784   0.627 -0.8813 -0.2631  0.7549
 8058TIP3    H224132   5.746   2.869   0.668 -0.3167 -0.6126 -0.1386
 8059TIP3   OH224133   8.152   5.135   4.027  0.3495  0.0736 -0.1672
 8059TIP3    H124134   8.240   5.104   4.046  0.1555  0.6087  1.6423
 8059TIP3    H224135   8.094   5.078   4.077 -0.1586  1.5609  0.9723
 8060TIP3   OH224136   0.143   4.823   6.371  0.2418 -0.4145  0.4432
 8060TIP3    H124137   0.237   4.806   6.362  0.1214 -0.8223 -0.0810
 8060TIP3    H224138   0.103   4.774   6.299 -0.3234  0.1969  0.3391
 8061TIP3   OH224139   7.290   6.042   3.676  0.0347  0.1282 -0.0037
 8061TIP3    H124140   7.222   6.038   3.743 -1.4554  0.4168 -1.4738
 8061TIP3    H224141   7.368   6.009   3.720 -0.9352  0.2222  1.8490
 8062TIP3   OH224142   8.014   2.186   0.052  0.1076  0.5412  0.3321
 8062TIP3    H124143   8.075   2.248   0.011  0.2333  0.6547  0.6961
 8062TIP3    H224144   8.063   2.104   0.056 -0.2785  0.2422 -0.7425
 8063TIP3   OH224145   8.110   6.805   4.470  0.6203  0.4887 -0.3388
 8063TIP3    H124146   8.194   6.820   4.513  0.4401  1.0985 -0.1947
 8063TIP3    H224147   8.127   6.822   4.377  0.8871 -0.3360 -0.4444
 8064TIP3   OH224148   7.572   6.357   4.390  0.1615  0.0468  0.2028
 8064TIP3    H124149   7.510   6.287   4.370  0.9963 -0.0747 -2.2066
 8064TIP3    H224150   7.595   6.344   4.482 -2.2400 -0.7929  0.7046
 8065TIP3   OH224151   2.452   7.032   5.459  0.9388  0.6673 -0.5958
 8065TIP3    H124152   2.393   7.085   5.513  1.0437 -0.4101  0.6001
 8065TIP3    H224153   2.536   7.034   5.506  0.2436 -2.7654  0.9588
 8066TIP3   OH224154   1.784   6.627   6.099  0.2943  0.5837 -0.2358
 8066TIP3    H124155   1.754   6.670   6.180  1.7432  1.4223 -0.1227
 8066TIP3    H224156   1.867   6.670   6.079  1.2638 -1.4572 -0.7185
 8067TIP3   OH224157   8.116   2.138   4.679 -0.2004 -0.8448  0.1570
 8067TIP3    H124158   8.184   2.156   4.743 -0.4726 -0.8165  0.4407
 8067TIP3    H224159   8.148   2.063   4.629 -0.3795 -1.4269  0.9013
 8068TIP3   OH224160   7.416   5.161   3.592  0.2002 -0.5117 -0.2111
 8068TIP3    H124161   7.338   5.114   3.560 -0.6510 -0.4250  1.6667
 8068TIP3    H224162   7.410   5.247   3.551 -0.5496 -0.5983 -0.3056
 8069TIP3   OH224163   6.434   4.802   5.380  0.2756 -0.1246  0.2877
 8069TIP3    H124164   6.376   4.874   5.404 -0.2897 -0.2549 -0.6756
 8069TIP3    H224165   6.380   4.744   5.326  0.5661 -1.5694  1.5212
 8070TIP3   OH224166   0.431   4.947   2.369  0.4496 -0.1192 -0.5854
 8070TIP3    H124167   0.462   5.020   2.423 -0.3204  0.5867 -1.0970
 8070TIP3    H224168   0.376   4.896   2.427 -0.4709  0.7045 -0.7192
 8071TIP3   OH224169   2.762   0.135   4.940  0.2027 -0.2896 -0.1339
 8071TIP3    H124170   2.782   0.049   4.904  1.8130 -0.2827  0.7281
 8071TIP3    H224171   2.699   0.173   4.878 -0.6437 -2.1284 -0.4314
 8072TIP3   OH224172   1.384   5.947   5.307  0.0041  0.1757  0.1695
 8072TIP3    H124173   1.336   5.970   5.387  0.0487  1.2439 -0.0923
 8072TIP3    H224174   1.467   5.993   5.315  0.0969  0.1055 -0.3792
 8073TIP3   OH224175   0.517   3.109   6.190 -0.3346  0.3273  0.2483
 8073TIP3    H124176   0.488   3.180   6.247  1.2237  1.8203 -0.8031
 8073TIP3    H224177   0.492   3.136   6.102 -0.6820 -0.9185 -0.0428
 8074TIP3   OH224178   0.821   7.542   3.934  1.1044  0.3605 -0.2839
 8074TIP3    H124179   0.888   7.511   3.995  1.1989 -0.1258 -0.6338
 8074TIP3    H224180   0.788   7.463   3.892 -0.2471  0.5283  0.4549
 8075TIP3   OH224181   6.862   5.333   4.015  0.6848 -0.6847  0.2192
 8075TIP3    H124182   6.775   5.295   4.004  0.3814  0.4313 -1.5401
 8075TIP3    H224183   6.852   5.424   3.987  1.5605  0.5432  3.6847
 8076TIP3   OH224184   1.284   5.410   5.102  0.7292 -0.3888  0.1550
 8076TIP3    H124185   1.196   5.441   5.126  1.7514  1.6173  1.4600
 8076TIP3    H224186   1.275   5.315   5.097 -1.8288 -0.1418 -1.0327
 8077TIP3   OH224187   1.513   6.838   6.276 -0.6043 -0.0690  0.2145
 8077TIP3    H124188   1.504   6.837   6.181  0.7041  0.2570  0.0785
 8077TIP3    H224189   1.607   6.841   6.291 -0.7577 -1.1873  1.5307
 8078TIP3   OH224190   0.053   5.266   5.853  0.8281 -0.1836  0.6259
 8078TIP3    H124191   0.097   5.320   5.787 -0.2983  1.6462  1.3532
 8078TIP3    H224192  -0.017   5.222   5.805  0.5421  0.4931  0.4190
 8079TIP3   OH224193   0.516   7.181   5.769 -0.3258  0.0639  0.1018
 8079TIP3    H124194   0.514   7.211   5.860 -0.6374 -2.6232  1.0148
 8079TIP3    H224195   0.609   7.167   5.750 -0.4323 -1.9182  0.9103
 8080TIP3   OH224196   7.813   4.568   5.270  0.1092  0.1651 -0.4122
 8080TIP3    H124197   7.887   4.624   5.249  1.0554 -1.1798 -0.7341
 8080TIP3    H224198   7.821   4.494   5.210 -1.6850  0.1677 -0.6719
 8081TIP3   OH224199  -0.030   5.635   4.398 -0.1234  0.4280 -0.4257
 8081TIP3    H124200   0.058   5.599   4.409  0.2467  1.1797 -0.8736
 8081TIP3    H224201  -0.015   5.728   4.380 -1.0096  0.5487 -0.5366
 8082TIP3   OH224202   8.255   7.399   6.012 -0.5737  0.3045  0.2860
 8082TIP3    H124203   8.209   7.415   5.930 -0.1675  0.7927  0.1498
 8082TIP3    H224204   8.313   7.475   6.022  1.5957 -1.2115 -0.5103
 8083TIP3   OH224205   0.761   6.196   6.163  0.0642  0.0081  0.2833
 8083TIP3    H124206   0.729   6.161   6.247 -0.5957 -0.1911 -0.0556
 8083TIP3    H224207   0.750   6.291   6.171 -0.8846 -0.0860  0.0435
 8084TIP3   OH224208   0.664   7.263   6.348  0.3906 -0.3195 -0.4091
 8084TIP3    H124209   0.658   7.319   6.270  0.1491 -0.0369 -0.1914
 8084TIP3    H224210   0.758   7.252   6.362  0.4382 -0.1638 -0.5928
 8085TIP3   OH224211   0.711   5.152   5.005 -0.1591  0.7166  0.0809
 8085TIP3    H124212   0.655   5.215   5.051 -0.7139  0.1436  0.1914
 8085TIP3    H224213   0.680   5.066   5.033  1.3473  0.3903  0.8156
 8086TIP3   OH224214   3.481  -0.027   5.400  0.3315  0.0297 -0.3820
 8086TIP3    H124215   3.574  -0.033   5.381  0.6279  0.1340  0.9948
 8086TIP3    H224216   3.459   0.064   5.383  0.2187 -0.2325 -1.7706
 8087TIP3   OH224217   8.284   7.303   5.493 -0.2173 -0.3635 -0.0143
 8087TIP3    H124218   8.251   7.393   5.492  1.2435  0.1789 -0.0360
 8087TIP3    H224219   8.373   7.309   5.459 -0.7924 -2.1185 -1.9787
 8088TIP3   OH224220   0.170   4.245   5.852  0.1239 -0.1400 -0.1945
 8088TIP3    H124221   0.155   4.238   5.947 -0.0918 -0.4834 -0.2495
 8088TIP3    H224222   0.116   4.175   5.815  2.0765 -1.5830 -0.3990
 8089TIP3   OH224223   8.265   5.930   6.178  0.0755 -0.0629  0.0418
 8089TIP3    H124224   8.349   5.976   6.178 -0.0233  0.1157  0.0492
 8089TIP3    H224225   8.284   5.845   6.219  0.6098 -0.6880 -1.4571
 8090TIP3   OH224226   1.315   5.691   6.528  0.7722 -0.7046 -0.0070
 8090TIP3    H124227   1.398   5.686   6.481  0.4644 -1.6986 -0.4697
 8090TIP3    H224228   1.249   5.668   6.463 -0.0475  1.7750 -0.0789
 8091TIP3   OH224229   8.324   6.786   2.750  0.0524 -0.2315  0.2420
 8091TIP3    H124230   8.231   6.801   2.732  0.0543  0.4598  0.7714
 8091TIP3    H224231   8.342   6.840   2.827  1.1706  0.5681 -0.5634
 8092TIP3   OH224232   3.893   0.436   4.126 -0.4325  0.2733  0.1977
 8092TIP3    H124233   3.841   0.483   4.061  1.3928  2.3725  0.2220
 8092TIP3    H224234   3.954   0.384   4.074 -0.8911 -0.3008  0.2190
 8093TIP3   OH224235   6.920   7.094   5.010  0.0654 -0.0950 -0.5837
 8093TIP3    H124236   6.937   7.184   4.982 -0.4687 -0.5388 -2.4011
 8093TIP3    H224237   6.830   7.096   5.043  0.1608  0.0904 -0.3271
 8094TIP3   OH224238   1.765   4.353   5.370  0.4323 -0.7695 -0.5216
 8094TIP3    H124239   1.791   4.300   5.444  0.3692 -0.2890 -0.1533
 8094TIP3    H224240   1.772   4.294   5.294  0.6713 -1.2029 -0.1639
 8095TIP3   OH224241   7.498   5.732   4.868 -0.1383  0.1570  1.1138
 8095TIP3    H124242   7.593   5.726   4.877 -0.0409 -1.8019 -0.6503
 8095TIP3    H224243   7.464   5.660   4.922 -0.2780 -2.4536 -2.2564
 8096TIP3   OH224244   7.944   7.836   3.113  0.1351  0.0980  0.2418
 8096TIP3    H124245   7.898   7.919   3.124  0.4252  0.2302  0.4468
 8096TIP3    H224246   7.955   7.802   3.202 -2.5481 -1.5634  0.0066
 8097TIP3   OH224247   1.022   4.361   5.695 -0.2074 -0.0698 -0.1769
 8097TIP3    H124248   1.094   4.298   5.693  0.8734  1.1154  0.5729
 8097TIP3    H224249   1.050   4.432   5.636 -1.3387 -0.2158 -0.8991
 8098TIP3   OH224250   2.358   4.960   6.480  0.2188  0.4436  0.2347
 8098TIP3    H124251   2.443   4.973   6.521 -0.2397  0.4270  1.2129
 8098TIP3    H224252   2.368   4.993   6.390  1.1398  0.7743  0.4627
 8099TIP3   OH224253   6.977   1.175   0.163 -0.3780 -0.1191 -0.3951
 8099TIP3    H124254   6.907   1.152   0.224 -0.1296 -0.4667 -0.2388
 8099TIP3    H224255   7.051   1.198   0.219 -0.5609  0.8691 -0.5507
 8100TIP3   OH224256   8.408   6.667   4.361  0.6602 -0.2700  0.7511
 8100TIP3    H124257   8.339   6.644   4.423  0.5474 -3.1320 -0.3671
 8100TIP3    H224258   8.362   6.705   4.287  0.4938 -0.0276  0.9784
 8101TIP3   OH224259   1.022   5.434   5.178 -0.0752 -0.0174  0.0193
 8101TIP3    H124260   1.010   5.357   5.234 -0.2018 -0.0627 -0.0712
 8101TIP3    H224261   0.934   5.465   5.161 -0.0583 -0.2736 -0.5313
 8102TIP3   OH224262   6.986   7.227   2.861  0.1565  0.4377 -0.0051
 8102TIP3    H124263   6.950   7.151   2.907  0.5054  1.9724  2.8922
 8102TIP3    H224264   7.025   7.281   2.930  1.1498  2.5776 -2.1749
 8103TIP3   OH224265   6.991   6.856   4.891  0.4637 -0.1410 -0.1432
 8103TIP3    H124266   6.914   6.800   4.906  1.3224 -1.0535  1.0264
 8103TIP3    H224267   6.971   6.937   4.938  0.4874 -0.6384  0.7520
 8104TIP3   OH224268   8.279   6.623   5.109 -0.1395  0.1692 -0.2697
 8104TIP3    H124269   8.341   6.677   5.060  0.6104  0.5808  1.1243
 8104TIP3    H224270   8.333   6.572   5.169 -0.8309 -2.1025 -1.4922
 8105TIP3   OH224271   6.719   3.004   4.795 -0.0758  0.2830 -0.1454
 8105TIP3    H124272   6.735   3.096   4.816 -0.9443  0.2382  0.7770
 8105TIP3    H224273   6.649   2.978   4.855 -0.8207 -0.5880 -1.3744
 8106TIP3   OH224274   2.623   5.953   4.815  0.5727  0.1479 -0.5034
 8106TIP3    H124275   2.546   6.003   4.789  0.4802  0.1520 -0.2250
 8106TIP3    H224276   2.610   5.866   4.776  0.7066  0.3206 -0.9383
 8107TIP3   OH224277   8.381   6.689   1.790 -0.2346 -0.9125 -0.3844
 8107TIP3    H124278   8.293   6.725   1.790 -0.2418 -0.9042  0.3722
 8107TIP3    H224279   8.411   6.700   1.881  0.2921 -1.5025 -0.4801
 8108TIP3   OH224280   1.296   5.794   5.887  0.0463  0.2033  0.6472
 8108TIP3    H124281   1.323   5.723   5.946  0.5659 -0.2456 -0.1258
 8108TIP3    H224282   1.211   5.821   5.921  0.6250  0.3983  2.0087
 8109TIP3   OH224283   1.195   7.761   4.009 -0.3440 -0.1700  0.3105
 8109TIP3    H124284   1.168   7.740   4.099  1.7929 -3.1142  0.3234
 8109TIP3    H224285   1.220   7.853   4.013 -0.9443 -0.0645  2.5663
 8110TIP3   OH224286   6.369   1.335   4.706 -0.1517 -0.3585  0.4594
 8110TIP3    H124287   6.362   1.282   4.786  0.0336  0.2571  0.8907
 8110TIP3    H224288   6.433   1.289   4.652  0.8472  0.0087  1.3102
 8111TIP3   OH224289   4.247   6.962   4.579  0.5469  0.2749  0.6057
 8111TIP3    H124290   4.341   6.947   4.572  0.4140 -0.8243  1.0482
 8111TIP3    H224291   4.211   6.878   4.608 -0.4399  0.9856  1.5029
 8112TIP3   OH224292   7.868   6.385   6.283  0.1933 -0.4230 -0.8245
 8112TIP3    H124293   7.848   6.468   6.327 -1.3447  0.7362 -3.6057
 8112TIP3    H224294   7.953   6.400   6.242  2.1301 -1.8495  2.3875
 8113TIP3   OH224295   0.506   5.734   5.423  0.0454 -0.2381  0.4860
 8113TIP3    H124296   0.532   5.661   5.478 -0.1475 -0.4377  0.3120
 8113TIP3    H224297   0.441   5.782   5.475 -0.2633 -0.5226  0.3608
 8114TIP3   OH224298   0.144   3.229   4.962  0.4708 -0.0399 -0.0516
 8114TIP3    H124299   0.208   3.197   4.898 -1.0766 -0.6144 -1.3380
 8114TIP3    H224300   0.126   3.153   5.017  0.6021  0.0085  0.0570
 8115TIP3   OH224301   0.062   5.270   4.937  0.1551 -0.3925 -0.3676
 8115TIP3    H124302   0.149   5.267   4.977  0.9540  1.2061 -1.9203
 8115TIP3    H224303   0.067   5.205   4.866  0.3444  0.2376 -0.9363
 8116TIP3   OH224304   8.119   1.902   0.009  0.3767 -0.3426 -0.2362
 8116TIP3    H124305   8.107   1.834   0.075  1.4964 -0.4674 -0.1568
 8116TIP3    H224306   8.213   1.903  -0.008  0.1464 -0.0738 -1.5823
 8117TIP3   OH224307   2.070   7.649   4.369 -0.0053 -0.2682  0.4765
 8117TIP3    H124308   1.984   7.673   4.405  0.7821 -0.2460  2.4060
 8117TIP3    H224309   2.125   7.727   4.384  0.1185  0.0861 -1.6338
 8118TIP3   OH224310   0.964   5.534   6.856 -0.2822 -0.5698 -0.4740
 8118TIP3    H124311   0.951   5.593   6.931  0.4996 -0.3316 -0.5228
 8118TIP3    H224312   1.059   5.522   6.851 -0.2947 -0.2643 -1.6621
 8119TIP3   OH224313   1.464   6.530   5.918 -0.9439  0.0480  0.2842
 8119TIP3    H124314   1.529   6.587   5.960 -0.6990  0.0074 -0.0438
 8119TIP3    H224315   1.390   6.531   5.979 -1.1662  1.1772  0.0219
 8120TIP3   OH224316  -0.022   5.932   4.898 -0.2348  0.5440 -0.0037
 8120TIP3    H124317   0.071   5.937   4.876 -0.2196  0.6304  0.0777
 8120TIP3    H224318  -0.024   5.934   4.994 -0.1318 -2.7649  0.1091
 8121TIP3   OH224319   7.793   5.377   4.330 -0.2611 -0.5341 -0.5210
 8121TIP3    H124320   7.851   5.422   4.269  1.7143 -1.1526  0.8359
 8121TIP3    H224321   7.822   5.406   4.417 -0.6467 -2.4287  0.2646
 8122TIP3   OH224322   7.234   7.328   2.110 -0.2250 -0.0452 -0.3231
 8122TIP3    H124323   7.254   7.419   2.134 -0.6289  0.1411 -0.6742
 8122TIP3    H224324   7.260   7.322   2.018 -0.2666 -0.2656 -0.3187
 8123TIP3   OH224325   5.264   0.508   4.045 -0.3192  0.1135  0.6732
 8123TIP3    H124326   5.306   0.578   3.994 -0.0109 -0.1189  0.6039
 8123TIP3    H224327   5.219   0.454   3.980  0.5088 -0.4809  0.5876
 8124TIP3   OH224328   4.618   0.109   3.559 -0.0059  0.0187 -0.3705
 8124TIP3    H124329   4.534   0.152   3.544 -0.1851 -0.0491  0.4003
 8124TIP3    H224330   4.662   0.111   3.474 -1.7279 -2.0189 -1.3428
 8125TIP3   OH224331   1.424   4.791   2.716 -0.5492 -0.0955 -0.1731
 8125TIP3    H124332   1.512   4.755   2.706 -0.2313  0.8292 -0.6705
 8125TIP3    H224333   1.386   4.787   2.629 -0.1166  1.8140 -0.4587
 8126TIP3   OH224334   0.252   5.512   4.888 -0.6328 -0.3594  0.1989
 8126TIP3    H124335   0.199   5.434   4.906 -0.3798 -0.5995 -0.0882
 8126TIP3    H224336   0.188   5.578   4.860 -0.9952 -0.0704  1.6594
 8127TIP3   OH224337   3.720   0.206   5.444 -0.9294 -0.1485 -0.0418
 8127TIP3    H124338   3.661   0.279   5.424 -0.8986  0.5323  2.1523
 8127TIP3    H224339   3.726   0.156   5.363 -2.3757  1.3026 -1.0650
 8128TIP3   OH224340   2.491   4.211   3.866  0.2185 -0.2057  0.3373
 8128TIP3    H124341   2.411   4.263   3.875  0.8326  1.2970 -2.2524
 8128TIP3    H224342   2.470   4.128   3.907 -2.1477  0.7116  1.0956
 8129TIP3   OH224343   0.186   1.519   3.915 -0.2686 -0.3178  0.1115
 8129TIP3    H124344   0.174   1.445   3.974 -0.2618 -0.9895 -0.7313
 8129TIP3    H224345   0.210   1.480   3.831 -1.2646  0.5925 -0.6011
 8130TIP3   OH224346   0.994   6.339   4.961 -0.4045  0.4294  0.3236
 8130TIP3    H124347   0.940   6.311   4.887 -0.6368  0.5277  0.4544
 8130TIP3    H224348   1.019   6.257   5.005 -1.0380  0.4189  0.6738
 8131TIP3   OH224349   1.347   5.583   4.676  0.3121  0.3008  0.5971
 8131TIP3    H124350   1.327   5.655   4.736 -0.8556  0.9544 -0.5630
 8131TIP3    H224351   1.265   5.536   4.666  1.4744 -2.3676  2.8305
 8132TIP3   OH224352   7.846   5.692   6.356 -0.4533  0.4094  0.1470
 8132TIP3    H124353   7.914   5.672   6.421  1.9141  3.0228 -1.3763
 8132TIP3    H224354   7.873   5.644   6.278 -1.6655 -0.3803  0.2015
 8133TIP3   OH224355   1.758   6.140   5.973  0.3434 -0.2031 -0.3387
 8133TIP3    H124356   1.770   6.234   5.986  0.9817 -0.4246  0.7467
 8133TIP3    H224357   1.685   6.117   6.031 -0.1997 -0.2682 -1.0488
 8134TIP3   OH224358   2.014   4.897   4.657 -0.6767 -0.0968  0.5380
 8134TIP3    H124359   2.004   4.880   4.564  2.3414 -0.9274  0.2864
 8134TIP3    H224360   1.942   4.851   4.698 -1.8916  0.0676 -1.3636
 8135TIP3   OH224361   1.391   6.979   4.800  0.0650 -0.4388 -0.3119
 8135TIP3    H124362   1.346   6.919   4.858 -0.6106 -0.6564 -1.0483
 8135TIP3    H224363   1.484   6.967   4.819 -0.2320  1.4789  2.6760
 8136TIP3   OH224364   0.586   5.855   2.002  0.2331  1.0367  0.0268
 8136TIP3    H124365   0.639   5.924   2.042  1.1036 -0.0379  0.7570
 8136TIP3    H224366   0.585   5.876   1.909  0.4793  2.0287  0.2342
 8137TIP3   OH224367   2.914   0.163   3.815  0.3299 -0.2592 -0.0739
 8137TIP3    H124368   2.918   0.072   3.843  0.7966 -1.0259 -2.5077
 8137TIP3    H224369   2.890   0.159   3.723 -1.6177  2.1710  0.2596
 8138TIP3   OH224370   0.338   6.763   5.065  0.2197 -0.1446  0.5826
 8138TIP3    H124371   0.395   6.801   4.998  0.3999 -1.1836  0.1286
 8138TIP3    H224372   0.356   6.813   5.144  0.7283  0.4576  0.0885
 8139TIP3   OH224373   0.293   6.734   5.529  0.2240 -0.2067 -0.3105
 8139TIP3    H124374   0.322   6.798   5.593 -0.6345 -1.2721  1.1753
 8139TIP3    H224375   0.201   6.757   5.512 -0.5237 -1.8860  1.3213
 8140TIP3   OH224376   8.257   7.945   5.115 -0.4655  0.1372  0.7984
 8140TIP3    H124377   8.347   7.973   5.101 -0.9062  1.5827  0.7655
 8140TIP3    H224378   8.205   7.995   5.051 -1.2698 -0.7597  0.7396
 8141TIP3   OH224379   8.099   7.683   4.491 -0.0980 -0.0327  0.6219
 8141TIP3    H124380   8.009   7.689   4.523  0.1042  1.5034  0.9472
 8141TIP3    H224381   8.126   7.595   4.513 -0.9957  0.0067  1.9674
 8142TIP3   OH224382   0.514   2.667   5.642  0.3188  0.2414  0.0497
 8142TIP3    H124383   0.555   2.753   5.649 -0.4311  0.5685  0.4281
 8142TIP3    H224384   0.430   2.676   5.686  0.7876 -1.0441  1.2714
 8143TIP3   OH224385   8.193   4.044   4.663 -0.3272 -0.0502  0.0807
 8143TIP3    H124386   8.219   3.983   4.732 -1.5733  0.4561  1.0172
 8143TIP3    H224387   8.247   4.019   4.588  1.1557 -0.5370  1.2597
 8144TIP3   OH224388   1.807   3.287   5.242  0.2033 -0.0320  0.0375
 8144TIP3    H124389   1.808   3.194   5.221 -3.0762 -0.3898  1.1930
 8144TIP3    H224390   1.804   3.290   5.338  1.8132  1.3044  0.0687
 8145TIP3   OH224391   8.120   5.182   3.750  0.0971 -0.2280 -0.2166
 8145TIP3    H124392   8.153   5.263   3.713  0.2601 -0.1376  0.1213
 8145TIP3    H224393   8.161   5.177   3.837 -0.7965 -0.0955  0.2186
 8146TIP3   OH224394   0.140   4.910   4.105 -0.3360  0.1211 -0.0063
 8146TIP3    H124395   0.140   4.958   4.188  1.2218  2.9658 -1.5633
 8146TIP3    H224396   0.185   4.828   4.125  1.7799  1.5965  1.5298
 8147TIP3   OH224397   3.116   0.228   5.353 -0.1128 -0.1031 -1.0368
 8147TIP3    H124398   3.035   0.262   5.389  0.8345  1.3944 -0.2776
 8147TIP3    H224399   3.130   0.145   5.397 -0.2698  0.5266  0.2165
 8148TIP3   OH224400   2.371   5.425   5.152  0.7758  0.1932 -0.1279
 8148TIP3    H124401   2.314   5.488   5.196 -0.8250 -1.2363 -0.1035
 8148TIP3    H224402   2.425   5.478   5.093 -0.4897  1.5684 -0.0686
 8149TIP3   OH224403   0.665   7.581   5.640  0.6521 -0.0315  0.1284
 8149TIP3    H124404   0.607   7.597   5.566  0.9179  1.6524  0.2557
 8149TIP3    H224405   0.741   7.637   5.623 -0.2626  2.1088  2.7596
 8150TIP3   OH224406   1.859   5.532   4.977  0.2376  0.2617 -0.2351
 8150TIP3    H124407   1.764   5.532   4.994  0.2639 -0.1223 -0.0860
 8150TIP3    H224408   1.894   5.467   5.038  0.4605 -0.3862 -1.0440
 8151TIP3   OH224409   1.911   6.745   4.204  0.0229 -0.4046  0.1469
 8151TIP3    H124410   1.968   6.817   4.178 -1.7596  1.3898  1.1347
 8151TIP3    H224411   1.876   6.771   4.289 -3.4907 -0.6943 -1.1268
 8152TIP3   OH224412   6.815   7.009   4.540  0.2698 -0.6643 -0.0966
 8152TIP3    H124413   6.812   6.970   4.453  1.2919 -0.6335 -0.1524
 8152TIP3    H224414   6.814   7.103   4.524 -1.2583 -0.6429  0.0038
 8153TIP3   OH224415   2.804   5.621   3.402  0.8087 -0.3100 -0.4973
 8153TIP3    H124416   2.715   5.628   3.438  0.5500 -1.5849 -0.8896
 8153TIP3    H224417   2.825   5.711   3.375  0.3385  0.3552  1.2204
 8154TIP3   OH224418   0.281   7.049   3.374 -0.2255 -0.1224 -0.0561
 8154TIP3    H124419   0.372   7.022   3.385  0.0755  0.2172 -1.5796
 8154TIP3    H224420   0.271   7.063   3.279 -1.6611  0.5294  0.1713
 8155TIP3   OH224421   1.632   7.279   5.425  0.0731 -0.6118  0.6940
 8155TIP3    H124422   1.655   7.207   5.483  0.0596 -0.6252  0.6828
 8155TIP3    H224423   1.602   7.237   5.344 -0.7315 -0.6009  0.9895
 8156TIP3   OH224424   1.692   0.255   5.668  0.4364 -0.1298  0.1364
 8156TIP3    H124425   1.699   0.323   5.735  1.9875  1.0015 -1.1217
 8156TIP3    H224426   1.651   0.181   5.712  1.4305  0.5941  2.3380
 8157TIP3   OH224427   3.825   1.120   5.054 -0.6596 -0.3486 -0.1624
 8157TIP3    H124428   3.755   1.081   5.105 -0.6676 -0.0525  0.0565
 8157TIP3    H224429   3.875   1.046   5.020 -1.1098 -0.5592 -0.3637
 8158TIP3   OH224430   2.016   7.210   3.941 -0.1657 -0.1210 -0.3119
 8158TIP3    H124431   1.933   7.170   3.968 -0.2730  1.6492  2.1268
 8158TIP3    H224432   1.990   7.291   3.898  0.2569 -0.3918 -1.0943
 8159TIP3   OH224433   3.722   5.883   3.692 -0.2362 -0.4737 -0.0005
 8159TIP3    H124434   3.661   5.905   3.762  0.0630 -1.3169  0.5187
 8159TIP3    H224435   3.678   5.814   3.643  0.8356 -1.9782  1.1240
 8160TIP3   OH224436   4.241   7.070   4.123 -0.1210  0.1201  0.1167
 8160TIP3    H124437   4.315   7.093   4.068 -0.2923 -1.8369 -0.9835
 8160TIP3    H224438   4.272   7.084   4.212  1.1116  0.5690 -0.3663
 8161TIP3   OH224439   1.229   6.761   5.726 -0.0136  0.0801  0.1167
 8161TIP3    H124440   1.272   6.843   5.704  0.7275 -0.2620  0.2697
 8161TIP3    H224441   1.138   6.785   5.745  0.1069  0.8024 -0.2261
 8162TIP3   OH224442   3.073   4.012   3.924  0.4915 -0.2752  0.4403
 8162TIP3    H124443   3.137   4.083   3.932  0.4841 -0.2673  0.4264
 8162TIP3    H224444   3.077   3.987   3.832 -0.7456  0.8713  0.0649
 8163TIP3   OH224445   1.762   0.451   3.637 -0.5737  0.2899 -0.0144
 8163TIP3    H124446   1.717   0.523   3.593  0.2265  0.2465 -0.9294
 8163TIP3    H224447   1.767   0.382   3.570  2.0711  0.8013 -0.4054
 8164TIP3   OH224448   6.699   6.717   2.046  0.0556  0.3449  0.2658
 8164TIP3    H124449   6.684   6.662   1.969 -0.7638 -0.2523  0.8520
 8164TIP3    H224450   6.642   6.681   2.114 -1.5450  2.7541  0.2693
 8165TIP3   OH224451   8.181   0.451   0.668  0.7117  0.0106 -0.1383
 8165TIP3    H124452   8.141   0.441   0.582  2.4598  0.6126 -1.0667
 8165TIP3    H224453   8.116   0.419   0.730 -1.0473  0.7001 -1.5973
 8166TIP3   OH224454   7.597   5.372   4.701  0.0527  0.0145  0.1070
 8166TIP3    H124455   7.680   5.326   4.685  1.1919  1.6813  1.1595
 8166TIP3    H224456   7.531   5.304   4.689  1.4560 -1.0521 -2.0464
 8167TIP3   OH224457   1.174   6.924   3.519 -0.5882  0.7221 -0.6384
 8167TIP3    H124458   1.190   6.888   3.606 -1.1008  1.8872 -0.0522
 8167TIP3    H224459   1.235   6.877   3.462  1.2392  1.4128  0.6932
 8168TIP3   OH224460   1.245   6.743   6.674  0.3545  0.2319  0.1940
 8168TIP3    H124461   1.335   6.749   6.642 -0.2606 -0.0749 -1.6791
 8168TIP3    H224462   1.200   6.688   6.609 -0.4666 -2.2480  2.7384
 8169TIP3   OH224463   0.948   5.743   6.656  0.5516  0.0552 -0.4109
 8169TIP3    H124464   0.984   5.671   6.708  0.4778  0.9072  0.8361
 8169TIP3    H224465   0.881   5.702   6.601 -0.8387 -0.5195  1.6752
 8170TIP3   OH224466   1.180   6.361   5.985 -0.5314  0.2332  0.1550
 8170TIP3    H124467   1.231   6.366   6.065 -1.5930 -0.2286  0.8788
 8170TIP3    H224468   1.125   6.283   5.997  0.3760 -0.7081 -1.6586
 8171TIP3   OH224469   8.390   7.734   4.693  0.2856 -0.1234  0.0055
 8171TIP3    H124470   8.363   7.642   4.684 -1.8875  0.5409 -0.5845
 8171TIP3    H224471   8.426   7.757   4.608  1.2006 -0.5434  0.2780
 8172TIP3   OH224472   0.870   6.470   2.555 -0.5455 -0.4465 -0.0869
 8172TIP3    H124473   0.848   6.546   2.501 -0.1706 -0.1049  0.2345
 8172TIP3    H224474   0.850   6.395   2.500 -3.9476 -0.2114  0.7206
 8173TIP3   OH224475   2.177   5.160   6.178  0.5863  0.3518 -0.0168
 8173TIP3    H124476   2.095   5.119   6.204  0.4695  1.2052  0.9935
 8173TIP3    H224477   2.222   5.178   6.260  1.4855  0.5206 -0.5326
 8174TIP3   OH224478   8.441   4.143   4.429 -0.0304  0.5465 -0.3785
 8174TIP3    H124479   8.531   4.176   4.435 -0.1037  0.5851  0.5391
 8174TIP3    H224480   8.404   4.188   4.353 -0.0137  2.2799  0.6141
 8175TIP3   OH224481   0.729   7.342   3.280  0.2286 -0.3654  0.1439
 8175TIP3    H124482   0.676   7.391   3.343  0.8757  1.1820 -0.4998
 8175TIP3    H224483   0.670   7.272   3.250 -0.6621 -0.0791  1.1724
 8176TIP3   OH224484   5.559   0.741   1.398  0.2449  0.2466  0.1416
 8176TIP3    H124485   5.589   0.827   1.429  2.1681 -1.3149  2.9226
 8176TIP3    H224486   5.621   0.679   1.438 -1.9511 -2.5422 -0.6277
 8177TIP3   OH224487   1.674   7.558   3.001  0.1118 -0.1487 -0.6133
 8177TIP3    H124488   1.676   7.545   3.096 -1.1918 -0.4658 -0.6172
 8177TIP3    H224489   1.583   7.580   2.982  0.3495 -0.1683 -1.8085
 8178TIP3   OH224490   1.232   6.648   3.414  0.0259 -0.1289  0.8339
 8178TIP3    H124491   1.166   6.613   3.354  0.6905 -1.1486  0.6883
 8178TIP3    H224492   1.258   6.573   3.467 -1.2639  0.9792  3.0707
 8179TIP3   OH224493   0.484   5.610   3.509 -0.3229  0.5959 -0.3149
 8179TIP3    H124494   0.559   5.645   3.556 -0.3875  0.7125 -0.2997
 8179TIP3    H224495   0.438   5.687   3.475 -1.0082  0.5727  0.5408
 8180TIP3   OH224496   1.999   6.487   4.820 -0.2720 -0.0407  0.1877
 8180TIP3    H124497   2.081   6.441   4.798 -0.7901 -1.5951  1.4025
 8180TIP3    H224498   2.020   6.538   4.898 -0.5227 -0.6833  0.6844
 8181TIP3   OH224499   3.171   6.403   4.150 -0.7564 -0.0750  0.2283
 8181TIP3    H124500   3.255   6.380   4.110 -1.0524 -0.3203 -0.2562
 8181TIP3    H224501   3.189   6.483   4.200 -0.0633 -0.5613  0.7523
 8182TIP3   OH224502   3.180   5.699   4.153  0.1763 -0.3811  0.6544
 8182TIP3    H124503   3.127   5.776   4.133 -1.6036 -1.2501  1.8163
 8182TIP3    H224504   3.260   5.734   4.190 -1.2930  0.9174  2.7215
 8183TIP3   OH224505   2.990   6.979   5.005  0.6964 -0.0625  0.1496
 8183TIP3    H124506   3.067   6.923   5.009  0.5244 -0.4485 -1.4335
 8183TIP3    H224507   2.935   6.939   4.937 -0.2992  0.9352  0.3554
 8184TIP3   OH224508   1.653   6.358   4.045  0.2104  0.1696  0.1580
 8184TIP3    H124509   1.714   6.343   4.118  0.4066  0.8232  0.1375
 8184TIP3    H224510   1.633   6.451   4.050 -2.0929 -0.3697  1.1574
 8185TIP3   OH224511   4.725   0.719   2.836 -0.4532  0.0113 -0.1079
 8185TIP3    H124512   4.689   0.798   2.796  1.0082 -0.1534 -1.7477
 8185TIP3    H224513   4.794   0.690   2.777 -1.7520 -3.1916 -0.1769
 8186TIP3   OH224514   0.389   5.990   5.999  0.4254 -0.1345 -0.0265
 8186TIP3    H124515   0.466   6.037   5.967  0.1564  0.0763 -0.3805
 8186TIP3    H224516   0.326   6.060   6.020 -0.2202 -0.3515 -1.1901
 8187TIP3   OH224517   0.330   7.977   4.164 -0.1381 -0.4372  0.3765
 8187TIP3    H124518   0.345   8.016   4.078  1.1967 -0.8754  0.4001
 8187TIP3    H224519   0.240   8.003   4.187 -0.0684  0.7158 -0.5945
 8188TIP3   OH224520   0.584   7.892   4.656 -0.2202 -0.0711  0.5183
 8188TIP3    H124521   0.631   7.939   4.587  0.0872 -1.4045 -0.2008
 8188TIP3    H224522   0.651   7.842   4.701 -0.8798 -1.6552 -0.2392
 8189TIP3   OH224523   2.151   7.249   4.565 -0.4067 -0.3579 -0.4303
 8189TIP3    H124524   2.223   7.189   4.582 -0.6120 -0.3414  0.5317
 8189TIP3    H224525   2.073   7.195   4.569 -0.5476 -0.1360 -0.1061
 8190TIP3   OH224526   1.961   7.418   3.786 -0.2273 -0.4467  0.2470
 8190TIP3    H124527   1.943   7.509   3.810  0.7058 -0.0188 -0.6478
 8190TIP3    H224528   1.910   7.405   3.706 -1.3093 -1.0870  1.0286
 8191TIP3   OH224529   0.212   7.828   4.480  0.7350 -0.2113 -0.2982
 8191TIP3    H124530   0.264   7.806   4.403  0.6295 -1.4675 -0.0274
 8191TIP3    H224531   0.263   7.895   4.526  1.5476 -0.5755 -0.6564
 8192TIP3   OH224532   1.966   5.205   4.525  0.0044  0.0424  0.2960
 8192TIP3    H124533   1.910   5.273   4.488  1.1873  0.8083 -0.1007
 8192TIP3    H224534   1.935   5.124   4.485  0.7130  0.7502 -1.7149
 8193TIP3   OH224535   4.655   6.392   4.820 -0.1142 -0.4940 -0.7538
 8193TIP3    H124536   4.720   6.454   4.788 -1.0262 -0.1790 -2.0312
 8193TIP3    H224537   4.694   6.306   4.803 -0.4078 -0.3244 -2.3707
 8194TIP3   OH224538   1.099   4.018   2.175 -0.6200 -0.1492  0.5948
 8194TIP3    H124539   1.175   4.054   2.128 -0.6058  0.6519  1.2236
 8194TIP3    H224540   1.132   3.999   2.263 -1.3124  0.8286  1.0698
 8195TIP3   OH224541   0.995   5.713   2.198  0.1129 -0.2051  0.1746
 8195TIP3    H124542   0.927   5.647   2.186 -0.5334  0.3897  0.5177
 8195TIP3    H224543   1.030   5.728   2.111 -0.6752 -0.0216 -0.1169
 8196TIP3   OH224544   7.349   4.837   2.202 -0.0784  0.2685 -0.0791
 8196TIP3    H124545   7.325   4.773   2.269 -0.6711  0.4484 -0.1171
 8196TIP3    H224546   7.294   4.913   2.221 -1.1049 -0.1047 -1.4927
 8197TIP3   OH224547   1.065   6.120   6.074 -0.3484 -0.1163  0.0552
 8197TIP3    H124548   1.086   6.030   6.049 -1.4115  0.5919 -3.8123
 8197TIP3    H224549   0.976   6.115   6.110  0.4525 -0.8976  1.9783
 8198TIP3   OH224550   3.364   7.888   4.366  0.7641 -0.1395 -0.2416
 8198TIP3    H124551   3.361   7.970   4.415  1.9088 -0.4883  0.4202
 8198TIP3    H224552   3.446   7.846   4.393  1.4661 -0.3004 -2.5014
 8199TIP3   OH224553   2.227   6.119   4.469 -0.1652  0.3229 -0.4592
 8199TIP3    H124554   2.143   6.083   4.496 -0.5089  0.7618 -0.9298
 8199TIP3    H224555   2.231   6.102   4.375  0.0362  0.7724 -0.5321
 8200TIP3   OH224556   8.469   7.337   4.049 -0.5119  0.2313 -0.2064
 8200TIP3    H124557   8.412   7.334   4.126 -0.9161 -1.5982 -0.5555
 8200TIP3    H224558   8.409   7.342   3.975 -0.1530  0.5364 -0.4780
 8201TIP3   OH224559   1.375   6.126   3.821  0.3292  0.1116  0.0644
 8201TIP3    H124560   1.286   6.127   3.786  1.2278 -1.7508 -2.3834
 8201TIP3    H224561   1.431   6.144   3.746  2.0711  0.8032  1.4959
 8202TIP3   OH224562   1.658   0.306   3.407 -0.0367 -0.3292  0.6080
 8202TIP3    H124563   1.611   0.365   3.347  1.7267 -1.4833 -2.0249
 8202TIP3    H224564   1.593   0.241   3.432 -0.9175  0.3980  0.2398
 8203TIP3   OH224565   3.004   0.315   1.973  0.0064 -0.1090 -0.8391
 8203TIP3    H124566   2.926   0.316   2.029  0.4336 -0.0014 -0.2326
 8203TIP3    H224567   3.037   0.404   1.977  0.4906 -0.2937 -0.6146
 8204TIP3   OH224568   0.998   6.888   3.233 -0.4055 -0.0276 -0.1236
 8204TIP3    H124569   1.027   6.973   3.200  1.7246 -0.6718  0.0039
 8204TIP3    H224570   0.944   6.908   3.310  1.5639  1.1430  0.9664
 8205TIP3   OH224571   0.460   7.405   6.458 -0.0117  0.8012 -0.1763
 8205TIP3    H124572   0.538   7.356   6.435 -0.3715  1.0005 -1.8250
 8205TIP3    H224573   0.459   7.403   6.554  3.2293  2.7202 -0.0318
 8206TIP3   OH224574   8.386   5.492   4.176  0.4275  0.0403 -0.2379
 8206TIP3    H124575   8.407   5.562   4.238 -1.5348 -0.0045  0.5263
 8206TIP3    H224576   8.368   5.538   4.094  0.0492  0.3498  0.0174
 8207TIP3   OH224577   8.419   4.320   4.191  0.3771  1.0043  0.4251
 8207TIP3    H124578   8.373   4.381   4.249 -0.7577  1.6729 -1.1547
 8207TIP3    H224579   8.427   4.368   4.108  1.3163 -0.2208 -0.1991
 8208TIP3   OH224580   3.186   7.270   4.504  0.5306 -0.3250  0.1908
 8208TIP3    H124581   3.149   7.184   4.481  0.3692 -0.0400 -0.6067
 8208TIP3    H224582   3.120   7.310   4.561  0.8620 -0.9593  1.0417
 8209TIP3   OH224583   1.081   5.521   5.965  0.3004  0.3100  0.2948
 8209TIP3    H124584   1.155   5.462   5.981  0.4111  0.3206 -0.1609
 8209TIP3    H224585   1.069   5.519   5.870  1.0195  1.8801  0.1484
 8210TIP3   OH224586   1.824   3.601   4.413  0.2505 -0.5299  0.3525
 8210TIP3    H124587   1.751   3.594   4.474 -0.6110  0.2090 -0.5786
 8210TIP3    H224588   1.867   3.683   4.437  0.3578 -0.6144  0.4485
 8211TIP3   OH224589   0.167   6.047   4.058 -0.3006  0.1659 -0.0722
 8211TIP3    H124590   0.243   6.086   4.014  0.9809 -0.9671  1.0530
 8211TIP3    H224591   0.192   5.955   4.070 -0.6601  0.3933  2.8255
 8212TIP3   OH224592   0.543   5.207   4.790  0.3461 -0.1464  0.7745
 8212TIP3    H124593   0.610   5.155   4.835  1.4395  0.0178 -0.6328
 8212TIP3    H224594   0.573   5.297   4.797 -0.5662  0.1095  1.5278
 8213TIP3   OH224595   2.986   5.936   4.709  0.1550 -0.8544  0.2372
 8213TIP3    H124596   2.978   5.929   4.613  2.7004 -0.0969 -0.0618
 8213TIP3    H224597   3.043   5.863   4.733 -1.2817 -1.6356  1.3262
 8214TIP3   OH224598   3.660   4.824   6.360 -0.2564  0.1787 -0.9522
 8214TIP3    H124599   3.702   4.877   6.428 -0.3972  0.4209 -1.0529
 8214TIP3    H224600   3.699   4.854   6.278 -0.9914  0.7670 -1.0961
 8215TIP3   OH224601   3.258   4.140   4.127  0.4789 -0.8990  0.5503
 8215TIP3    H124602   3.270   4.231   4.102 -0.8078 -0.9872 -0.4164
 8215TIP3    H224603   3.266   4.140   4.223  1.3098  0.0795  0.4839
 8216TIP3   OH224604   2.519   4.887   5.093 -0.5681 -0.1106  0.0986
 8216TIP3    H124605   2.565   4.963   5.128  0.2745 -0.5099 -0.1381
 8216TIP3    H224606   2.482   4.844   5.171 -2.8589  1.6898  0.0502
 8217TIP3   OH224607   2.302   3.821   4.241  0.1096 -0.0393 -0.1605
 8217TIP3    H124608   2.348   3.759   4.297 -1.5555 -1.1959 -0.0379
 8217TIP3    H224609   2.229   3.771   4.204 -1.3630  1.8755  0.0702
 8218TIP3   OH224610   3.454   4.597   4.129  0.1974  0.4213  0.4457
 8218TIP3    H124611   3.443   4.607   4.224 -1.4473  0.3176  0.2919
 8218TIP3    H224612   3.543   4.563   4.118  0.0991 -0.3931  2.0151
 8219TIP3   OH224613   1.514   5.011   5.043 -0.0384 -0.0993  0.1142
 8219TIP3    H124614   1.582   4.944   5.054  0.4935  0.4263  0.0273
 8219TIP3    H224615   1.484   5.029   5.133 -1.2221 -1.5179  0.0226
 8220TIP3   OH224616   7.918   5.591   2.925 -0.0990 -0.1001 -0.1626
 8220TIP3    H124617   7.899   5.513   2.977  0.9396 -0.1478  0.1679
 8220TIP3    H224618   8.006   5.576   2.891 -0.1274  0.6698 -0.5833
 8221TIP3   OH224619   3.956   5.065   4.557 -0.4301  0.5945 -0.5739
 8221TIP3    H124620   4.033   5.122   4.551  0.4860 -0.4440  0.8031
 8221TIP3    H224621   3.986   4.982   4.518 -1.1792  0.5082 -0.9614
 8222TIP3   OH224622   1.822   4.952   4.409 -0.2052  0.2850 -0.6895
 8222TIP3    H124623   1.753   4.924   4.469 -0.8087 -0.7678 -1.8441
 8222TIP3    H224624   1.787   4.933   4.322  1.7106 -0.6570 -1.2825
 8223TIP3   OH224625   1.303   6.041   5.576 -0.0833  0.1339  0.8531
 8223TIP3    H124626   1.376   6.036   5.637 -0.0221  3.2103  1.1343
 8223TIP3    H224627   1.228   6.009   5.626  0.7319 -1.3478  1.1422
 8224TIP3   OH224628   8.407   2.893   4.953  0.0057 -0.2221 -0.5860
 8224TIP3    H124629   8.422   2.825   4.888 -2.1973 -0.5242 -0.8139
 8224TIP3    H224630   8.341   2.950   4.913  0.0338  0.6609  0.6022
 8225TIP3   OH224631   1.899   5.228   1.277  0.4878 -0.3745 -0.3865
 8225TIP3    H124632   1.960   5.205   1.347 -1.4767 -2.8373  0.5962
 8225TIP3    H224633   1.833   5.283   1.319  0.7538  0.3668 -0.9248
 8226TIP3   OH224634   5.185   0.025   4.437 -0.0402 -0.0607  0.2209
 8226TIP3    H124635   5.142   0.094   4.488  0.5469  0.4447  0.0329
 8226TIP3    H224636   5.113  -0.032   4.409 -0.4046 -0.1979  1.3906
 8227TIP3   OH224637   7.943   7.229   4.095  0.1359  0.2186 -0.2899
 8227TIP3    H124638   7.851   7.238   4.073  0.6876  1.6543 -2.1267
 8227TIP3    H224639   7.959   7.296   4.161 -0.2688 -0.4981  0.5542
 8228TIP3   OH224640   1.392   5.936   3.587 -0.5529  0.2013 -0.1333
 8228TIP3    H124641   1.418   5.864   3.644 -1.2737  1.2485  1.5866
 8228TIP3    H224642   1.300   5.951   3.608 -0.5572  1.2683 -0.8487
 8229TIP3   OH224643   0.179   4.969   4.384  0.2140  0.0706 -0.7642
 8229TIP3    H124644   0.189   4.877   4.407  1.0379  0.0750 -1.0683
 8229TIP3    H224645   0.259   5.010   4.418 -1.2067  1.0900  1.4577
 8230TIP3   OH224646   2.261   3.259   4.343  0.1685  0.2913  0.2389
 8230TIP3    H124647   2.229   3.303   4.421  1.0329 -0.3682  0.9714
 8230TIP3    H224648   2.192   3.196   4.321 -0.0618  0.4651  0.4668
 8231TIP3   OH224649   0.504   7.144   2.705 -0.2031  0.0411 -0.2781
 8231TIP3    H124650   0.563   7.213   2.674  0.2337 -0.3152 -0.2547
 8231TIP3    H224651   0.417   7.172   2.678 -0.2290  1.3935  1.1468
 8232TIP3   OH224652   0.890   4.767   4.481  0.2866  0.6451 -0.1051
 8232TIP3    H124653   0.839   4.700   4.526  2.6339 -0.8558  0.3855
 8232TIP3    H224654   0.898   4.734   4.391  0.0671  1.0998 -0.2972
 8233TIP3   OH224655   4.324   0.534   2.803 -0.3717  0.0574 -0.8728
 8233TIP3    H124656   4.308   0.601   2.870  1.3156  0.4873 -0.8671
 8233TIP3    H224657   4.319   0.451   2.850  0.5315  0.3430 -0.2585
 8234TIP3   OH224658   5.886   0.479   3.883 -1.3179 -0.1037 -0.6380
 8234TIP3    H124659   5.820   0.546   3.901 -1.1900  0.3041 -1.6530
 8234TIP3    H224660   5.920   0.501   3.796  1.3306  0.7052  0.5304
 8235TIP3   OH224661   5.453   0.062   3.310 -0.3341  0.1044  0.0954
 8235TIP3    H124662   5.360   0.050   3.288 -0.9514  1.1030  2.0183
 8235TIP3    H224663   5.473   0.151   3.279  0.0507 -0.2046 -0.5439
 8236TIP3   OH224664   2.246   7.197   5.292  0.1896 -0.5222  0.2090
 8236TIP3    H124665   2.316   7.170   5.232  0.4898  0.8622 -0.0837
 8236TIP3    H224666   2.165   7.172   5.247  0.2095  3.9266 -2.6429
 8237TIP3   OH224667   4.601   0.180   3.808  0.1184  0.1253 -0.0676
 8237TIP3    H124668   4.537   0.111   3.829  2.1894 -1.7639  0.2352
 8237TIP3    H224669   4.614   0.172   3.714  0.8696 -0.3652  0.0748
 8238TIP3   OH224670   0.894   5.178   3.701  0.7685  0.1210  0.0461
 8238TIP3    H124671   0.864   5.147   3.787  1.2379 -1.1624 -0.2390
 8238TIP3    H224672   0.990   5.178   3.709  0.7927  0.6629 -0.2533
 8239TIP3   OH224673   3.013   6.597   3.576 -0.6968  0.1552 -0.1107
 8239TIP3    H124674   3.095   6.623   3.619 -0.4228 -0.1203 -0.4660
 8239TIP3    H224675   2.954   6.577   3.649 -0.7876  1.3801  0.1609
 8240TIP3   OH224676   4.119   0.317   3.954  0.4136 -0.3258  0.1147
 8240TIP3    H124677   4.135   0.382   3.886 -0.7902 -0.5132 -0.3523
 8240TIP3    H224678   4.206   0.299   3.990  0.9142  0.6301 -0.5769
 8241TIP3   OH224679   3.917   4.919   4.258  0.3034 -0.1695 -0.3226
 8241TIP3    H124680   3.846   4.858   4.279 -0.6135  0.2774 -2.0227
 8241TIP3    H224681   3.979   4.910   4.330  0.5844 -3.7101 -0.9478
 8242TIP3   OH224682   8.451   7.589   3.705  0.3867  0.1477  0.2203
 8242TIP3    H124683   8.394   7.628   3.771  1.0896 -1.7932  2.0326
 8242TIP3    H224684   8.395   7.527   3.658 -0.0879  1.4560 -0.9714
 8243TIP3   OH224685   4.081   6.478   3.161  0.2524  0.3747 -0.3728
 8243TIP3    H124686   4.065   6.497   3.253 -1.7625  1.1886 -0.8675
 8243TIP3    H224687   4.167   6.517   3.143  1.6859 -1.7159  1.6674
 8244TIP3   OH224688   3.603   2.356   4.075 -0.0937  0.4356 -0.5700
 8244TIP3    H124689   3.607   2.422   4.006  1.0697 -0.3410 -1.2638
 8244TIP3    H224690   3.618   2.273   4.030 -2.4324 -0.4266  0.1423
 8245TIP3   OH224691   0.323   6.750   4.227 -0.8672 -0.0762 -0.2644
 8245TIP3    H124692   0.232   6.722   4.218 -0.5368 -0.7958 -1.5381
 8245TIP3    H224693   0.338   6.807   4.151 -0.1252 -0.3164 -0.3036
 8246TIP3   OH224694   8.065   5.726   3.265 -0.5863 -0.7457  0.2860
 8246TIP3    H124695   7.971   5.712   3.271 -0.1432 -3.8642  0.4414
 8246TIP3    H224696   8.074   5.819   3.241 -3.6862 -0.7067 -0.8795
 8247TIP3   OH224697   2.550   6.509   4.386  0.2562 -0.1171  0.0978
 8247TIP3    H124698   2.500   6.555   4.453  0.3342 -0.3343  0.3066
 8247TIP3    H224699   2.489   6.445   4.349  0.3993 -0.4326  0.4029
 8248TIP3   OH224700   8.306   7.123   3.274 -0.4598  0.7981  0.3166
 8248TIP3    H124701   8.347   7.101   3.358 -1.4178 -0.3434  0.4997
 8248TIP3    H224702   8.212   7.115   3.290 -0.7507  2.8434 -0.2543
 8249TIP3   OH224703   0.264   7.143   4.837 -0.1022  0.2520 -0.1716
 8249TIP3    H124704   0.287   7.187   4.755  0.7607 -1.9737 -1.1674
 8249TIP3    H224705   0.193   7.083   4.813  0.4758 -0.7570  0.6037
 8250TIP3   OH224706   0.693   6.503   3.689 -0.3061 -0.0508 -0.3130
 8250TIP3    H124707   0.620   6.447   3.716  1.2325 -1.5199  0.8878
 8250TIP3    H224708   0.738   6.525   3.771  0.6108  0.8378 -1.0393
 8251TIP3   OH224709   2.456   6.670   4.587 -0.1013 -0.3324 -0.7275
 8251TIP3    H124710   2.494   6.748   4.545 -0.4170 -0.6376 -1.5870
 8251TIP3    H224711   2.362   6.688   4.589 -0.1139 -0.4392 -0.3899
 8252TIP3   OH224712   1.341   5.588   3.820 -0.1748 -0.3408 -0.2749
 8252TIP3    H124713   1.414   5.646   3.799 -0.3409  0.3245  0.9442
 8252TIP3    H224714   1.352   5.569   3.913 -1.1010 -0.8855 -0.2724
 8253TIP3   OH224715   2.584   7.434   3.602 -0.2770  0.2611  0.2676
 8253TIP3    H124716   2.611   7.525   3.588  2.1488 -0.2031  1.7999
 8253TIP3    H224717   2.489   7.440   3.616 -0.1049  2.5780  0.6774
 8254TIP3   OH224718   4.397   2.851   0.287 -0.0130 -0.2245 -0.1130
 8254TIP3    H124719   4.466   2.809   0.339 -1.2631 -0.4658  1.3666
 8254TIP3    H224720   4.411   2.817   0.198  1.7050 -0.3501  0.1773
 8255TIP3   OH224721   1.956   6.787   3.724 -0.0072  0.6577  0.2327
 8255TIP3    H124722   1.902   6.862   3.748 -0.9088  0.6632 -1.7129
 8255TIP3    H224723   1.904   6.740   3.659  1.9315  0.1680 -1.0095
 8256TIP3   OH224724   7.970   7.332   4.366 -0.0764  0.3125 -0.0049
 8256TIP3    H124725   8.008   7.261   4.417 -2.4092 -0.4234  0.7691
 8256TIP3    H224726   7.876   7.313   4.365 -0.6738  3.1277 -0.1771
 8257TIP3   OH224727   3.445   6.299   3.398 -0.0037  0.3067 -0.0200
 8257TIP3    H124728   3.531   6.319   3.363 -1.1577  1.2961 -2.4051
 8257TIP3    H224729   3.454   6.212   3.438  2.2313  0.6959  0.3740
 8258TIP3   OH224730   0.054   4.992   4.810 -0.0837 -0.6012  1.1425
 8258TIP3    H124731   0.017   4.948   4.887  0.4688 -0.6139  1.4055
 8258TIP3    H224732   0.000   4.962   4.737  0.3086 -1.7550  1.3093
 8259TIP3   OH224733   0.982   7.369   4.859 -0.3481  0.4992  0.2345
 8259TIP3    H124734   1.045   7.437   4.881 -0.5747 -0.1217  2.9512
 8259TIP3    H224735   1.031   7.287   4.865 -1.3144  0.0299  2.1900
 8260TIP3   OH224736   2.950   5.518   4.622 -0.4532 -0.0644 -0.2080
 8260TIP3    H124737   2.979   5.447   4.678 -1.1495  0.3418  0.6777
 8260TIP3    H224738   2.855   5.508   4.618 -0.4176 -0.0284 -1.2210
 8261TIP3   OH224739   1.625   5.697   2.724  0.1918  0.1446  0.1886
 8261TIP3    H124740   1.575   5.722   2.802 -1.4785  0.2894 -0.9185
 8261TIP3    H224741   1.716   5.691   2.755 -0.5197 -0.3297  2.2654
 8262TIP3   OH224742   2.441   6.608   3.844  0.1637 -0.7269  0.4726
 8262TIP3    H124743   2.424   6.534   3.786  0.1586 -0.2593 -0.1172
 8262TIP3    H224744   2.357   6.654   3.849  0.2662 -0.5468  0.5402
 8263TIP3   OH224745   2.247   6.345   4.758 -0.4765  0.7715 -0.1470
 8263TIP3    H124746   2.335   6.310   4.741 -2.3460 -3.4761 -1.7463
 8263TIP3    H224747   2.235   6.334   4.852  0.5800  1.0249  0.0239
 8264TIP3   OH224748   1.351   4.516   6.129 -0.0130 -0.0446  0.6915
 8264TIP3    H124749   1.438   4.517   6.169  0.3244 -0.8273  0.0023
 8264TIP3    H224750   1.326   4.608   6.123  1.4296  0.2923 -0.5033
 8265TIP3   OH224751   2.721   6.001   6.067  0.5953  0.2050 -0.3232
 8265TIP3    H124752   2.779   5.969   5.998  0.4809 -0.3895 -0.1485
 8265TIP3    H224753   2.650   6.045   6.020 -0.6550 -2.1450 -0.6872
 8266TIP3   OH224754   0.351   7.612   3.360 -0.0798 -0.0153 -0.0982
 8266TIP3    H124755   0.263   7.586   3.386  0.3306 -2.5066 -1.1576
 8266TIP3    H224756   0.343   7.639   3.269  0.5299 -1.6780 -0.6486
 8267TIP3   OH224757   0.025   5.684   3.865 -0.3266  0.1499  0.7152
 8267TIP3    H124758   0.087   5.751   3.893  0.6090 -0.3181 -0.2336
 8267TIP3    H224759   0.031   5.684   3.770 -0.2310 -1.3754  0.7145
 8268TIP3   OH224760   1.169   6.963   5.464 -0.4402 -0.2969  0.1585
 8268TIP3    H124761   1.256   6.924   5.452 -0.8103 -0.6296 -1.4772
 8268TIP3    H224762   1.180   7.020   5.540  1.3524  0.0457 -0.3119
 8269TIP3   OH224763   3.063   4.993   5.399  0.1383  0.0779 -0.6263
 8269TIP3    H124764   3.028   5.023   5.483  0.8266 -1.9775  0.4084
 8269TIP3    H224765   2.987   4.961   5.351 -0.1437  0.5340 -0.4880
 8270TIP3   OH224766   0.233   5.560   4.385 -0.5109  0.3902 -0.5159
 8270TIP3    H124767   0.238   5.465   4.390 -0.1913  0.4602  0.5722
 8270TIP3    H224768   0.276   5.581   4.302  0.6328 -0.3331 -0.1297
 8271TIP3   OH224769   0.585   4.449   3.193  0.3552 -0.2906  0.7682
 8271TIP3    H124770   0.654   4.426   3.255  2.7201  2.1127 -0.8903
 8271TIP3    H224771   0.630   4.460   3.109 -1.8118  2.5131 -0.0999
 8272TIP3   OH224772   1.643   6.505   6.668 -0.5067 -0.1634  0.3481
 8272TIP3    H124773   1.603   6.580   6.624  3.2512  1.6008 -0.2646
 8272TIP3    H224774   1.651   6.438   6.599 -1.9802 -0.4026  0.3938
 8273TIP3   OH224775   0.031   6.430   5.226 -0.1937  0.4291  0.0379
 8273TIP3    H124776   0.070   6.373   5.159  0.1445  0.9249 -0.1860
 8273TIP3    H224777   0.101   6.444   5.290  0.0917  1.5559 -0.5123
 8274TIP3   OH224778   1.059   5.242   2.021 -0.9774 -0.1462 -0.2079
 8274TIP3    H124779   0.969   5.273   2.031 -1.0062 -0.5769  0.8955
 8274TIP3    H224780   1.113   5.317   2.046 -1.0381 -0.2838  0.3396
 8275TIP3   OH224781   2.176   4.338   5.845 -0.5139  0.0932  0.0241
 8275TIP3    H124782   2.270   4.350   5.852 -0.6190  1.0379 -0.1443
 8275TIP3    H224783   2.164   4.243   5.835  0.4001 -0.0382  0.1848
 8276TIP3   OH224784   6.241   0.651   2.897  0.3135  0.6798  0.3036
 8276TIP3    H124785   6.278   0.726   2.943 -0.7266  1.6395 -0.3922
 8276TIP3    H224786   6.147   0.669   2.894  0.1384 -0.3238 -0.4717
 8277TIP3   OH224787   2.145   6.632   3.218 -0.5621 -0.1439 -0.1575
 8277TIP3    H124788   2.181   6.549   3.185 -3.3325 -1.4591 -0.0217
 8277TIP3    H224789   2.188   6.644   3.303 -2.1027 -2.9252  1.1114
 8278TIP3   OH224790   3.316   7.597   4.695  0.5296 -0.5852  0.0071
 8278TIP3    H124791   3.342   7.555   4.777  2.9620  1.3708  0.3066
 8278TIP3    H224792   3.223   7.618   4.707 -0.4227 -4.5993  0.3198
 8279TIP3   OH224793   1.477   7.638   5.694 -0.1437  0.1409 -0.1353
 8279TIP3    H124794   1.421   7.579   5.644 -1.7575 -0.2134  2.0209
 8279TIP3    H224795   1.417   7.693   5.744  1.3540  3.1250 -1.4905
 8280TIP3   OH224796   1.415   5.609   6.050 -0.1753  0.1387  0.3055
 8280TIP3    H124797   1.475   5.678   6.078  0.6409  0.0536 -1.1815
 8280TIP3    H224798   1.467   5.554   5.991 -2.2086  1.2024 -2.6055
 8281TIP3   OH224799   1.651   7.022   4.549 -0.4547 -0.1863 -0.4509
 8281TIP3    H124800   1.690   7.089   4.494  0.1100  0.4558  0.7268
 8281TIP3    H224801   1.558   7.046   4.554 -0.1077  0.9382  0.5937
 8282TIP3   OH224802   3.684   6.003   4.931 -0.1550 -0.4481  0.1065
 8282TIP3    H124803   3.604   5.950   4.922 -0.2329 -0.1753 -0.8273
 8282TIP3    H224804   3.654   6.093   4.918  0.4453 -0.4159 -1.1456
 8283TIP3   OH224805   0.769   7.701   2.734 -0.1563 -0.8094 -0.1772
 8283TIP3    H124806   0.764   7.788   2.773 -0.6393 -1.2895  0.8536
 8283TIP3    H224807   0.817   7.714   2.652  0.0080  0.3763  0.0999
 8284TIP3   OH224808   3.096   7.891   3.876  0.5241 -0.0266 -0.5719
 8284TIP3    H124809   3.082   7.904   3.970  0.7223  0.7382 -0.6478
 8284TIP3    H224810   3.166   7.825   3.871  0.6065  0.0321 -0.1840
 8285TIP3   OH224811   1.623   6.061   4.997  0.3191 -0.2309  0.0870
 8285TIP3    H124812   1.632   6.066   5.092  2.1921 -0.0649 -0.0893
 8285TIP3    H224813   1.568   5.984   4.982  1.6430 -1.4104  1.2210
 8286TIP3   OH224814   7.623   5.530   2.889  0.1973 -0.0947 -0.2325
 8286TIP3    H124815   7.565   5.582   2.945  0.0622 -1.3734  0.8401
 8286TIP3    H224816   7.710   5.547   2.924  0.2419  0.0839 -0.4309
 8287TIP3   OH224817   3.043   1.327   4.840 -0.2757  0.0045 -0.1100
 8287TIP3    H124818   3.075   1.266   4.773 -1.2952  0.7326 -1.2826
 8287TIP3    H224819   3.122   1.358   4.884  0.2473 -2.2521  0.5928
 8288TIP3   OH224820  -0.029   5.596   3.083 -0.2020 -0.9571  0.0769
 8288TIP3    H124821   0.027   5.665   3.120 -1.4320 -0.6874  1.4945
 8288TIP3    H224822   0.013   5.514   3.111  0.3791 -0.7738 -0.2505
 8289TIP3   OH224823   2.144   2.121   5.363 -0.4745 -0.2474  0.7842
 8289TIP3    H124824   2.220   2.168   5.329 -0.4242 -1.3434 -0.7035
 8289TIP3    H224825   2.158   2.116   5.457  0.0208  1.7936  0.8284
 8290TIP3   OH224826   2.508   7.869   3.797  0.4756 -0.1132 -0.8738
 8290TIP3    H124827   2.452   7.888   3.872  0.4383 -0.2721 -0.8602
 8290TIP3    H224828   2.474   7.925   3.727  1.2002  0.8471 -0.4703
 8291TIP3   OH224829   3.315   6.550   3.872  0.0895 -0.3346  0.8167
 8291TIP3    H124830   3.319   6.553   3.776 -0.0098 -2.4875  0.7131
 8291TIP3    H224831   3.407   6.543   3.899 -0.0234 -3.2987  0.6610
 8292TIP3   OH224832   2.810   7.027   5.308  0.2225  0.3278  0.1881
 8292TIP3    H124833   2.888   7.081   5.295  0.7416 -0.2737  0.7796
 8292TIP3    H224834   2.778   7.052   5.395 -0.3515  0.7035 -0.1270
 8293TIP3   OH224835   0.153   6.339   4.741  0.4534 -0.3846 -0.1949
 8293TIP3    H124836   0.227   6.395   4.717  0.8139 -0.3349  0.9875
 8293TIP3    H224837   0.125   6.298   4.659  1.1127  0.4175 -0.8188
 8294TIP3   OH224838   0.251   6.206   2.847 -0.5950 -0.2338  0.3948
 8294TIP3    H124839   0.179   6.267   2.861  0.6730  1.2222  0.7043
 8294TIP3    H224840   0.278   6.222   2.756  0.0295 -0.0283  0.6194
 8295TIP3   OH224841   1.279   7.255   5.126  0.5336 -0.6995  0.2899
 8295TIP3    H124842   1.264   7.268   5.032  0.4500 -1.0892  0.2473
 8295TIP3    H224843   1.371   7.233   5.132  1.2578  2.2467  0.6098
 8296TIP3   OH224844   1.434   2.277   5.447  0.1409 -0.5019  0.3208
 8296TIP3    H124845   1.525   2.268   5.418 -0.0351  0.4254 -0.5409
 8296TIP3    H224846   1.392   2.195   5.419  0.9994 -1.4960  1.8718
 8297TIP3   OH224847   2.190   6.755   3.846  0.4413  0.5467  0.4362
 8297TIP3    H124848   2.199   6.829   3.906  2.8173  2.9294 -2.6884
 8297TIP3    H224849   2.110   6.774   3.796  2.7838  2.9003 -2.6471
 8298TIP3   OH224850   2.274   5.564   6.457  0.4374 -0.2509  0.5369
 8298TIP3    H124851   2.289   5.521   6.373 -0.4322 -0.8659  0.6889
 8298TIP3    H224852   2.317   5.649   6.449  3.0616 -1.5376  0.5880
 8299TIP3   OH224853   3.545   4.856   3.756 -0.4748 -0.9887 -0.0242
 8299TIP3    H124854   3.525   4.927   3.696  0.8353 -1.3624 -0.9244
 8299TIP3    H224855   3.480   4.788   3.736 -0.1742 -1.0262 -0.8641
 8300TIP3   OH224856   4.071   4.280   4.798 -0.7117 -0.3498  0.3180
 8300TIP3    H124857   4.068   4.373   4.820  0.7742  0.0242 -0.9638
 8300TIP3    H224858   4.130   4.242   4.863 -0.3581 -0.1519  0.1222
 8301TIP3   OH224859   1.573   6.460   5.214 -0.3210 -1.0721  0.0536
 8301TIP3    H124860   1.554   6.441   5.122  0.2534  0.2901 -0.3590
 8301TIP3    H224861   1.668   6.454   5.220 -0.2966 -0.3878  0.3714
 8302TIP3   OH224862   4.710   5.867   6.360 -0.2421  0.0328  0.0250
 8302TIP3    H124863   4.638   5.839   6.303  0.5117 -0.6897 -0.5871
 8302TIP3    H224864   4.690   5.827   6.445 -0.4189 -0.3977 -0.2185
 8303TIP3   OH224865   1.068   5.578   4.848 -0.4346 -0.3682 -0.0315
 8303TIP3    H124866   1.047   5.653   4.793  2.2017  0.2595 -0.2508
 8303TIP3    H224867   1.015   5.506   4.813 -1.8702  1.0212 -0.7495
 8304TIP3   OH224868   1.274   7.788   3.702 -0.0953  0.0290 -0.4997
 8304TIP3    H124869   1.246   7.711   3.651 -0.7519 -0.1045  0.0481
 8304TIP3    H224870   1.262   7.761   3.793  1.5288  0.0959 -0.2553
 8305TIP3   OH224871   0.514   5.417   4.335  0.4402  0.4653  0.3937
 8305TIP3    H124872   0.442   5.397   4.277 -1.5023  0.5737  2.6775
 8305TIP3    H224873   0.547   5.331   4.363  0.9938  0.4183 -0.3871
 8306TIP3   OH224874   8.378   7.004   2.484  0.1435  0.6746  0.6458
 8306TIP3    H124875   8.400   6.973   2.572  1.4907  0.4678  0.2536
 8306TIP3    H224876   8.437   7.078   2.469  0.2991  0.3683 -0.2875
 8307TIP3   OH224877   0.918   5.325   6.657  0.0752 -0.9520  0.6492
 8307TIP3    H124878   0.826   5.308   6.676 -0.0489  0.5486  1.4105
 8307TIP3    H224879   0.948   5.381   6.729  2.1533 -3.1515  1.5652
 8308TIP3   OH224880   3.150   7.183   4.916  0.3941 -0.5340 -0.2920
 8308TIP3    H124881   3.213   7.133   4.865  0.2342  0.9682 -2.0112
 8308TIP3    H224882   3.073   7.126   4.922  1.0926 -1.4598 -0.1422
 8309TIP3   OH224883   1.660   6.202   4.736 -0.5231  0.0988  0.0317
 8309TIP3    H124884   1.627   6.287   4.764  2.7370  1.3420  0.3239
 8309TIP3    H224885   1.651   6.146   4.814 -0.9002  0.6831  0.4158
 8310TIP3   OH224886   6.018   0.192   3.297 -0.2567 -0.1094 -0.3678
 8310TIP3    H124887   6.093   0.228   3.249 -0.2910  1.8473  0.9631
 8310TIP3    H224888   6.023   0.098   3.282  1.3086  0.1859 -1.9462
 8311TIP3   OH224889   3.767   6.053   5.176 -0.1086  0.0982  0.6149
 8311TIP3    H124890   3.853   6.025   5.207  0.3711  1.5826  0.6629
 8311TIP3    H224891   3.748   5.996   5.102  0.4803 -0.8784  1.2042
 8312TIP3   OH224892   3.095   4.656   4.976 -0.4910 -0.5634 -0.3311
 8312TIP3    H124893   3.006   4.677   5.004 -0.4707 -1.1524  0.1915
 8312TIP3    H224894   3.108   4.565   5.004  0.6004 -0.1918  0.4153
 8313TIP3   OH224895   2.181   7.397   4.329 -0.1377  0.0789 -0.0901
 8313TIP3    H124896   2.119   7.469   4.321 -0.6148 -0.3472 -0.2202
 8313TIP3    H224897   2.180   7.375   4.422  0.1326  0.3513 -0.0224
 8314TIP3   OH224898   6.391   0.784   2.639  0.2223 -0.0587  0.0632
 8314TIP3    H124899   6.331   0.725   2.592  1.1277 -1.9381  1.1923
 8314TIP3    H224900   6.334   0.841   2.691 -0.7354  1.0869 -2.1711
 8315TIP3   OH224901   4.551   3.670   4.161  0.4030  0.4402  0.0280
 8315TIP3    H124902   4.587   3.657   4.248  0.9492  0.7096 -0.1564
 8315TIP3    H224903   4.512   3.757   4.164 -0.7705 -0.0882  0.4076
 8316TIP3   OH224904   2.500   6.349   4.011 -0.1042 -0.8343  0.2609
 8316TIP3    H124905   2.415   6.343   4.055 -0.6752 -0.1624 -0.7491
 8316TIP3    H224906   2.511   6.442   3.992  1.5099 -0.7140  1.6349
 8317TIP3   OH224907   1.891   4.559   4.645  0.2051  0.7741 -0.2517
 8317TIP3    H124908   1.908   4.517   4.730 -1.2820 -0.3773 -0.4965
 8317TIP3    H224909   1.814   4.614   4.661 -0.2710  0.3145 -0.9184
 8318TIP3   OH224910   0.611   6.925   4.581 -0.6171  0.2605 -0.4166
 8318TIP3    H124911   0.622   6.891   4.492 -1.1912 -2.6960  0.5649
 8318TIP3    H224912   0.693   6.902   4.626 -0.9365  0.3533  0.2283
 8319TIP3   OH224913   0.575   7.664   4.327  0.3459  0.6729  0.2022
 8319TIP3    H124914   0.656   7.713   4.316  0.9412 -0.4324 -0.5437
 8319TIP3    H224915   0.598   7.590   4.384  0.4791 -0.9526 -1.8674
 8320TIP3   OH224916   3.223   5.976   4.983 -0.6989  0.3799  0.4678
 8320TIP3    H124917   3.237   5.904   5.044  0.7628 -0.6113 -1.0087
 8320TIP3    H224918   3.130   5.969   4.959 -0.7479 -0.5385  0.9110
 8321TIP3   OH224919   0.518   6.932   3.460 -0.1411  0.3313 -0.0403
 8321TIP3    H124920   0.568   6.851   3.472  0.6003  0.6045 -1.1813
 8321TIP3    H224921   0.533   6.981   3.541 -2.5309 -1.6645  1.6837
 8322TIP3   OH224922   3.962   5.978   4.894  0.1121  0.6809 -1.1376
 8322TIP3    H124923   3.867   5.976   4.905  0.3946  0.6355  1.6903
 8322TIP3    H224924   3.991   6.050   4.951  1.9271 -0.5030 -0.5316
 8323TIP3   OH224925   3.361   5.570   4.864  0.1367  0.3978 -0.0897
 8323TIP3    H124926   3.418   5.527   4.800 -0.1381  0.9541 -0.7115
 8323TIP3    H224927   3.322   5.498   4.914  0.4629 -0.0291 -0.4477
 8324TIP3   OH224928   1.994   7.001   4.297  0.1496  0.0376 -0.0607
 8324TIP3    H124929   2.077   7.042   4.270  0.7562  0.1712  1.9184
 8324TIP3    H224930   1.927   7.050   4.251  1.0942  0.9420 -0.4946
 8325TIP3   OH224931   8.378   6.610   6.501 -0.4657 -0.1009  0.3954
 8325TIP3    H124932   8.349   6.529   6.544 -0.5769 -0.4150 -0.2602
 8325TIP3    H224933   8.404   6.667   6.573 -0.5198 -0.6704  0.8753
 8326TIP3   OH224934   6.476   7.541   0.304  0.6869  0.3337  0.0515
 8326TIP3    H124935   6.522   7.457   0.301  0.9296  0.4795 -0.2777
 8326TIP3    H224936   6.542   7.605   0.278  0.4474  0.6050  0.1166
 8327TIP3   OH224937   4.503   4.296   3.474 -0.2376 -0.2367  0.0217
 8327TIP3    H124938   4.585   4.255   3.500  0.0706 -0.7130 -1.6882
 8327TIP3    H224939   4.518   4.389   3.486  0.0653 -0.4115  1.0712
 8328TIP3   OH224940   2.290   5.767   3.579 -0.5659  0.5566  0.3135
 8328TIP3    H124941   2.261   5.851   3.615 -3.4174 -0.3355  0.2265
 8328TIP3    H224942   2.331   5.790   3.495 -1.3172  1.8681  0.2871
 8329TIP3   OH224943   2.180   6.665   5.279 -0.4804  0.6385  0.2924
 8329TIP3    H124944   2.233   6.694   5.205  0.6216  0.5082  1.0074
 8329TIP3    H224945   2.147   6.579   5.252 -0.2997  0.7097 -0.1632
 8330TIP3   OH224946   2.180   5.342   4.719  0.5333 -0.0311 -0.6460
 8330TIP3    H124947   2.146   5.290   4.792 -2.7873  1.5285 -1.0251
 8330TIP3    H224948   2.131   5.312   4.643  2.3671 -0.0258 -1.8657
 8331TIP3   OH224949   7.353   4.188   5.892  0.0852 -0.1087  0.2361
 8331TIP3    H124950   7.384   4.242   5.819  1.3752 -0.6106  0.3871
 8331TIP3    H224951   7.407   4.216   5.966 -2.1627  1.3689  1.3498
 8332TIP3   OH224952   0.655   6.711   3.520 -0.4176 -0.2304  0.4206
 8332TIP3    H124953   0.636   6.649   3.590 -0.1201 -0.5060  0.2613
 8332TIP3    H224954   0.744   6.742   3.539  0.0268 -1.0072 -0.3487
 8333TIP3   OH224955   1.424   8.035   2.919  0.4507  0.3626 -0.5213
 8333TIP3    H124956   1.374   7.968   2.872  1.7661 -0.6588 -0.5059
 8333TIP3    H224957   1.500   7.989   2.953  1.4038  1.8701 -0.5300
 8334TIP3   OH224958   1.927   4.909   4.037 -0.6298  0.1002 -0.5496
 8334TIP3    H124959   1.968   4.968   4.101 -0.6796 -0.7961  0.3210
 8334TIP3    H224960   1.945   4.821   4.071  1.9141 -0.5382 -3.2828
 8335TIP3   OH224961   0.549   6.501   5.276 -0.1117  0.6242 -0.0621
 8335TIP3    H124962   0.519   6.524   5.363  2.3397  2.7771  0.2933
 8335TIP3    H224963   0.643   6.520   5.277  0.5076 -1.9216 -2.3269
 8336TIP3   OH224964   3.469   0.511   5.085  0.1482 -0.2843 -0.2886
 8336TIP3    H124965   3.406   0.510   5.158  0.3179  0.5166 -0.1263
 8336TIP3    H224966   3.415   0.516   5.007  0.0100  0.4136 -0.1486
 8337TIP3   OH224967   2.576   6.201   4.294 -0.0963 -0.2006 -0.1684
 8337TIP3    H124968   2.596   6.145   4.219 -1.1248 -1.4879  0.4893
 8337TIP3    H224969   2.504   6.256   4.265 -1.2962 -1.5258  0.2409
 8338TIP3   OH224970   1.845   0.361   6.818 -0.7045 -0.5009 -0.4694
 8338TIP3    H124971   1.912   0.331   6.880 -0.0946 -0.4529 -1.0857
 8338TIP3    H224972   1.885   0.438   6.776 -1.3668 -0.1540 -0.4583
 8339TIP3   OH224973   2.798   4.744   5.990  0.2907 -0.0207  0.3831
 8339TIP3    H124974   2.874   4.727   6.045  0.9868  0.7368 -0.3249
 8339TIP3    H224975   2.789   4.839   5.989  0.7186  0.0165 -1.3644
 8340TIP3   OH224976   3.500   0.195   6.877 -0.3505 -0.2223  0.2271
 8340TIP3    H124977   3.478   0.142   6.800 -1.8641  1.9496 -0.8872
 8340TIP3    H224978   3.442   0.162   6.946  0.1578 -1.3637  0.1192
 8341TIP3   OH224979   0.503   4.574   4.982  0.4254  0.5454 -0.3701
 8341TIP3    H124980   0.419   4.551   4.942 -0.0366  1.5534  0.0087
 8341TIP3    H224981   0.490   4.559   5.076  0.7456  0.4871 -0.3321
 8342TIP3   OH224982   0.457   7.523   4.102 -0.4907  0.3447 -0.2152
 8342TIP3    H124983   0.523   7.588   4.081  0.5894 -0.1893  1.4303
 8342TIP3    H224984   0.400   7.567   4.165 -0.7299  0.2523 -0.3662
 8343TIP3   OH224985   2.862   6.626   1.237 -0.4194 -0.4771 -0.1520
 8343TIP3    H124986   2.850   6.537   1.205 -0.8719 -0.6592  0.5281
 8343TIP3    H224987   2.773   6.659   1.251 -0.3575  0.8646 -2.5608
 8344TIP3   OH224988   5.995   0.588   3.663 -0.0622  0.1815  0.1590
 8344TIP3    H124989   5.918   0.570   3.609  1.2622 -0.9274 -1.4292
 8344TIP3    H224990   6.021   0.676   3.638 -1.5669  1.0722  1.6671
 8345TIP3   OH224991   1.670   5.403   2.750  0.1549  0.1380  0.3135
 8345TIP3    H124992   1.614   5.479   2.732  1.6069  1.2250  0.3395
 8345TIP3    H224993   1.632   5.332   2.697 -0.1985  1.3268 -1.0484
 8346TIP3   OH224994   1.814   7.053   4.003  0.7297  0.1873 -0.0822
 8346TIP3    H124995   1.734   7.051   4.056  2.5704 -1.9533  2.7569
 8346TIP3    H224996   1.782   7.055   3.913 -2.5143  2.6638  1.0209
 8347TIP3   OH224997   3.117   5.427   3.752 -0.1282  0.5598  0.8194
 8347TIP3    H124998   3.174   5.462   3.821  2.8919 -0.7413 -0.9131
 8347TIP3    H224999   3.044   5.488   3.748  1.8374  3.1171  2.1653
 8348TIP3   OH225000   2.193   7.336   3.418 -0.3501  0.2254  0.2922
 8348TIP3    H125001   2.256   7.271   3.387  0.5009  0.8704  0.6651
 8348TIP3    H225002   2.222   7.358   3.506  1.6842  3.9500 -1.1653
 8349TIP3   OH225003   2.870   4.088   2.829  0.4218  0.2349 -0.2663
 8349TIP3    H125004   2.904   4.041   2.753  0.1952  1.4568 -1.1368
 8349TIP3    H225005   2.945   4.093   2.889  0.8816  0.1438 -0.8281
 8350TIP3   OH225006   3.019   6.227   4.331  0.1602  0.2646  0.0193
 8350TIP3    H125007   2.987   6.258   4.247  0.0411  1.0828  0.3596
 8350TIP3    H225008   3.111   6.204   4.315 -0.8208 -3.0424 -1.2020
 8351TIP3   OH225009   1.622   3.737   6.286  0.2454 -0.5276 -0.4761
 8351TIP3    H125010   1.579   3.707   6.205  1.7085  1.1514 -1.9121
 8351TIP3    H225011   1.697   3.677   6.296  0.9691  0.2400 -1.2431
 8352TIP3   OH225012   0.485   2.747   2.943  0.0223  0.0695 -0.9078
 8352TIP3    H125013   0.405   2.798   2.956  1.1824  1.5706  0.7863
 8352TIP3    H225014   0.547   2.809   2.903  0.5928 -0.8300 -1.4413
 8353TIP3   OH225015   0.064   7.948   4.740  0.5143 -0.0618 -0.1813
 8353TIP3    H125016   0.000   7.878   4.755 -0.2045  0.7857  0.7661
 8353TIP3    H225017   0.061   7.963   4.645 -2.9268  2.0248  0.1682
 8354TIP3   OH225018   3.474   4.547   3.597 -0.2574 -0.6122  0.2409
 8354TIP3    H125019   3.419   4.484   3.551 -0.2945 -0.7216  0.4325
 8354TIP3    H225020   3.462   4.526   3.690  0.2798 -0.7848  0.2737
 8355TIP3   OH225021   0.328   5.094   3.357 -0.1008  0.3582  0.6244
 8355TIP3    H125022   0.265   5.057   3.419 -1.6360 -1.3077 -1.8578
 8355TIP3    H225023   0.325   5.188   3.373 -1.6731  0.0966  1.9779
 8356TIP3   OH225024   0.277   6.749   3.155 -0.6709  0.4562  0.4715
 8356TIP3    H125025   0.273   6.843   3.137  0.1754  0.1438 -1.5213
 8356TIP3    H225026   0.365   6.734   3.188 -0.2574  0.1554 -0.7162
 8357TIP3   OH225027   1.111   3.174   3.898  0.1640 -0.0508  0.3058
 8357TIP3    H125028   1.186   3.158   3.841  1.1618  0.0229  1.5688
 8357TIP3    H225029   1.120   3.110   3.968 -0.4550  0.5591  0.9521
 8358TIP3   OH225030   2.668   4.749   3.532  0.8892  0.2946 -0.4639
 8358TIP3    H125031   2.673   4.657   3.560  1.0816  0.4400 -0.0135
 8358TIP3    H225032   2.747   4.789   3.568  1.1823  0.4681 -1.2972
 8359TIP3   OH225033   1.691   0.242   5.246  0.4646 -0.2754  0.3036
 8359TIP3    H125034   1.643   0.225   5.164 -0.2194  0.3898  0.5576
 8359TIP3    H225035   1.771   0.190   5.238 -0.0709 -1.0230 -0.3483
 8360TIP3   OH225036   4.225   1.637   3.705 -0.0594  0.2640  0.0630
 8360TIP3    H125037   4.262   1.550   3.720 -1.4782 -0.6457 -1.5016
 8360TIP3    H225038   4.256   1.661   3.618 -1.2985  0.4292 -0.3491
 8361TIP3   OH225039   2.556   6.020   3.855 -0.5207  0.9277  0.0553
 8361TIP3    H125040   2.462   6.005   3.841 -0.9056  4.1850 -1.0135
 8361TIP3    H225041   2.594   6.024   3.768  0.4176  0.9163  0.4548
 8362TIP3   OH225042   2.912   4.311   3.799  0.0280  0.0459  0.5126
 8362TIP3    H125043   2.888   4.236   3.745  1.3204 -0.5069  0.6844
 8362TIP3    H225044   2.858   4.302   3.877 -1.9313  0.9152 -0.7236
 8363TIP3   OH225045   0.420   6.510   3.510  0.1350  0.0260  0.1351
 8363TIP3    H125046   0.359   6.465   3.451  2.0438 -0.5909 -1.4218
 8363TIP3    H225047   0.422   6.600   3.479  1.0005 -0.2559 -0.6276
 8364TIP3   OH225048   1.890   5.867   3.920 -0.1998  0.5312 -0.0268
 8364TIP3    H125049   1.801   5.902   3.929 -0.0497  0.9894 -0.3064
 8364TIP3    H225050   1.908   5.827   4.005 -1.3519 -1.1565 -0.5496
 8365TIP3   OH225051   2.394   6.821   3.618 -0.6151  0.0342  0.3761
 8365TIP3    H125052   2.412   6.915   3.617  3.1675 -0.6397  0.3185
 8365TIP3    H225053   2.329   6.810   3.688 -0.1341  2.4967  1.2615
 8366TIP3   OH225054   3.882   7.211   4.362  0.0250  0.5033  0.3011
 8366TIP3    H125055   3.857   7.295   4.324 -0.1840  0.0367 -0.5912
 8366TIP3    H225056   3.977   7.208   4.355 -0.0084  0.4434 -0.1428
 8367TIP3   OH225057   5.155   6.137   3.679 -0.2031 -0.0970 -0.3756
 8367TIP3    H125058   5.064   6.127   3.707  0.1721 -1.0378  0.5548
 8367TIP3    H225059   5.152   6.203   3.610 -1.5451  0.1196 -0.1235
 8368TIP3   OH225060   4.790   5.195   3.229 -0.3163  0.4954  0.4983
 8368TIP3    H125061   4.861   5.190   3.164 -0.5805 -1.2505  0.3221
 8368TIP3    H225062   4.835   5.217   3.311  0.1331  1.7728 -0.0716
 8369TIP3   OH225063   2.881   6.215   2.442 -0.5490 -0.1021 -0.1575
 8369TIP3    H125064   2.967   6.204   2.402  0.2223 -0.2514  1.4861
 8369TIP3    H225065   2.867   6.309   2.446  0.3680 -0.0088  1.2374
 8370TIP3   OH225066   4.701   4.935   1.497 -0.4263 -0.0902 -0.3700
 8370TIP3    H125067   4.650   4.864   1.457 -0.8509 -0.2249  0.4070
 8370TIP3    H225068   4.635   4.994   1.533 -0.0420  0.0470  0.1061
 8371TIP3   OH225069   1.206   6.070   4.382  0.3072 -0.0442 -0.2694
 8371TIP3    H125070   1.235   6.092   4.471 -1.0421  0.7323  0.0053
 8371TIP3    H225071   1.243   5.984   4.365  0.9894  0.0121  0.8642
 8372TIP3   OH225072   2.403   5.691   2.628  0.0284 -0.0752  0.3043
 8372TIP3    H125073   2.358   5.687   2.544  2.3792 -1.8931 -0.9178
 8372TIP3    H225074   2.365   5.620   2.680 -0.0984 -0.1651  0.0883
 8373TIP3   OH225075   5.928   7.946   4.462 -0.4479  0.2155 -0.4084
 8373TIP3    H125076   5.958   8.036   4.478  1.4483 -0.5746  0.7185
 8373TIP3    H225077   5.960   7.897   4.537 -1.5814 -1.3837 -0.9571
 8374TIP3   OH225078   3.705   7.005   3.585  0.0606  0.3260  0.2461
 8374TIP3    H125079   3.664   6.924   3.615 -0.6844  0.9971  1.0486
 8374TIP3    H225080   3.772   6.976   3.523  0.7002 -0.9928  1.5263
 8375TIP3   OH225081   5.861   6.863   5.704  0.1969  0.4049 -0.2449
 8375TIP3    H125082   5.855   6.768   5.690  1.0972  0.3715 -0.4088
 8375TIP3    H225083   5.947   6.887   5.671 -0.6816  1.5655 -1.7382
 8376TIP3   OH225084   5.198   4.490   3.627 -0.1399  0.4818  0.7431
 8376TIP3    H125085   5.263   4.521   3.564  0.8538  0.8484  1.9356
 8376TIP3    H225086   5.246   4.484   3.710 -1.1043 -1.2079  1.2026
 8377TIP3   OH225087   3.238   4.709   3.732  0.0300 -0.2226 -0.0569
 8377TIP3    H125088   3.202   4.625   3.760 -0.8851  0.3566  0.5447
 8377TIP3    H225089   3.260   4.753   3.814  1.6118 -0.3494 -0.4069
 8378TIP3   OH225090   4.579   5.408   3.414  0.0022  0.0939 -0.0371
 8378TIP3    H125091   4.664   5.420   3.458 -0.6892  0.8838  1.1228
 8378TIP3    H225092   4.602   5.385   3.324  1.4537 -0.2883  0.4093
 8379TIP3   OH225093   4.830   6.627   2.620  0.3794 -0.1047  0.2305
 8379TIP3    H125094   4.813   6.709   2.573  0.0474  0.1170  0.7368
 8379TIP3    H225095   4.783   6.560   2.569 -0.1185  0.1617  0.3341
 8380TIP3   OH225096   5.744   4.194   5.890  0.0701  0.0218 -0.7311
 8380TIP3    H125097   5.826   4.242   5.882 -0.2882  0.7187 -0.3066
 8380TIP3    H225098   5.676   4.257   5.866 -0.2443 -1.0022 -2.6257
 8381TIP3   OH225099   2.243   3.947   5.612  0.6852 -0.5427 -0.6798
 8381TIP3    H125100   2.288   3.870   5.646  0.8088 -0.7442 -1.2893
 8381TIP3    H225101   2.202   3.917   5.531 -0.6796 -0.3997 -0.0592
 8382TIP3   OH225102   1.923   6.933   3.433  0.3309  0.4733 -0.1945
 8382TIP3    H125103   1.936   6.968   3.345 -1.0636  0.6035 -0.3573
 8382TIP3    H225104   1.989   6.978   3.487 -0.4853  2.2904 -0.6856
 8383TIP3   OH225105   5.358   0.606   3.715  0.1856  0.2217  0.1163
 8383TIP3    H125106   5.297   0.536   3.736 -0.0515  0.1580 -0.7486
 8383TIP3    H225107   5.303   0.682   3.698  0.4168  0.5063  0.6224
 8384TIP3   OH225108   5.393   4.910   4.591 -0.0495 -0.3663  0.7484
 8384TIP3    H125109   5.343   4.992   4.593 -1.4534 -1.2318  1.1641
 8384TIP3    H225110   5.458   4.921   4.661 -0.9935 -0.0726  1.6025
 8385TIP3   OH225111   4.727   0.676   5.181 -0.4402 -0.3160  0.3260
 8385TIP3    H125112   4.751   0.737   5.111  0.0252 -3.0772 -2.0046
 8385TIP3    H225113   4.645   0.711   5.216 -0.0840  1.7376 -0.8163
 8386TIP3   OH225114   4.512   6.684   2.906  0.2569 -0.7732 -0.7026
 8386TIP3    H125115   4.506   6.595   2.869  2.8907 -1.6445  0.8249
 8386TIP3    H225116   4.605   6.697   2.920 -0.1614  2.0685 -0.3925
 8387TIP3   OH225117   4.363   4.827   1.661  0.2281 -0.7569 -0.3303
 8387TIP3    H125118   4.336   4.917   1.641 -0.0282 -0.2633  2.0700
 8387TIP3    H225119   4.392   4.792   1.577 -1.8355  0.8014 -1.7467
 8388TIP3   OH225120   5.927   6.341   2.628  0.0868  0.4854  0.2071
 8388TIP3    H125121   6.001   6.298   2.586  0.5484  2.1816 -0.7591
 8388TIP3    H225122   5.850   6.299   2.589  0.5106  2.2406 -2.5694
 8389TIP3   OH225123   5.463   6.548   5.127 -0.7361 -0.2911 -0.5145
 8389TIP3    H125124   5.487   6.455   5.130 -1.1854 -0.4021 -0.2864
 8389TIP3    H225125   5.525   6.590   5.187 -1.1290 -0.5805  0.1011
 8390TIP3   OH225126   2.889   5.654   4.108 -0.0151 -0.3269  0.5435
 8390TIP3    H125127   2.929   5.605   4.181  1.3205 -0.2337 -0.1027
 8390TIP3    H225128   2.869   5.740   4.145  0.7295 -0.2549  0.7845
 8391TIP3   OH225129   6.102   7.823   2.867  0.2146  0.4658 -0.0886
 8391TIP3    H125130   6.012   7.827   2.835 -0.1962 -1.5233  0.6872
 8391TIP3    H225131   6.092   7.815   2.962  1.0750 -2.2726 -0.1706
 8392TIP3   OH225132   6.190   6.537   3.718 -0.0004  0.1838  0.3769
 8392TIP3    H125133   6.196   6.490   3.801 -0.7682 -1.3342 -0.4153
 8392TIP3    H225134   6.111   6.503   3.676  0.0069  1.4120 -0.6985
 8393TIP3   OH225135   4.266   5.933   3.931 -0.1230 -0.0926 -0.2374
 8393TIP3    H125136   4.340   5.960   3.986  0.7837  0.5729 -1.7471
 8393TIP3    H225137   4.198   5.997   3.949 -0.1072 -0.3151  0.6551
 8394TIP3   OH225138   3.771   7.956   3.064  0.8723 -0.2645 -0.4804
 8394TIP3    H125139   3.824   8.026   3.026  0.5144  0.7105  0.7952
 8394TIP3    H225140   3.681   7.990   3.062  0.7336 -0.5550  0.4255
 8395TIP3   OH225141   2.012   6.231   4.668 -0.0452  0.6099 -0.4731
 8395TIP3    H125142   2.094   6.280   4.656  0.0128  0.6232 -0.0319
 8395TIP3    H225143   1.952   6.295   4.706 -0.4567  0.7749 -1.3788
 8396TIP3   OH225144   3.263   7.144   3.257  1.3439 -0.2888 -0.5861
 8396TIP3    H125145   3.341   7.093   3.276 -1.3784 -3.8478  1.6982
 8396TIP3    H225146   3.220   7.156   3.342 -1.2045  0.5095 -1.9124
 8397TIP3   OH225147   5.097   5.310   3.879  0.1510  0.4497  0.0401
 8397TIP3    H125148   5.154   5.313   3.801  1.3797  1.9428  0.9591
 8397TIP3    H225149   5.019   5.264   3.850 -0.0224  2.2535 -2.5001
 8398TIP3   OH225150   4.110   5.123   5.291 -0.3746 -0.6925 -0.1286
 8398TIP3    H125151   4.187   5.093   5.339  0.2094 -0.3781 -0.8558
 8398TIP3    H225152   4.037   5.106   5.350  0.1982 -1.4356  0.3795
 8399TIP3   OH225153   3.043   6.870   4.202  0.1364 -0.5485 -0.7128
 8399TIP3    H125154   3.092   6.806   4.150  1.3422 -0.6424  0.5377
 8399TIP3    H225155   3.056   6.953   4.156 -0.6380 -1.0099 -1.7948
 8400TIP3   OH225156   0.573   6.528   4.268  0.2761 -0.3950  0.1910
 8400TIP3    H125157   0.613   6.578   4.197  1.8434 -0.0782  1.2582
 8400TIP3    H225158   0.648   6.496   4.320 -0.8078 -1.2236  1.2844
 8401TIP3   OH225159   8.088   5.612   5.802  0.1592 -0.4000  0.6439
 8401TIP3    H125160   8.141   5.680   5.844  0.0921  1.1151 -1.6620
 8401TIP3    H225161   7.999   5.631   5.830  0.3758 -0.8626  1.7076
 8402TIP3   OH225162   4.230   5.780   5.108  0.4666  0.2851 -0.4119
 8402TIP3    H125163   4.304   5.827   5.146  0.1736  0.3185  0.1263
 8402TIP3    H225164   4.260   5.754   5.021  0.3375  2.1952 -1.0556
 8403TIP3   OH225165   5.029   6.914   3.769  0.9277 -0.2570 -0.1756
 8403TIP3    H125166   4.954   6.858   3.789  1.0418 -0.2138  0.3734
 8403TIP3    H225167   5.064   6.939   3.854 -0.0182  1.8774 -0.3842
 8404TIP3   OH225168   2.863   7.056   2.942  0.3410  0.1529  0.2845
 8404TIP3    H125169   2.838   7.029   3.031 -0.4558 -1.0351 -0.2777
 8404TIP3    H225170   2.783   7.096   2.907  0.3721 -0.1939 -0.1932
 8405TIP3   OH225171   3.359   0.861   3.510 -0.2396 -0.2624 -0.2756
 8405TIP3    H125172   3.334   0.938   3.459 -1.2542 -0.3506  0.0729
 8405TIP3    H225173   3.278   0.835   3.554 -0.0168 -1.8148 -0.7619
 8406TIP3   OH225174   6.045   2.077   3.565  0.2566  0.5205 -0.2742
 8406TIP3    H125175   5.958   2.046   3.541  0.5611  0.2262 -1.0089
 8406TIP3    H225176   6.051   2.164   3.525 -0.1826  1.0800  0.8604
 8407TIP3   OH225177   3.674   7.487   3.848 -0.0988 -0.0892  0.1914
 8407TIP3    H125178   3.614   7.462   3.778 -1.5119  0.1075  1.3004
 8407TIP3    H225179   3.682   7.582   3.841 -1.8029  0.1802  1.4779
 8408TIP3   OH225180   7.306   3.467   2.666 -0.2657 -0.2673  0.1475
 8408TIP3    H125181   7.373   3.488   2.602  0.1084  0.4813  0.7804
 8408TIP3    H225182   7.271   3.382   2.637 -1.4301  0.9232 -2.1146
 8409TIP3   OH225183   4.492   4.574   3.422 -0.2433 -0.2186  0.1615
 8409TIP3    H125184   4.445   4.546   3.344  2.4760 -1.3115 -1.1715
 8409TIP3    H225185   4.462   4.663   3.438 -1.3068 -0.2040 -1.7881
 8410TIP3   OH225186   4.650   6.229   3.149 -0.0735 -0.1574  0.2295
 8410TIP3    H125187   4.566   6.260   3.114 -0.1306  0.3886  0.8192
 8410TIP3    H225188   4.712   6.298   3.126  0.0156 -0.1002  0.6293
 8411TIP3   OH225189   4.780   5.413   4.087 -0.0037  0.0228 -0.1959
 8411TIP3    H125190   4.839   5.485   4.110 -0.5493  0.3805  0.0925
 8411TIP3    H225191   4.737   5.443   4.007 -0.3160  0.0633 -0.0104
 8412TIP3   OH225192   2.513   7.124   4.419 -0.1506  0.4108 -0.1313
 8412TIP3    H125193   2.580   7.064   4.450 -0.2565  0.7591  0.8033
 8412TIP3    H225194   2.431   7.087   4.452 -0.2742  0.7183 -0.0882
 8413TIP3   OH225195   4.718   6.885   3.328 -0.2540  0.1886  0.0036
 8413TIP3    H125196   4.813   6.893   3.323 -0.0054 -2.0204  0.3597
 8413TIP3    H225197   4.685   6.972   3.307  1.8581  1.1547  0.5689
 8414TIP3   OH225198   3.915   4.126   5.439 -0.0927 -0.8344  0.2516
 8414TIP3    H125199   3.914   4.140   5.344 -0.1738 -2.0379  0.0758
 8414TIP3    H225200   3.825   4.145   5.467  0.1714  0.4805  0.2311
 8415TIP3   OH225201   4.008   7.035   2.687  0.3621 -0.0363 -0.2113
 8415TIP3    H125202   4.021   7.057   2.595  0.7495 -1.4695 -0.5064
 8415TIP3    H225203   4.088   7.064   2.730  0.3436  0.2776 -0.3876
 8416TIP3   OH225204   4.745   7.319   4.188 -0.8769 -0.6248 -0.8172
 8416TIP3    H125205   4.674   7.340   4.248  0.1063 -1.7711  0.8037
 8416TIP3    H225206   4.771   7.230   4.212  0.3721 -0.6408 -2.1183
 8417TIP3   OH225207   3.613   6.988   2.391 -0.2217 -0.2741 -0.5337
 8417TIP3    H125208   3.601   7.083   2.397 -0.0399 -0.1784 -1.6630
 8417TIP3    H225209   3.540   6.959   2.337  0.4126 -0.6259 -1.1998
 8418TIP3   OH225210   4.355   5.795   4.660  0.5907  0.2284  0.2437
 8418TIP3    H125211   4.348   5.708   4.699  0.4055  0.2627  0.2857
 8418TIP3    H225212   4.273   5.838   4.683  1.3244  0.9575  1.5303
 8419TIP3   OH225213   2.552   5.111   3.987  0.3845 -0.0569  0.1125
 8419TIP3    H125214   2.574   5.067   3.905  0.1819 -0.6200  0.3582
 8419TIP3    H225215   2.470   5.157   3.968  0.3437 -0.1778 -0.0049
 8420TIP3   OH225216   6.154   0.119   4.113 -0.4563 -0.4853 -0.3888
 8420TIP3    H125217   6.123   0.030   4.132 -0.1696 -0.3547  0.7124
 8420TIP3    H225218   6.074   0.170   4.102 -0.6307 -1.0924 -2.1120
 8421TIP3   OH225219   0.311   4.894   5.005  0.1443 -0.2888 -0.0904
 8421TIP3    H125220   0.270   4.825   5.056  0.9721 -0.7852 -0.0921
 8421TIP3    H225221   0.312   4.861   4.915  1.9758 -0.9450  0.1673
 8422TIP3   OH225222   3.441   7.951   3.787 -0.5778 -0.2034  0.1902
 8422TIP3    H125223   3.391   7.873   3.814 -1.4579 -0.0894 -1.0624
 8422TIP3    H225224   3.387   8.025   3.816  0.5508 -0.0175  1.9336
 8423TIP3   OH225225   5.060   6.163   2.373 -0.3062  0.3976 -0.2267
 8423TIP3    H125226   5.106   6.240   2.340 -1.8020  2.4484  2.3381
 8423TIP3    H225227   5.037   6.185   2.463 -2.5204 -2.2740 -0.0781
 8424TIP3   OH225228   2.994   2.677   3.633  0.1806  0.1031  0.9164
 8424TIP3    H125229   2.938   2.605   3.603 -0.6653  0.9271  0.5173
 8424TIP3    H225230   3.082   2.651   3.606 -0.4287  0.3447 -1.3926
 8425TIP3   OH225231   3.903   6.191   3.945  0.1431  0.2509  0.1850
 8425TIP3    H125232   3.991   6.174   3.912  1.5356  1.6389  2.9849
 8425TIP3    H225233   3.911   6.273   3.994 -2.2450 -0.6239  2.1379
 8426TIP3   OH225234   3.788   3.786   6.411 -0.0627  0.2518  0.7023
 8426TIP3    H125235   3.819   3.725   6.478  1.6507  1.3253  0.8846
 8426TIP3    H225236   3.718   3.737   6.366  0.3525 -1.3378  1.7333
 8427TIP3   OH225237   4.651   5.888   3.785  0.8086 -0.4310  0.0641
 8427TIP3    H125238   4.717   5.892   3.716 -0.2982  2.1443 -0.9200
 8427TIP3    H225239   4.568   5.875   3.738  0.2415 -0.3245  1.0139
 8428TIP3   OH225240   3.883   7.771   4.066 -0.1221 -0.6779  0.0853
 8428TIP3    H125241   3.789   7.789   4.065 -0.5065 -2.5423 -0.3395
 8428TIP3    H225242   3.923   7.851   4.033 -1.4679  0.6247  1.5443
 8429TIP3   OH225243   6.513   6.696   2.271 -0.4202  0.4582 -0.1297
 8429TIP3    H125244   6.426   6.714   2.307  0.1271 -0.1010  1.5202
 8429TIP3    H225245   6.549   6.627   2.328 -0.6100 -2.5265 -3.4202
 8430TIP3   OH225246   4.086   5.591   2.965  0.3270  0.3527  0.3235
 8430TIP3    H125247   4.079   5.507   2.920 -0.1761 -1.0045  2.8108
 8430TIP3    H225248   4.035   5.652   2.911  1.1017 -0.8141 -1.7666
 8431TIP3   OH225249   1.307   6.243   3.340 -0.0351 -0.0156 -0.0586
 8431TIP3    H125250   1.286   6.332   3.366 -1.1202 -0.0579 -0.7669
 8431TIP3    H225251   1.392   6.251   3.296  0.5933  0.4278  1.2235
 8432TIP3   OH225252   2.876   4.561   2.928  0.2607 -0.1873  0.2922
 8432TIP3    H125253   2.826   4.637   2.957 -1.4056  0.3746 -3.7212
 8432TIP3    H225254   2.831   4.486   2.966 -1.4076  0.5565 -0.1697
 8433TIP3   OH225255   2.607   7.684   4.527 -0.1324 -0.0461  0.1342
 8433TIP3    H125256   2.652   7.674   4.611  3.4065  0.0989 -1.6699
 8433TIP3    H225257   2.553   7.605   4.519 -0.2367 -0.2390  2.3338
 8434TIP3   OH225258   1.291   3.641   4.421 -0.4099  0.2479 -0.2638
 8434TIP3    H125259   1.213   3.588   4.441  0.0692 -0.2426  0.3373
 8434TIP3    H225260   1.328   3.600   4.343  0.8383 -1.3001  1.0997
 8435TIP3   OH225261   3.566   5.441   4.679  0.4169  0.3232 -0.1220
 8435TIP3    H125262   3.653   5.418   4.648  0.9619  3.6079 -1.2167
 8435TIP3    H225263   3.513   5.448   4.600 -0.2920  0.5439  0.3674
 8436TIP3   OH225264   5.622   6.979   5.479 -0.3438  0.0330  0.0890
 8436TIP3    H125265   5.621   7.000   5.386 -0.3258  0.2121  0.1297
 8436TIP3    H225266   5.634   6.884   5.482 -1.6586 -0.1520 -0.1246
 8437TIP3   OH225267   3.414   5.404   3.352 -0.3158  0.1518  0.4479
 8437TIP3    H125268   3.451   5.467   3.290  0.9701 -1.3737 -0.3817
 8437TIP3    H225269   3.490   5.352   3.380 -1.3533 -0.9938  1.1516
 8438TIP3   OH225270   3.520   5.984   3.872 -0.2967  0.4438 -0.4777
 8438TIP3    H125271   3.431   5.951   3.860  0.6590 -1.8739 -1.5148
 8438TIP3    H225272   3.520   6.024   3.959 -1.9619 -0.8899  0.1632
 8439TIP3   OH225273   4.482   5.512   5.748 -0.2227  0.5885  0.0315
 8439TIP3    H125274   4.456   5.602   5.726 -1.3277  0.1798 -0.3743
 8439TIP3    H225275   4.567   5.501   5.706 -1.4994  0.4139 -2.6645
 8440TIP3   OH225276   1.588   4.246   2.469  0.0607 -0.1298  0.8643
 8440TIP3    H125277   1.668   4.229   2.420  0.7435 -0.9855  2.2238
 8440TIP3    H225278   1.528   4.285   2.406  0.9641 -1.0577 -0.5858
 8441TIP3   OH225279   5.938   0.254   3.968  0.1451  0.4433  0.0962
 8441TIP3    H125280   5.890   0.329   3.933 -1.0747 -0.0166  0.7668
 8441TIP3    H225281   5.878   0.180   3.959  0.9404 -0.2425  0.4103
 8442TIP3   OH225282   2.104   5.838   2.855  0.1944  0.4276  0.3704
 8442TIP3    H125283   2.154   5.896   2.912 -0.0943 -1.4216  2.5679
 8442TIP3    H225284   2.093   5.888   2.774  3.2674  1.9130  0.7843
 8443TIP3   OH225285   2.338   5.390   3.512  0.2594 -0.4284 -0.3765
 8443TIP3    H125286   2.424   5.422   3.484 -0.5598  1.6134 -0.6689
 8443TIP3    H225287   2.340   5.296   3.494  2.1256 -0.2636 -1.1634
 8444TIP3   OH225288   0.770   6.151   4.189  0.5503  0.1032 -0.0445
 8444TIP3    H125289   0.699   6.088   4.203  0.4610  0.1232 -0.4258
 8444TIP3    H225290   0.729   6.237   4.199  0.7159  0.1025  0.6930
 8445TIP3   OH225291   2.214   6.154   6.515  0.2404 -0.1032  0.4958
 8445TIP3    H125292   2.299   6.146   6.559  1.2931  0.6740 -1.3714
 8445TIP3    H225293   2.224   6.227   6.454 -1.3413 -0.8374 -0.6948
 8446TIP3   OH225294   5.985   6.694   5.178 -0.8737  0.6173 -0.0449
 8446TIP3    H125295   6.025   6.750   5.244  0.5357  0.0237 -0.3757
 8446TIP3    H225296   5.897   6.677   5.211 -0.3338  0.6930  1.4564
 8447TIP3   OH225297   6.517   7.082   1.853 -0.4598  0.2072 -0.2257
 8447TIP3    H125298   6.514   7.020   1.927 -2.7721 -0.7691 -1.0797
 8447TIP3    H225299   6.595   7.057   1.804  0.1708 -0.2159  0.9691
 8448TIP3   OH225300   5.116   6.743   3.154  0.1179 -0.6308 -0.2960
 8448TIP3    H125301   5.158   6.748   3.068 -0.7664 -0.5058 -0.7293
 8448TIP3    H225302   5.085   6.653   3.160 -1.9614  0.0031 -1.1471
 8449TIP3   OH225303   3.468   5.660   3.807  0.4115  0.9067  0.1011
 8449TIP3    H125304   3.415   5.589   3.844  0.6937  0.0596 -1.1057
 8449TIP3    H225305   3.487   5.717   3.882  2.2575 -1.5919  1.5852
 8450TIP3   OH225306   5.004   3.535   5.552 -0.0019  0.0305  0.1620
 8450TIP3    H125307   4.998   3.458   5.609  0.4579 -0.4022 -0.3717
 8450TIP3    H225308   4.994   3.500   5.464  0.3830  0.5698 -0.0952
 8451TIP3   OH225309   4.651   6.237   4.101  0.5418  0.5170  0.3814
 8451TIP3    H125310   4.596   6.222   4.178  0.9574 -1.3020  0.3317
 8451TIP3    H225311   4.719   6.297   4.131  0.4834  0.1158  1.3152
 8452TIP3   OH225312   3.764   5.122   4.128  0.9568  0.2695  0.1663
 8452TIP3    H125313   3.680   5.076   4.127  1.3917 -0.5448  0.7953
 8452TIP3    H225314   3.820   5.069   4.184  1.0344  2.3567  2.1217
 8453TIP3   OH225315   4.492   6.677   4.152 -0.4045 -0.2253 -0.2036
 8453TIP3    H125316   4.543   6.659   4.072 -0.7688 -2.5876  0.0786
 8453TIP3    H225317   4.526   6.616   4.216  1.7276  3.3934  2.3317
 8454TIP3   OH225318   7.613   0.548   2.209 -0.0125  0.4803  0.3481
 8454TIP3    H125319   7.588   0.639   2.190 -0.2297  0.1004 -1.2322
 8454TIP3    H225320   7.691   0.534   2.155 -0.6325 -0.6260 -0.2711
 8455TIP3   OH225321   5.940   6.452   4.096 -0.1260 -0.4378 -0.2412
 8455TIP3    H125322   5.905   6.486   4.178  1.1959 -2.0294  1.0055
 8455TIP3    H225323   5.876   6.387   4.068  0.6038 -1.6348  0.8088
 8456TIP3   OH225324   5.671   6.881   5.052  0.0904 -0.0262  0.2320
 8456TIP3    H125325   5.754   6.862   5.008 -0.9025 -0.7020 -1.3823
 8456TIP3    H225326   5.671   6.823   5.128  0.7512 -0.5735 -0.1777
 8457TIP3   OH225327   4.233   7.572   4.333  0.1692 -0.2085 -0.2164
 8457TIP3    H125328   4.237   7.499   4.270 -0.5428 -0.1658 -0.3098
 8457TIP3    H225329   4.269   7.646   4.285  2.6025 -0.8951  0.4574
 8458TIP3   OH225330   5.688   6.330   4.125  0.0371 -0.2870 -0.4512
 8458TIP3    H125331   5.617   6.388   4.155  0.5092  0.1662 -0.1980
 8458TIP3    H225332   5.645   6.268   4.067 -0.4949  0.2690 -0.6607
 8459TIP3   OH225333   8.511   0.370   4.750 -0.4186 -0.0357 -0.3207
 8459TIP3    H125334   8.450   0.319   4.698 -1.0998  0.5847 -0.1395
 8459TIP3    H225335   8.508   0.330   4.837 -0.7271  0.1251 -0.2573
 8460TIP3   OH225336   3.615   3.903   3.630 -0.1543 -0.2893  0.3807
 8460TIP3    H125337   3.696   3.953   3.631  0.3824 -1.1569  0.2750
 8460TIP3    H225338   3.605   3.871   3.719 -0.2484 -0.4068  0.3279
 8461TIP3   OH225339   5.756   7.003   2.752 -0.2628  0.4951 -0.0433
 8461TIP3    H125340   5.819   6.941   2.790 -0.4467  0.2062 -0.2066
 8461TIP3    H225341   5.671   6.976   2.788 -0.1072  1.8057  1.3594
 8462TIP3   OH225342   2.727   4.919   4.329  0.2095 -0.6317 -0.2524
 8462TIP3    H125343   2.654   4.885   4.380 -0.4602  0.5004 -0.4369
 8462TIP3    H225344   2.710   5.013   4.323  1.1926 -0.4978 -1.0854
 8463TIP3   OH225345   3.968   0.225   2.443 -0.2723 -0.0860  0.0321
 8463TIP3    H125346   3.913   0.292   2.484  0.5845 -0.0679  1.1625
 8463TIP3    H225347   4.010   0.271   2.370 -0.4723  0.3448  0.1841
 8464TIP3   OH225348   3.739   4.765   4.421  0.0155  0.3410  0.1922
 8464TIP3    H125349   3.664   4.802   4.468 -0.3461 -0.4014  0.2120
 8464TIP3    H225350   3.798   4.736   4.490  0.5531  1.3605  0.1781
 8465TIP3   OH225351   2.643   7.018   0.986  0.0792  0.0639  0.0040
 8465TIP3    H125352   2.638   7.066   0.903  0.3250  0.5339  0.2552
 8465TIP3    H225353   2.681   6.933   0.963 -1.1674 -0.3406 -0.5828
 8466TIP3   OH225354   4.280   5.938   4.358 -0.1454 -0.2464 -0.2921
 8466TIP3    H125355   4.254   5.850   4.332 -0.4377 -0.4824  0.7762
 8466TIP3    H225356   4.328   5.926   4.440  0.2953  0.5354 -0.4231
 8467TIP3   OH225357   5.729   0.855   3.664  0.4021 -1.1193 -0.4135
 8467TIP3    H125358   5.740   0.863   3.569  0.3847 -1.5210 -0.4499
 8467TIP3    H225359   5.673   0.929   3.688  0.0111 -1.2969 -0.7850
 8468TIP3   OH225360   5.132   5.235   3.616 -0.0090  0.3166 -0.1769
 8468TIP3    H125361   5.058   5.183   3.648  1.0875 -1.4993 -0.5624
 8468TIP3    H225362   5.146   5.204   3.527  0.9008  1.0319 -0.2923
 8469TIP3   OH225363   4.228   6.795   2.603 -0.0147  0.0546  0.1094
 8469TIP3    H125364   4.198   6.795   2.694  1.7780  0.0973  0.7161
 8469TIP3    H225365   4.174   6.862   2.560  0.4554  1.4234  1.6064
 8470TIP3   OH225366   3.334   7.997   3.515 -0.2074  0.1432  0.2218
 8470TIP3    H125367   3.394   7.996   3.589  0.5987  1.3059 -0.4076
 8470TIP3    H225368   3.353   7.916   3.467  1.0718  0.6522 -0.1465
 8471TIP3   OH225369   3.751   5.461   3.093  0.5555  0.0863 -0.1967
 8471TIP3    H125370   3.821   5.525   3.088  0.6155  0.0704  0.4551
 8471TIP3    H225371   3.748   5.422   3.005  0.9948  0.4688 -0.3813
 8472TIP3   OH225372   1.555   6.447   3.238 -0.2012 -0.2439  0.9547
 8472TIP3    H125373   1.574   6.368   3.188  1.8797  0.8712 -0.0713
 8472TIP3    H225374   1.500   6.500   3.180 -0.4000 -0.3170  1.0766
 8473TIP3   OH225375   3.913   6.466   4.588  0.1635 -0.6219  0.2785
 8473TIP3    H125376   3.864   6.547   4.603  0.9877  0.0571 -0.7150
 8473TIP3    H225377   3.959   6.480   4.505  2.2340 -1.1747  1.3087
 8474TIP3   OH225378   4.195   5.386   5.285 -0.7425  0.1635 -0.1329
 8474TIP3    H125379   4.155   5.300   5.272 -2.7611  0.5685  2.9043
 8474TIP3    H225380   4.198   5.397   5.380 -0.0097  3.2312 -0.4635
 8475TIP3   OH225381   3.657   4.608   2.529 -0.3301  0.8182 -0.1484
 8475TIP3    H125382   3.595   4.601   2.602  0.2568  0.0546  0.2803
 8475TIP3    H225383   3.660   4.701   2.509 -1.3311  0.9061  0.0806
 8476TIP3   OH225384   0.446   7.705   1.721 -0.6353 -0.0166 -0.8018
 8476TIP3    H125385   0.445   7.798   1.745  0.3098 -0.3142  0.4494
 8476TIP3    H225386   0.495   7.663   1.792 -0.2885 -1.3416 -1.8170
 8477TIP3   OH225387   4.328   5.280   3.481  0.1141  0.2341 -0.0036
 8477TIP3    H125388   4.365   5.317   3.401 -1.0573  0.1349 -0.5949
 8477TIP3    H225389   4.324   5.186   3.465  1.1208  0.0671  0.6877
 8478TIP3   OH225390   3.253   4.512   4.509 -0.2675 -1.0740  0.6658
 8478TIP3    H125391   3.205   4.492   4.428 -0.0245 -1.4394  0.6092
 8478TIP3    H225392   3.184   4.525   4.575 -0.4541 -3.9903  1.1465
 8479TIP3   OH225393   5.429   5.706   4.571 -0.2152 -0.2312  0.4528
 8479TIP3    H125394   5.343   5.746   4.560 -0.8088 -1.7048 -0.4179
 8479TIP3    H225395   5.487   5.779   4.595 -1.6891  0.7694  1.0148
 8480TIP3   OH225396   5.473   0.617   2.139  0.2280 -0.2604  0.1561
 8480TIP3    H125397   5.424   0.571   2.071  2.5786 -1.0858 -1.0579
 8480TIP3    H225398   5.545   0.659   2.092  0.6366  0.9816  1.8607
 8481TIP3   OH225399   2.764   4.728   5.049 -0.4088  0.0060 -0.5301
 8481TIP3    H125400   2.679   4.698   5.082 -0.0286  0.3826  0.8082
 8481TIP3    H225401   2.744   4.767   4.964 -1.3740 -1.1037 -0.8335
 8482TIP3   OH225402   2.153   5.800   0.416 -0.0429 -0.3569 -0.0384
 8482TIP3    H125403   2.241   5.787   0.380 -0.0789 -1.2920  0.1894
 8482TIP3    H225404   2.096   5.752   0.357 -0.4491  0.5808 -0.4073
 8483TIP3   OH225405   4.371   3.961   1.765 -0.1402  0.0352 -0.3857
 8483TIP3    H125406   4.360   3.960   1.670  1.0618 -1.9696 -0.5256
 8483TIP3    H225407   4.282   3.950   1.799 -0.5008  0.0880 -1.3023
 8484TIP3   OH225408   2.883   5.606   3.837 -0.0893  0.2473 -0.2769
 8484TIP3    H125409   2.793   5.573   3.833 -0.4630  1.2604 -0.5280
 8484TIP3    H225410   2.896   5.631   3.928  0.3530 -1.0169  0.0097
 8485TIP3   OH225411   4.017   7.613   2.459 -0.6041 -0.5446  0.4187
 8485TIP3    H125412   3.929   7.632   2.492 -1.7314 -1.3781 -1.9814
 8485TIP3    H225413   4.031   7.521   2.481 -2.0233 -1.5812 -2.6841
 8486TIP3   OH225414   8.442   1.292   3.737 -0.0414  0.1212 -0.0723
 8486TIP3    H125415   8.514   1.344   3.702 -0.4575  0.6603 -0.1403
 8486TIP3    H225416   8.368   1.312   3.680 -0.3673 -0.0539  0.2865
 8487TIP3   OH225417   3.006   5.099   4.352  0.1267  0.6360  0.3202
 8487TIP3    H125418   2.955   5.130   4.278  2.0035  1.1744 -0.7691
 8487TIP3    H225419   2.960   5.133   4.429 -0.8977  1.4651 -0.6505
 8488TIP3   OH225420   1.737   7.125   2.064 -0.0961 -0.2041  0.0858
 8488TIP3    H125421   1.809   7.067   2.088 -0.0229  0.3644  1.2920
 8488TIP3    H225422   1.779   7.210   2.050 -0.5852  0.2204  1.1769
 8489TIP3   OH225423   5.602   0.122   3.977 -0.3201  0.6004 -0.0168
 8489TIP3    H125424   5.640   0.078   3.901 -0.6886 -0.2512  0.2884
 8489TIP3    H225425   5.583   0.210   3.945  1.2026  0.8157 -0.3881
 8490TIP3   OH225426   2.635   4.612   4.023 -0.0123  0.4849  0.3227
 8490TIP3    H125427   2.590   4.582   4.102  2.3097 -0.7509  1.2341
 8490TIP3    H225428   2.692   4.683   4.053 -1.1324  1.8749 -0.7648
 8491TIP3   OH225429   1.089   7.398   4.087 -0.0639  0.5452  0.3136
 8491TIP3    H125430   1.036   7.387   4.166  0.5246  4.1724  1.2910
 8491TIP3    H225431   1.166   7.342   4.101 -1.6300 -1.5640  0.6943
 8492TIP3   OH225432   3.579   4.174   5.044 -0.1447 -0.2422 -0.6007
 8492TIP3    H125433   3.655   4.142   4.996  0.0904 -1.7979  0.7488
 8492TIP3    H225434   3.551   4.099   5.096  0.0725  1.5746  2.2512
 8493TIP3   OH225435   3.157   5.550   2.853 -0.1513  0.5189  0.2625
 8493TIP3    H125436   3.154   5.514   2.941  0.3733  0.3359  0.2045
 8493TIP3    H225437   3.111   5.634   2.860 -2.3203 -0.6144  0.1622
 8494TIP3   OH225438   8.451   0.130   4.186  0.1597  0.2255  0.3402
 8494TIP3    H125439   8.500   0.212   4.182  0.4888  0.0464  0.7093
 8494TIP3    H225440   8.518   0.062   4.192 -0.1374 -0.0081  1.0509
 8495TIP3   OH225441   2.852   7.935   4.686 -0.8349  0.0867  0.3332
 8495TIP3    H125442   2.942   7.932   4.717 -1.0537 -3.2213  0.8502
 8495TIP3    H225443   2.855   7.892   4.600 -1.7227  1.0124 -0.1722
 8496TIP3   OH225444   4.107   4.740   3.745 -0.2917  0.3016 -0.1447
 8496TIP3    H125445   4.074   4.807   3.686 -0.5533  0.0208 -0.3249
 8496TIP3    H225446   4.092   4.658   3.698 -1.7112 -0.0326  0.8339
 8497TIP3   OH225447   4.954   4.859   3.004  0.0622  0.4915 -1.0987
 8497TIP3    H125448   4.936   4.821   2.918 -0.2983 -1.5246 -0.1516
 8497TIP3    H225449   5.033   4.912   2.990  1.5509 -1.8933 -2.0933
 8498TIP3   OH225450   4.645   6.068   5.669  0.4628 -0.5005 -0.9116
 8498TIP3    H125451   4.564   6.117   5.655 -1.3815 -3.3556 -0.5864
 8498TIP3    H225452   4.712   6.135   5.683 -2.0312  1.8975 -0.1997
 8499TIP3   OH225453   4.450   7.658   2.671 -0.2787  0.2099  0.5547
 8499TIP3    H125454   4.430   7.574   2.628 -1.4200  0.5898  0.3284
 8499TIP3    H225455   4.365   7.703   2.676  0.6875  2.3674 -1.4791
 8500TIP3   OH225456   3.982   5.467   2.631 -0.3404  0.4040 -0.9565
 8500TIP3    H125457   3.912   5.525   2.661 -0.3000 -1.0367  2.0279
 8500TIP3    H225458   3.984   5.396   2.694  2.6578 -0.5145 -1.9875
 8501TIP3   OH225459   2.690   7.673   4.792  0.2018  0.1666 -0.0632
 8501TIP3    H125460   2.744   7.748   4.815 -1.1295  1.5115 -1.2571
 8501TIP3    H225461   2.630   7.663   4.866 -0.5372  1.1666 -0.5119
 8502TIP3   OH225462   3.968   5.980   4.201  0.2109  0.6323 -0.2779
 8502TIP3    H125463   3.974   5.886   4.213 -3.4287  0.3781  0.1504
 8502TIP3    H225464   3.937   5.991   4.111 -0.2810  1.3890 -0.0248
 8503TIP3   OH225465   5.674   6.255   5.062 -0.0565 -0.5166  0.1785
 8503TIP3    H125466   5.704   6.309   5.134  0.2779 -1.1290  0.4991
 8503TIP3    H225467   5.690   6.308   4.984 -1.4303  0.6044  0.6198
 8504TIP3   OH225468   3.395   5.225   4.005 -0.0818  0.9070 -0.5774
 8504TIP3    H125469   3.304   5.243   4.027 -0.6121 -0.6247 -1.4304
 8504TIP3    H225470   3.445   5.261   4.078 -1.5108 -0.1484  0.9389
 8505TIP3   OH225471   2.239   5.990   3.714  0.0340 -0.0863  0.4460
 8505TIP3    H125472   2.249   6.038   3.632 -4.0652 -0.3455 -0.2981
 8505TIP3    H225473   2.176   6.041   3.765 -0.9102 -2.2766  1.5521
 8506TIP3   OH225474   3.139   7.891   4.672  0.5481  0.5079 -0.8610
 8506TIP3    H125475   3.193   7.964   4.642 -0.8950  0.8362 -2.7790
 8506TIP3    H225476   3.168   7.817   4.620  0.9462  0.0436 -0.0008
 8507TIP3   OH225477   3.461   6.169   4.848 -0.0173 -0.2284  0.2235
 8507TIP3    H125478   3.368   6.150   4.832 -0.5130  2.1350  0.0557
 8507TIP3    H225479   3.484   6.233   4.781  1.6386 -0.4831  0.5261
 8508TIP3   OH225480   3.653   6.611   4.615  0.3257 -0.0247  0.4402
 8508TIP3    H125481   3.587   6.654   4.670  0.4102 -1.0297  1.3323
 8508TIP3    H225482   3.641   6.652   4.529 -1.6568 -0.3668  0.5117
 8509TIP3   OH225483   6.062   7.870   3.873 -0.4863  1.1109 -0.3893
 8509TIP3    H125484   5.978   7.910   3.894 -1.5936 -1.3198  0.0131
 8509TIP3    H225485   6.069   7.878   3.778 -1.8871  0.0656 -0.6030
 8510TIP3   OH225486   4.677   4.859   4.023  0.1486 -0.1382  0.4433
 8510TIP3    H125487   4.733   4.788   4.055  0.6251 -0.5174 -1.2068
 8510TIP3    H225488   4.729   4.938   4.036  1.5765 -0.6130 -2.1841
 8511TIP3   OH225489   2.641   5.584   5.256  1.3951 -0.2137  0.4426
 8511TIP3    H125490   2.674   5.495   5.272 -0.1153 -0.8162  0.3552
 8511TIP3    H225491   2.663   5.602   5.165  0.3541 -1.1330 -0.0101
 8512TIP3   OH225492   6.129   5.506   6.534 -0.0302  0.2243  0.5636
 8512TIP3    H125493   6.144   5.500   6.439 -2.6740  2.2885 -0.0679
 8512TIP3    H225494   6.051   5.452   6.549 -0.2509  0.7579  1.3815
 8513TIP3   OH225495   4.994   5.336   4.320  0.0127 -0.6228 -0.4975
 8513TIP3    H125496   5.087   5.310   4.316  0.7550  1.8909 -0.1920
 8513TIP3    H225497   4.988   5.412   4.263 -1.3612  0.6693  1.3225
 8514TIP3   OH225498   2.392   3.831   6.355  0.5643 -0.5062  0.2177
 8514TIP3    H125499   2.388   3.803   6.447 -2.1563 -0.1964  0.2453
 8514TIP3    H225500   2.370   3.924   6.357  1.4200 -0.2717 -0.6868
 8515TIP3   OH225501   0.455   6.916   5.701 -0.3618  0.1985  0.2072
 8515TIP3    H125502   0.444   7.007   5.729 -0.7947  0.3025 -0.3049
 8515TIP3    H225503   0.502   6.875   5.774 -2.6720  0.1387  1.7264
 8516TIP3   OH225504   5.342   3.301   5.681  0.4745 -0.0329  0.0462
 8516TIP3    H125505   5.249   3.289   5.664  0.2356  1.0621  0.5599
 8516TIP3    H225506   5.363   3.384   5.638  0.6636  0.9666  2.0446
 8517TIP3   OH225507   3.371   5.906   5.240  0.3667  0.3245 -0.0207
 8517TIP3    H125508   3.295   5.849   5.238  0.2939  0.4006  0.5379
 8517TIP3    H225509   3.441   5.854   5.200 -0.0962  0.4454 -1.0244
 8518TIP3   OH225510   7.008   0.384   2.441 -0.0331  0.1154 -1.1266
 8518TIP3    H125511   7.080   0.372   2.503 -0.2641  3.1482 -0.1739
 8518TIP3    H225512   6.932   0.346   2.486  0.1525  0.6860 -0.3174
 8519TIP3   OH225513   1.538   7.714   4.061 -0.1246  0.7886  0.2931
 8519TIP3    H125514   1.555   7.731   3.968  1.0952  0.5018  0.4580
 8519TIP3    H225515   1.594   7.640   4.082 -0.8007  0.5166  1.1325
 8520TIP3   OH225516   5.577   0.294   3.225  0.2057 -0.5434 -0.1524
 8520TIP3    H125517   5.561   0.270   3.134 -0.6103  1.6280 -0.6072
 8520TIP3    H225518   5.634   0.370   3.220 -0.1236 -0.2025  1.1406
 8521TIP3   OH225519   0.836   6.758   4.651 -0.1418  0.4852  0.3093
 8521TIP3    H125520   0.851   6.767   4.557 -0.2331  0.6846  0.3138
 8521TIP3    H225521   0.915   6.715   4.683  1.3454  3.2883  0.6224
 8522TIP3   OH225522   1.523   0.661   3.790  0.1195  0.1143 -0.5394
 8522TIP3    H125523   1.499   0.590   3.849  0.7753  0.9998  0.8114
 8522TIP3    H225524   1.452   0.724   3.797 -0.4481 -0.3757 -1.7171
 8523TIP3   OH225525   6.185   7.190   1.590 -0.3921 -0.2815  0.3420
 8523TIP3    H125526   6.263   7.245   1.588  0.5111 -1.5556 -0.5605
 8523TIP3    H225527   6.190   7.144   1.674 -0.7775  0.4873  0.7862
 8524TIP3   OH225528   2.988   6.746   4.438 -0.4063  0.2877 -0.1733
 8524TIP3    H125529   2.991   6.783   4.349  0.1599 -0.4272 -0.4660
 8524TIP3    H225530   2.912   6.688   4.437 -0.6358  0.5894 -0.0692
 8525TIP3   OH225531   3.320   7.708   3.911 -0.4703 -0.0860 -0.5060
 8525TIP3    H125532   3.368   7.668   3.839  0.4267  1.0396 -0.5580
 8525TIP3    H225533   3.336   7.652   3.987 -1.0599 -1.0328 -1.0783
 8526TIP3   OH225534   3.860   6.838   3.895 -0.5990  0.5330 -0.0383
 8526TIP3    H125535   3.802   6.789   3.837  0.1130  0.9804 -1.1574
 8526TIP3    H225536   3.801   6.889   3.950 -1.3268 -0.9996  0.6353
 8527TIP3   OH225537   5.011   7.811   4.259  0.3161 -0.3976  0.7452
 8527TIP3    H125538   4.997   7.719   4.283  0.1025 -0.6030 -0.1801
 8527TIP3    H225539   4.956   7.825   4.183  0.3671  0.4983  0.8713
 8528TIP3   OH225540   5.204   0.611   2.916 -0.7513 -0.5189 -0.2461
 8528TIP3    H125541   5.193   0.703   2.942  1.1290  0.3283 -2.2688
 8528TIP3    H225542   5.126   0.591   2.865 -1.3668 -0.2025  0.5444
 8529TIP3   OH225543   3.894   0.450   2.729  0.3486  0.1592  0.2341
 8529TIP3    H125544   3.867   0.460   2.638 -0.4599  1.4657  0.6050
 8529TIP3    H225545   3.871   0.533   2.770  0.4722 -0.5143  1.6930
 8530TIP3   OH225546   5.261   4.979   3.162 -0.7239  0.2125  0.0618
 8530TIP3    H125547   5.343   5.027   3.175  1.2148 -3.4002  1.8828
 8530TIP3    H225548   5.248   4.980   3.068  1.1199  1.3352 -0.2213
 8531TIP3   OH225549   4.627   5.215   3.669  0.4001  0.1774 -0.0451
 8531TIP3    H125550   4.593   5.126   3.670  1.1864 -0.1158  0.9907
 8531TIP3    H225551   4.568   5.263   3.611 -2.1968 -0.1519  2.2708
 8532TIP3   OH225552   3.169   7.103   3.506  0.0509 -0.7446 -0.1388
 8532TIP3    H125553   3.097   7.160   3.532 -0.5211 -1.3013 -0.5003
 8532TIP3    H225554   3.128   7.018   3.489  0.7626 -1.0157 -0.5258
 8533TIP3   OH225555   4.782   5.159   2.604 -0.2215 -0.1432 -0.3021
 8533TIP3    H125556   4.716   5.171   2.536 -0.5100 -0.2918 -0.0436
 8533TIP3    H225557   4.783   5.065   2.620  0.1254 -0.1553 -0.3761
 8534TIP3   OH225558   3.864   7.239   6.291 -0.3849  0.5551 -0.4326
 8534TIP3    H125559   3.788   7.223   6.234  0.4385  0.2918 -1.4707
 8534TIP3    H225560   3.856   7.174   6.361 -1.1986  0.6331 -0.4446
 8535TIP3   OH225561   3.264   4.881   4.989 -0.1570 -0.3595 -0.3994
 8535TIP3    H125562   3.348   4.836   5.000  0.1149 -0.2791 -2.0854
 8535TIP3    H225563   3.200   4.811   4.978 -0.2656 -0.4078  0.4656
 8536TIP3   OH225564   0.916   6.843   3.507 -0.0543 -0.5108  0.0955
 8536TIP3    H125565   0.929   6.816   3.598 -0.3680 -1.2351 -0.0685
 8536TIP3    H225566   1.004   6.867   3.477 -0.1553  1.0527  0.9919
 8537TIP3   OH225567   5.052   4.930   4.051 -0.0186  0.1184 -0.3112
 8537TIP3    H125568   4.986   4.995   4.030 -2.6143 -2.0810  0.6524
 8537TIP3    H225569   5.005   4.847   4.051  2.4266 -1.3668  1.9034
 8538TIP3   OH225570   6.675   4.285   5.435  0.1438  0.0017  0.0061
 8538TIP3    H125571   6.657   4.349   5.365  0.2419 -1.2210 -1.1592
 8538TIP3    H225572   6.688   4.338   5.513 -0.2549  1.3877 -0.8531
 8539TIP3   OH225573   4.671   7.505   3.577 -0.1037 -0.0971  0.4758
 8539TIP3    H125574   4.687   7.530   3.668  1.6195  2.4496 -0.4647
 8539TIP3    H225575   4.753   7.525   3.532 -0.4496 -2.6804 -1.4039
 8540TIP3   OH225576   5.783   4.903   5.450  0.1181  0.3470 -0.2988
 8540TIP3    H125577   5.698   4.927   5.488 -0.2704 -0.4001 -0.6883
 8540TIP3    H225578   5.810   4.982   5.403 -1.6881 -0.3010 -2.5236
 8541TIP3   OH225579   5.937   4.808   2.885 -0.3130 -0.7781  0.0941
 8541TIP3    H125580   6.002   4.869   2.850 -0.6432  0.8604  2.2532
 8541TIP3    H225581   5.896   4.770   2.807  1.4034  0.1311 -1.2900
 8542TIP3   OH225582   2.650   7.270   5.806 -0.0883  0.1469 -0.4651
 8542TIP3    H125583   2.619   7.317   5.728  0.3535  1.2561  0.0144
 8542TIP3    H225584   2.669   7.182   5.775 -0.2045  0.4986 -1.5517
 8543TIP3   OH225585   4.167   4.161   3.809  0.3059  0.1795  0.1888
 8543TIP3    H125586   4.260   4.168   3.828  0.1188 -1.2212  1.7438
 8543TIP3    H225587   4.126   4.230   3.861  0.6349  2.1579 -2.0800
 8544TIP3   OH225588   4.406   5.787   5.699  0.1109  0.1362  0.0567
 8544TIP3    H125589   4.374   5.877   5.706  0.4447  0.1441  1.5861
 8544TIP3    H225590   4.390   5.749   5.785 -0.0788 -1.2904 -0.6061
 8545TIP3   OH225591   5.698   4.075   3.092  0.8397  0.2480  0.3135
 8545TIP3    H125592   5.757   4.143   3.126  0.0901  0.4796  1.1922
 8545TIP3    H225593   5.610   4.109   3.109  0.4491 -0.1040 -0.9701
 8546TIP3   OH225594   2.042   3.741   2.713  0.1222  0.1526  0.4155
 8546TIP3    H125595   2.058   3.824   2.669  0.9134  0.4726  1.2936
 8546TIP3    H225596   2.005   3.765   2.798  1.4693 -0.3206  1.1654
 8547TIP3   OH225597   6.894   5.618   2.287 -0.0588 -0.4910 -0.2932
 8547TIP3    H125598   6.808   5.634   2.326  0.4704  0.1237  0.6496
 8547TIP3    H225599   6.912   5.526   2.306 -0.8924 -0.8676 -1.2831
 8548TIP3   OH225600   4.026   7.170   5.258 -0.1938 -0.0894  0.6808
 8548TIP3    H125601   3.997   7.116   5.332 -1.6562 -1.0884 -0.5901
 8548TIP3    H225602   3.966   7.147   5.186  0.1755  2.0681 -0.3519
 8549TIP3   OH225603   2.953   6.205   4.054  0.1559  0.2206 -0.0846
 8549TIP3    H125604   3.040   6.237   4.030 -0.2032 -0.4606 -2.4933
 8549TIP3    H225605   2.893   6.258   4.002 -0.8603  0.3991  1.2449
 8550TIP3   OH225606   5.673   5.251   3.695  0.3005 -0.6549  0.3201
 8550TIP3    H125607   5.649   5.217   3.610 -0.5453 -1.7213  0.9727
 8550TIP3    H225608   5.765   5.227   3.706  1.2506  2.0091 -1.4907
 8551TIP3   OH225609   1.926   6.495   6.903  0.2541 -0.4480  0.1570
 8551TIP3    H125610   1.883   6.480   6.987  0.2507  0.5528  0.3389
 8551TIP3    H225611   1.991   6.425   6.896 -0.0747 -0.8170  0.7694
 8552TIP3   OH225612   5.961   0.552   5.415 -0.2039  0.0350 -0.6145
 8552TIP3    H125613   5.879   0.601   5.407  0.0477  0.3618 -1.2537
 8552TIP3    H225614   5.936   0.471   5.458 -0.7892  0.3287 -0.3965
 8553TIP3   OH225615   3.477   7.006   3.375 -0.4261  0.3888 -0.7135
 8553TIP3    H125616   3.415   6.934   3.385  0.9575 -0.6902  0.3579
 8553TIP3    H225617   3.557   6.975   3.417 -0.0094  2.8393  0.4244
 8554TIP3   OH225618   3.290   6.752   4.499 -0.2699  0.7517  0.1350
 8554TIP3    H125619   3.300   6.693   4.424 -0.2141 -0.6915  1.2651
 8554TIP3    H225620   3.197   6.775   4.498 -0.3122  0.5796 -0.2495
 8555TIP3   OH225621   1.589   7.690   3.788  0.0794 -0.3887  0.2957
 8555TIP3    H125622   1.554   7.690   3.699  0.8857  0.4450 -0.0234
 8555TIP3    H225623   1.621   7.600   3.801 -1.0019 -0.8054  0.1330
 8556TIP3   OH225624   2.150   7.968   3.651  0.0172 -0.3972  0.6459
 8556TIP3    H125625   2.062   7.937   3.668 -0.7356  1.4818  0.3511
 8556TIP3    H225626   2.185   7.992   3.737 -0.9490  1.8300  0.4552
 8557TIP3   OH225627   4.910   7.176   3.441  0.2467 -0.0229 -0.6937
 8557TIP3    H125628   4.939   7.098   3.395  0.6818 -0.8567  0.9426
 8557TIP3    H225629   4.892   7.146   3.530 -0.2358  1.6073 -0.2192
 8558TIP3   OH225630   6.111   6.903   3.264 -0.3636  0.4149 -0.6275
 8558TIP3    H125631   6.162   6.858   3.332 -0.7938 -0.0892 -0.6316
 8558TIP3    H225632   6.171   6.967   3.227  0.8770 -1.3640 -1.8336
 8559TIP3   OH225633   3.320   7.380   1.429 -0.3486 -0.8126 -0.3217
 8559TIP3    H125634   3.370   7.350   1.353  1.8682  1.1525  0.2901
 8559TIP3    H225635   3.378   7.364   1.503 -0.5400  1.6161  0.3947
 8560TIP3   OH225636   3.430   0.235   4.185  0.2853 -0.4559 -0.2499
 8560TIP3    H125637   3.339   0.263   4.174  0.6641  1.3301  0.9720
 8560TIP3    H225638   3.468   0.299   4.245  2.1375 -1.6571 -0.0967
 8561TIP3   OH225639   1.180   5.621   2.392 -0.2036 -0.0829 -0.0089
 8561TIP3    H125640   1.108   5.675   2.361 -0.5954 -0.5122  0.1523
 8561TIP3    H225641   1.247   5.628   2.324 -1.1522 -1.2262 -1.0662
 8562TIP3   OH225642   4.269   4.696   4.300  0.0278 -0.1924  0.1550
 8562TIP3    H125643   4.333   4.740   4.244 -0.5290 -0.3473 -0.6205
 8562TIP3    H225644   4.320   4.662   4.374  0.6014  0.9624  0.2941
 8563TIP3   OH225645   4.286   3.112   6.673 -0.1872 -0.6060 -0.3977
 8563TIP3    H125646   4.375   3.147   6.673 -1.0195  1.5861  1.0327
 8563TIP3    H225647   4.231   3.186   6.649 -1.6350 -1.9920 -1.4408
 8564TIP3   OH225648   4.924   3.839   4.554  0.2164  0.0387 -0.4727
 8564TIP3    H125649   4.936   3.766   4.493  0.4751 -0.1051 -0.2478
 8564TIP3    H225650   5.008   3.883   4.556 -0.0357  0.5510 -0.8677
 8565TIP3   OH225651   4.027   6.468   3.446 -0.1050  0.5222  0.7546
 8565TIP3    H125652   4.006   6.525   3.519 -1.2265 -0.5310  1.2640
 8565TIP3    H225653   4.098   6.412   3.479 -0.7475 -0.0873  1.1068
 8566TIP3   OH225654   1.587   4.735   4.424 -0.0559  0.0101 -0.0548
 8566TIP3    H125655   1.638   4.741   4.505 -0.6828 -0.0058  0.3438
 8566TIP3    H225656   1.513   4.679   4.447 -1.4716  1.8789 -0.0005
 8567TIP3   OH225657   3.582   3.919   3.366 -0.0201 -0.2206 -0.5114
 8567TIP3    H125658   3.661   3.873   3.338 -0.0804 -0.8348  0.2992
 8567TIP3    H225659   3.585   3.914   3.462  0.8458  2.8903 -0.3176
 8568TIP3   OH225660   3.578   5.721   5.168 -0.4738  0.1646  0.4550
 8568TIP3    H125661   3.623   5.648   5.125 -0.7603 -0.5546  1.3754
 8568TIP3    H225662   3.649   5.772   5.209 -0.5404 -1.3944  2.5576
 8569TIP3   OH225663   3.933   5.882   3.943 -0.1486  0.4510 -0.0117
 8569TIP3    H125664   3.899   5.919   3.862 -2.2332 -0.2788  0.4991
 8569TIP3    H225665   3.895   5.794   3.947  1.3655 -0.1808  0.8636
 8570TIP3   OH225666   0.951   7.288   2.550 -0.6053  0.2366 -0.0318
 8570TIP3    H125667   0.943   7.203   2.508 -1.9477  0.5912 -0.5242
 8570TIP3    H225668   0.948   7.351   2.478  3.3546  0.6217  0.0318
 8571TIP3   OH225669   3.201   4.564   2.840  0.4028 -0.1002 -0.7307
 8571TIP3    H125670   3.241   4.568   2.753  0.8158 -1.0814 -0.6005
 8571TIP3    H225671   3.107   4.555   2.823  0.4470  0.0777 -1.0730
 8572TIP3   OH225672   2.449   3.144   3.219  0.1213  0.3112 -0.3110
 8572TIP3    H125673   2.437   3.099   3.135  2.0614 -2.6683  0.9199
 8572TIP3    H225674   2.363   3.140   3.261 -0.1381 -0.7689 -0.9318
 8573TIP3   OH225675   1.650   6.661   4.070 -0.1280 -0.1157  0.0267
 8573TIP3    H125676   1.739   6.695   4.059  0.0297 -0.9417 -1.3919
 8573TIP3    H225677   1.646   6.635   4.162  1.0782 -0.0011  0.1244
 8574TIP3   OH225678   1.449   5.096   2.378  0.3548 -0.5145  0.3875
 8574TIP3    H125679   1.394   5.156   2.328 -1.1640 -1.1940  1.2316
 8574TIP3    H225680   1.428   5.009   2.343  1.2944 -0.7333  0.3452
 8575TIP3   OH225681   5.864   5.651   3.589 -0.2599  0.3993 -0.4858
 8575TIP3    H125682   5.899   5.576   3.541  0.7672  0.7403 -0.2793
 8575TIP3    H225683   5.892   5.727   3.539  0.7171  0.7566  0.5650
 8576TIP3   OH225684   4.375   5.690   5.959 -0.6337 -0.9318  0.4847
 8576TIP3    H125685   4.353   5.597   5.959  0.5736 -1.2158  0.6617
 8576TIP3    H225686   4.443   5.699   6.025 -2.2802  0.4600  2.0404
 8577TIP3   OH225687   4.086   7.379   2.085 -0.3093  0.6129 -0.0074
 8577TIP3    H125688   4.001   7.423   2.077  0.1342  1.4557 -0.0328
 8577TIP3    H225689   4.120   7.376   1.996 -0.6603 -0.4359 -0.1167
 8578TIP3   OH225690   5.278   4.785   4.375  0.0692  0.2155 -0.3641
 8578TIP3    H125691   5.345   4.827   4.429  1.1491 -0.8790 -0.8321
 8578TIP3    H225692   5.252   4.708   4.426 -0.5743  0.4450 -0.3482
 8579TIP3   OH225693   5.702   7.361   5.400  0.0598  0.0610 -0.0976
 8579TIP3    H125694   5.691   7.370   5.305 -2.1653 -0.6918  0.0557
 8579TIP3    H225695   5.662   7.440   5.436  0.1338 -0.0645  0.2626
 8580TIP3   OH225696   3.598   5.265   4.906 -0.5577  0.1684 -0.1598
 8580TIP3    H125697   3.564   5.334   4.850 -0.9792 -0.6131 -0.8668
 8580TIP3    H225698   3.659   5.217   4.850  2.2084  1.8879  1.2186
 8581TIP3   OH225699   4.127   7.062   1.845  0.0381 -0.2497  0.0306
 8581TIP3    H125700   4.146   7.153   1.820 -0.5756 -0.4861 -1.3251
 8581TIP3    H225701   4.212   7.017   1.836  0.2754  0.1249  0.4070
 8582TIP3   OH225702   3.844   5.915   0.922  0.0180  0.1754  0.0239
 8582TIP3    H125703   3.823   5.827   0.893  0.4390  0.5335 -1.4409
 8582TIP3    H225704   3.806   5.972   0.855  0.7295  1.0473  0.3483
 8583TIP3   OH225705   8.399   0.254   5.062 -1.2650 -0.1590  0.5396
 8583TIP3    H125706   8.392   0.349   5.054 -1.5156 -0.3384 -1.4673
 8583TIP3    H225707   8.317   0.220   5.026  0.4551 -1.2855 -2.5186
 8584TIP3   OH225708   3.403   6.227   1.543  0.2877 -0.3571  0.4298
 8584TIP3    H125709   3.412   6.183   1.458  0.3015  0.1281  0.1749
 8584TIP3    H225710   3.411   6.320   1.522 -1.6718 -0.1127  0.7123
 8585TIP3   OH225711   4.906   5.903   2.586 -0.4037 -0.3526  0.8059
 8585TIP3    H125712   4.828   5.958   2.581 -0.5488 -0.6120  0.0149
 8585TIP3    H225713   4.955   5.936   2.661 -0.3743  1.0044  0.2091
 8586TIP3   OH225714   5.100   6.836   1.185 -0.5615  0.0434 -0.4866
 8586TIP3    H125715   5.182   6.848   1.232  0.8930  0.6521 -3.0581
 8586TIP3    H225716   5.059   6.923   1.187 -1.5513 -0.4347  1.4384
 8587TIP3   OH225717   7.902   0.073   2.452  0.2240  0.3194 -0.2291
 8587TIP3    H125718   7.911   0.081   2.357 -2.2912  0.3759 -0.4846
 8587TIP3    H225719   7.964   0.137   2.486  0.7021  0.7578 -1.8398
 8588TIP3   OH225720   5.403   7.111   2.229 -0.1834  0.4078 -0.1772
 8588TIP3    H125721   5.357   7.099   2.313  1.0291  0.9319  0.5729
 8588TIP3    H225722   5.415   7.205   2.222  0.4580  0.3010 -0.5339
 8589TIP3   OH225723   6.962   6.893   3.796 -0.2117 -0.2611  0.3140
 8589TIP3    H125724   6.963   6.986   3.818 -4.3299 -0.3418  1.3640
 8589TIP3    H225725   6.913   6.887   3.714  0.1154 -1.5077  0.1864
 8590TIP3   OH225726   7.568   6.513   3.792 -0.8711  0.5931 -0.7418
 8590TIP3    H125727   7.535   6.591   3.838 -0.4964  0.5239 -0.3538
 8590TIP3    H225728   7.638   6.480   3.848 -0.5737  0.3665 -1.2451
 8591TIP3   OH225729   5.843   5.784   5.192  0.1221  0.0511  0.1267
 8591TIP3    H125730   5.834   5.859   5.251 -1.6021  1.0048 -1.3471
 8591TIP3    H225731   5.801   5.810   5.111  0.3166 -2.1732 -0.7431
 8592TIP3   OH225732   5.217   6.300   4.998  0.8879  0.8435 -0.0384
 8592TIP3    H125733   5.262   6.262   5.074  0.9685  0.3566 -0.3309
 8592TIP3    H225734   5.266   6.269   4.923 -1.1028 -1.3766 -0.4998
 8593TIP3   OH225735   7.359   5.802   3.858 -0.3728 -0.2143  0.0165
 8593TIP3    H125736   7.378   5.745   3.783  0.8779  0.8303 -0.4875
 8593TIP3    H225737   7.333   5.742   3.928  2.3057 -1.5764 -0.0660
 8594TIP3   OH225738   5.422   6.264   2.454 -0.3923 -0.1973  0.1630
 8594TIP3    H125739   5.434   6.337   2.394  0.9835  0.1468  0.8437
 8594TIP3    H225740   5.348   6.290   2.509  1.0737  1.4006  1.4309
 8595TIP3   OH225741   7.072   7.048   2.435 -0.5756  0.0432  0.3736
 8595TIP3    H125742   7.137   6.986   2.468 -1.0346 -0.7955 -0.2814
 8595TIP3    H225743   7.022   7.075   2.512 -0.4312 -0.4657  0.6440
 8596TIP3   OH225744   5.540   6.103   3.977 -0.0562 -0.5365 -0.1995
 8596TIP3    H125745   5.594   6.062   3.910  2.0561  1.1669  0.4128
 8596TIP3    H225746   5.464   6.137   3.930  1.4346  0.7060 -1.7387
 8597TIP3   OH225747   6.170   6.186   4.287  0.3789 -0.4913 -0.0901
 8597TIP3    H125748   6.216   6.178   4.203  0.9192  0.3714  0.1173
 8597TIP3    H225749   6.239   6.201   4.351 -0.2023  1.2413  0.1583
 8598TIP3   OH225750   6.503   5.184   2.167 -0.0719 -0.1769  0.2977
 8598TIP3    H125751   6.557   5.179   2.246 -0.1188 -1.2754  0.2656
 8598TIP3    H225752   6.546   5.250   2.113  0.2339  0.2343  1.0328
 8599TIP3   OH225753   6.192   6.211   6.321 -0.1915 -0.1830  0.2707
 8599TIP3    H125754   6.132   6.192   6.248  0.9449  0.7747 -0.9405
 8599TIP3    H225755   6.269   6.157   6.303 -0.0130 -0.1494  0.9209
 8600TIP3   OH225756   2.990   7.795   5.192  0.1128  0.0737 -0.1241
 8600TIP3    H125757   2.977   7.833   5.105  0.7879 -1.7783 -1.0742
 8600TIP3    H225758   3.069   7.838   5.225 -1.3160  2.2829  0.4466
 8601TIP3   OH225759   7.077   7.192   5.689 -0.0658 -0.0279 -0.7133
 8601TIP3    H125760   7.168   7.162   5.681  0.0955  0.1892  0.1940
 8601TIP3    H225761   7.068   7.215   5.782 -1.8381 -2.5607 -0.2160
 8602TIP3   OH225762   2.747   7.556   1.876  0.1477  0.3781  0.3219
 8602TIP3    H125763   2.674   7.496   1.890 -0.2723  1.0376  0.9557
 8602TIP3    H225764   2.818   7.523   1.931  0.8765 -1.1871 -1.4840
 8603TIP3   OH225765   5.697   7.968   4.729 -0.6021  0.3564  0.0259
 8603TIP3    H125766   5.786   7.994   4.753 -0.7672  0.5528  0.4263
 8603TIP3    H225767   5.697   7.873   4.737 -0.2265  0.2983 -0.6568
 8604TIP3   OH225768   4.475   6.264   3.401 -0.1574  0.0061  0.1405
 8604TIP3    H125769   4.513   6.333   3.456 -0.4997  0.7654 -0.5778
 8604TIP3    H225770   4.543   6.242   3.339  0.6106 -1.5812  1.4882
 8605TIP3   OH225771   4.748   4.019   3.235  0.2123 -0.6660 -0.4237
 8605TIP3    H125772   4.743   3.986   3.324  0.7043  0.2200 -0.0638
 8605TIP3    H225773   4.669   4.071   3.224  0.1130 -0.8377 -0.5376
 8606TIP3   OH225774   2.052   0.386   5.442 -0.4302 -0.5640 -0.4546
 8606TIP3    H125775   2.105   0.426   5.373 -0.4293 -0.5265 -0.4325
 8606TIP3    H225776   2.115   0.362   5.510 -0.3292 -1.3476 -0.8139
 8607TIP3   OH225777   7.812   7.636   5.077 -0.2064 -0.0951 -0.4937
 8607TIP3    H125778   7.899   7.600   5.095 -0.0070 -0.8702 -2.8923
 8607TIP3    H225779   7.763   7.620   5.158  1.6606 -0.2636  0.6409
 8608TIP3   OH225780   7.265   7.705   3.974  0.4517 -0.5331  0.4750
 8608TIP3    H125781   7.295   7.641   3.909  0.3630 -1.4921  1.3870
 8608TIP3    H225782   7.177   7.677   3.997  0.1008  0.3830  0.2869
 8609TIP3   OH225783   4.960   5.937   4.606  0.5416  0.2010  0.1224
 8609TIP3    H125784   5.008   6.019   4.612 -0.6901  0.8426  1.8127
 8609TIP3    H225785   4.875   5.962   4.569  0.6290 -0.5293 -0.5900
 8610TIP3   OH225786   6.261   6.814   2.817  0.1718  0.0473 -0.1421
 8610TIP3    H125787   6.270   6.903   2.850  1.8280 -0.1137 -0.1243
 8610TIP3    H225788   6.177   6.784   2.851  1.1783  0.4001  2.7197
 8611TIP3   OH225789   6.450   6.707   3.014 -0.1851 -0.5457  0.1242
 8611TIP3    H125790   6.402   6.762   2.951 -0.7102 -1.5568 -0.3679
 8611TIP3    H225791   6.410   6.621   3.006  0.5257 -0.9647  1.0206
 8612TIP3   OH225792   5.791   6.629   2.789 -0.0054 -0.2242  0.1029
 8612TIP3    H125793   5.813   6.538   2.812  0.2497  0.0407  0.9324
 8612TIP3    H225794   5.799   6.633   2.694  1.0198 -0.7933  0.1683
 8613TIP3   OH225795   0.491   0.232   5.619  0.3553 -0.0403  0.1410
 8613TIP3    H125796   0.534   0.308   5.657 -0.6764  0.4910  0.2791
 8613TIP3    H225797   0.456   0.183   5.694  1.7183 -1.0969  0.1058
 8614TIP3   OH225798   0.078   0.165   3.380  0.0565  0.6276 -0.1503
 8614TIP3    H125799   0.135   0.215   3.438 -0.2083 -0.6616  1.2462
 8614TIP3    H225800   0.022   0.231   3.339  1.1149  1.6775  0.0776
 8615TIP3   OH225801   6.742   5.721   4.690  0.2131 -0.0885  0.0791
 8615TIP3    H125802   6.739   5.812   4.663  0.6383 -0.1662 -0.2231
 8615TIP3    H225803   6.799   5.678   4.627 -3.1410 -1.4021 -2.2416
 8616TIP3   OH225804   4.643   4.984   4.756 -0.4495 -0.0527 -0.3398
 8616TIP3    H125805   4.631   5.011   4.848 -1.9249 -0.7369 -0.3074
 8616TIP3    H225806   4.584   5.043   4.707  0.9036  0.8171 -0.9421
 8617TIP3   OH225807   5.442   5.764   4.210 -0.0616 -0.0438  0.2020
 8617TIP3    H125808   5.472   5.680   4.245  2.6090 -0.1102 -2.1312
 8617TIP3    H225809   5.388   5.740   4.135  2.5552  0.3040 -1.8644
 8618TIP3   OH225810   8.298   0.987   4.528  0.3157  0.2334 -0.1961
 8618TIP3    H125811   8.258   1.074   4.532  1.0684  0.5407  0.9628
 8618TIP3    H225812   8.258   0.939   4.599  1.8983  0.5158  0.9193
 8619TIP3   OH225813   8.414  -0.033   3.237 -0.1855  0.4634  0.5396
 8619TIP3    H125814   8.347   0.024   3.199 -0.7592 -0.5049  0.0768
 8619TIP3    H225815   8.482   0.027   3.268 -0.9068  1.4117  0.3118
 8620TIP3   OH225816   6.291   7.415   4.377  0.1352  0.3204 -0.1657
 8620TIP3    H125817   6.349   7.375   4.442  1.1797  0.0358 -1.2630
 8620TIP3    H225818   6.214   7.358   4.377  0.1567  0.2766  0.7557
 8621TIP3   OH225819   4.390   5.925   2.548  0.3984 -0.8355 -0.0729
 8621TIP3    H125820   4.345   5.975   2.480  2.6620  3.3508  1.3262
 8621TIP3    H225821   4.322   5.904   2.611 -0.6768  0.2604 -0.8439
 8622TIP3   OH225822   5.820   6.428   4.916 -0.1371  0.0316  0.1384
 8622TIP3    H125823   5.904   6.388   4.893  0.1638  0.7349 -0.0288
 8622TIP3    H225824   5.802   6.489   4.844 -1.4803 -1.1144 -0.5156
 8623TIP3   OH225825   5.044   7.021   2.927 -0.3391 -0.8722 -0.3407
 8623TIP3    H125826   5.064   6.950   2.866  0.6684 -1.0221  0.1377
 8623TIP3    H225827   4.965   6.992   2.972 -1.5403 -0.4098 -2.0942
 8624TIP3   OH225828   5.045   7.028   4.031 -0.0825  0.1407 -0.7868
 8624TIP3    H125829   5.103   6.981   4.092  1.4238  0.0638 -2.2594
 8624TIP3    H225830   5.030   7.113   4.073  0.2697 -0.2145  0.0791
 8625TIP3   OH225831   3.369   7.322   0.620  0.2420 -0.3169  0.6742
 8625TIP3    H125832   3.290   7.299   0.668 -0.0377 -0.8976 -0.0670
 8625TIP3    H225833   3.338   7.344   0.532  0.5817  2.1160  1.1302
 8626TIP3   OH225834   4.223   6.442   5.422 -0.5730 -0.3810 -0.1580
 8626TIP3    H125835   4.238   6.389   5.343 -0.4938 -0.4883 -0.0717
 8626TIP3    H225836   4.301   6.497   5.428 -0.0992 -1.1050  0.4222
 8627TIP3   OH225837   4.570   4.849   4.479  0.1290  0.5364  0.3438
 8627TIP3    H125838   4.540   4.937   4.457  1.5307  0.8511 -0.3343
 8627TIP3    H225839   4.660   4.861   4.508  0.3144 -0.6741  0.2754
 8628TIP3   OH225840   7.295   7.155   5.288  0.2298 -0.3500 -0.0814
 8628TIP3    H125841   7.280   7.244   5.256  1.2840  0.1429  0.7625
 8628TIP3    H225842   7.305   7.102   5.209  0.8314  0.5049 -0.5871
 8629TIP3   OH225843   5.418   6.021   2.029  0.0554 -0.0524 -0.3115
 8629TIP3    H125844   5.353   5.959   2.063  2.2839 -1.7120  1.0686
 8629TIP3    H225845   5.423   6.001   1.936 -0.3080 -0.9484 -0.1439
 8630TIP3   OH225846   4.790   6.841   2.255  0.3964 -0.1052 -0.6035
 8630TIP3    H125847   4.786   6.817   2.347 -0.7232 -0.6962 -0.7941
 8630TIP3    H225848   4.727   6.783   2.212 -1.7338  2.5422 -1.2227
 8631TIP3   OH225849   1.518   6.892   1.693 -0.0768  0.0768  0.2982
 8631TIP3    H125850   1.462   6.968   1.709  0.1494  0.3666 -0.2543
 8631TIP3    H225851   1.540   6.860   1.780  0.8661  1.4291  0.5769
 8632TIP3   OH225852   0.120   0.061   5.102  0.6240 -0.1496  0.1527
 8632TIP3    H125853   0.059   0.130   5.072 -0.1154 -1.2575 -0.9240
 8632TIP3    H225854   0.182   0.052   5.030  0.6147 -0.7344  0.2232
 8633TIP3   OH225855   5.860   6.126   2.844 -0.1114 -0.5652  0.3689
 8633TIP3    H125856   5.787   6.078   2.803 -1.3697  0.6640  1.1322
 8633TIP3    H225857   5.903   6.169   2.770 -0.6851 -0.6002  0.0037
 8634TIP3   OH225858   6.716   6.421   4.587  0.6442  0.4087 -0.1867
 8634TIP3    H125859   6.655   6.366   4.539  1.2354  0.3131 -0.8318
 8634TIP3    H225860   6.748   6.484   4.522  2.3281 -0.4555 -0.2051
 8635TIP3   OH225861   4.283   5.815   5.436  0.0885 -0.4196 -0.5564
 8635TIP3    H125862   4.376   5.801   5.455 -0.1397  0.3459  1.2102
 8635TIP3    H225863   4.270   5.774   5.351  1.5667 -2.4798  0.1644
 8636TIP3   OH225864   5.923   5.805   4.625 -0.2741 -0.6181  0.3404
 8636TIP3    H125865   5.918   5.770   4.536 -1.3324 -0.0401  0.1648
 8636TIP3    H225866   5.968   5.888   4.616  2.0457 -1.7907  0.7289
 8637TIP3   OH225867   7.764   7.151   1.223  0.5897 -0.1550 -0.5869
 8637TIP3    H125868   7.711   7.169   1.300  0.3458 -2.6470 -0.1255
 8637TIP3    H225869   7.827   7.222   1.220 -1.3617  1.6529  0.1181
 8638TIP3   OH225870   4.515   6.009   3.999  0.1492  0.2998  0.2328
 8638TIP3    H125871   4.590   6.067   4.014 -0.5306  1.3377 -0.2898
 8638TIP3    H225872   4.542   5.954   3.926  0.1908  1.0938 -0.3685
 8639TIP3   OH225873   6.453   7.241   1.577  0.1876 -0.2837 -0.1626
 8639TIP3    H125874   6.500   7.269   1.498  3.4101 -0.0596  1.7679
 8639TIP3    H225875   6.493   7.156   1.599  0.3738  0.3513  2.0518
 8640TIP3   OH225876   4.833   6.291   2.572 -0.6819 -0.0747 -0.1841
 8640TIP3    H125877   4.833   6.288   2.667 -0.8701 -1.0868 -0.2172
 8640TIP3    H225878   4.755   6.244   2.545 -0.5838  0.1230 -0.8467
 8641TIP3   OH225879   5.446   6.301   4.392 -0.5424  0.4550  0.0931
 8641TIP3    H125880   5.431   6.221   4.341 -0.3604  0.0439  0.6735
 8641TIP3    H225881   5.459   6.369   4.326 -0.4222 -0.0483 -0.4143
 8642TIP3   OH225882   6.449   5.778   1.498 -0.1372  0.5203  0.5550
 8642TIP3    H125883   6.487   5.849   1.549 -0.2366  1.2764 -0.4077
 8642TIP3    H225884   6.420   5.714   1.563  2.5132  0.0481  1.3166
 8643TIP3   OH225885   5.367   3.968   2.758 -0.4620 -0.2402  0.2949
 8643TIP3    H125886   5.290   3.918   2.730 -2.0673  2.1361  0.3974
 8643TIP3    H225887   5.336   4.023   2.829  1.6351 -0.1064  1.1462
 8644TIP3   OH225888   5.971   4.659   4.682  0.1514 -0.0856 -0.0877
 8644TIP3    H125889   5.965   4.566   4.703  0.6335  0.2300  1.4873
 8644TIP3    H225890   5.881   4.684   4.659 -0.1334 -0.7427  0.2915
 8645TIP3   OH225891   6.674   7.328   2.228  0.1055 -0.3282  0.3338
 8645TIP3    H125892   6.633   7.339   2.143 -0.4394  1.1499  0.7797
 8645TIP3    H225893   6.617   7.374   2.289  1.9163  0.9740  1.0921
 8646TIP3   OH225894   5.073   5.842   3.498  0.1408  0.2086 -0.2276
 8646TIP3    H125895   5.049   5.871   3.409  0.5646 -1.3388 -0.8697
 8646TIP3    H225896   5.005   5.878   3.554  0.0457  1.4847 -1.1458
 8647TIP3   OH225897   4.264   5.982   3.135  0.1570 -0.1022  0.5405
 8647TIP3    H125898   4.280   5.986   3.229  4.1977  1.4115 -0.1264
 8647TIP3    H225899   4.293   5.894   3.110 -2.0449 -0.9438  0.8527
 8648TIP3   OH225900   6.933   6.147   3.965  0.1340 -0.0630 -0.0220
 8648TIP3    H125901   7.028   6.150   3.962  0.2307 -3.0947 -2.1605
 8648TIP3    H225902   6.906   6.146   3.873 -1.9677  0.7560  0.5558
 8649TIP3   OH225903   5.729   3.361   2.180  0.1450 -0.1127 -0.0440
 8649TIP3    H125904   5.736   3.271   2.211 -1.0426 -0.4040 -0.6016
 8649TIP3    H225905   5.809   3.403   2.211  0.9962 -1.5139 -0.2945
 8650TIP3   OH225906   7.015   7.455   4.052  0.3665 -0.0436  0.2612
 8650TIP3    H125907   7.100   7.434   4.092  0.6186  1.7480  0.6817
 8650TIP3    H225908   6.983   7.530   4.102 -0.8554  0.1296 -0.7754
 8651TIP3   OH225909   5.952   6.792   0.567 -0.2410 -0.0601  0.2663
 8651TIP3    H125910   5.903   6.775   0.648 -0.5175 -1.0241 -0.0883
 8651TIP3    H225911   5.986   6.706   0.542  0.1370  0.2966 -0.4465
 8652TIP3   OH225912   6.741   5.715   3.498 -0.0013  0.0655 -0.4626
 8652TIP3    H125913   6.751   5.637   3.443  1.0958  1.7784 -2.7964
 8652TIP3    H225914   6.825   5.724   3.543  0.2102  0.3795 -0.9059
 8653TIP3   OH225915   5.951   5.561   5.051 -0.1584 -0.1403 -0.3563
 8653TIP3    H125916   5.966   5.492   5.116 -0.6313 -1.3151 -1.4674
 8653TIP3    H225917   5.932   5.639   5.103 -0.3554 -1.0190  0.9163
 8654TIP3   OH225918   5.839   6.878   3.310 -0.0843 -0.0165 -0.1498
 8654TIP3    H125919   5.920   6.893   3.260 -0.0535 -1.5471 -0.5984
 8654TIP3    H225920   5.869   6.864   3.400  0.2576 -1.4521 -0.4648
 8655TIP3   OH225921   6.693   5.246   2.428 -0.3204 -0.5812 -0.0412
 8655TIP3    H125922   6.784   5.274   2.417 -0.8160  0.4867 -1.6055
 8655TIP3    H225923   6.698   5.170   2.486  1.4916 -0.0494  0.5366
 8656TIP3   OH225924   6.020   6.478   4.572  0.0257  0.3345  0.2356
 8656TIP3    H125925   5.966   6.488   4.494  2.5757  2.2562 -1.3641
 8656TIP3    H225926   5.981   6.537   4.637  0.4158  2.0371 -1.0421
 8657TIP3   OH225927   6.649   6.886   4.701  0.1641 -0.1494 -0.1336
 8657TIP3    H125928   6.724   6.919   4.652  0.4996 -1.7954 -0.7657
 8657TIP3    H225929   6.572   6.913   4.650  0.4170 -0.1477 -0.5106
 8658TIP3   OH225930   6.119   3.876   1.743  0.6070 -0.1150  0.0058
 8658TIP3    H125931   6.047   3.925   1.703  0.2625  0.1310  0.9295
 8658TIP3    H225932   6.192   3.939   1.745  0.7240 -0.2287 -0.5235
 8659TIP3   OH225933   3.619   6.743   3.462 -0.2693  0.3494  0.3185
 8659TIP3    H125934   3.698   6.691   3.445 -0.8688 -0.8394  1.1489
 8659TIP3    H225935   3.557   6.716   3.395 -0.6872 -0.2339  0.9367
 8660TIP3   OH225936   0.196   0.847   2.494 -0.2806  0.0979 -0.1451
 8660TIP3    H125937   0.257   0.915   2.465 -0.5828 -0.0726 -1.2037
 8660TIP3    H225938   0.170   0.874   2.582 -0.0127  1.0970 -0.3634
 8661TIP3   OH225939   6.016   6.975   4.539 -0.0286 -0.0396  0.6780
 8661TIP3    H125940   6.084   7.043   4.542  1.2129 -1.0614 -2.6404
 8661TIP3    H225941   6.063   6.894   4.520 -1.8249 -1.3878  1.7778
 8662TIP3   OH225942   7.512   6.632   4.422  0.0345  0.0481  0.0333
 8662TIP3    H125943   7.426   6.670   4.405  0.9554  1.4650 -1.6933
 8662TIP3    H225944   7.508   6.544   4.386 -0.9601 -0.1865  0.7182
 8663TIP3   OH225945   6.138   4.768   2.295  0.4387  0.5736  0.3189
 8663TIP3    H125946   6.128   4.860   2.272 -0.4111  0.6665  1.0113
 8663TIP3    H225947   6.179   4.769   2.382  2.6412  0.2510 -0.6739
 8664TIP3   OH225948   5.926   5.899   3.464  0.0106 -0.1134  0.1702
 8664TIP3    H125949   5.958   5.970   3.519  0.9679  0.5251 -1.1987
 8664TIP3    H225950   5.915   5.938   3.377 -0.7979 -1.2860 -0.2705
 8665TIP3   OH225951   8.138   0.391   2.121  0.4992 -0.1621 -0.1127
 8665TIP3    H125952   8.133   0.402   2.216 -3.0060 -2.3514  0.0596
 8665TIP3    H225953   8.160   0.478   2.088  2.3743  0.5074  2.7099
 8666TIP3   OH225954   6.590   7.759   4.662 -0.3169 -0.4261  0.0086
 8666TIP3    H125955   6.570   7.737   4.572  0.5360  0.3644 -0.3870
 8666TIP3    H225956   6.685   7.748   4.669 -0.4455 -1.0295  0.9656
 8667TIP3   OH225957   4.093   5.007   2.942 -0.6759  0.1300  0.0942
 8667TIP3    H125958   4.132   4.981   2.859  0.3610 -0.7918  0.8453
 8667TIP3    H225959   3.999   4.993   2.930 -0.2561 -3.0139  0.1014
 8668TIP3   OH225960   2.354   2.562   1.561 -0.0545 -0.0959 -0.3144
 8668TIP3    H125961   2.376   2.480   1.518  2.3598  1.1498 -1.5800
 8668TIP3    H225962   2.385   2.630   1.501 -2.0944  1.7585  0.6399
 8669TIP3   OH225963   7.271   1.266   3.359  0.7637  0.2522  0.0640
 8669TIP3    H125964   7.210   1.327   3.318  2.6277  0.8726 -1.8729
 8669TIP3    H225965   7.264   1.186   3.306  0.8383 -0.0392  0.4939
 8670TIP3   OH225966   4.914   8.008   5.358 -0.5479  1.0859 -0.5645
 8670TIP3    H125967   4.819   8.004   5.344 -0.1043 -1.8034 -3.4173
 8670TIP3    H225968   4.931   7.941   5.425 -0.5388  1.7404  0.0891
 8671TIP3   OH225969   6.153   6.089   1.586  0.0175 -0.0498 -0.9468
 8671TIP3    H125970   6.242   6.063   1.562 -0.3341 -0.8031 -1.4713
 8671TIP3    H225971   6.162   6.134   1.670  0.7126 -1.3877 -0.2996
 8672TIP3   OH225972   7.019   7.693   3.657  0.0989 -0.0416  0.1443
 8672TIP3    H125973   6.961   7.645   3.598 -1.5653  1.0248  0.8998
 8672TIP3    H225974   7.106   7.683   3.617 -0.7239 -0.8405 -1.5093
 8673TIP3   OH225975   4.073   5.256   3.211  0.0989 -0.8042  0.2944
 8673TIP3    H125976   4.062   5.171   3.168 -0.0359 -0.8249  0.3665
 8673TIP3    H225977   4.016   5.250   3.289 -0.6212 -0.3121 -0.1885
 8674TIP3   OH225978   7.332   7.266   5.530  0.0230 -0.0966  0.4627
 8674TIP3    H125979   7.319   7.250   5.437 -0.8684 -0.9829  0.7375
 8674TIP3    H225980   7.381   7.348   5.533 -1.0502  0.6124 -0.7548
 8675TIP3   OH225981   3.127   5.903   0.695 -0.3691 -0.0440  0.0721
 8675TIP3    H125982   3.036   5.878   0.705 -0.7158  0.8758 -0.6470
 8675TIP3    H225983   3.124   5.987   0.649  0.8524 -0.2689 -0.4500
 8676TIP3   OH225984   4.295   7.151   1.393  0.2258 -0.3044 -0.6330
 8676TIP3    H125985   4.364   7.098   1.433 -0.6750 -0.0954  1.2788
 8676TIP3    H225986   4.219   7.138   1.451 -0.4829  1.7559 -1.0579
 8677TIP3   OH225987   5.917   6.091   5.363 -0.0608  0.2388 -0.5787
 8677TIP3    H125988   6.010   6.072   5.345 -0.5098 -1.1779 -1.4693
 8677TIP3    H225989   5.900   6.172   5.315  0.8266  0.7545 -0.0468
 8678TIP3   OH225990   6.270   7.086   3.153  0.2505  0.1053 -0.2891
 8678TIP3    H125991   6.319   7.102   3.073  0.6454 -2.8807 -0.6763
 8678TIP3    H225992   6.317   7.136   3.220  1.9799 -0.2167 -1.2430
 8679TIP3   OH225993   7.911   0.506   4.338 -0.1821  0.1258  0.2702
 8679TIP3    H125994   7.985   0.528   4.281  0.0268  0.1947  0.5664
 8679TIP3    H225995   7.950   0.457   4.410 -0.3090  0.8521  0.8386
 8680TIP3   OH225996   6.205   6.429   5.453  0.3289 -0.6397 -0.6228
 8680TIP3    H125997   6.249   6.492   5.510 -1.7457  1.7599 -1.5742
 8680TIP3    H225998   6.150   6.378   5.512  1.7774 -1.4099  0.1103
 8681TIP3   OH225999   5.381   6.924   2.593  0.4266  0.0136 -0.2129
 8681TIP3    H126000   5.334   6.990   2.541  1.6720 -0.6191 -2.2284
 8681TIP3    H226001   5.400   6.968   2.676 -0.5106  1.5121 -0.7643
 8682TIP3   OH226002   6.494   7.671   2.904 -0.1973 -0.2034 -0.3825
 8682TIP3    H126003   6.529   7.734   2.967  0.4998 -0.4083 -0.5544
 8682TIP3    H226004   6.440   7.722   2.844 -0.2150  0.1143 -0.0918
 8683TIP3   OH226005   5.289   5.980   5.797 -0.1375  0.0330  0.2004
 8683TIP3    H126006   5.226   5.942   5.858 -0.5685  0.5418  0.0762
 8683TIP3    H226007   5.284   5.923   5.720 -0.6573  0.2410  0.0797
 8684TIP3   OH226008   6.754   7.346   3.639  1.2286  0.2970 -0.1180
 8684TIP3    H126009   6.830   7.375   3.689  1.2516  0.5528 -0.2984
 8684TIP3    H226010   6.679   7.365   3.695  1.3943 -1.2782  0.6654
 8685TIP3   OH226011   3.871   6.595   2.427 -0.4932 -0.0101  0.0557
 8685TIP3    H126012   3.958   6.575   2.464  0.1884 -0.0381 -1.5445
 8685TIP3    H226013   3.881   6.682   2.389 -1.2805  0.1271  0.1553
 8686TIP3   OH226014   5.353   6.526   3.206  0.2959 -0.4793 -0.0639
 8686TIP3    H126015   5.427   6.497   3.153  2.0825  0.6573  1.7264
 8686TIP3    H226016   5.365   6.621   3.214 -1.9191 -0.1167 -0.5437
 8687TIP3   OH226017   5.032   7.172   4.301 -0.0745  0.4109 -0.2345
 8687TIP3    H126018   5.066   7.147   4.387 -0.0049  1.6706  0.1102
 8687TIP3    H226019   4.938   7.156   4.307  0.0303 -0.2267 -0.1889
 8688TIP3   OH226020   3.523   6.143   1.032 -0.2567  0.1245  0.2293
 8688TIP3    H126021   3.457   6.198   0.989  0.7241  0.7016 -0.5639
 8688TIP3    H226022   3.604   6.193   1.026  0.1317 -0.3072  1.7579
 8689TIP3   OH226023   5.533   4.304   3.511 -0.9175  0.4218 -0.0657
 8689TIP3    H126024   5.627   4.288   3.505 -0.9331  0.4539 -0.3991
 8689TIP3    H226025   5.512   4.289   3.603 -0.7183 -0.3037 -0.1333
 8690TIP3   OH226026   4.946   5.005   4.735  0.1792  0.2238 -0.6414
 8690TIP3    H126027   4.976   4.925   4.778  1.1512 -1.6558 -4.5483
 8690TIP3    H226028   4.867   5.030   4.783  0.7276 -2.2075  1.6350
 8691TIP3   OH226029   5.429   7.762   3.269 -0.0330 -0.2888 -0.2245
 8691TIP3    H126030   5.474   7.693   3.318  0.9704  1.1717  0.9747
 8691TIP3    H226031   5.498   7.826   3.249 -1.1638  0.9730 -0.2113
 8692TIP3   OH226032   4.921   7.557   4.383  0.5229 -0.0858 -0.2362
 8692TIP3    H126033   4.878   7.585   4.463  1.4812 -0.1753  0.3128
 8692TIP3    H226034   4.976   7.483   4.410  1.6360  0.5395 -0.7811
 8693TIP3   OH226035   4.171   7.461   2.825  0.3526  0.4064 -0.0054
 8693TIP3    H126036   4.176   7.553   2.852 -1.4891  1.0087 -1.5204
 8693TIP3    H226037   4.227   7.456   2.747  2.4018 -0.3596  1.4818
 8694TIP3   OH226038   4.687   5.502   3.819 -0.8915  0.0162 -0.1570
 8694TIP3    H126039   4.622   5.567   3.795 -0.9739 -0.0382 -0.0817
 8694TIP3    H226040   4.662   5.424   3.769 -2.2848 -0.7386  1.6691
 8695TIP3   OH226041   4.942   7.601   0.946  0.2560 -0.0783  0.4802
 8695TIP3    H126042   4.906   7.532   1.002  1.5547 -1.5261 -0.4326
 8695TIP3    H226043   5.033   7.610   0.976  0.4433  0.3908 -0.2255
 8696TIP3   OH226044   5.270   5.799   3.980  0.6602 -0.1914 -0.6972
 8696TIP3    H126045   5.314   5.863   3.923 -0.9841  0.1952 -1.5463
 8696TIP3    H226046   5.235   5.734   3.920 -0.1925 -0.3430 -0.0388
 8697TIP3   OH226047   0.652   6.337   2.752  0.0180 -0.4053  0.7683
 8697TIP3    H126048   0.729   6.353   2.697  0.6079 -1.2977  1.3034
 8697TIP3    H226049   0.643   6.417   2.804  1.9059 -1.1172  2.2395
 8698TIP3   OH226050   6.656   5.017   2.591  0.8754 -1.0436  0.4310
 8698TIP3    H126051   6.674   4.923   2.597 -0.6772 -1.3409  0.6055
 8698TIP3    H226052   6.566   5.022   2.561  1.1564  0.4081 -0.2295
 8699TIP3   OH226053   3.378   7.627   4.207 -0.2308 -0.1509 -0.0830
 8699TIP3    H126054   3.418   7.617   4.293  0.6137  2.9201 -0.0671
 8699TIP3    H226055   3.286   7.603   4.220 -0.0929  0.2359  1.6546
 8700TIP3   OH226056   3.958   5.534   3.747 -0.1475 -0.8267  0.2915
 8700TIP3    H126057   3.900   5.463   3.773  1.3766 -1.4413  2.1242
 8700TIP3    H226058   4.025   5.492   3.693  0.0340 -0.5687  0.3146
 8701TIP3   OH226059   3.431   0.231   6.041  0.0709  0.0973  0.1758
 8701TIP3    H126060   3.352   0.202   6.088 -0.3900  1.8350  0.5315
 8701TIP3    H226061   3.415   0.324   6.024  1.4875  0.1501 -0.9220
 8702TIP3   OH226062   6.913   5.632   4.443 -0.0500 -0.0466 -0.3784
 8702TIP3    H126063   6.824   5.609   4.417  0.1799  0.5660 -1.7730
 8702TIP3    H226064   6.966   5.558   4.416 -0.3872 -1.3137  2.2795
 8703TIP3   OH226065   2.054   7.125   1.992 -0.1808  0.2941 -0.0941
 8703TIP3    H126066   2.029   7.054   2.051 -1.3540 -0.2184 -1.1929
 8703TIP3    H226067   2.086   7.195   2.050 -0.6704 -0.4610  1.0921
 8704TIP3   OH226068   3.517   6.895   4.554  0.0316  0.4310 -0.7421
 8704TIP3    H126069   3.439   6.863   4.509 -0.7014  1.2636 -0.0880
 8704TIP3    H226070   3.486   6.919   4.641  0.8462  1.6242 -0.7746
 8705TIP3   OH226071   4.991   6.797   2.761  0.2790  0.3039 -0.4837
 8705TIP3    H126072   4.918   6.736   2.759 -0.4719  1.1532  0.6930
 8705TIP3    H226073   5.002   6.823   2.669 -0.8292  0.0994 -0.6868
 8706TIP3   OH226074   6.201   6.256   1.798 -0.9047 -0.5190 -0.0776
 8706TIP3    H126075   6.163   6.217   1.877 -0.9518 -0.7876 -0.2336
 8706TIP3    H226076   6.138   6.323   1.772 -0.2588  0.4749  0.8601
 8707TIP3   OH226077   4.905   6.621   1.226  0.1885  0.1815  0.1057
 8707TIP3    H126078   4.929   6.584   1.141 -2.1624  1.3746 -1.1576
 8707TIP3    H226079   4.970   6.689   1.242 -0.9538  1.8588 -2.1371
 8708TIP3   OH226080   5.902   7.958   3.265 -0.7326  0.1815 -0.3058
 8708TIP3    H126081   5.853   7.951   3.183  3.3098  1.4296 -2.9727
 8708TIP3    H226082   5.865   8.036   3.307 -1.6150  0.6035 -1.8070
 8709TIP3   OH226083   4.540   6.825   5.239 -0.0658 -0.3954 -0.0914
 8709TIP3    H126084   4.511   6.880   5.167  0.5126  1.6015  1.1713
 8709TIP3    H226085   4.634   6.815   5.226  0.1102  0.3212  0.6187
 8710TIP3   OH226086   7.307   4.308   1.974  0.0412 -0.1895 -0.7869
 8710TIP3    H126087   7.236   4.247   1.995 -0.2753 -1.2201 -4.4813
 8710TIP3    H226088   7.268   4.394   1.985 -1.6432 -0.7409 -2.1061
 8711TIP3   OH226089   4.342   5.406   6.349 -0.0718  0.2347 -0.2348
 8711TIP3    H126090   4.259   5.451   6.364 -0.8830 -1.3679  0.1421
 8711TIP3    H226091   4.408   5.473   6.366 -1.2421  1.0646  1.1751
 8712TIP3   OH226092   7.321   5.997   3.231  0.1260 -0.1744 -0.1283
 8712TIP3    H126093   7.298   6.008   3.139 -0.2901 -0.0535 -0.0089
 8712TIP3    H226094   7.255   5.937   3.266  1.2043 -1.4796 -0.2890
 8713TIP3   OH226095   4.551   7.838   4.007  0.0684  0.8090  0.0184
 8713TIP3    H126096   4.626   7.871   3.958  0.9353 -0.7443  0.2351
 8713TIP3    H226097   4.585   7.824   4.096 -0.9485  1.7432  0.5594
 8714TIP3   OH226098   4.756   4.046   6.452 -0.4987  0.2276 -0.4077
 8714TIP3    H126099   4.717   3.983   6.512  1.6442  0.1918  1.0023
 8714TIP3    H226100   4.683   4.102   6.425 -1.5620  0.0616  1.9899
 8715TIP3   OH226101   6.111   4.115   1.119  0.1394 -0.0554 -0.1924
 8715TIP3    H126102   6.192   4.064   1.115  0.0705 -0.1556 -0.3652
 8715TIP3    H226103   6.041   4.049   1.117  0.0517  0.0370 -0.2285
 8716TIP3   OH226104   6.607   6.719   1.391  0.1881 -0.5706  0.2035
 8716TIP3    H126105   6.640   6.681   1.309  0.1232  1.4283 -0.7564
 8716TIP3    H226106   6.535   6.661   1.417 -2.0324  0.6682 -2.9424
 8717TIP3   OH226107   4.266   5.620   3.206  0.0064 -0.3181 -0.4912
 8717TIP3    H126108   4.254   5.540   3.155  0.1608 -0.8689  0.3334
 8717TIP3    H226109   4.181   5.634   3.248  0.2984 -0.6230  0.1948
 8718TIP3   OH226110   4.974   6.665   6.674 -0.1377  0.0663 -0.1870
 8718TIP3    H126111   5.003   6.711   6.595 -2.1031  2.9379  0.6767
 8718TIP3    H226112   5.045   6.678   6.737 -0.0426  0.7359 -0.4247
 8719TIP3   OH226113   4.664   6.550   2.415 -0.6903 -0.2688  0.4694
 8719TIP3    H126114   4.661   6.465   2.372 -0.7491 -1.4075  2.6427
 8719TIP3    H226115   4.574   6.564   2.446 -0.0632 -0.7257  2.5415
 8720TIP3   OH226116   5.413   4.439   2.581 -0.0841  0.5203 -0.5038
 8720TIP3    H126117   5.334   4.394   2.552  0.1157  0.2221 -0.5839
 8720TIP3    H226118   5.450   4.477   2.501 -0.0395  0.4922 -0.4968
 8721TIP3   OH226119   5.368   3.282   2.847  0.2481  0.0817 -0.0153
 8721TIP3    H126120   5.291   3.246   2.803 -1.6005  1.6809  1.7803
 8721TIP3    H226121   5.379   3.369   2.810  1.9966 -0.6041 -1.1617
 8722TIP3   OH226122   5.575   7.245   2.896  0.5207 -0.5119  0.2653
 8722TIP3    H126123   5.494   7.203   2.926 -0.2840 -0.7511 -2.0942
 8722TIP3    H226124   5.643   7.211   2.953 -0.3341 -3.9976 -0.7078
 8723TIP3   OH226125   6.318   5.092   5.069  0.4174 -0.2834  0.1588
 8723TIP3    H126126   6.311   5.052   4.983  1.6440  0.5121 -0.3320
 8723TIP3    H226127   6.270   5.175   5.061  0.1287 -0.4297  0.3804
 8724TIP3   OH226128   4.605   5.716   2.858 -0.2436 -0.1247 -0.1893
 8724TIP3    H126129   4.690   5.672   2.851 -0.1398  0.3114 -1.9238
 8724TIP3    H226130   4.625   5.801   2.897  0.1624  0.0724 -0.8109
 8725TIP3   OH226131   6.579   5.247   4.129 -0.3567 -0.4789  0.2993
 8725TIP3    H126132   6.503   5.264   4.073 -0.1383 -0.3038  0.0523
 8725TIP3    H226133   6.550   5.274   4.216 -0.1261  0.9043 -0.0353
 8726TIP3   OH226134   6.611   5.704   5.679 -0.0649  0.0036  0.1102
 8726TIP3    H126135   6.556   5.714   5.602  0.3143 -2.0555 -0.4433
 8726TIP3    H226136   6.663   5.626   5.662  0.2152 -0.3270  2.3358
 8727TIP3   OH226137   5.242   6.725   5.642  0.3335 -0.0611 -0.1963
 8727TIP3    H126138   5.265   6.813   5.672 -0.7315  0.1853 -0.0839
 8727TIP3    H226139   5.240   6.732   5.546  2.0126 -0.4142 -0.2688
 8728TIP3   OH226140   6.447   6.627   4.704  0.4437 -0.2642  0.5750
 8728TIP3    H126141   6.542   6.632   4.699  0.2931  1.7762 -0.5464
 8728TIP3    H226142   6.422   6.695   4.766 -0.2446 -1.4606  1.6503
 8729TIP3   OH226143   4.939   6.788   4.350 -0.0780 -0.0246 -0.1010
 8729TIP3    H126144   4.956   6.701   4.386 -0.6409 -0.5109 -0.9874
 8729TIP3    H226145   4.886   6.831   4.416 -0.4501 -0.6333  0.0040
 8730TIP3   OH226146   5.250   5.308   5.113  0.6007 -0.2212 -0.0230
 8730TIP3    H126147   5.327   5.355   5.145  0.9617 -1.9102  1.6755
 8730TIP3    H226148   5.282   5.259   5.036  0.1182  2.5724 -2.0648
 8731TIP3   OH226149   3.112   5.498   5.240 -0.0833 -0.1302 -0.2310
 8731TIP3    H126150   3.080   5.482   5.151  0.3524  0.3385 -0.4754
 8731TIP3    H226151   3.157   5.417   5.264  1.0217  0.2509 -0.9831
 8732TIP3   OH226152   6.621   6.447   4.848  0.1614  0.3409 -0.0296
 8732TIP3    H126153   6.626   6.360   4.888 -1.9057 -0.2960 -1.0826
 8732TIP3    H226154   6.656   6.435   4.760  0.7704  0.8168  0.1375
 8733TIP3   OH226155   4.599   7.446   3.998 -0.4198  0.3941 -0.2572
 8733TIP3    H126156   4.655   7.422   4.071 -1.2521  2.8753  1.2899
 8733TIP3    H226157   4.650   7.510   3.948 -0.7552  0.5016 -0.4674
 8734TIP3   OH226158   3.967   6.447   2.924 -0.3461  0.2608 -0.2964
 8734TIP3    H126159   4.006   6.460   3.010 -0.8692 -0.7254  0.0913
 8734TIP3    H226160   3.906   6.520   2.914 -0.0324  0.5708  0.0168
 8735TIP3   OH226161   5.873   6.866   1.952  0.1714 -0.1337  0.1773
 8735TIP3    H126162   5.833   6.951   1.971 -1.1882 -0.4115 -1.3342
 8735TIP3    H226163   5.885   6.866   1.857 -0.7586 -1.9986  0.0360
 8736TIP3   OH226164   2.634   7.942   2.601  0.1855  0.6233 -0.2613
 8736TIP3    H126165   2.593   7.993   2.532 -1.1662 -0.0300  0.0513
 8736TIP3    H226166   2.641   8.003   2.675 -2.2214  0.1374  0.4017
 8737TIP3   OH226167   5.136   7.143   4.561  0.2439  0.2414  0.0874
 8737TIP3    H126168   5.091   7.090   4.627  0.2392  0.1184 -0.0125
 8737TIP3    H226169   5.227   7.148   4.590  0.2082  0.3211  0.1849
 8738TIP3   OH226170   6.098   7.715   5.144 -1.1848  0.2624 -0.5947
 8738TIP3    H126171   6.167   7.708   5.078  0.2741  2.0090  0.6746
 8738TIP3    H226172   6.017   7.701   5.095 -0.0769  0.4830 -2.5752
 8739TIP3   OH226173   7.339   6.807   6.667  0.6084  0.0597  0.2643
 8739TIP3    H126174   7.377   6.742   6.608  0.3605 -0.5461  0.7676
 8739TIP3    H226175   7.410   6.869   6.682  0.5141  0.5311 -1.1062
 8740TIP3   OH226176   5.851   6.396   2.978  0.6500  0.4095  0.2942
 8740TIP3    H126177   5.859   6.304   2.955 -1.2255  0.0430  1.0142
 8740TIP3    H226178   5.910   6.409   3.052  0.6477 -0.3078  0.4202
 8741TIP3   OH226179   6.444   7.664   3.546 -0.4642  0.1346 -0.1480
 8741TIP3    H126180   6.437   7.630   3.457  0.4128 -2.4766  0.7115
 8741TIP3    H226181   6.530   7.704   3.550  0.3781 -1.6249  0.0793
 8742TIP3   OH226182   4.901   4.483   5.072  0.5150 -0.9017 -0.4164
 8742TIP3    H126183   4.988   4.507   5.039  0.2994 -1.3652 -1.3335
 8742TIP3    H226184   4.850   4.563   5.067  1.2058 -0.3189  1.2309
 8743TIP3   OH226185   5.236   6.038   3.102  0.1679 -0.4701 -0.1943
 8743TIP3    H126186   5.288   6.078   3.173  0.0772  1.0841 -0.9757
 8743TIP3    H226187   5.150   6.025   3.141  0.1006  0.4288 -0.0143
 8744TIP3   OH226188   7.222   5.706   1.017  0.7758  0.1278  0.0240
 8744TIP3    H126189   7.162   5.754   1.075  1.3984  2.0357 -0.8543
 8744TIP3    H226190   7.296   5.765   1.005  0.8443 -0.3638 -2.3686
 8745TIP3   OH226191   5.586   7.401   4.133  0.1057  0.1123  0.0873
 8745TIP3    H126192   5.522   7.443   4.075 -0.4028 -0.5232  0.1853
 8745TIP3    H226193   5.559   7.426   4.221 -0.5305 -0.8659  0.1796
 8746TIP3   OH226194   8.046   0.252   3.888 -0.1740 -0.2015  0.4799
 8746TIP3    H126195   8.122   0.198   3.909 -0.7450 -0.2004  2.6285
 8746TIP3    H226196   8.080   0.342   3.885 -0.0218 -0.2411  1.0379
 8747TIP3   OH226197   5.848   5.093   2.724  0.6006 -0.1565 -0.1861
 8747TIP3    H126198   5.857   5.045   2.642  1.9015 -1.1277  0.5140
 8747TIP3    H226199   5.869   5.184   2.701 -0.5460 -0.1394 -1.2322
 8748TIP3   OH226200   4.842   3.202   0.090  0.0921 -0.5811 -0.8371
 8748TIP3    H126201   4.887   3.124   0.057  0.6911 -0.4773 -0.2752
 8748TIP3    H226202   4.912   3.262   0.114 -0.2293 -1.5378  2.7864
 8749TIP3   OH226203   6.279   4.543   6.059 -0.6134  0.2590 -0.1725
 8749TIP3    H126204   6.197   4.591   6.043 -1.0751 -0.8302 -1.1481
 8749TIP3    H226205   6.321   4.540   5.973 -0.2103 -0.3904  0.0515
 8750TIP3   OH226206   6.467   6.613   3.670  0.0221 -0.1049  0.3430
 8750TIP3    H126207   6.447   6.667   3.746 -1.3071 -0.6004  0.3504
 8750TIP3    H226208   6.382   6.581   3.639  0.6659 -1.0535 -0.4960
 8751TIP3   OH226209   7.106   6.368   5.135 -0.4391 -0.5643  0.3337
 8751TIP3    H126210   7.089   6.283   5.095 -0.5531 -0.5167  0.2821
 8751TIP3    H226211   7.063   6.431   5.077  1.4109 -0.2823 -0.7577
 8752TIP3   OH226212   0.123   6.274   3.185 -0.0763  0.6159  0.2094
 8752TIP3    H126213   0.114   6.302   3.094 -0.9929  0.6384  0.3040
 8752TIP3    H226214   0.145   6.354   3.233 -2.1888  1.1202  0.3991
 8753TIP3   OH226215   6.136   7.095   4.028  0.0272  0.2010 -0.1848
 8753TIP3    H126216   6.211   7.147   4.003 -0.6148  1.0550 -0.3437
 8753TIP3    H226217   6.083   7.152   4.084 -0.5036 -0.3855 -0.0705
 8754TIP3   OH226218   6.240   5.350   5.086 -1.1401 -0.4355 -0.7150
 8754TIP3    H126219   6.158   5.367   5.132 -0.2253  1.7862  0.1865
 8754TIP3    H226220   6.253   5.426   5.030  0.3291 -0.7345 -0.8109
 8755TIP3   OH226221   6.698   4.421   4.632  0.3612 -0.2773  0.2427
 8755TIP3    H126222   6.634   4.389   4.569 -0.3957 -0.9915  1.3495
 8755TIP3    H226223   6.742   4.342   4.663  1.2922  0.1441  0.0162
 8756TIP3   OH226224   4.508   6.257   1.900 -0.9687 -0.5077 -0.2248
 8756TIP3    H126225   4.558   6.301   1.969  0.6504  1.1134 -2.3889
 8756TIP3    H226226   4.421   6.296   1.906 -1.1542 -1.1774  1.6223
 8757TIP3   OH226227   4.837   4.841   4.522 -0.1506 -0.6286  0.4266
 8757TIP3    H126228   4.911   4.892   4.488  0.4020 -2.6314 -1.5356
 8757TIP3    H226229   4.841   4.853   4.617  0.0966  2.7180  0.0440
 8758TIP3   OH226230   6.389   6.533   4.085  0.3067 -0.6966 -0.5605
 8758TIP3    H126231   6.332   6.589   4.138 -1.7070 -1.1012 -2.2393
 8758TIP3    H226232   6.415   6.589   4.011  1.8227 -0.6259  0.0118
 8759TIP3   OH226233   6.005   6.873   3.945 -0.3139  0.3520 -0.2889
 8759TIP3    H126234   6.063   6.942   3.980 -0.4022  0.9339 -1.2550
 8759TIP3    H226235   5.931   6.921   3.908 -1.5516 -0.4066  1.1612
 8760TIP3   OH226236   4.544   5.328   4.109  0.0073  0.1314  0.5483
 8760TIP3    H126237   4.622   5.378   4.134 -0.7849  1.5486  0.2568
 8760TIP3    H226238   4.478   5.395   4.088 -0.7386 -1.0316 -0.9431
 8761TIP3   OH226239   8.337   3.240   2.946 -0.0809  0.2434 -0.3066
 8761TIP3    H126240   8.380   3.154   2.944  3.8131  1.9975  1.8779
 8761TIP3    H226241   8.359   3.280   2.862  1.9825  0.7940  0.4601
 8762TIP3   OH226242   7.358   7.316   3.542 -0.1936  0.0668 -0.0964
 8762TIP3    H126243   7.318   7.303   3.456  0.3929  0.9840 -0.5064
 8762TIP3    H226244   7.341   7.234   3.588 -0.9049 -0.2642 -0.9268
 8763TIP3   OH226245   5.023   5.563   5.476 -0.3088 -0.2319 -0.1945
 8763TIP3    H126246   5.094   5.509   5.510 -0.1960  0.5614  0.8356
 8763TIP3    H226247   5.008   5.629   5.543  0.6850  2.0664 -2.1471
 8764TIP3   OH226248   0.920   1.372   4.756 -0.1366  0.5725  0.2818
 8764TIP3    H126249   0.877   1.303   4.705 -1.0810  0.3869  1.3076
 8764TIP3    H226250   0.848   1.418   4.799  0.4266  2.6641 -0.9492
 8765TIP3   OH226251   3.876   7.795   4.505  0.0541 -0.3390  0.3603
 8765TIP3    H126252   3.831   7.780   4.588 -0.2167 -1.6482 -0.0115
 8765TIP3    H226253   3.936   7.721   4.496  1.2699  0.6553  0.1686
 8766TIP3   OH226254   5.322   7.505   2.798  0.1114 -0.5816  0.2007
 8766TIP3    H126255   5.313   7.595   2.765 -1.2472 -1.0854 -0.8593
 8766TIP3    H226256   5.353   7.516   2.888  1.9195  0.8814 -0.5549
 8767TIP3   OH226257   5.131   6.128   4.598 -0.0878  0.1256 -0.3972
 8767TIP3    H126258   5.097   6.195   4.540 -0.9475 -0.9189 -1.1298
 8767TIP3    H226259   5.209   6.167   4.639  0.1875  1.0692 -1.8151
 8768TIP3   OH226260   0.257   5.480   3.678 -0.0508 -0.3125  0.2809
 8768TIP3    H126261   0.317   5.465   3.605  2.4503  1.2750  1.9190
 8768TIP3    H226262   0.194   5.544   3.644  0.9764  0.2677 -0.5589
 8769TIP3   OH226263   6.048   6.101   3.616  0.7971 -0.6808 -0.0207
 8769TIP3    H126264   6.122   6.160   3.634 -0.5616  0.3219  2.7306
 8769TIP3    H226265   6.007   6.089   3.702 -0.9708 -2.9335 -1.1436
 8770TIP3   OH226266   4.055   6.791   4.462  0.4798 -0.3305 -0.5256
 8770TIP3    H126267   4.095   6.736   4.529 -1.6101 -0.5681  0.5948
 8770TIP3    H226268   4.107   6.872   4.462 -0.7726  0.5522  2.9691
 8771TIP3   OH226269   4.208   7.355   4.886  0.4158  0.2181  0.3495
 8771TIP3    H126270   4.237   7.270   4.854 -0.9348  0.0255 -0.4114
 8771TIP3    H226271   4.112   7.349   4.885  0.3290  1.3491  1.3609
 8772TIP3   OH226272   5.665   5.604   5.311  0.4665 -0.0442 -0.3779
 8772TIP3    H126273   5.730   5.557   5.362  0.3753  2.1626  1.8729
 8772TIP3    H226274   5.713   5.674   5.268 -0.2433  1.0796  0.6177
 8773TIP3   OH226275   6.749   7.654   5.844 -0.4098 -0.0702  0.1053
 8773TIP3    H126276   6.739   7.734   5.895  0.8402 -0.2299  0.6050
 8773TIP3    H226277   6.829   7.614   5.877 -0.6968 -1.2191 -0.5647
 8774TIP3   OH226278   5.534   7.504   4.909 -0.0568 -0.2365  0.5859
 8774TIP3    H126279   5.493   7.588   4.931 -0.6056 -0.3709  0.1174
 8774TIP3    H226280   5.553   7.511   4.815  0.7680 -0.2765  0.7484
 8775TIP3   OH226281   8.022   0.985   3.144 -0.3827 -0.1416 -0.2703
 8775TIP3    H126282   7.952   1.051   3.141  0.5569  0.8196 -1.7166
 8775TIP3    H226283   8.101   1.033   3.117  0.3839 -1.7930 -0.9905
 8776TIP3   OH226284   6.161   7.200   2.657 -0.1115 -0.2989 -0.4577
 8776TIP3    H126285   6.200   7.285   2.675  1.5292 -1.3731  1.3648
 8776TIP3    H226286   6.068   7.210   2.678 -0.2242  1.4126 -1.6990
 8777TIP3   OH226287   6.279   5.974   6.032  0.0138  0.1003 -1.0323
 8777TIP3    H126288   6.289   6.025   5.952  0.3684 -0.6864 -1.4946
 8777TIP3    H226289   6.212   5.909   6.012 -1.7188  1.4926  0.1238
 8778TIP3   OH226290   6.827   6.865   3.533  0.1641  1.0574 -0.2924
 8778TIP3    H126291   6.749   6.828   3.491 -0.0965  0.5175  0.6499
 8778TIP3    H226292   6.900   6.815   3.496 -0.1003  0.3003  0.1975
 8779TIP3   OH226293   6.007   5.522   4.753  0.1438  0.5540  0.6423
 8779TIP3    H126294   5.971   5.556   4.835 -2.0706  1.3677 -0.6102
 8779TIP3    H226295   6.014   5.599   4.697  1.7151  0.0122  0.0847
 8780TIP3   OH226296   6.194   4.535   3.215  0.7209  0.7665  0.2717
 8780TIP3    H126297   6.208   4.492   3.131  0.3330  0.4833  0.3495
 8780TIP3    H226298   6.103   4.515   3.237  0.7712  0.9815  0.6770
 8781TIP3   OH226299   5.427   5.146   2.638 -0.1646 -0.0927 -0.1826
 8781TIP3    H126300   5.346   5.139   2.688  0.5891 -0.8702  0.9505
 8781TIP3    H226301   5.469   5.061   2.648 -0.4185 -0.5744 -2.9165
 8782TIP3   OH226302   4.964   4.133   1.705 -0.1411 -0.3089  0.2886
 8782TIP3    H126303   4.909   4.056   1.722 -0.1203 -0.5524 -0.7183
 8782TIP3    H226304   5.038   4.123   1.764 -0.8072 -0.3754  1.1151
 8783TIP3   OH226305   6.575   6.098   3.570 -0.0724 -0.2347 -0.5319
 8783TIP3    H126306   6.517   6.050   3.512  0.5643 -0.3808 -1.0484
 8783TIP3    H226307   6.553   6.190   3.556  0.4322 -0.2429 -1.3834
 8784TIP3   OH226308   3.349   6.894   2.255 -0.3735 -0.0604 -0.9687
 8784TIP3    H126309   3.399   6.815   2.276 -0.6041 -0.6621 -2.5632
 8784TIP3    H226310   3.308   6.919   2.337  0.9767 -0.6827 -0.0722
 8785TIP3   OH226311   4.034   7.080   1.492 -0.1089 -0.0427 -0.3931
 8785TIP3    H126312   3.959   7.138   1.477 -0.1108  0.9442  3.0023
 8785TIP3    H226313   3.995   6.996   1.516 -0.1054  0.0860  0.0544
 8786TIP3   OH226314   3.673   6.503   4.193  0.0947 -0.4122  0.3812
 8786TIP3    H126315   3.648   6.463   4.276  1.8878 -0.6538  0.8227
 8786TIP3    H226316   3.715   6.586   4.218  0.5824 -0.4527 -0.2840
 8787TIP3   OH226317   3.833   3.906   2.828  0.3860 -0.3747 -0.3654
 8787TIP3    H126318   3.798   3.847   2.895  0.4174 -2.0245 -1.7681
 8787TIP3    H226319   3.756   3.934   2.778  0.5269 -0.3787 -0.5881
 8788TIP3   OH226320   3.880   6.588   3.704  0.3315 -0.0262  0.3426
 8788TIP3    H126321   3.822   6.511   3.702 -1.3414  1.1475  2.1221
 8788TIP3    H226322   3.962   6.554   3.738  0.7802 -1.7321 -2.2452
 8789TIP3   OH226323   5.789   7.088   3.877 -0.8012 -0.1855  0.1307
 8789TIP3    H126324   5.699   7.120   3.873 -1.3257 -1.4857  1.3422
 8789TIP3    H226325   5.826   7.131   3.954  0.4900  2.4453 -1.8449
 8790TIP3   OH226326   6.280   5.381   4.729 -0.3339 -0.2780 -0.2552
 8790TIP3    H126327   6.210   5.325   4.762  0.2812 -1.5514 -1.0468
 8790TIP3    H226328   6.293   5.447   4.797 -2.0041 -0.2833  0.0791
 8791TIP3   OH226329   7.458   6.500   5.409 -0.4804 -0.0961 -0.0791
 8791TIP3    H126330   7.370   6.506   5.447 -0.3154  1.1122  0.1399
 8791TIP3    H226331   7.491   6.590   5.412  0.6218 -0.4833 -0.4994
 8792TIP3   OH226332   4.586   6.670   3.228 -0.4180  0.1297  0.0770
 8792TIP3    H126333   4.655   6.605   3.220 -0.8875 -0.2676 -0.7217
 8792TIP3    H226334   4.628   6.743   3.275  0.2884 -0.4625  0.3781
 8793TIP3   OH226335   5.641   5.906   5.714  0.1078 -0.3071  0.2550
 8793TIP3    H126336   5.668   5.857   5.636  1.2770 -0.7072  0.8896
 8793TIP3    H226337   5.720   5.951   5.742 -0.1267 -0.7095  1.5996
 8794TIP3   OH226338   7.749   7.238   5.720  0.8243 -0.1054 -0.2302
 8794TIP3    H126339   7.740   7.324   5.760 -0.6180 -0.2117 -0.3157
 8794TIP3    H226340   7.783   7.256   5.632  0.6363  0.3690 -0.2055
 8795TIP3   OH226341   2.248   0.526   4.107 -0.1204  0.1730  0.0149
 8795TIP3    H126342   2.271   0.442   4.068 -1.8804 -0.3948  0.1751
 8795TIP3    H226343   2.193   0.569   4.042  0.3180  0.9742  0.1668
 8796TIP3   OH226344   5.974   7.429   3.117 -0.0619 -0.3343  0.0621
 8796TIP3    H126345   6.042   7.387   3.169 -0.4426  1.0424  1.7223
 8796TIP3    H226346   6.021   7.475   3.048  0.7353  0.7234  1.2836
 8797TIP3   OH226347   6.853   5.521   5.033 -0.0584 -0.1929 -0.7796
 8797TIP3    H126348   6.940   5.515   5.072 -0.1819  0.1173 -0.4565
 8797TIP3    H226349   6.830   5.431   5.010  0.2662 -0.2974 -0.6881
 8798TIP3   OH226350   7.520   7.778   3.679  0.2432 -0.4303  0.1759
 8798TIP3    H126351   7.610   7.770   3.646  1.0378 -3.5065  2.7673
 8798TIP3    H226352   7.531   7.817   3.766 -0.9939 -0.3335  0.2923
 8799TIP3   OH226353   6.022   6.750   2.910  0.1158 -0.2153 -0.5588
 8799TIP3    H126354   5.984   6.837   2.927 -0.8595 -0.5650 -0.9229
 8799TIP3    H226355   5.960   6.708   2.851  2.1342  0.0062 -2.9279
 8800TIP3   OH226356   6.164   6.671   1.363 -0.8279  0.1819 -0.1824
 8800TIP3    H126357   6.112   6.621   1.300 -2.0654  1.5198 -0.2379
 8800TIP3    H226358   6.247   6.686   1.319 -1.0866 -0.3038 -0.8491
 8801TIP3   OH226359   6.702   6.152   1.675  0.0998 -0.6493  0.1348
 8801TIP3    H126360   6.672   6.237   1.643  1.3210  0.4823  1.9189
 8801TIP3    H226361   6.627   6.093   1.662 -0.3635  0.4035 -2.1724
 8802TIP3   OH226362   0.648   5.235   2.283 -0.2640 -0.3254  0.2726
 8802TIP3    H126363   0.641   5.216   2.377  0.1344 -0.4330  0.2781
 8802TIP3    H226364   0.729   5.284   2.274 -0.7837  0.5287  0.1147
 8803TIP3   OH226365   7.577   7.760   3.236 -0.1237 -0.6877 -0.1586
 8803TIP3    H126366   7.552   7.762   3.144 -1.0325 -0.3340  0.0884
 8803TIP3    H226367   7.581   7.851   3.263  0.8180 -0.7644 -0.0193
 8804TIP3   OH226368   8.395   6.292   1.589 -0.7168  0.2189 -0.5961
 8804TIP3    H126369   8.323   6.236   1.557  1.0032 -1.6770 -1.2634
 8804TIP3    H226370   8.415   6.349   1.515 -1.6059  0.8381 -0.3677
 8805TIP3   OH226371   5.911   6.600   3.872 -0.0747  0.3286 -0.1642
 8805TIP3    H126372   5.916   6.557   3.958  1.0889  1.0435  0.1422
 8805TIP3    H226373   5.947   6.687   3.887  1.0816  0.1099 -1.5990
 8806TIP3   OH226374   7.903   3.672   2.034  0.2479  0.1874 -0.8460
 8806TIP3    H126375   7.823   3.686   1.984  0.4094 -1.6965 -1.6548
 8806TIP3    H226376   7.917   3.755   2.081 -1.9234  0.6678 -1.0180
 8807TIP3   OH226377   0.462   6.673   0.125 -0.1014 -0.2360 -0.4876
 8807TIP3    H126378   0.484   6.584   0.149 -0.2233 -0.4424 -1.1200
 8807TIP3    H226379   0.367   6.679   0.139  0.2560  0.5157  1.8095
 8808TIP3   OH226380   0.161   7.541   0.954 -0.3263  0.1916  0.1130
 8808TIP3    H126381   0.114   7.590   0.887  1.5730 -0.0505 -1.4227
 8808TIP3    H226382   0.129   7.451   0.945  0.0781  0.1180 -0.6041
 8809TIP3   OH226383   6.558   7.342   1.804  0.4872 -0.4092 -0.9551
 8809TIP3    H126384   6.496   7.323   1.734  0.5420  1.0248 -1.4072
 8809TIP3    H226385   6.561   7.261   1.856 -0.1571 -1.2035 -2.1338
 8810TIP3   OH226386   6.102   7.557   3.367 -0.4039  0.2145  0.1665
 8810TIP3    H126387   6.015   7.577   3.404  0.4713  1.0139  1.8573
 8810TIP3    H226388   6.128   7.476   3.411 -0.2434  0.0360 -0.2571
 8811TIP3   OH226389   5.451   2.164   6.697 -0.5033  0.4053  0.5638
 8811TIP3    H126390   5.424   2.129   6.612 -1.4619  3.9905 -0.6805
 8811TIP3    H226391   5.369   2.186   6.741  0.0425 -0.1401  1.8897
 8812TIP3   OH226392   3.529   0.022   4.429 -0.0193  0.5472 -0.2746
 8812TIP3    H126393   3.474   0.096   4.456 -1.8834 -0.3314 -1.5795
 8812TIP3    H226394   3.496  -0.002   4.343  1.0894 -1.3302 -0.1968
 8813TIP3   OH226395   6.348   6.599   2.659  0.2368  0.3457  0.4935
 8813TIP3    H126396   6.328   6.671   2.719 -1.2482  0.8134 -0.5299
 8813TIP3    H226397   6.272   6.596   2.600  0.2663 -2.0670  0.5397
 8814TIP3   OH226398   7.095   7.427   3.039  0.6480  0.1998  0.5486
 8814TIP3    H126399   7.024   7.431   3.103 -0.3530 -0.7050 -0.4931
 8814TIP3    H226400   7.159   7.492   3.070  0.8367 -1.2262  3.2478
 8815TIP3   OH226401   6.592   7.154   5.355 -0.3822  0.3442  0.1543
 8815TIP3    H126402   6.500   7.147   5.382 -0.5603 -2.2406 -0.9913
 8815TIP3    H226403   6.640   7.106   5.423  0.0697  0.9856  0.3001
 8816TIP3   OH226404   7.302   6.032   2.956 -0.1629 -0.2482 -0.3628
 8816TIP3    H126405   7.239   6.028   2.884 -2.4299 -0.4466  1.5995
 8816TIP3    H226406   7.334   6.122   2.954  0.3397 -0.4442 -2.0531
 8817TIP3   OH226407   4.681   0.186   2.199 -0.1469 -0.0783 -0.7487
 8817TIP3    H126408   4.682   0.238   2.279  1.7473 -0.8108 -0.2667
 8817TIP3    H226409   4.666   0.250   2.129  0.5936  0.8956 -0.0284
 8818TIP3   OH226410   6.492   6.459   4.387  0.0223  0.3306 -0.1416
 8818TIP3    H126411   6.525   6.522   4.450 -0.5685 -0.5795  1.1038
 8818TIP3    H226412   6.494   6.505   4.303 -0.6287  2.0725  0.7842
 8819TIP3   OH226413   6.769   7.610   2.715  0.6144 -0.1153 -0.3469
 8819TIP3    H126414   6.734   7.563   2.791 -0.3387 -0.9403 -1.2889
 8819TIP3    H226415   6.845   7.657   2.750  0.2184 -0.5135  1.1111
 8820TIP3   OH226416   6.739   6.817   2.465  0.1077 -0.0381 -0.8258
 8820TIP3    H126417   6.692   6.879   2.410  1.3479  0.5611 -1.2272
 8820TIP3    H226418   6.804   6.870   2.511  0.3160 -0.8292 -0.2033
 8821TIP3   OH226419   7.550   5.359   2.685 -0.0570 -0.3874 -0.6368
 8821TIP3    H126420   7.624   5.300   2.695 -0.2309 -0.5364 -0.2264
 8821TIP3    H226421   7.565   5.428   2.749  1.5946  1.5162 -3.0139
 8822TIP3   OH226422   7.588   6.451   3.534  0.3123  0.1657  0.5342
 8822TIP3    H126423   7.581   6.478   3.625  0.5277  0.3746  0.4878
 8822TIP3    H226424   7.618   6.529   3.487  1.9875 -0.4363  0.5726
 8823TIP3   OH226425   5.212   6.720   2.910  0.0714  0.6439  0.0862
 8823TIP3    H126426   5.125   6.743   2.877 -1.3163 -2.6747  1.2757
 8823TIP3    H226427   5.255   6.676   2.837  1.2221  3.2506 -0.8646
 8824TIP3   OH226428   7.108   5.629   2.863 -0.4936 -0.1351  0.2104
 8824TIP3    H126429   7.109   5.660   2.954  2.3177 -0.2305  0.2834
 8824TIP3    H226430   7.133   5.537   2.870 -2.3661 -0.7228 -0.5230
 8825TIP3   OH226431   1.229   7.595   3.484 -0.5913 -0.6963 -0.2076
 8825TIP3    H126432   1.223   7.628   3.394  2.0937 -1.0576 -0.5447
 8825TIP3    H226433   1.146   7.548   3.497 -1.3673  0.0611 -2.1988
 8826TIP3   OH226434   0.525  -0.000   4.065  0.5695 -0.5099  0.1797
 8826TIP3    H126435   0.482   0.084   4.050 -1.0859 -1.3110  0.3601
 8826TIP3    H226436   0.496  -0.056   3.992  0.8235 -1.2428  0.6341
 8827TIP3   OH226437   6.911   7.932   4.272  0.7045  0.3572 -0.3396
 8827TIP3    H126438   6.952   8.018   4.260 -2.4823  1.8115 -1.3435
 8827TIP3    H226439   6.837   7.949   4.330 -1.7145 -1.1171 -2.8595
 8828TIP3   OH226440   8.441   4.807   0.917  0.0233 -0.1165 -0.7502
 8828TIP3    H126441   8.418   4.725   0.959 -1.7729 -0.6803 -2.7333
 8828TIP3    H226442   8.357   4.851   0.903  0.8849  1.6719 -0.4998
 8829TIP3   OH226443   6.605   6.587   2.569  0.5615 -0.6119  0.0211
 8829TIP3    H126444   6.646   6.674   2.569  2.3287 -1.4059 -0.4462
 8829TIP3    H226445   6.523   6.599   2.616  0.3297  1.5200 -0.8502
 8830TIP3   OH226446   5.371   7.709   4.991  0.0185  0.4765 -0.0099
 8830TIP3    H126447   5.366   7.783   4.930 -0.9818  1.0823  0.7966
 8830TIP3    H226448   5.363   7.749   5.078  0.7427 -0.4566  0.4962
 8831TIP3   OH226449   6.964   4.358   1.352  0.1089 -0.3952  0.3125
 8831TIP3    H126450   6.930   4.325   1.269 -0.0741  0.2228  0.1356
 8831TIP3    H226451   7.038   4.413   1.326 -0.4995  0.5180  0.4890
 8832TIP3   OH226452   5.265   5.774   3.073 -0.4429 -0.8825  0.7073
 8832TIP3    H126453   5.307   5.754   2.989 -3.7073 -1.5041 -0.8474
 8832TIP3    H226454   5.273   5.869   3.082 -0.5013 -0.7457 -0.5663
 8833TIP3   OH226455   6.168   5.862   2.759 -0.4495  0.1975 -0.2516
 8833TIP3    H126456   6.080   5.830   2.777 -0.6862  1.1783  0.3675
 8833TIP3    H226457   6.216   5.848   2.840 -0.3934  0.8664 -0.1687
 8834TIP3   OH226458   6.503   7.915   3.752  0.5676 -0.4927 -0.3449
 8834TIP3    H126459   6.418   7.873   3.736 -0.1803  1.3500 -1.4125
 8834TIP3    H226460   6.488   8.008   3.732  3.1542 -0.3311 -1.7660
 8835TIP3   OH226461   7.022   7.042   5.269 -0.3004 -0.5371  0.2055
 8835TIP3    H126462   7.086   7.114   5.278  0.5462 -1.1110 -1.0403
 8835TIP3    H226463   6.979   7.059   5.185 -1.5464 -0.3515  0.8808
 8836TIP3   OH226464   0.200   4.659   1.532  0.2749 -0.2513 -0.6519
 8836TIP3    H126465   0.226   4.664   1.440  2.0592 -0.9282 -0.2077
 8836TIP3    H226466   0.148   4.739   1.547 -0.6542 -0.5020 -2.4105
 8837TIP3   OH226467  -0.015   7.093   1.564 -0.4598  0.2923  0.0595
 8837TIP3    H126468   0.053   7.029   1.583  0.6597  1.4190 -0.1154
 8837TIP3    H226469  -0.027   7.140   1.646 -0.3776  0.7071 -0.1673
 8838TIP3   OH226470   6.643   7.866   3.080  0.4844 -0.2962  0.5679
 8838TIP3    H126471   6.561   7.878   3.128  0.3538 -0.9146  0.4992
 8838TIP3    H226472   6.677   7.955   3.068  0.0014 -0.0655  0.9038
 8839TIP3   OH226473   1.271   0.773   3.893 -0.3986  0.5260 -0.3195
 8839TIP3    H126474   1.252   0.721   3.971  0.5419  1.2926  0.4193
 8839TIP3    H226475   1.191   0.766   3.841 -1.6961  1.4235  1.4893
 8840TIP3   OH226476   5.406   7.577   2.526  0.0350 -0.1642 -0.4084
 8840TIP3    H126477   5.405   7.492   2.570  0.0065 -0.4492 -0.9602
 8840TIP3    H226478   5.497   7.588   2.498  0.4396  0.8048  1.2472
 8841TIP3   OH226479   6.627   5.764   1.776 -0.0861  0.1162 -0.4456
 8841TIP3    H126480   6.698   5.783   1.837  0.0545 -0.7117 -0.3344
 8841TIP3    H226481   6.561   5.720   1.831 -1.4943  2.5400 -0.1452
 8842TIP3   OH226482   0.076   5.538   2.827 -0.2061  0.0332 -0.0188
 8842TIP3    H126483   0.050   5.623   2.793 -0.0515 -0.3855 -1.2076
 8842TIP3    H226484   0.105   5.555   2.917 -0.2866  1.2011 -0.2164
 8843TIP3   OH226485   7.175   6.102   2.273  0.3062  0.4513 -0.3089
 8843TIP3    H126486   7.262   6.064   2.284 -1.3953 -3.5716  0.0885
 8843TIP3    H226487   7.189   6.197   2.279  4.4605 -0.1499  0.8057
 8844TIP3   OH226488   0.152   7.064   2.370  0.6023  0.0093 -0.6030
 8844TIP3    H126489   0.136   7.032   2.281  1.3794 -0.7877 -0.4619
 8844TIP3    H226490   0.150   6.985   2.424 -0.3088  0.5361  0.1606
 8845TIP3   OH226491   6.907   7.811   4.774 -0.5236 -0.0467 -0.9561
 8845TIP3    H126492   6.868   7.890   4.737 -1.0162  0.4132  0.4802
 8845TIP3    H226493   6.903   7.825   4.869  0.2849 -1.3691 -0.7098
 8846TIP3   OH226494   0.109   6.455   2.230  0.5100  0.6146  0.3874
 8846TIP3    H126495   0.173   6.518   2.265  0.7035  0.1059  0.9738
 8846TIP3    H226496   0.141   6.434   2.143  0.7993  0.8464  0.4366
 8847TIP3   OH226497   3.844   1.500   6.808  0.2464 -0.0495 -0.0062
 8847TIP3    H126498   3.909   1.447   6.854  1.2479  0.7544 -0.4793
 8847TIP3    H226499   3.881   1.513   6.720 -0.7453  0.0551 -0.4117
 8848TIP3   OH226500   8.106   6.149   4.160  0.5381 -0.3190  0.3199
 8848TIP3    H126501   8.098   6.211   4.088 -1.1228 -0.0645  0.7195
 8848TIP3    H226502   8.066   6.193   4.235 -1.0173 -2.0001  0.5112
 8849TIP3   OH226503   6.855   6.433   4.072  1.0947  0.3388 -0.3126
 8849TIP3    H126504   6.810   6.414   3.989 -0.0384  1.3667  0.0540
 8849TIP3    H226505   6.942   6.464   4.045  1.4933 -1.3517 -1.0344
 8850TIP3   OH226506   0.589   7.502   3.465  0.0233 -0.1328  0.0657
 8850TIP3    H126507   0.635   7.555   3.530  3.4015  0.2431 -2.4784
 8850TIP3    H226508   0.509   7.551   3.446  1.1530  2.0180  0.6929
 8851TIP3   OH226509   8.072   4.794   2.950  0.1115  0.2502 -0.0289
 8851TIP3    H126510   8.144   4.782   3.011  0.0864  0.7326  0.0961
 8851TIP3    H226511   8.107   4.767   2.865  0.4356  0.4732  0.0323
 8852TIP3   OH226512   6.547   6.523   3.289 -0.3505 -0.5709  0.7777
 8852TIP3    H126513   6.523   6.434   3.264  0.9537 -0.9441  0.8010
 8852TIP3    H226514   6.621   6.545   3.233 -1.1921  0.8301  0.1759
 8853TIP3   OH226515   6.054   6.051   4.597 -0.0368 -0.1831  0.6914
 8853TIP3    H126516   6.022   6.118   4.658 -1.1463 -0.3632  0.3190
 8853TIP3    H226517   6.034   6.086   4.510 -0.4472 -0.8999  0.4871
 8854TIP3   OH226518   1.387   0.062   2.876 -0.2437 -0.6003  0.0886
 8854TIP3    H126519   1.298   0.090   2.855 -0.0106  1.5515  1.7533
 8854TIP3    H226520   1.397   0.082   2.970  1.2912 -2.7521  0.4376
 8855TIP3   OH226521   7.662   6.090   1.447 -0.5009 -0.3294 -0.0049
 8855TIP3    H126522   7.626   6.175   1.421 -0.1124 -0.2994 -0.4596
 8855TIP3    H226523   7.670   6.042   1.364 -1.2115 -1.0021  0.3083
 8856TIP3   OH226524   7.722   7.432   3.467  0.3142 -0.0671  0.0894
 8856TIP3    H126525   7.690   7.439   3.557 -0.9302 -0.5359 -0.3028
 8856TIP3    H226526   7.778   7.508   3.455 -2.0377  1.7573  0.2552
 8857TIP3   OH226527   6.956   6.575   2.374  0.4262 -0.1282  0.0843
 8857TIP3    H126528   6.972   6.533   2.458  0.9705 -0.1781 -0.0401
 8857TIP3    H226529   6.867   6.609   2.380  1.1081  1.4655  1.3524
 8858TIP3   OH226530   0.034   6.024   3.140 -0.2159  0.4979 -0.3812
 8858TIP3    H126531   0.061   6.111   3.171  3.8815 -1.3255  1.4641
 8858TIP3    H226532   0.093   6.004   3.068 -0.0259 -1.4154  0.2774
 8859TIP3   OH226533   4.163   5.484   4.407 -0.3168  0.1224 -0.2065
 8859TIP3    H126534   4.114   5.434   4.341  0.8990  0.3433 -1.3053
 8859TIP3    H226535   4.104   5.556   4.431 -0.2085  0.9331 -2.2169
 8860TIP3   OH226536   0.513   7.764   5.806 -0.5206  0.4935 -0.0255
 8860TIP3    H126537   0.585   7.722   5.758  0.3563 -2.0789  3.3238
 8860TIP3    H226538   0.437   7.708   5.787 -0.3823  0.0331  0.7305
 8861TIP3   OH226539   4.230   4.960   2.711  0.1273  0.0676 -0.2984
 8861TIP3    H126540   4.246   5.053   2.727 -0.7599  0.6124 -2.4303
 8861TIP3    H226541   4.303   4.933   2.654 -0.2260 -0.2708 -0.5894
 8862TIP3   OH226542   6.879   6.522   3.596  0.6501 -0.1066 -0.0848
 8862TIP3    H126543   6.801   6.498   3.545  0.8408 -0.6281 -0.1334
 8862TIP3    H226544   6.931   6.576   3.535 -0.5125  1.7850  0.5403
 8863TIP3   OH226545   6.727   4.715   2.588 -0.6672  0.2674  0.2250
 8863TIP3    H126546   6.745   4.739   2.679  1.9367  1.2602 -0.5076
 8863TIP3    H226547   6.717   4.620   2.589  0.3516  0.1671  1.3879
 8864TIP3   OH226548   6.977   7.163   3.803  0.4606  0.0581 -0.4044
 8864TIP3    H126549   6.980   7.256   3.781 -0.0875  0.7050  2.1095
 8864TIP3    H226550   7.021   7.157   3.888 -1.6294 -1.6383  0.5912
 8865TIP3   OH226551   5.202   6.268   2.953 -0.0840  0.4249  0.4355
 8865TIP3    H126552   5.207   6.212   3.030  0.5514  1.8569  1.4648
 8865TIP3    H226553   5.290   6.302   2.942 -0.4919  1.3458 -0.0543
 8866TIP3   OH226554   7.460   7.006   1.626 -0.5935  0.3904 -0.1490
 8866TIP3    H126555   7.444   6.913   1.637  3.3097 -0.1833  1.4817
 8866TIP3    H226556   7.400   7.049   1.687 -2.7209 -0.9951 -1.2372
 8867TIP3   OH226557   7.590   5.805   2.194 -0.4024 -0.1259 -0.4267
 8867TIP3    H126558   7.567   5.795   2.102  0.2018 -0.9496 -0.4882
 8867TIP3    H226559   7.680   5.838   2.194 -0.6494  0.5716 -0.1385
 8868TIP3   OH226560   4.897   2.061   5.891 -0.0160  0.2239 -0.5655
 8868TIP3    H126561   4.892   2.151   5.858 -0.3057 -0.0836 -1.3626
 8868TIP3    H226562   4.973   2.062   5.949 -0.3114  1.1103 -0.1795
 8869TIP3   OH226563   6.997   5.857   0.398 -0.2082  0.3109  0.2290
 8869TIP3    H126564   7.045   5.934   0.367  1.3550 -0.0736  1.5846
 8869TIP3    H226565   6.949   5.887   0.475 -1.5168  0.5004 -0.6565
 8870TIP3   OH226566   8.256   7.289   1.956  0.4125 -0.0021 -0.3566
 8870TIP3    H126567   8.261   7.381   1.931  0.0519 -0.5424 -2.5533
 8870TIP3    H226568   8.235   7.290   2.049 -1.5331  2.1499 -0.7656
 8871TIP3   OH226569   6.788   6.003   4.495  0.5026 -0.3714 -0.4057
 8871TIP3    H126570   6.720   6.068   4.505  1.2814  0.6250 -1.4461
 8871TIP3    H226571   6.756   5.945   4.426 -0.5669 -1.6233  1.0917
 8872TIP3   OH226572   2.939   0.211   4.543 -0.2008 -0.1673  0.5586
 8872TIP3    H126573   2.951   0.289   4.489  1.2660  0.2760  1.5056
 8872TIP3    H226574   2.873   0.236   4.607 -0.7813 -0.1817 -0.0269
 8873TIP3   OH226575   6.160   6.879   4.850  0.0958 -0.1935  0.5262
 8873TIP3    H126576   6.253   6.878   4.829 -0.3152  1.2449 -1.5054
 8873TIP3    H226577   6.120   6.928   4.779 -1.8875  1.5953  2.7945
 8874TIP3   OH226578   6.397   0.104   5.432 -0.0566 -0.6312 -0.1188
 8874TIP3    H126579   6.323   0.150   5.473 -0.5777  0.2238 -1.9586
 8874TIP3    H226580   6.426   0.042   5.498 -1.9804 -0.4832  0.8980
 8875TIP3   OH226581   7.943   6.558   2.036  0.6669 -0.1353  0.2582
 8875TIP3    H126582   7.909   6.631   2.088  1.1422 -0.2855  0.7887
 8875TIP3    H226583   8.030   6.540   2.073  1.4578  0.4342 -1.2770
 8876TIP3   OH226584   6.395   6.580   1.543 -0.2006  0.3714 -0.1084
 8876TIP3    H126585   6.311   6.602   1.502 -0.5682  0.9492  0.9335
 8876TIP3    H226586   6.390   6.618   1.630  1.4452  1.0515 -0.2871
 8877TIP3   OH226587   8.086   7.695   1.414  0.5974 -0.3232  0.0734
 8877TIP3    H126588   8.123   7.767   1.465 -0.3980  1.3438 -1.5051
 8877TIP3    H226589   8.030   7.649   1.476 -0.3136  1.4713  0.6252
 8878TIP3   OH226590   1.035   7.388   2.794 -0.7269  0.3861 -0.2640
 8878TIP3    H126591   1.022   7.340   2.712 -1.7101  1.5008 -0.7852
 8878TIP3    H226592   0.964   7.357   2.851  1.7085 -2.6404  1.2982
 8879TIP3   OH226593   8.360   7.324   1.377  1.0405 -0.2950 -0.1043
 8879TIP3    H126594   8.327   7.276   1.453 -0.5697  0.3330 -0.3944
 8879TIP3    H226595   8.451   7.345   1.400  1.3541 -2.2893  0.5800
 8880TIP3   OH226596   8.010   0.025   1.103  0.2458 -0.5154 -0.6237
 8880TIP3    H126597   8.069  -0.003   1.173  2.9359  0.8335 -2.2926
 8880TIP3    H226598   8.003   0.120   1.113 -1.0812 -0.5741 -0.8983
 8881TIP3   OH226599   6.964   6.556   1.853 -0.5301 -0.2619 -0.3156
 8881TIP3    H126600   6.948   6.628   1.915  0.5741 -1.1285  0.9990
 8881TIP3    H226601   6.900   6.570   1.784 -1.3140  1.1512  0.6603
 8882TIP3   OH226602   5.788   7.504   3.955  0.3466 -0.2990 -0.3532
 8882TIP3    H126603   5.710   7.467   3.995 -0.6244  0.8340 -1.1720
 8882TIP3    H226604   5.804   7.586   4.002  1.3226 -0.7414  0.1168
 8883TIP3   OH226605   8.178   7.612   1.887 -0.1129  0.3550  0.0456
 8883TIP3    H126606   8.085   7.635   1.889  0.3395  2.2212  1.2149
 8883TIP3    H226607   8.222   7.694   1.863  1.2898 -0.2429  0.5359
 8884TIP3   OH226608   7.948   6.164   2.142 -0.3720  0.0366 -0.4107
 8884TIP3    H126609   7.994   6.179   2.059 -1.2025 -0.0020 -0.8750
 8884TIP3    H226610   7.969   6.241   2.194  0.2460  0.0110 -0.6071
 8885TIP3   OH226611   0.169   7.432   1.768 -0.7183  0.3478 -0.2083
 8885TIP3    H126612   0.209   7.382   1.697 -1.1226 -0.3551  0.0494
 8885TIP3    H226613   0.145   7.516   1.729 -0.5896  0.1075 -0.8049
 8886TIP3   OH226614   7.401   7.303   0.804  0.6341 -0.5667 -0.0219
 8886TIP3    H126615   7.409   7.395   0.781 -0.2304 -1.0839 -2.5112
 8886TIP3    H226616   7.363   7.303   0.892  2.0959  1.4447  0.6572
 8887TIP3   OH226617   7.795   5.754   3.267 -0.4612  0.5663 -0.1577
 8887TIP3    H126618   7.796   5.837   3.219 -0.3519  2.5128  3.0843
 8887TIP3    H226619   7.726   5.764   3.332  0.9727 -1.0224  1.6785
 8888TIP3   OH226620   0.126   7.248   5.052 -0.0728 -0.0560  0.1678
 8888TIP3    H126621   0.149   7.174   5.108  0.0039 -0.0261  0.1760
 8888TIP3    H226622   0.159   7.224   4.966  1.7615  0.8369  0.5889
 8889TIP3   OH226623   5.606   7.938   1.791  0.2491  0.3635 -0.2632
 8889TIP3    H126624   5.636   7.852   1.761 -0.1973  0.2865 -0.4850
 8889TIP3    H226625   5.511   7.934   1.785  0.3082  1.6661 -2.4657
 8890TIP3   OH226626   7.031   7.430   3.313 -0.5502  0.0524  0.0550
 8890TIP3    H126627   7.083   7.356   3.344  1.3138  1.2125 -0.2467
 8890TIP3    H226628   6.995   7.470   3.392 -1.7596 -1.2723  0.2074
 8891TIP3   OH226629   8.145   3.585   4.828  0.0611  0.1862  0.4847
 8891TIP3    H126630   8.053   3.562   4.840  0.0634  0.1008  0.3346
 8891TIP3    H226631   8.154   3.599   4.734  0.2574 -0.0559  0.4649
 8892TIP3   OH226632   8.143   6.926   5.963 -0.2138 -0.2187 -0.2156
 8892TIP3    H126633   8.186   6.959   6.042 -1.0421  0.3217  0.0215
 8892TIP3    H226634   8.215   6.901   5.905  0.4370  1.4058 -0.1443
 8893TIP3   OH226635   6.948   5.626   4.029  0.2172  0.2108  0.3571
 8893TIP3    H126636   7.004   5.620   3.951  0.6156  0.0169  0.6582
 8893TIP3    H226637   6.927   5.719   4.037  0.7621  0.3301  0.4300
 8894TIP3   OH226638   6.136   5.720   4.288 -0.0564 -0.5258  0.7077
 8894TIP3    H126639   6.042   5.709   4.269  0.2050  0.9052 -1.5606
 8894TIP3    H226640   6.149   5.672   4.370 -2.9438 -0.0267  1.5307
 8895TIP3   OH226641   6.479   5.719   3.746  0.8450  0.4581  0.2648
 8895TIP3    H126642   6.543   5.745   3.681  0.2990 -2.0308 -1.3107
 8895TIP3    H226643   6.501   5.628   3.767 -1.1947  0.0680  0.8412
 8896TIP3   OH226644   6.683   6.573   6.924 -0.1816  0.4322 -0.0315
 8896TIP3    H126645   6.607   6.603   6.874 -1.3754 -0.8865  0.9702
 8896TIP3    H226646   6.692   6.481   6.901  0.0333  0.1350  1.2076
 8897TIP3   OH226647   6.308   7.337   4.087 -0.4004 -0.2861  0.5181
 8897TIP3    H126648   6.366   7.385   4.028 -1.2482  0.8832  0.6424
 8897TIP3    H226649   6.333   7.367   4.175 -2.0386  1.1774  0.5060
 8898TIP3   OH226650   8.203   3.580   1.462  0.3314 -0.3896  0.0551
 8898TIP3    H126651   8.277   3.634   1.490 -0.1879  0.4303 -0.1354
 8898TIP3    H226652   8.134   3.600   1.526  0.7390 -2.2477  1.0961
 8899TIP3   OH226653   7.107   5.350   2.887  0.0858  0.1617  0.1780
 8899TIP3    H126654   7.117   5.339   2.792 -1.3591  2.0337 -0.2303
 8899TIP3    H226655   7.195   5.335   2.922  0.6620 -0.4620 -1.4554
 8900TIP3   OH226656   5.455   5.972   0.913  0.1139 -0.2770  0.4869
 8900TIP3    H126657   5.362   5.953   0.902 -0.3031  1.7130  0.4307
 8900TIP3    H226658   5.480   5.925   0.993 -0.8710 -1.0224  0.3645
 8901TIP3   OH226659   6.921   6.751   1.428  0.5166 -0.4288 -0.1549
 8901TIP3    H126660   6.858   6.794   1.369 -0.2251 -0.1537  0.8288
 8901TIP3    H226661   6.969   6.690   1.371  1.0310  1.1025 -1.4035
 8902TIP3   OH226662   7.228   5.736   5.010 -0.3470  0.6133  0.5210
 8902TIP3    H126663   7.197   5.713   4.923 -0.9712 -0.6157  1.0424
 8902TIP3    H226664   7.269   5.822   5.000 -1.2901  0.9210 -0.7797
 8903TIP3   OH226665   0.149   7.705   2.851  0.7029 -0.1483 -0.5830
 8903TIP3    H126666   0.204   7.723   2.928 -0.3168 -0.8095  0.3084
 8903TIP3    H226667   0.072   7.760   2.863  1.2892  1.0080 -1.9928
 8904TIP3   OH226668   6.452   6.630   1.835  0.2518 -0.7010 -0.3254
 8904TIP3    H126669   6.526   6.578   1.866 -0.0049 -1.6688 -1.3128
 8904TIP3    H226670   6.390   6.630   1.908  1.5625  0.8209  0.8268
 8905TIP3   OH226671   3.139   0.418   2.199 -0.2093  0.0153 -0.4052
 8905TIP3    H126672   3.229   0.399   2.227 -0.2151 -0.7978 -0.9108
 8905TIP3    H226673   3.112   0.339   2.152 -1.6561 -0.2797  0.8830
 8906TIP3   OH226674   6.972   6.843   6.292  0.4020 -0.0078 -0.0191
 8906TIP3    H126675   6.971   6.752   6.322  1.5949 -0.1599 -0.4116
 8906TIP3    H226676   7.064   6.868   6.296 -0.1553  1.9191  2.2348
 8907TIP3   OH226677   7.063   6.742   4.471  0.4864 -0.2553  0.0701
 8907TIP3    H126678   7.099   6.816   4.519  1.8259 -0.6496 -0.3231
 8907TIP3    H226679   7.041   6.778   4.385  0.1868 -0.0851  0.2146
 8908TIP3   OH226680   5.506   7.486   1.819  0.1815 -0.5495  0.5764
 8908TIP3    H126681   5.459   7.515   1.741  0.1793  2.4396  1.5969
 8908TIP3    H226682   5.597   7.482   1.792  0.3593  1.8121  0.7162
 8909TIP3   OH226683   5.591   6.486   3.054  0.0997 -0.1055 -0.2320
 8909TIP3    H126684   5.676   6.447   3.033  0.3131 -0.5841  1.4709
 8909TIP3    H226685   5.608   6.541   3.130 -1.2867 -0.9163  0.6868
 8910TIP3   OH226686   7.517   6.914   3.365 -0.3579 -0.2372 -0.2687
 8910TIP3    H126687   7.492   6.922   3.273  0.2223  0.2787 -0.3864
 8910TIP3    H226688   7.594   6.970   3.374 -1.7103  1.4485  1.0500
 8911TIP3   OH226689   8.361   7.510   5.751  0.2595  0.2087  0.3890
 8911TIP3    H126690   8.438   7.486   5.699  0.3824  1.1343  0.1317
 8911TIP3    H226691   8.395   7.570   5.817 -0.1604  0.2405  0.5773
 8912TIP3   OH226692   0.467   0.808   3.957  0.4226 -0.2616 -0.7671
 8912TIP3    H126693   0.562   0.819   3.953  0.1034  3.0234 -0.8153
 8912TIP3    H226694   0.452   0.759   4.037  2.1682 -0.7291 -0.7112
 8913TIP3   OH226695   8.365   5.468   3.549 -0.0248 -0.4400  0.1098
 8913TIP3    H126696   8.274   5.461   3.521  0.5592  0.8043 -2.1882
 8913TIP3    H226697   8.404   5.384   3.525  0.4065  0.5120 -2.7624
 8914TIP3   OH226698   6.718   4.657   2.208  0.1235 -0.7171 -0.1947
 8914TIP3    H126699   6.789   4.680   2.147 -0.4748  1.7373  0.0007
 8914TIP3    H226700   6.651   4.617   2.153  0.5203 -0.5759 -0.7827
 8915TIP3   OH226701   2.109   0.365   3.128 -0.1916 -0.4638 -0.0785
 8915TIP3    H126702   2.013   0.365   3.133 -0.1958 -1.1976 -0.0568
 8915TIP3    H226703   2.137   0.416   3.204 -0.5793  0.4615 -0.5510
 8916TIP3   OH226704   6.049   7.718   5.628  0.3801 -0.5156 -0.4528
 8916TIP3    H126705   6.141   7.695   5.637  0.7958  0.9573 -0.7826
 8916TIP3    H226706   6.002   7.644   5.666  1.7070 -1.1073  0.0675
 8917TIP3   OH226707   8.000   7.264   2.708 -0.2070  0.2325  0.1859
 8917TIP3    H126708   7.930   7.294   2.767  0.4041  1.4785  0.2719
 8917TIP3    H226709   8.081   7.290   2.751  0.2775  0.1918 -0.6940
 8918TIP3   OH226710   6.296   6.559   3.371 -0.4036 -0.0347  0.0156
 8918TIP3    H126711   6.251   6.505   3.306 -0.3327 -1.4546  1.1057
 8918TIP3    H226712   6.388   6.552   3.348 -0.5466  1.1765 -0.9707
 8919TIP3   OH226713   7.365   6.236   1.674 -0.0183 -0.5149  0.4016
 8919TIP3    H126714   7.456   6.258   1.694 -0.0603 -0.8373  0.9533
 8919TIP3    H226715   7.318   6.319   1.678 -0.3013 -0.7688  3.1471
 8920TIP3   OH226716   1.322   1.067   3.913 -0.3235 -0.0074 -0.1238
 8920TIP3    H126717   1.317   0.979   3.950 -0.8034  0.2989  0.5492
 8920TIP3    H226718   1.275   1.061   3.830  0.1712 -0.5302 -0.3723
 8921TIP3   OH226719   7.499   6.604   4.972  0.6383  0.0613  0.2759
 8921TIP3    H126720   7.476   6.531   5.029  0.1399  0.6836  0.8802
 8921TIP3    H226721   7.435   6.599   4.900  0.7527 -0.2353  0.1955
 8922TIP3   OH226722   6.413   4.885   2.569 -0.1842  0.0594 -0.2109
 8922TIP3    H126723   6.331   4.837   2.569  0.6385 -1.3786 -1.3627
 8922TIP3    H226724   6.434   4.896   2.662 -1.5423  0.2281  0.0796
 8923TIP3   OH226725   8.384   6.348   4.564  0.1211 -1.0210 -0.0443
 8923TIP3    H126726   8.350   6.437   4.575  0.8359 -0.8035  0.4493
 8923TIP3    H226727   8.420   6.346   4.475 -1.1071 -1.2372 -0.5558
 8924TIP3   OH226728   8.083   5.895   4.690 -0.5668 -0.1790  0.2647
 8924TIP3    H126729   8.090   5.830   4.620 -1.1455  0.6969 -0.6225
 8924TIP3    H226730   8.121   5.974   4.653 -1.2127  0.3886  0.8044
 8925TIP3   OH226731   2.013   0.161   4.422 -0.7201 -0.0028 -0.1220
 8925TIP3    H126732   2.098   0.116   4.423 -0.5549  0.3213  0.5683
 8925TIP3    H226733   2.022   0.229   4.356 -1.4642 -1.9392 -2.2566
 8926TIP3   OH226734   8.225   5.543   2.844  0.2581  0.5801  0.0239
 8926TIP3    H126735   8.265   5.520   2.928 -0.6883  0.6299  0.4930
 8926TIP3    H226736   8.291   5.597   2.800  0.6003  0.8881  0.9029
 8927TIP3   OH226737   5.656   6.642   3.281 -0.3061  0.3215  0.1202
 8927TIP3    H126738   5.746   6.612   3.292 -0.2682 -0.0466 -1.1489
 8927TIP3    H226739   5.664   6.730   3.244 -0.4708 -0.0558 -0.8272
 8928TIP3   OH226740   7.522   5.114   3.836 -0.3463  0.5684 -0.6381
 8928TIP3    H126741   7.488   5.135   3.750  0.7865  1.6901 -0.8262
 8928TIP3    H226742   7.466   5.043   3.868 -1.8844  1.3562 -1.5480
 8929TIP3   OH226743   0.480   7.297   1.222 -0.1707  0.2384 -0.5303
 8929TIP3    H126744   0.413   7.234   1.248 -0.7659  1.2157  0.3324
 8929TIP3    H226745   0.562   7.260   1.256 -0.5589  0.0997  0.2577
 8930TIP3   OH226746   7.075   7.733   0.286 -0.1844 -0.5708 -0.1508
 8930TIP3    H126747   7.060   7.663   0.222  1.5391 -1.7585  0.7010
 8930TIP3    H226748   7.103   7.687   0.366  0.1211  1.0322  0.6828
 8931TIP3   OH226749   7.199   4.562   2.002 -0.1028 -0.8220  0.3157
 8931TIP3    H126750   7.106   4.545   2.012 -0.1678 -0.9145 -0.4282
 8931TIP3    H226751   7.214   4.643   2.051 -0.3700 -1.3657  1.3109
 8932TIP3   OH226752   0.370   4.018   1.275 -0.4039  0.0500 -0.0507
 8932TIP3    H126753   0.313   3.962   1.327  1.4877 -1.5097  0.4082
 8932TIP3    H226754   0.364   3.983   1.186  0.3782 -0.5763  0.1371
 8933TIP3   OH226755   3.818   0.106   2.943 -0.5475  0.5566 -0.0797
 8933TIP3    H126756   3.793   0.073   3.029  0.5273  0.9886  0.4099
 8933TIP3    H226757   3.903   0.147   2.957 -0.1326  0.1804 -1.4639
 8934TIP3   OH226758   0.538   7.278   1.564 -0.2908  0.0420  0.5855
 8934TIP3    H126759   0.449   7.299   1.532 -0.2280  0.5888  0.7638
 8934TIP3    H226760   0.529   7.276   1.659  0.2399  1.7731  0.6882
 8935TIP3   OH226761   1.490   0.465   3.201 -0.5026  0.1699 -0.0001
 8935TIP3    H126762   1.401   0.501   3.197 -0.2402  0.8825  0.5747
 8935TIP3    H226763   1.481   0.376   3.166 -1.8519 -0.5067  1.9485
 8936TIP3   OH226764   7.052   5.773   2.631  0.1129 -0.4509  0.4783
 8936TIP3    H126765   7.106   5.727   2.568  2.2069  1.7284  0.6395
 8936TIP3    H226766   7.037   5.709   2.701 -1.1785 -2.4555 -1.5671
 8937TIP3   OH226767   7.619   5.731   1.930  0.1114  0.9406 -0.1846
 8937TIP3    H126768   7.544   5.704   1.877  0.2117 -3.2430  1.6008
 8937TIP3    H226769   7.668   5.790   1.873 -1.7050 -0.5188 -3.4281
 8938TIP3   OH226770   7.386   6.602   3.338 -0.3478  0.2802  0.0550
 8938TIP3    H126771   7.344   6.688   3.341 -0.0357  0.3872  2.4272
 8938TIP3    H226772   7.368   6.564   3.424  0.6820 -1.4538 -0.4803
 8939TIP3   OH226773   6.593   3.508   1.866  0.2384  0.0865 -0.0602
 8939TIP3    H126774   6.684   3.516   1.894 -0.0660  0.6637  0.7680
 8939TIP3    H226775   6.573   3.592   1.825  0.0780 -0.0382 -0.2382
 8940TIP3   OH226776   0.067   7.772   2.496  0.1791 -0.1095  0.3137
 8940TIP3    H126777   0.093   7.859   2.526  0.1476 -0.6350  1.9538
 8940TIP3    H226778  -0.013   7.754   2.545 -0.0079 -0.9110 -0.2877
 8941TIP3   OH226779   5.711   5.511   4.271  0.0365  0.3266  0.4327
 8941TIP3    H126780   5.619   5.500   4.296  0.1783 -3.6351 -0.4505
 8941TIP3    H226781   5.708   5.551   4.185 -0.9479 -1.4355 -0.3666
 8942TIP3   OH226782   7.792   5.604   1.150  0.4426  0.4563  0.2368
 8942TIP3    H126783   7.791   5.654   1.068 -1.8279  2.9837  1.7340
 8942TIP3    H226784   7.729   5.533   1.135 -0.0148  0.9427 -0.1451
 8943TIP3   OH226785   6.513   7.533   4.970  0.1931 -0.4101  0.3326
 8943TIP3    H126786   6.503   7.616   5.016  0.7441 -0.1365 -0.0351
 8943TIP3    H226787   6.534   7.470   5.038 -0.3931 -0.2824  0.6339
 8944TIP3   OH226788   3.110   6.342   3.857  0.1892  0.3522  0.1711
 8944TIP3    H126789   3.153   6.426   3.843  0.9165 -0.2285 -1.2800
 8944TIP3    H226790   3.160   6.281   3.802  0.6287 -1.3197  2.3829
 8945TIP3   OH226791   6.535   5.510   3.903 -0.4700  0.1111  0.3401
 8945TIP3    H126792   6.486   5.432   3.875 -0.5811  0.0704  0.6514
 8945TIP3    H226793   6.508   5.524   3.994  1.2152 -0.7845  1.0009
 8946TIP3   OH226794   6.275   7.636   4.232 -0.2173 -0.3363  0.3664
 8946TIP3    H126795   6.287   7.548   4.269  1.0085 -0.5273 -0.4291
 8946TIP3    H226796   6.231   7.621   4.148  0.4322 -0.2426  0.0038
 8947TIP3   OH226797   7.632   6.997   4.154 -0.0883 -0.0737  0.3634
 8947TIP3    H126798   7.663   7.076   4.110  0.6426 -0.2849  0.4900
 8947TIP3    H226799   7.539   6.992   4.131 -0.1719  0.8858  0.4539
 8948TIP3   OH226800   5.860   7.688   4.123 -0.2262 -0.8954  0.0637
 8948TIP3    H126801   5.945   7.666   4.159  0.1423 -0.5616 -0.5839
 8948TIP3    H226802   5.803   7.699   4.199  1.0610  2.0456  0.6907
 8949TIP3   OH226803   7.157   7.547   4.406  0.3615 -0.7722 -0.1479
 8949TIP3    H126804   7.191   7.535   4.494 -2.7730 -0.7152  1.1380
 8949TIP3    H226805   7.167   7.641   4.389  1.0381 -0.7975  0.1125
 8950TIP3   OH226806   7.021   6.303   4.313  0.4400 -1.0609 -0.2890
 8950TIP3    H126807   6.938   6.261   4.291 -1.2025  2.3254 -0.8139
 8950TIP3    H226808   7.031   6.373   4.249  2.6545 -0.0573  1.0783
 8951TIP3   OH226809   5.309   6.535   1.145  0.0502  0.8829 -0.5962
 8951TIP3    H126810   5.373   6.604   1.157 -0.2245  0.9658  0.4059
 8951TIP3    H226811   5.288   6.538   1.051  1.9312  0.4567 -1.0540
 8952TIP3   OH226812   6.242   6.653   2.327  0.0790 -0.2791 -0.1735
 8952TIP3    H126813   6.202   6.600   2.397  0.0464  0.2595  0.2266
 8952TIP3    H226814   6.233   6.744   2.359 -0.8335  0.0477 -1.3361
 8953TIP3   OH226815   7.225   6.780   3.821 -0.0803  0.3576  0.7024
 8953TIP3    H126816   7.246   6.796   3.729  0.7172  0.0819  0.8334
 8953TIP3    H226817   7.146   6.833   3.837  1.6629  3.0387  0.7446
 8954TIP3   OH226818   7.989   0.707   3.075  0.2649 -0.2897 -0.1789
 8954TIP3    H126819   7.981   0.800   3.093 -3.0814 -0.4886 -0.3428
 8954TIP3    H226820   8.022   0.702   2.985  0.5945  0.7050 -0.1160
 8955TIP3   OH226821   7.484   6.663   2.994  0.3540 -0.0219  0.5514
 8955TIP3    H126822   7.567   6.698   2.964 -0.4709  2.0246  0.5704
 8955TIP3    H226823   7.451   6.728   3.056 -1.3849 -0.6791  0.3639
 8956TIP3   OH226824   7.270   7.429   4.172 -0.0358 -0.0642  0.3121
 8956TIP3    H126825   7.222   7.447   4.253 -1.4568  0.2404 -0.5772
 8956TIP3    H226826   7.311   7.344   4.188 -1.0886 -0.4572  1.0062
 8957TIP3   OH226827   6.658   4.959   4.142  0.2037 -0.3782  0.2131
 8957TIP3    H126828   6.657   5.054   4.146 -0.3078 -0.4551  2.3660
 8957TIP3    H226829   6.609   4.930   4.219  0.0197 -2.3835 -0.6078
 8958TIP3   OH226830   6.293   6.233   3.605 -0.2906  0.0254  0.2478
 8958TIP3    H126831   6.353   6.306   3.590  1.4066 -1.8050 -2.3455
 8958TIP3    H226832   6.324   6.194   3.687  1.8192 -0.5939 -0.7936
 8959TIP3   OH226833   5.036   4.281   5.243 -0.2899  0.1229  0.2145
 8959TIP3    H126834   5.027   4.263   5.149 -0.0461  1.0653  0.0121
 8959TIP3    H226835   4.956   4.245   5.282 -0.5185 -0.0290 -0.3865
 8960TIP3   OH226836   6.337   5.964   3.442 -0.6394 -0.1581 -0.0175
 8960TIP3    H126837   6.332   5.981   3.348  2.9231 -0.4903 -0.3641
 8960TIP3    H226838   6.282   6.031   3.482  0.8675  2.4588 -2.1680
 8961TIP3   OH226839   7.483   6.931   4.691 -0.3205 -0.1534  0.0365
 8961TIP3    H126840   7.558   6.874   4.674  0.4576  0.8034  0.1603
 8961TIP3    H226841   7.411   6.872   4.711 -0.1199 -1.1856 -2.0852
 8962TIP3   OH226842   7.987   5.537   4.171  0.1999 -0.2491 -0.4611
 8962TIP3    H126843   7.996   5.484   4.092 -0.1939  1.2673 -1.5496
 8962TIP3    H226844   8.060   5.600   4.166 -0.2803  0.3519 -0.0177
 8963TIP3   OH226845   0.021   6.196   4.287  0.2791  1.2560  0.2180
 8963TIP3    H126846   0.076   6.272   4.306  1.9729  0.3849 -1.1287
 8963TIP3    H226847   0.075   6.140   4.232 -1.9429  0.3551 -1.1262
 8964TIP3   OH226848   5.097   5.926   0.913 -0.1388  0.3244  0.2307
 8964TIP3    H126849   5.064   5.853   0.966 -0.7897  0.4138 -0.0519
 8964TIP3    H226850   5.027   5.944   0.851  0.2874  0.7695 -0.1202
 8965TIP3   OH226851   7.761   6.372   0.571  0.1358  0.1705  0.0850
 8965TIP3    H126852   7.791   6.281   0.569  1.0409  0.4122  1.5594
 8965TIP3    H226853   7.731   6.389   0.482 -0.3856 -1.6820 -0.1247
 8966TIP3   OH226854   0.046   5.818   2.119  0.6431  0.2329 -0.2310
 8966TIP3    H126855   0.014   5.821   2.029  0.5023 -0.5144 -0.2119
 8966TIP3    H226856  -0.018   5.867   2.170 -0.4124 -1.1322 -0.2179
 8967TIP3   OH226857   1.661   0.214   2.800  0.1425  0.6779  0.4184
 8967TIP3    H126858   1.574   0.182   2.822  0.1149 -0.1115 -0.8125
 8967TIP3    H226859   1.659   0.227   2.705  1.3421  0.6917  0.3893
 8968TIP3   OH226860   7.316   7.636   5.179 -0.3351 -0.2750  0.1952
 8968TIP3    H126861   7.400   7.683   5.183 -0.2263 -0.5451  1.1764
 8968TIP3    H226862   7.268   7.680   5.108  0.4507  0.1859 -0.0627
 8969TIP3   OH226863   5.443   5.408   3.990 -0.7399 -0.2370  0.1263
 8969TIP3    H126864   5.526   5.362   3.980  0.9120  2.2066  1.9585
 8969TIP3    H226865   5.430   5.452   3.906  0.9115  1.0236  0.5016
 8970TIP3   OH226866   1.764   1.806   4.572  0.1908 -0.2337  0.1339
 8970TIP3    H126867   1.705   1.881   4.578 -0.3380 -0.6544  0.2524
 8970TIP3    H226868   1.772   1.774   4.662 -0.4470 -0.9730 -0.0671
 8971TIP3   OH226869   6.562   6.791   3.432  0.0409  0.2944  0.0394
 8971TIP3    H126870   6.551   6.704   3.471 -0.0889 -0.2083 -1.0940
 8971TIP3    H226871   6.568   6.774   3.337 -1.1178  1.6076 -0.2823
 8972TIP3   OH226872   7.335   7.511   4.620  0.3916 -0.0797  0.2884
 8972TIP3    H126873   7.311   7.453   4.693  0.5627  0.1455  0.5242
 8972TIP3    H226874   7.379   7.585   4.662 -0.3380  0.5013  0.0491
 8973TIP3   OH226875   8.158   7.501   4.985 -0.0095  0.0756  0.5855
 8973TIP3    H126876   8.249   7.483   5.009  0.3227  0.4470 -0.3727
 8973TIP3    H226877   8.150   7.596   4.995  1.0507  0.7215 -3.7401
 8974TIP3   OH226878   0.384   3.115   0.680 -0.3838  0.6559 -0.0191
 8974TIP3    H126879   0.296   3.114   0.643 -0.0492  2.8449 -0.9494
 8974TIP3    H226880   0.407   3.208   0.686  1.0111  0.2064  2.2896
 8975TIP3   OH226881   0.411   8.016   3.360 -0.1441  0.0358  0.1363
 8975TIP3    H126882   0.354   8.025   3.436 -1.4367  1.6227 -0.9853
 8975TIP3    H226883   0.363   7.958   3.301  1.1477 -1.7222  0.7740
 8976TIP3   OH226884   3.899   0.433   6.673  0.6526 -0.1024 -0.2679
 8976TIP3    H126885   3.822   0.442   6.617  0.7546  1.7103 -0.1260
 8976TIP3    H226886   3.865   0.402   6.757 -0.2021  2.7584  0.4727
 8977TIP3   OH226887   0.749   7.213   5.629 -0.2750  0.4473  0.2780
 8977TIP3    H126888   0.799   7.142   5.588  0.5511  1.3189 -0.2417
 8977TIP3    H226889   0.781   7.293   5.586 -1.3808  1.1094  0.6721
 8978TIP3   OH226890   3.537   0.407   5.423 -0.0229  0.0738 -0.3476
 8978TIP3    H126891   3.545   0.363   5.508 -0.1053  0.7945  0.0346
 8978TIP3    H226892   3.461   0.464   5.432  0.1579  0.3909 -0.7972
 8979TIP3   OH226893   3.067   0.908   5.169 -0.0647 -0.7537  0.3332
 8979TIP3    H126894   3.024   0.858   5.099  0.0219 -0.6169  0.1830
 8979TIP3    H226895   3.156   0.922   5.137  0.1409 -1.1756  0.7152
 8980TIP3   OH226896   8.207   4.187   1.091  0.7493  0.0389  0.3601
 8980TIP3    H126897   8.200   4.188   1.187 -0.9408 -0.3476  0.2559
 8980TIP3    H226898   8.222   4.095   1.069 -0.7396 -0.1515  0.1370
 8981TIP3   OH226899   4.708   1.206   4.067 -0.0817 -1.0666 -0.1306
 8981TIP3    H126900   4.673   1.254   4.142 -0.3345 -1.8324  0.2417
 8981TIP3    H226901   4.660   1.241   3.992  2.0781  1.6496 -0.3113
 8982TIP3   OH226902   0.691   7.033   5.072 -0.7180 -0.1254  0.2169
 8982TIP3    H126903   0.605   7.002   5.044 -1.6091  2.9766 -0.7664
 8982TIP3    H226904   0.673   7.083   5.152  0.3296 -0.2885  0.5583
 8983TIP3   OH226905   1.671   7.007   5.983  0.0473  0.0502  0.1113
 8983TIP3    H126906   1.650   7.040   6.070  0.5601  0.1905  0.1858
 8983TIP3    H226907   1.759   7.041   5.965  0.3545 -0.7940 -0.0477
 8984TIP3   OH226908   8.378   6.662   3.119  0.5019  0.0583  0.2987
 8984TIP3    H126909   8.322   6.730   3.081  1.3503 -0.1098 -1.3077
 8984TIP3    H226910   8.318   6.605   3.166 -0.3846  1.1843  0.5672
 8985TIP3   OH226911   7.333   7.977   3.981  0.0631 -0.2743  0.4020
 8985TIP3    H126912   7.273   8.011   3.914  0.1078  0.1494  0.5725
 8985TIP3    H226913   7.300   7.890   4.001  0.8711 -0.9729 -1.1936
 8986TIP3   OH226914   5.902   0.877   3.446  0.1097 -0.3182 -0.0849
 8986TIP3    H126915   5.924   0.809   3.383  0.3733  0.7092 -1.1288
 8986TIP3    H226916   5.928   0.959   3.403  1.3887  0.3288  1.8413
 8987TIP3   OH226917   4.108   0.416   2.210  0.1125 -0.4078 -0.7951
 8987TIP3    H126918   4.147   0.397   2.125 -0.1578  1.0681 -1.2599
 8987TIP3    H226919   4.106   0.511   2.215  0.8147 -0.4732  1.1836
 8988TIP3   OH226920   4.038   1.230   5.214 -0.0452 -0.3410 -0.3645
 8988TIP3    H126921   4.100   1.201   5.146 -2.0364 -2.1960 -1.4612
 8988TIP3    H226922   3.952   1.210   5.177 -1.2986  1.6278  1.3883
 8989TIP3   OH226923   2.781   1.741   6.590  0.0226 -0.2989 -0.6395
 8989TIP3    H126924   2.790   1.777   6.502  1.8007 -1.3231 -0.8965
 8989TIP3    H226925   2.823   1.655   6.586  2.1117  0.5287  1.7660
 8990TIP3   OH226926   3.962   0.884   4.936 -0.1462  0.2363 -0.6276
 8990TIP3    H126927   4.000   0.848   5.015 -1.1268 -0.3539 -0.4104
 8990TIP3    H226928   3.934   0.808   4.885 -2.9323  0.6531  0.1727
 8991TIP3   OH226929   0.721   7.026   4.028 -0.1526  0.0178  0.2914
 8991TIP3    H126930   0.669   7.105   4.043  1.1584  1.2757 -1.5586
 8991TIP3    H226931   0.799   7.038   4.081  0.1389  0.0601 -0.1445
 8992TIP3   OH226932   1.201   7.570   0.941  0.1118 -0.2524  0.1112
 8992TIP3    H126933   1.158   7.485   0.935  0.2862 -0.2999 -0.6141
 8992TIP3    H226934   1.157   7.624   0.875 -0.4559  0.4343  1.0280
 8993TIP3   OH226935   0.891   6.484   3.993 -0.3933  0.5287  0.3017
 8993TIP3    H126936   0.909   6.577   4.006 -0.8089  0.7626 -0.6987
 8993TIP3    H226937   0.924   6.441   4.072 -0.1882  1.5222  0.7599
 8994TIP3   OH226938   4.477   0.863   4.547  0.0927 -0.0971 -0.1647
 8994TIP3    H126939   4.539   0.928   4.515  0.3030  1.0334  2.4245
 8994TIP3    H226940   4.391   0.903   4.534  0.1278  0.0187 -0.0330
 8995TIP3   OH226941   1.478  -0.031   4.585 -0.2780  0.0532 -0.0830
 8995TIP3    H126942   1.469  -0.021   4.680 -2.4622  1.1642 -0.3714
 8995TIP3    H226943   1.501   0.057   4.554 -1.9194  0.2334 -0.8228
 8996TIP3   OH226944   7.595   7.377   2.379 -0.1643  0.4489 -0.3677
 8996TIP3    H126945   7.524   7.433   2.350 -1.1896 -0.2123  0.8267
 8996TIP3    H226946   7.554   7.315   2.440  1.2849 -0.4047 -0.2279
 8997TIP3   OH226947   3.175   5.306   4.135  0.4486  0.1284 -0.1988
 8997TIP3    H126948   3.166   5.284   4.227 -0.1824 -1.0386 -0.5280
 8997TIP3    H226949   3.101   5.263   4.092  1.0107  0.2374 -1.3143
 8998TIP3   OH226950   6.830   1.960   0.047  0.0956  0.4126  0.0936
 8998TIP3    H126951   6.867   1.942  -0.039 -2.1461  1.3549 -1.1003
 8998TIP3    H226952   6.778   2.040   0.035 -0.2010  0.5960  2.3255
 8999TIP3   OH226953   2.093   6.464   4.248  0.0166 -0.1463  0.3216
 8999TIP3    H126954   2.046   6.541   4.214  0.5610 -0.7412 -1.8709
 8999TIP3    H226955   2.024   6.402   4.269 -0.3604  0.4060  0.7390
 9000TIP3   OH226956   0.474   6.929   4.871 -0.1237  0.1146  0.3867
 9000TIP3    H126957   0.410   7.000   4.859 -0.7181 -0.6168 -1.0150
 9000TIP3    H226958   0.526   6.931   4.790 -0.1180 -1.0009  0.3559
 9001TIP3   OH226959   0.864   7.298   2.987 -0.2190 -0.1025  0.6018
 9001TIP3    H126960   0.824   7.380   3.015  0.4558  1.0245 -1.6633
 9001TIP3    H226961   0.795   7.253   2.937  0.4057  0.5590 -0.8856
 9002TIP3   OH226962   7.717   6.617   3.171 -0.3284 -0.4377 -0.2659
 9002TIP3    H126963   7.627   6.588   3.161 -0.0694 -2.0459  1.8555
 9002TIP3    H226964   7.769   6.550   3.126 -0.0769 -0.4843  0.0895
 9003TIP3   OH226965   4.996   0.200   4.561 -0.5547 -0.4854  0.1772
 9003TIP3    H126966   4.906   0.217   4.588 -0.1780  1.6288  0.1692
 9003TIP3    H226967   5.044   0.278   4.589  1.3157 -1.6714  0.3481
 9004TIP3   OH226968   2.420   5.794   6.380  0.0279 -0.9440  1.0800
 9004TIP3    H126969   2.447   5.866   6.438 -1.0692 -0.5177  1.0756
 9004TIP3    H226970   2.494   5.783   6.320  0.2016  0.1962  1.0643
 9005TIP3   OH226971   7.468   7.440   3.976  0.3614  0.0399  0.7566
 9005TIP3    H126972   7.495   7.475   4.061  0.9127  1.3881  0.0499
 9005TIP3    H226973   7.383   7.481   3.959  0.1339 -0.4247  0.7786
 9006TIP3   OH226974   1.591   5.593   5.510 -0.4786  0.3767  0.5635
 9006TIP3    H126975   1.598   5.500   5.490  1.5557  0.1542  2.1864
 9006TIP3    H226976   1.511   5.601   5.562 -0.6595 -0.4468  0.4146
 9007TIP3   OH226977   7.140   5.335   4.851 -0.0955 -0.1865  0.0782
 9007TIP3    H126978   7.112   5.392   4.923  1.0559 -0.5504  0.8225
 9007TIP3    H226979   7.178   5.258   4.894  1.4556  0.0093 -0.9150
 9008TIP3   OH226980   3.872   0.651   4.826 -0.1557  0.4760  0.0493
 9008TIP3    H126981   3.889   0.620   4.737 -0.0487  1.7112 -0.3643
 9008TIP3    H226982   3.892   0.575   4.882  1.7413  0.3118 -0.8167
 9009TIP3   OH226983   2.841   6.714   4.935  0.1150 -0.2880  0.4103
 9009TIP3    H126984   2.760   6.680   4.896  0.6437 -1.0358 -0.0360
 9009TIP3    H226985   2.893   6.742   4.860 -0.8103  2.6743  0.8018
 9010TIP3   OH226986   7.935   7.043   3.306 -0.1411 -0.4346 -0.8041
 9010TIP3    H126987   7.906   6.989   3.233 -0.5461 -0.7881 -0.3870
 9010TIP3    H226988   7.857   7.092   3.332 -0.5934 -1.9432  0.8017
 9011TIP3   OH226989   2.274   6.821   5.479  0.6020 -0.4135 -0.9006
 9011TIP3    H126990   2.268   6.758   5.407 -0.0283 -1.1833 -0.1972
 9011TIP3    H226991   2.331   6.890   5.446  2.3262 -1.9664 -1.2565
 9012TIP3   OH226992   7.816   6.562   4.258  0.0521  0.2873  0.5930
 9012TIP3    H126993   7.730   6.535   4.291  0.2474 -1.0748  0.0633
 9012TIP3    H226994   7.877   6.541   4.329  0.0024  0.7909  0.7811
 9013TIP3   OH226995   2.023   0.392   3.688 -0.0069 -0.4280 -0.3509
 9013TIP3    H126996   2.014   0.345   3.605  1.4429 -1.7669  0.2229
 9013TIP3    H226997   1.935   0.425   3.707 -0.2879  0.1735 -2.5747
 9014TIP3   OH226998   0.431   4.598   4.631 -0.5919 -0.4330  0.2094
 9014TIP3    H126999   0.526   4.601   4.644 -0.4915  0.2749 -0.6237
 9014TIP3    H227000   0.401   4.684   4.660 -0.7607 -0.0168 -1.1653
 9015TIP3   OH227001   1.243   7.217   4.870  0.1807 -0.0792 -0.6268
 9015TIP3    H127002   1.271   7.131   4.838 -0.8098  0.2924 -2.5541
 9015TIP3    H227003   1.296   7.280   4.822 -0.3294  0.4500 -0.5013
 9016TIP3   OH227004   5.600   1.420   1.910 -0.3033 -0.5432 -0.0609
 9016TIP3    H127005   5.649   1.351   1.866  0.3932  1.2401 -2.1741
 9016TIP3    H227006   5.512   1.415   1.872 -0.0987  0.0520 -0.6390
 9017TIP3   OH227007   0.669   6.545   4.637  0.3242 -0.0235  0.2579
 9017TIP3    H127008   0.715   6.527   4.555 -1.7824 -0.4533 -0.8711
 9017TIP3    H227009   0.697   6.633   4.661  0.2757  0.4670 -1.4200
 9018TIP3   OH227010   1.150   7.965   2.495  0.3109  0.4541  0.6071
 9018TIP3    H127011   1.150   8.060   2.490  1.6836  0.5040  1.3722
 9018TIP3    H227012   1.239   7.939   2.472 -0.6920 -0.8107 -2.0869
 9019TIP3   OH227013   3.151   0.359   4.204 -0.0487  0.0990 -0.0948
 9019TIP3    H127014   3.127   0.324   4.118 -0.7666 -0.5542  0.3638
 9019TIP3    H227015   3.139   0.454   4.195 -1.2373 -0.0665 -0.3825
 9020TIP3   OH227016   5.753   6.250   3.259 -0.0449  0.0026 -0.3369
 9020TIP3    H127017   5.675   6.255   3.315  0.5604 -0.5794  0.5696
 9020TIP3    H227018   5.775   6.342   3.242  0.3387  0.2028  1.2011
 9021TIP3   OH227019   0.936   7.800   2.540  0.4589 -0.1794  0.7247
 9021TIP3    H127020   0.873   7.872   2.548 -0.0793 -0.3215 -2.0503
 9021TIP3    H227021   1.021   7.843   2.534  0.4817  0.0719  2.4326
 9022TIP3   OH227022   2.811   6.089   4.467 -0.0604  0.5342  0.2375
 9022TIP3    H127023   2.867   6.154   4.424  0.5727  0.8620  1.5208
 9022TIP3    H227024   2.724   6.130   4.469  0.2591  1.2199  0.7271
 9023TIP3   OH227025   1.147   6.481   5.175 -0.2432  0.0192 -0.0960
 9023TIP3    H127026   1.085   6.463   5.245  0.6573 -1.0987  0.4330
 9023TIP3    H227027   1.119   6.425   5.103 -0.6137  0.4810 -0.3163
 9024TIP3   OH227028   0.264   7.414   5.242  0.5663 -0.2885 -0.0351
 9024TIP3    H127029   0.356   7.441   5.249  0.9916 -1.1431 -1.9729
 9024TIP3    H227030   0.237   7.444   5.155 -0.9969 -0.0585  0.5159
 9025TIP3   OH227031   3.603   0.774   5.117 -0.1247  0.1714 -0.0650
 9025TIP3    H127032   3.559   0.693   5.144  1.7331 -0.3312  1.5282
 9025TIP3    H227033   3.695   0.760   5.139  0.4289  2.2112 -1.0022
 9026TIP3   OH227034   4.217   7.631   3.814  0.4560  0.5768  0.3452
 9026TIP3    H127035   4.193   7.704   3.758  0.2760  0.4337  0.2385
 9026TIP3    H227036   4.154   7.634   3.886  1.1398  1.2160  0.9349
 9027TIP3   OH227037   0.007   7.962   5.302 -0.1375 -0.0062 -0.9667
 9027TIP3    H127038   0.074   7.957   5.370 -1.8170 -2.1604  0.6103
 9027TIP3    H227039  -0.058   8.024   5.336 -0.9439 -1.0301 -0.5972
 9028TIP3   OH227040   0.841   7.697   6.480 -0.1387  0.0080  0.4251
 9028TIP3    H127041   0.911   7.641   6.446 -0.5561  0.5905 -1.4741
 9028TIP3    H227042   0.878   7.737   6.558  2.1537  1.3158 -1.2625
 9029TIP3   OH227043   4.865   0.953   2.991  0.4334  0.0387 -0.0694
 9029TIP3    H127044   4.798   0.888   3.012 -1.2662  1.5203 -0.7440
 9029TIP3    H227045   4.864   1.013   3.066  1.2283 -0.1210  0.0657
 9030TIP3   OH227046   2.997   7.163   4.114 -0.1474  0.5132 -0.0144
 9030TIP3    H127047   3.024   7.253   4.131 -2.0909  0.6126  2.9348
 9030TIP3    H227048   2.955   7.167   4.027  1.1204  2.1184 -0.5763
 9031TIP3   OH227049   1.856   0.228   4.044  0.2597 -0.7259  0.3731
 9031TIP3    H127050   1.825   0.293   3.981  0.7971 -0.1676  0.6713
 9031TIP3    H227051   1.804   0.150   4.026 -1.4875  0.2683  1.0553
 9032TIP3   OH227052   2.646   0.636   2.637  0.1310  0.9767  0.3771
 9032TIP3    H127053   2.716   0.685   2.592  1.3901 -0.8539  0.2970
 9032TIP3    H227054   2.608   0.582   2.568 -0.5793  1.0877  0.6874
 9033TIP3   OH227055   4.714   7.650   4.222  0.1334  0.3215  0.1374
 9033TIP3    H127056   4.786   7.603   4.264  0.2259  1.2577  1.0326
 9033TIP3    H227057   4.642   7.587   4.221  0.2301  0.1809  1.3921
 9034TIP3   OH227058   7.221   0.151   3.969 -0.3401 -0.1128 -0.0221
 9034TIP3    H127059   7.291   0.099   4.008  0.8647  1.1686 -0.4569
 9034TIP3    H227060   7.208   0.113   3.882  1.0323  0.7466 -0.6127
 9035TIP3   OH227061   1.467   7.947   2.626 -0.2338  0.1838  0.5709
 9035TIP3    H127062   1.558   7.947   2.657 -0.3599  0.1141  0.9441
 9035TIP3    H227063   1.420   7.892   2.689 -0.4201 -0.2738  0.0331
 9036TIP3   OH227064   6.222   1.398   3.781  0.7370  0.6460  0.5150
 9036TIP3    H127065   6.218   1.428   3.691  1.9318 -0.2561  0.1499
 9036TIP3    H227066   6.181   1.312   3.780  1.9723  0.0418  0.5528
 9037TIP3   OH227067   5.389   1.581   2.246 -0.7246  0.8625  0.2043
 9037TIP3    H127068   5.294   1.597   2.253 -1.3308 -0.7726 -3.3984
 9037TIP3    H227069   5.404   1.503   2.298 -1.6496  0.1951 -0.5163
 9038TIP3   OH227070   8.536   6.801   5.525 -0.4110  0.1782 -0.2185
 9038TIP3    H127071   8.478   6.877   5.523  0.0168  0.6086  2.2031
 9038TIP3    H227072   8.484   6.732   5.566 -0.0740 -0.1926 -0.4141
 9039TIP3   OH227073   0.738   7.936   2.873  0.2753 -0.0436 -0.1708
 9039TIP3    H127074   0.712   8.014   2.826 -0.2937  0.2663  0.6395
 9039TIP3    H227075   0.798   7.968   2.941 -1.3890 -0.0409  1.3427
 9040TIP3   OH227076   2.913   0.340   4.815 -0.4730  0.3803  0.0903
 9040TIP3    H127077   2.989   0.377   4.860  1.0761 -1.2239 -1.0954
 9040TIP3    H227078   2.882   0.271   4.873 -1.1248  1.1259  0.6388
 9041TIP3   OH227079   1.597   6.891   5.208 -0.1758 -0.3864  0.0770
 9041TIP3    H127080   1.608   6.818   5.147  0.2748 -0.0184 -0.2869
 9041TIP3    H227081   1.524   6.864   5.264 -0.4881 -0.8014 -0.5141
 9042TIP3   OH227082   2.531   6.518   6.212 -0.0322  0.1033  0.1223
 9042TIP3    H127083   2.544   6.579   6.140  0.1810 -0.3801 -0.2523
 9042TIP3    H227084   2.610   6.463   6.212 -0.3051 -0.2931  0.3308
 9043TIP3   OH227085   5.415   0.875   3.868  0.0101  0.3330 -0.1116
 9043TIP3    H127086   5.350   0.861   3.799 -0.0820 -0.7683  0.1814
 9043TIP3    H227087   5.477   0.937   3.830 -1.4194  1.6933 -0.2493
 9044TIP3   OH227088   8.133   0.938   0.454 -0.4824  0.1214 -0.3802
 9044TIP3    H127089   8.139   1.022   0.500  1.2735  0.0571 -0.4430
 9044TIP3    H227090   8.163   0.957   0.365  1.6983 -0.9196  0.0980
 9045TIP3   OH227091   0.046   8.022   3.261  0.5315  0.2408 -0.1341
 9045TIP3    H127092   0.010   7.990   3.344 -2.5559 -2.0077 -2.2338
 9045TIP3    H227093   0.114   7.958   3.238 -0.7350 -0.8646 -0.8325
 9046TIP3   OH227094   1.850   0.630   3.378 -0.4473 -0.3598 -0.0213
 9046TIP3    H127095   1.825   0.581   3.299  0.1453 -0.0630 -0.3917
 9046TIP3    H227096   1.768   0.636   3.429 -0.6960 -1.0719 -0.3251
 9047TIP3   OH227097   4.765   0.178   5.906 -0.0748 -0.2237 -0.5311
 9047TIP3    H127098   4.851   0.137   5.919 -0.6922 -1.6143 -0.7792
 9047TIP3    H227099   4.713   0.147   5.980 -0.7706 -0.4843 -1.1298
 9048TIP3   OH227100   5.534   1.755   5.199  0.0857 -0.0177  0.3395
 9048TIP3    H127101   5.526   1.851   5.198 -0.9358 -0.1003  0.3825
 9048TIP3    H227102   5.463   1.725   5.143  0.7268 -0.7420 -0.1039
 9049TIP3   OH227103   0.523   7.276   4.532 -0.2904  0.3274 -0.2400
 9049TIP3    H127104   0.432   7.285   4.559  0.7478  0.6680  3.4517
 9049TIP3    H227105   0.555   7.366   4.522  0.3787  0.2613  1.2286
 9050TIP3   OH227106   1.263   4.462   6.377  0.4551  0.3944  0.4866
 9050TIP3    H127107   1.283   4.375   6.341  0.6003  0.3866  0.5843
 9050TIP3    H227108   1.295   4.523   6.311 -1.2327  0.3532 -0.3919
 9051TIP3   OH227109   0.914   5.249   5.324  0.1321  0.0040 -0.2116
 9051TIP3    H127110   0.868   5.284   5.401  0.1558 -0.8713  0.2190
 9051TIP3    H227111   0.846   5.202   5.275  0.2461  0.0253 -0.3898
 9052TIP3   OH227112   6.965   0.035   3.495 -0.3068 -0.2491 -0.0764
 9052TIP3    H127113   6.945  -0.027   3.425 -2.4084  1.1205 -0.7669
 9052TIP3    H227114   7.054   0.066   3.476 -0.1331 -1.3160 -1.0327
 9053TIP3   OH227115   5.451   0.987   1.242  0.2333 -0.3719  0.1050
 9053TIP3    H127116   5.495   1.024   1.166 -2.0025 -0.3154 -1.2209
 9053TIP3    H227117   5.507   1.009   1.316  0.9498  2.1915 -1.1439
 9054TIP3   OH227118   2.828   0.421   1.361  0.2395  0.3447 -0.1177
 9054TIP3    H127119   2.834   0.422   1.265 -0.5026 -1.8560 -0.2241
 9054TIP3    H227120   2.794   0.507   1.383  0.8654  1.0537 -1.8073
 9055TIP3   OH227121   1.919   0.153   6.625  0.6504  0.3199 -0.2028
 9055TIP3    H127122   1.855   0.087   6.653  2.7859 -1.3135  1.0587
 9055TIP3    H227123   1.894   0.232   6.673  0.6713 -0.8115  1.7548
 9056TIP3   OH227124   0.521   7.472   5.417 -0.0497  0.2373 -0.0574
 9056TIP3    H127125   0.468   7.397   5.442 -0.2574  0.2837 -0.3598
 9056TIP3    H227126   0.605   7.434   5.389 -0.7378 -0.0149 -1.8450
 9057TIP3   OH227127   2.480   6.259   3.437  0.1594 -0.2270 -0.2086
 9057TIP3    H127128   2.419   6.193   3.401 -0.3317 -0.2647  0.6682
 9057TIP3    H227129   2.505   6.312   3.362 -0.5302 -0.5601 -0.6806
 9058TIP3   OH227130   0.693   5.851   5.999  0.1829 -0.3267 -0.2768
 9058TIP3    H127131   0.689   5.944   5.976 -0.2076 -0.4205 -0.6118
 9058TIP3    H227132   0.640   5.808   5.931  1.4117 -0.9370 -0.8599
 9059TIP3   OH227133   2.249   7.775   2.808  0.1860  0.7761 -0.1943
 9059TIP3    H127134   2.321   7.796   2.748  0.0511  0.0170 -0.6377
 9059TIP3    H227135   2.267   7.685   2.836 -0.8916  0.3646 -0.7720
 9060TIP3   OH227136   1.784   7.669   3.493  0.4609 -0.4482  0.5838
 9060TIP3    H127137   1.696   7.636   3.509 -0.1691 -0.2392 -2.2676
 9060TIP3    H227138   1.834   7.592   3.465  0.6353 -0.1694  0.1283
 9061TIP3   OH227139   1.224   7.007   4.354  0.0448 -0.1496 -0.3211
 9061TIP3    H127140   1.211   6.990   4.447 -0.1382  0.8001 -0.1734
 9061TIP3    H227141   1.291   6.944   4.328  0.1239 -0.3952  0.4581
 9062TIP3   OH227142   0.466   7.842   2.463 -0.1788 -0.3580  0.7612
 9062TIP3    H127143   0.420   7.785   2.525 -2.1055  0.5680  0.2288
 9062TIP3    H227144   0.509   7.907   2.519 -2.8122  1.1399  1.1566
 9063TIP3   OH227145   3.543   0.416   2.573  0.2791  0.0081  0.3158
 9063TIP3    H127146   3.540   0.432   2.668 -0.1516 -0.9236  0.4653
 9063TIP3    H227147   3.634   0.392   2.556  0.3119 -0.0215  0.5275
 9064TIP3   OH227148   5.119   0.422   4.606 -0.1375 -0.4765 -0.2798
 9064TIP3    H127149   5.211   0.432   4.579  0.2674 -0.7133  1.0029
 9064TIP3    H227150   5.097   0.505   4.648 -0.3897 -0.5688 -0.2282
 9065TIP3   OH227151   2.210   7.764   3.972 -0.2097  0.0944 -0.7639
 9065TIP3    H127152   2.247   7.845   3.936 -1.3281  0.2333 -1.6028
 9065TIP3    H227153   2.284   7.722   4.017  0.6720  0.9723 -1.3775
 9066TIP3   OH227154   1.137   7.565   4.952  0.9977  0.3641  0.0767
 9066TIP3    H127155   1.227   7.533   4.950  1.6756  2.1966  0.8490
 9066TIP3    H227156   1.124   7.596   5.042 -0.2519  0.5693 -0.1592
 9067TIP3   OH227157   0.329   7.088   0.470 -0.1133  0.1638  0.1075
 9067TIP3    H127158   0.310   7.119   0.381 -0.7761  0.1542  0.2451
 9067TIP3    H227159   0.386   7.156   0.506  0.0294  0.2498 -0.2695
 9068TIP3   OH227160   2.749   6.927   4.218 -0.2676 -0.0143 -0.4160
 9068TIP3    H127161   2.691   6.901   4.146  2.2149 -1.0058 -2.1458
 9068TIP3    H227162   2.831   6.952   4.174  0.6946  1.1541  1.9630
 9069TIP3   OH227163   3.080   0.255   3.397  0.0242 -0.1618  0.5774
 9069TIP3    H127164   3.008   0.316   3.412 -0.4887 -0.6147 -0.0456
 9069TIP3    H227165   3.051   0.173   3.435 -0.7296 -0.9529 -1.6085
 9070TIP3   OH227166   2.545   0.541   5.700 -0.6906 -0.3696 -0.0650
 9070TIP3    H127167   2.526   0.452   5.731  1.3417  0.4152  3.6932
 9070TIP3    H227168   2.492   0.597   5.756 -0.3213  0.9296 -1.0047
 9071TIP3   OH227169   2.714   0.310   2.648  0.0808 -0.1530  0.4037
 9071TIP3    H127170   2.786   0.324   2.709  0.1151 -0.5257  0.4507
 9071TIP3    H227171   2.751   0.255   2.579  0.3094  1.0598 -0.4586
 9072TIP3   OH227172   0.115   7.550   3.497 -0.0999  0.0084 -0.1571
 9072TIP3    H127173   0.071   7.573   3.579  1.6272  2.0822  0.2330
 9072TIP3    H227174   0.149   7.462   3.512  0.4990  0.5083  1.4889
 9073TIP3   OH227175   2.609   7.977   5.875 -0.2351 -0.2480  0.1824
 9073TIP3    H127176   2.705   7.981   5.872 -0.0733 -3.2501  0.4111
 9073TIP3    H227177   2.582   7.976   5.783 -0.0112 -0.2049  0.1164
 9074TIP3   OH227178   1.882   5.901   5.294 -0.4001 -0.0927 -0.8437
 9074TIP3    H127179   1.823   5.830   5.271 -1.1685  0.8614 -1.8562
 9074TIP3    H227180   1.922   5.873   5.376 -1.6232 -1.1275 -0.5860
 9075TIP3   OH227181   0.256   7.330   2.614  0.0823 -0.1598 -0.5289
 9075TIP3    H127182   0.284   7.341   2.705 -1.3443 -0.2375 -0.0798
 9075TIP3    H227183   0.234   7.419   2.584 -0.9137 -0.3338 -0.3190
 9076TIP3   OH227184   4.650   0.577   2.411  0.5467  0.1629 -0.0061
 9076TIP3    H127185   4.658   0.482   2.418 -2.8860 -0.3074 -1.4222
 9076TIP3    H227186   4.598   0.603   2.487  0.3393  0.7275 -0.3351
 9077TIP3   OH227187   4.664   0.706   3.439  0.1232 -0.2614  0.0747
 9077TIP3    H127188   4.604   0.779   3.445  0.5317  0.2232 -1.5367
 9077TIP3    H227189   4.661   0.665   3.526 -1.3456  0.6649  0.4759
 9078TIP3   OH227190   3.220   7.466   2.051  0.0264 -0.2351  0.2478
 9078TIP3    H127191   3.137   7.500   2.018 -0.1747 -1.3230 -0.3787
 9078TIP3    H227192   3.275   7.457   1.973  0.3005 -0.7129  0.4928
 9079TIP3   OH227193   3.097   0.051   4.904  0.5021  0.7520  0.0024
 9079TIP3    H127194   3.048   0.002   4.838 -0.1682 -0.8745  1.6732
 9079TIP3    H227195   3.063   0.141   4.898 -2.3530 -0.2471  0.8282
 9080TIP3   OH227196   1.521   7.536   2.462  0.3081 -0.1242 -0.1411
 9080TIP3    H127197   1.431   7.519   2.437  0.4868 -1.4904  0.0770
 9080TIP3    H227198   1.545   7.461   2.517  2.3893 -1.1225 -2.2962
 9081TIP3   OH227199   3.476   0.729   5.864 -0.0209  0.0458 -0.7841
 9081TIP3    H127200   3.425   0.656   5.897  2.0638 -2.0545 -2.0537
 9081TIP3    H227201   3.547   0.739   5.927  0.0890  0.5472 -0.9826
 9082TIP3   OH227202   2.218   6.522   5.527  0.2186 -0.2753  0.0881
 9082TIP3    H127203   2.173   6.574   5.593 -0.5551 -0.8705  0.0353
 9082TIP3    H227204   2.206   6.570   5.445  2.4753  1.2615  0.6063
 9083TIP3   OH227205   4.789   2.358   4.473  0.4213  0.4800 -0.4583
 9083TIP3    H127206   4.756   2.448   4.480 -0.3954  0.3273 -1.9424
 9083TIP3    H227207   4.758   2.315   4.552  0.2999  1.3603 -0.0184
 9084TIP3   OH227208   3.147   7.030   1.023 -0.7686 -0.1703  0.3409
 9084TIP3    H127209   3.115   6.946   1.056  2.5257 -1.8364 -0.4452
 9084TIP3    H227210   3.101   7.042   0.940  0.8238 -2.7112 -0.9877
 9085TIP3   OH227211   3.096   0.464   2.697  0.4100 -0.0512 -0.1546
 9085TIP3    H127212   3.051   0.430   2.774 -0.7349 -0.1245 -0.8374
 9085TIP3    H227213   3.155   0.394   2.670  0.9719  0.0573  0.7671
 9086TIP3   OH227214   7.268   7.314   4.815  0.5378  0.6420 -0.3256
 9086TIP3    H127215   7.347   7.298   4.866  1.5474  0.0590 -2.0224
 9086TIP3    H227216   7.198   7.318   4.880  1.9329  1.0523  1.1950
 9087TIP3   OH227217   2.612   5.997   3.576 -0.2244 -0.1109 -0.0640
 9087TIP3    H127218   2.615   6.085   3.539 -0.6722 -0.5780 -1.2425
 9087TIP3    H227219   2.617   5.939   3.499 -0.0307 -1.1066  0.6915
 9088TIP3   OH227220   5.055   0.452   6.363 -0.0207  0.3085 -0.0463
 9088TIP3    H127221   5.022   0.470   6.274  2.7814 -0.1910 -1.2475
 9088TIP3    H227222   5.067   0.357   6.365  1.8347  0.5269  0.1273
 9089TIP3   OH227223   2.846   0.586   3.112  0.4983 -0.4546 -0.0468
 9089TIP3    H127224   2.822   0.648   3.043  0.7594 -0.6576 -0.3234
 9089TIP3    H227225   2.903   0.636   3.170  0.2328 -0.2668  0.0477
 9090TIP3   OH227226   1.879   7.982   4.196 -1.0812  0.6156 -0.2165
 9090TIP3    H127227   1.848   8.071   4.213  0.0981  0.8775  0.5978
 9090TIP3    H227228   1.853   7.965   4.106 -2.0655  1.4724 -0.1071
 9091TIP3   OH227229   3.825   1.757   0.783 -0.3228  0.1783  0.1953
 9091TIP3    H127230   3.750   1.781   0.838 -2.0515 -1.4252 -1.3905
 9091TIP3    H227231   3.845   1.838   0.736 -0.7402  0.7547  0.9727
 9092TIP3   OH227232   1.539   7.814   2.012  0.3285 -0.1713 -0.2392
 9092TIP3    H127233   1.635   7.811   2.016  0.2548 -0.3216  1.6180
 9092TIP3    H227234   1.519   7.901   1.977  1.1440 -0.0958 -0.5293
 9093TIP3   OH227235   8.390   7.729   4.112  0.2006  0.1242 -0.1157
 9093TIP3    H127236   8.377   7.729   4.207 -0.6915 -1.0491 -0.2167
 9093TIP3    H227237   8.461   7.666   4.097  0.7072  0.7118 -0.1816
 9094TIP3   OH227238   4.705   0.674   4.496 -0.4085  0.2239  0.5098
 9094TIP3    H127239   4.696   0.629   4.412  1.9187 -1.6932  1.2279
 9094TIP3    H227240   4.629   0.732   4.500 -1.9046 -1.4719 -1.7905
 9095TIP3   OH227241   0.665   6.863   6.215 -0.2109 -0.2315  0.2503
 9095TIP3    H127242   0.659   6.932   6.280 -3.4259  1.1251 -1.3573
 9095TIP3    H227243   0.582   6.815   6.224  0.2673 -1.3969 -1.3187
 9096TIP3   OH227244   7.580   7.879   3.928 -0.2663  0.2105 -0.1497
 9096TIP3    H127245   7.652   7.942   3.928  0.7381 -0.9312 -0.1309
 9096TIP3    H227246   7.504   7.930   3.955  0.5349  1.4197 -0.1396
 9097TIP3   OH227247   1.065   6.497   2.750  0.0741 -0.6885  0.2930
 9097TIP3    H127248   1.004   6.472   2.680 -0.0473 -1.3578  0.6303
 9097TIP3    H227249   1.026   6.461   2.829  0.6492 -0.6771  0.5824
 9098TIP3   OH227250   8.013   5.313   5.555  0.2066  0.1356  0.0793
 9098TIP3    H127251   8.020   5.401   5.519 -0.7655  0.3249  0.3385
 9098TIP3    H227252   8.085   5.307   5.618  0.0518  0.8711  0.3284
 9099TIP3   OH227253   2.844   0.034   1.862  0.5355 -0.6357  0.6209
 9099TIP3    H127254   2.916   0.096   1.877 -1.4204  1.6256  0.9793
 9099TIP3    H227255   2.860   0.000   1.773  1.3599  0.7954  0.2043
 9100TIP3   OH227256   2.852   6.647   5.345 -0.1107 -0.4949  0.0476
 9100TIP3    H127257   2.884   6.695   5.269  1.4719 -0.8996  0.4557
 9100TIP3    H227258   2.894   6.689   5.420 -0.9396 -0.6927  0.6323
 9101TIP3   OH227259   5.203   0.221   2.762 -0.0145 -0.1781  0.0241
 9101TIP3    H127260   5.296   0.216   2.786  0.0809  0.7709 -0.1157
 9101TIP3    H227261   5.201   0.192   2.670 -0.1821 -2.4088  0.7108
 9102TIP3   OH227262   5.422   0.381   2.626 -0.0123 -0.2689  0.4994
 9102TIP3    H127263   5.359   0.310   2.611  0.1092 -0.1915 -0.3884
 9102TIP3    H227264   5.427   0.427   2.542  1.5176 -0.5115  0.4387
 9103TIP3   OH227265   7.287   7.025   4.977 -0.7062  0.1890  0.0570
 9103TIP3    H127266   7.251   6.936   4.975 -0.1879 -0.0255  0.1168
 9103TIP3    H227267   7.287   7.052   4.885 -1.1383  0.2388  0.0717
 9104TIP3   OH227268   4.364   3.136   0.247 -0.1467 -0.0279  0.0399
 9104TIP3    H127269   4.457   3.153   0.231 -0.2752  0.6796  0.0167
 9104TIP3    H227270   4.361   3.047   0.282  0.7052  0.5817  1.6734
 9105TIP3   OH227271   8.350   5.439   4.942  0.2123 -0.1139 -0.0901
 9105TIP3    H127272   8.388   5.527   4.938 -0.4372  0.4176  3.4106
 9105TIP3    H227273   8.423   5.380   4.929  1.2037  0.9567  0.4954
 9106TIP3   OH227274   4.398   1.677   4.296 -0.3122 -0.6838 -0.2828
 9106TIP3    H127275   4.410   1.729   4.375  0.0691  1.4097 -1.6868
 9106TIP3    H227276   4.409   1.739   4.224 -0.6666 -2.5433 -1.9918
 9107TIP3   OH227277   0.641   5.366   5.206  0.6631  0.1496  0.3162
 9107TIP3    H127278   0.549   5.361   5.232  0.2756  0.5986 -0.9296
 9107TIP3    H227279   0.656   5.460   5.190  1.2320  0.0294  0.1532
 9108TIP3   OH227280   4.714   0.316   2.898  0.1827  0.7190 -0.9180
 9108TIP3    H127281   4.800   0.309   2.857 -0.5717 -1.3849 -2.1985
 9108TIP3    H227282   4.721   0.393   2.955  3.1502  0.0728 -0.3653
 9109TIP3   OH227283   3.983   0.007   6.057  0.2409  0.0375  0.1200
 9109TIP3    H127284   4.048   0.010   5.987  0.6885  0.7606  0.5598
 9109TIP3    H227285   4.023   0.056   6.129 -0.8793  0.6570  0.3255
 9110TIP3   OH227286   8.265   6.896   3.806 -0.5669  0.3458  0.2479
 9110TIP3    H127287   8.233   6.811   3.837  3.8187 -1.3226  0.5038
 9110TIP3    H227288   8.209   6.917   3.731 -2.8580 -1.8690  1.2669
 9111TIP3   OH227289   3.383   0.283   2.267  0.1581 -0.3379 -0.1180
 9111TIP3    H127290   3.423   0.197   2.269  0.3880 -0.2159  0.7290
 9111TIP3    H227291   3.456   0.344   2.260  0.1154 -0.1220  1.3085
 9112TIP3   OH227292   2.174   7.883   4.784 -0.6631 -0.2160  0.0572
 9112TIP3    H127293   2.083   7.906   4.803 -0.9765 -0.4113 -1.1940
 9112TIP3    H227294   2.218   7.967   4.770 -0.4860 -0.0829  1.3413
 9113TIP3   OH227295   1.957   7.476   3.346  0.0828  0.0806  0.3193
 9113TIP3    H127296   2.038   7.434   3.319  1.4994  1.7275  1.9225
 9113TIP3    H227297   1.899   7.404   3.371  1.6847 -1.0292  0.8890
 9114TIP3   OH227298   6.213   2.556   5.278  0.6049  0.0198  0.6996
 9114TIP3    H127299   6.192   2.463   5.288  3.0870 -0.3373  3.0847
 9114TIP3    H227300   6.145   2.601   5.328  0.4667 -0.6248  1.1060
 9115TIP3   OH227301   1.248   7.874   2.094  0.1689 -0.1258  0.4466
 9115TIP3    H127302   1.178   7.933   2.124  0.1146  0.2112 -0.3214
 9115TIP3    H227303   1.323   7.932   2.082 -0.2303  0.0198 -1.5217
 9116TIP3   OH227304   0.338   5.838   3.458 -0.0158 -0.0205 -0.3098
 9116TIP3    H127305   0.251   5.840   3.420  0.3709 -0.0112 -1.2023
 9116TIP3    H227306   0.331   5.893   3.537 -0.9496 -0.4939 -0.0568
 9117TIP3   OH227307   5.185   0.409   3.739 -0.2061  0.1765  0.3773
 9117TIP3    H127308   5.231   0.333   3.773 -0.4282  0.0975  0.5058
 9117TIP3    H227309   5.115   0.372   3.685 -0.8796  0.2710  1.1692
 9118TIP3   OH227310   1.004   7.491   6.266 -0.3796 -0.0180  0.1548
 9118TIP3    H127311   0.920   7.515   6.226 -0.4549 -0.8723 -0.1976
 9118TIP3    H227312   0.984   7.417   6.323  0.3538 -1.0077 -0.8655
 9119TIP3   OH227313   5.847   0.670   2.744  0.1390  0.4488  0.0400
 9119TIP3    H127314   5.858   0.583   2.706  0.0497  1.0195 -1.2946
 9119TIP3    H227315   5.827   0.653   2.836  0.5042 -0.9285 -0.1268
 9120TIP3   OH227316   2.963   7.753   5.636  0.1561 -0.2258 -0.4606
 9120TIP3    H127317   2.995   7.668   5.605  2.2002  1.1477 -2.2914
 9120TIP3    H227318   3.039   7.792   5.680 -1.6024 -0.5171  3.0263
 9121TIP3   OH227319   5.014   0.146   4.895 -0.1681 -0.3489  0.3616
 9121TIP3    H127320   4.956   0.217   4.869  0.8879  0.1722 -0.6263
 9121TIP3    H227321   4.987   0.124   4.984 -0.4980  1.2993  0.6823
 9122TIP3   OH227322   1.510   6.335   5.454  0.7005 -0.0379 -0.0810
 9122TIP3    H127323   1.530   6.405   5.392 -2.0711  1.9902  1.2165
 9122TIP3    H227324   1.556   6.359   5.534  0.4166 -0.1352  0.1136
 9123TIP3   OH227325   1.648   7.410   3.813 -0.1206  0.0146  0.2353
 9123TIP3    H127326   1.563   7.369   3.829 -1.4079  2.7393  0.7659
 9123TIP3    H227327   1.684   7.427   3.900 -0.1361  1.0189  0.0524
 9124TIP3   OH227328   8.456   2.906   0.826 -0.3859 -0.0687  0.0334
 9124TIP3    H127329   8.418   2.955   0.899  2.6450 -1.5049  2.6839
 9124TIP3    H227330   8.482   2.973   0.762  1.0427  1.5649  2.2779
 9125TIP3   OH227331   1.177   6.998   4.629  0.0810 -0.6458  0.2467
 9125TIP3    H127332   1.119   7.015   4.704  0.0154  1.4835 -0.2663
 9125TIP3    H227333   1.264   6.992   4.668 -0.2941 -2.5811  0.8579
 9126TIP3   OH227334   2.785   6.414   5.505 -0.0784  0.5964 -0.2798
 9126TIP3    H127335   2.724   6.424   5.578  0.6474  2.9828  0.0473
 9126TIP3    H227336   2.777   6.496   5.456  3.3262  1.2854  0.1718
 9127TIP3   OH227337   2.817   7.392   4.024  0.2411  0.2229 -0.0808
 9127TIP3    H127338   2.738   7.352   3.988  0.2342 -0.3541  0.5478
 9127TIP3    H227339   2.825   7.476   3.980 -0.6095  0.1890 -0.2987
 9128TIP3   OH227340   1.482   7.273   3.506  0.1022 -0.5791  0.3251
 9128TIP3    H127341   1.398   7.240   3.473  0.3687  1.4666 -2.5467
 9128TIP3    H227342   1.463   7.298   3.596 -2.5518  0.3814 -0.4559
 9129TIP3   OH227343   4.577   1.483   4.283  0.0369 -0.3048 -0.1090
 9129TIP3    H127344   4.533   1.426   4.347 -1.0246  0.1327 -0.4459
 9129TIP3    H227345   4.526   1.563   4.283  1.0105  0.3204 -0.3032
 9130TIP3   OH227346   6.270   1.242   4.946  0.2296  0.2678  0.4058
 9130TIP3    H127347   6.204   1.239   4.877  0.1029  0.7450  0.5052
 9130TIP3    H227348   6.221   1.265   5.025  0.5359  0.7895  0.4480
 9131TIP3   OH227349   1.615   7.029   3.549 -0.8552 -0.2578  0.4954
 9131TIP3    H127350   1.578   7.113   3.520  2.4124  0.5066 -1.6645
 9131TIP3    H227351   1.571   6.964   3.494 -1.9480  0.1964  0.8025
 9132TIP3   OH227352   6.509   1.501   1.258  0.0348  0.6498  0.0417
 9132TIP3    H127353   6.431   1.444   1.259  1.3579 -1.1964  0.3145
 9132TIP3    H227354   6.490   1.569   1.322 -2.0065  1.1041 -1.0030
 9133TIP3   OH227355   5.764   0.194   3.721 -0.4911 -0.1877 -0.1417
 9133TIP3    H127356   5.716   0.143   3.656  0.7015 -0.9489 -0.4375
 9133TIP3    H227357   5.845   0.219   3.677 -0.0322 -0.0186  0.7812
 9134TIP3   OH227358   6.624   1.761   3.090 -0.0150  0.6305 -0.2038
 9134TIP3    H127359   6.591   1.688   3.142 -0.2705  1.2549  0.5075
 9134TIP3    H227360   6.706   1.786   3.131  0.8609 -0.2653 -1.3793
 9135TIP3   OH227361   5.148   2.308   1.420 -0.3218 -0.0898  0.5679
 9135TIP3    H127362   5.201   2.234   1.390 -0.4850 -0.2031  0.5555
 9135TIP3    H227363   5.164   2.312   1.514 -2.5815 -2.0263  1.1110
 9136TIP3   OH227364   0.945   7.244   4.569  0.1806 -0.2325  0.2648
 9136TIP3    H127365   0.935   7.336   4.592 -1.5818 -0.1448 -0.6822
 9136TIP3    H227366   0.900   7.197   4.639 -1.8566 -0.1610 -0.9349
 9137TIP3   OH227367   2.060   7.373   6.655 -0.2392 -0.3205  0.1306
 9137TIP3    H127368   2.004   7.301   6.683 -1.4468  0.9279  1.0450
 9137TIP3    H227369   1.998   7.443   6.631  0.8713 -0.0125 -1.9421
 9138TIP3   OH227370   3.480   5.910   4.463  0.0157  0.3102 -0.1350
 9138TIP3    H127371   3.572   5.920   4.488  0.1694 -2.1497  0.3825
 9138TIP3    H227372   3.448   5.837   4.517 -1.1167 -1.5684 -3.2391
 9139TIP3   OH227373   3.926   7.434   5.251 -0.2086 -0.1886  0.5402
 9139TIP3    H127374   3.947   7.341   5.250 -1.6469 -0.5473  2.1128
 9139TIP3    H227375   3.983   7.470   5.319 -0.5546 -0.1457  0.8078
 9140TIP3   OH227376   1.098   5.855   1.665  0.1288  0.2016 -0.3058
 9140TIP3    H127377   1.010   5.846   1.703  0.3272 -0.9463 -0.1041
 9140TIP3    H227378   1.082   5.859   1.571 -0.2531  1.5956 -0.1980
 9141TIP3   OH227379   2.028   7.255   2.713  0.5788  0.6914 -0.0501
 9141TIP3    H127380   1.972   7.326   2.684 -0.5203  0.1853  0.7888
 9141TIP3    H227381   2.041   7.200   2.636  0.3334  1.0822 -0.3663
 9142TIP3   OH227382   1.623   6.079   3.969 -0.0217 -0.2326  0.0749
 9142TIP3    H127383   1.652   6.170   3.975  1.6498 -0.3913 -3.9210
 9142TIP3    H227384   1.535   6.084   3.933  0.2028 -0.1755 -0.4769
 9143TIP3   OH227385   1.933   7.970   4.879  0.1401 -0.0499 -0.1011
 9143TIP3    H127386   1.891   8.032   4.939  1.6016  0.7700  0.1047
 9143TIP3    H227387   1.886   7.981   4.796 -1.2111 -0.4445  0.5971
 9144TIP3   OH227388   0.947   7.217   6.363 -0.2657 -0.2186  0.3770
 9144TIP3    H127389   1.016   7.191   6.301 -0.4853  0.6836 -0.2644
 9144TIP3    H227390   0.948   7.150   6.431  1.7069  0.1503  0.7322
 9145TIP3   OH227391   4.882   0.582   3.625  0.2178  0.9456  0.4146
 9145TIP3    H127392   4.913   0.596   3.535 -0.9058  0.6830 -0.0306
 9145TIP3    H227393   4.946   0.524   3.664  0.0864  0.0970 -0.6119
 9146TIP3   OH227394   2.580   7.871   1.651  0.1489  0.2114 -0.0514
 9146TIP3    H127395   2.498   7.825   1.635  0.6182 -1.2400  1.4850
 9146TIP3    H227396   2.641   7.802   1.676  0.5013  1.7768  3.7466
 9147TIP3   OH227397   5.137   0.340   5.241  0.1931 -0.2266 -0.1485
 9147TIP3    H127398   5.184   0.423   5.241  0.1783 -0.2145  0.1520
 9147TIP3    H227399   5.200   0.277   5.277  0.3286 -0.4186 -0.7254
 9148TIP3   OH227400   2.449   0.675   4.808 -0.2765 -0.1457  0.2275
 9148TIP3    H127401   2.422   0.737   4.875 -0.9551 -1.4996  1.2251
 9148TIP3    H227402   2.367   0.643   4.769 -0.0045 -1.4829  0.7145
 9149TIP3   OH227403   6.127   0.143   5.635  0.0338 -0.1959 -0.4422
 9149TIP3    H127404   6.176   0.115   5.712 -1.5444 -0.2479  0.5647
 9149TIP3    H227405   6.164   0.229   5.613 -1.9806  1.5826  2.6808
 9150TIP3   OH227406   4.681   0.857   3.187 -0.1246  0.0231  0.2563
 9150TIP3    H127407   4.731   0.863   3.269  0.2973 -0.6146  0.0575
 9150TIP3    H227408   4.590   0.855   3.215 -0.0469  1.2046  0.6249
 9151TIP3   OH227409   3.126   0.916   4.052 -0.1287 -0.0423  0.5094
 9151TIP3    H127410   3.220   0.934   4.056 -0.3273  0.8016  1.4983
 9151TIP3    H227411   3.106   0.915   3.959  0.7841  0.1905  0.3074
 9152TIP3   OH227412   0.738   5.667   5.206  0.2402  0.0240 -0.2868
 9152TIP3    H127413   0.702   5.725   5.138  0.2890 -0.0211 -0.3516
 9152TIP3    H227414   0.694   5.695   5.286  0.4523  0.3180 -0.2723
 9153TIP3   OH227415   5.143   1.424   3.156  0.1781  0.9241  0.6584
 9153TIP3    H127416   5.080   1.489   3.187  0.0641  0.5110  1.3051
 9153TIP3    H227417   5.117   1.343   3.200  0.5354  0.5170  0.1333
 9154TIP3   OH227418   3.478   0.183   2.790 -0.4566  0.2350  0.0795
 9154TIP3    H127419   3.464   0.162   2.882 -1.5714  1.2065  0.1509
 9154TIP3    H227420   3.494   0.278   2.789 -0.2720  0.1998 -0.7073
 9155TIP3   OH227421   1.777   7.952   1.948 -0.1539 -0.7181  0.1496
 9155TIP3    H127422   1.805   7.933   1.858 -0.7637 -0.0753 -0.1803
 9155TIP3    H227423   1.848   8.004   1.984  0.8241 -2.2989  0.5654
 9156TIP3   OH227424   3.863   7.294   1.186 -0.0204 -0.4150  0.0313
 9156TIP3    H127425   3.945   7.341   1.199 -0.4138  0.5143 -0.7479
 9156TIP3    H227426   3.826   7.285   1.274  0.8779 -0.7719  0.3698
 9157TIP3   OH227427   0.978   6.755   3.998  0.1072 -0.3825  0.3205
 9157TIP3    H127428   0.998   6.780   3.908  0.4527 -2.7766 -0.2853
 9157TIP3    H227429   1.059   6.774   4.046 -0.4843  2.0831  0.4144
 9158TIP3   OH227430   2.666   7.747   1.075  0.2828 -0.0965  0.3448
 9158TIP3    H127431   2.644   7.782   0.988  1.7861 -0.8658 -0.3667
 9158TIP3    H227432   2.593   7.689   1.096  0.4274 -0.7380 -0.8873
 9159TIP3   OH227433   7.867   6.725   2.270 -0.1174  0.1652 -0.9410
 9159TIP3    H127434   7.808   6.655   2.295 -1.0135  1.0462 -0.5655
 9159TIP3    H227435   7.903   6.757   2.352  0.4599  0.0119 -1.1267
 9160TIP3   OH227436   2.752   7.360   3.358 -0.0640 -0.0376 -0.0542
 9160TIP3    H127437   2.682   7.377   3.421  0.6083  0.8775  0.4588
 9160TIP3    H227438   2.752   7.437   3.301  0.4682 -0.0759 -0.1074
 9161TIP3   OH227439   3.259   0.539   3.133  0.6444 -0.3560 -0.0314
 9161TIP3    H127440   3.306   0.459   3.157 -0.5256 -1.5217 -1.4925
 9161TIP3    H227441   3.321   0.610   3.151  2.0512 -1.6663  0.3959
 9162TIP3   OH227442   8.204   6.801   4.139  0.1338  0.2827  0.2941
 9162TIP3    H127443   8.152   6.881   4.149  2.2314  1.8571 -0.8716
 9162TIP3    H227444   8.170   6.760   4.060  0.3869  1.0907 -0.2393
 9163TIP3   OH227445   7.541   7.240   3.199 -0.6973  0.0881 -0.0770
 9163TIP3    H127446   7.489   7.194   3.133 -0.9619 -1.4505  1.1770
 9163TIP3    H227447   7.489   7.317   3.220 -0.3538  0.8853 -2.0506
 9164TIP3   OH227448   4.205   0.575   5.436 -0.1216 -0.4128 -0.6647
 9164TIP3    H127449   4.151   0.646   5.470 -0.6203 -0.4774 -1.3098
 9164TIP3    H227450   4.174   0.562   5.346 -1.0756 -2.4969 -0.0572
 9165TIP3   OH227451   0.930   7.346   4.300  0.2028  0.1638  0.0673
 9165TIP3    H127452   0.949   7.302   4.383 -1.1488 -1.7935 -0.6181
 9165TIP3    H227453   0.895   7.431   4.324  0.8697  0.0451  1.4815
 9166TIP3   OH227454   4.757   0.301   4.496 -0.4360 -0.4291  0.1404
 9166TIP3    H127455   4.708   0.345   4.565  1.5701 -0.2520  1.4671
 9166TIP3    H227456   4.774   0.369   4.431 -2.1320 -0.5499 -0.4759
 9167TIP3   OH227457   6.423   0.297   0.504 -0.5029 -0.2641  0.0944
 9167TIP3    H127458   6.446   0.347   0.426  0.7387 -0.4971  0.2897
 9167TIP3    H227459   6.371   0.357   0.557 -1.4480 -0.1436 -0.9625
 9168TIP3   OH227460   6.694   0.218   1.976 -0.0742  0.2339  0.2619
 9168TIP3    H127461   6.605   0.250   1.964 -0.3240  0.1927  1.9117
 9168TIP3    H227462   6.690   0.127   1.949 -0.6667  0.0825  0.8421
 9169TIP3   OH227463   4.187   6.141   4.198  0.3632  0.3002 -0.7564
 9169TIP3    H127464   4.101   6.101   4.189  0.6023 -0.4617  0.2904
 9169TIP3    H227465   4.238   6.079   4.251  1.0634  1.4714 -0.0223
 9170TIP3   OH227466   6.587   0.239   6.210 -0.0891 -0.7509 -0.5248
 9170TIP3    H127467   6.600   0.172   6.144  1.0498 -1.0744  0.0055
 9170TIP3    H227468   6.648   0.216   6.280  1.1644  1.4517 -0.8217
 9171TIP3   OH227469   2.073   6.628   0.302 -0.0378  0.0040  0.4599
 9171TIP3    H127470   2.024   6.644   0.382  1.4399 -2.2414  1.8687
 9171TIP3    H227471   2.147   6.573   0.329  0.9256 -0.1554 -2.2989
 9172TIP3   OH227472   4.219   6.740   4.215 -0.1141  0.0466 -0.2506
 9172TIP3    H127473   4.311   6.720   4.196  0.1713  0.2012  0.9119
 9172TIP3    H227474   4.215   6.836   4.211  0.0447  0.1098  0.7985
 9173TIP3   OH227475   5.060   7.295   3.095  0.1074  0.1152  0.1855
 9173TIP3    H127476   5.035   7.223   3.036 -0.3361  0.2473  0.2045
 9173TIP3    H227477   5.027   7.268   3.181 -0.3712  0.4938  0.1273
 9174TIP3   OH227478   5.311   7.280   3.023  0.4251  0.1571 -0.5094
 9174TIP3    H127479   5.348   7.367   3.019  2.1218 -0.5329 -0.2569
 9174TIP3    H227480   5.227   7.291   3.068 -0.0909  1.8579 -1.8595
 9175TIP3   OH227481   8.185   0.083   3.356  0.4046  0.1027  0.2846
 9175TIP3    H127482   8.192   0.117   3.446  0.4709  1.1436 -0.1012
 9175TIP3    H227483   8.249   0.012   3.353  2.5992  1.9995  0.2048
 9176TIP3   OH227484   4.749   6.322   3.543 -0.9275 -0.0932  0.3282
 9176TIP3    H127485   4.695   6.401   3.552 -1.2536  0.0352 -2.2939
 9176TIP3    H227486   4.757   6.288   3.632 -0.7198  2.9229  1.5099
 9177TIP3   OH227487   5.088   7.976   3.465  0.0488 -0.2729 -0.3869
 9177TIP3    H127488   5.135   8.042   3.414  1.0613 -0.4098  0.3527
 9177TIP3    H227489   5.148   7.901   3.467  0.2086 -0.1175  1.3509
 9178TIP3   OH227490   3.574   7.300   4.418 -0.2761  0.1034 -0.3884
 9178TIP3    H127491   3.646   7.361   4.400  1.5890 -2.5836 -2.5400
 9178TIP3    H227492   3.496   7.355   4.425  1.3299  2.7185 -2.2348
 9179TIP3   OH227493   4.329   0.414   4.319  0.7235 -0.8088 -0.2753
 9179TIP3    H127494   4.249   0.467   4.323  1.6721  0.4805  1.7563
 9179TIP3    H227495   4.298   0.328   4.289 -1.2496  0.0049 -0.6631
 9180TIP3   OH227496   4.853   7.345   1.333  0.0994 -0.6022 -0.2262
 9180TIP3    H127497   4.781   7.387   1.380 -1.2296 -2.4584 -0.5702
 9180TIP3    H227498   4.881   7.274   1.390  0.2607 -1.2021 -1.0427
 9181TIP3   OH227499   5.633   0.632   4.275  0.4401 -0.1832  0.2514
 9181TIP3    H127500   5.618   0.704   4.213  2.4661  0.7586  0.8234
 9181TIP3    H227501   5.651   0.556   4.220 -2.5560 -0.5109 -0.3831
 9182TIP3   OH227502   4.698   6.883   2.555  0.1206 -0.0850  0.0365
 9182TIP3    H127503   4.722   6.949   2.620  0.0090 -0.1486  0.1403
 9182TIP3    H227504   4.612   6.910   2.523  0.2565  0.0523 -0.2216
 9183TIP3   OH227505   0.769   4.159   0.149  0.0991 -0.5154  0.0411
 9183TIP3    H127506   0.802   4.178   0.062 -2.1573 -0.1794 -0.7792
 9183TIP3    H227507   0.836   4.104   0.189  1.4813 -0.0827 -1.6371
 9184TIP3   OH227508   3.591   7.861   3.434  0.5966  0.6288  0.1634
 9184TIP3    H127509   3.608   7.948   3.471  0.7234  0.0710  1.4267
 9184TIP3    H227510   3.672   7.839   3.387 -0.3502  2.2734 -2.3713
 9185TIP3   OH227511   2.090   7.943   4.388 -0.0785 -0.0756  0.5411
 9185TIP3    H127512   2.036   7.954   4.309 -0.1877  2.1175  0.8940
 9185TIP3    H227513   2.041   7.987   4.457  1.1413  0.0497  1.3391
 9186TIP3   OH227514   4.985   7.969   3.716 -0.0594  0.0775 -0.2618
 9186TIP3    H127515   5.033   7.979   3.634 -0.1444  0.6272 -0.2447
 9186TIP3    H227516   5.051   7.983   3.784 -0.3266  1.2450 -0.2383
 9187TIP3   OH227517   4.859   1.396   5.442  0.2164 -0.1046 -0.2297
 9187TIP3    H127518   4.903   1.479   5.427 -0.7634  0.4468 -0.1024
 9187TIP3    H227519   4.905   1.334   5.386 -0.2400  0.9074 -1.7596
 9188TIP3   OH227520   4.502   6.561   5.301 -0.0534 -0.0659  0.3775
 9188TIP3    H127521   4.546   6.547   5.217 -0.5875 -0.6199  0.1832
 9188TIP3    H227522   4.501   6.656   5.312 -0.2359  0.0273 -0.3895
 9189TIP3   OH227523   1.869   7.133   1.473  0.8972 -0.2421 -0.5436
 9189TIP3    H127524   1.936   7.105   1.412  1.3355 -0.8161  0.1906
 9189TIP3    H227525   1.912   7.132   1.559  0.3144  0.6129 -0.2290
 9190TIP3   OH227526   4.316   6.830   1.710  0.0571 -0.4420 -0.0454
 9190TIP3    H127527   4.379   6.758   1.711  0.5950  0.0199 -0.2363
 9190TIP3    H227528   4.235   6.792   1.742  0.7338 -0.7670  1.3160
 9191TIP3   OH227529   4.637   7.426   3.046  0.3312 -0.3632  0.3756
 9191TIP3    H127530   4.675   7.378   3.119  1.5065 -0.5148 -0.3237
 9191TIP3    H227531   4.544   7.435   3.069  0.4186 -1.5686  1.2495
 9192TIP3   OH227532   5.431   0.132   1.570 -0.0496 -0.1207  0.5227
 9192TIP3    H127533   5.486   0.056   1.590  2.0410  1.1353 -0.3471
 9192TIP3    H227534   5.358   0.097   1.519  0.7946 -1.5549  0.2960
 9193TIP3   OH227535   4.243   7.213   3.347  0.1567 -0.6397 -0.0052
 9193TIP3    H127536   4.179   7.147   3.374  0.7222 -1.5608 -0.8728
 9193TIP3    H227537   4.190   7.292   3.332 -0.5433 -0.9232  0.9103
 9194TIP3   OH227538   8.475   2.454   3.757  0.3819  1.1574 -0.6662
 9194TIP3    H127539   8.563   2.460   3.720 -0.4291  0.9492 -2.7291
 9194TIP3    H227540   8.425   2.520   3.709 -0.9490  0.1530 -0.6941
 9195TIP3   OH227541   1.707   7.347   1.382  0.2229 -0.1154  0.4452
 9195TIP3    H127542   1.758   7.268   1.400 -3.2641 -2.2994  1.2726
 9195TIP3    H227543   1.749   7.415   1.433  0.3231 -2.5785  3.7995
 9196TIP3   OH227544   6.641   0.489   2.159 -0.1021 -0.0057 -0.1168
 9196TIP3    H127545   6.683   0.556   2.214  1.6805 -1.1614 -0.0441
 9196TIP3    H227546   6.713   0.433   2.131 -1.4363 -1.2265 -1.1231
 9197TIP3   OH227547   1.156   7.298   0.870  0.2145 -0.3111 -0.1905
 9197TIP3    H127548   1.181   7.212   0.835  0.1702 -0.6471  0.5897
 9197TIP3    H227549   1.079   7.281   0.923  0.4164  0.1555  0.2547
 9198TIP3   OH227550   5.688   0.493   4.494 -0.1724  0.2809 -0.4721
 9198TIP3    H127551   5.718   0.567   4.547  0.7156  0.1947 -0.8433
 9198TIP3    H227552   5.659   0.532   4.412 -0.4064  0.2876 -0.3877
 9199TIP3   OH227553   7.321   0.074   3.729 -0.3379  0.1590 -0.1315
 9199TIP3    H127554   7.331   0.140   3.661 -3.3259 -0.8643 -1.6492
 9199TIP3    H227555   7.332  -0.010   3.683  0.3697 -0.4930  1.1927
 9200TIP3   OH227556   4.798   7.662   1.945 -0.5450 -0.1231  0.3957
 9200TIP3    H127557   4.731   7.689   1.882 -0.8353  0.8253  1.0958
 9200TIP3    H227558   4.750   7.644   2.026  0.1868  2.0389  1.3424
 9201TIP3   OH227559   5.688   1.086   1.419 -0.0761 -0.0742 -0.7721
 9201TIP3    H127560   5.687   1.168   1.469 -0.8482 -0.8517  0.5255
 9201TIP3    H227561   5.751   1.102   1.349 -0.6042  1.8101 -0.8526
 9202TIP3   OH227562   3.593   7.701   4.449 -0.1579 -0.3275  0.0513
 9202TIP3    H127563   3.611   7.699   4.543  1.7116  0.1650 -0.2597
 9202TIP3    H227564   3.579   7.609   4.425  2.2054 -0.7942  0.3293
 9203TIP3   OH227565   4.861   5.353   3.474  0.0263  0.3979  0.1616
 9203TIP3    H127566   4.948   5.338   3.435  0.3434  0.5458  0.8008
 9203TIP3    H227567   4.874   5.335   3.567 -0.5155  0.8926  0.3333
 9204TIP3   OH227568   4.741   7.347   3.289 -0.1702  0.7056 -0.5278
 9204TIP3    H127569   4.661   7.344   3.341 -0.3947 -2.8816 -0.9500
 9204TIP3    H227570   4.812   7.330   3.352  0.1119  2.0139 -0.4738
 9205TIP3   OH227571   5.894   1.426   3.010  0.3548  0.1100 -0.6981
 9205TIP3    H127572   5.852   1.350   3.051  0.6129 -1.1097 -2.6261
 9205TIP3    H227573   5.830   1.456   2.946  0.4881  1.2037 -0.3278
 9206TIP3   OH227574   4.855   7.978   4.088 -0.2331 -0.2997 -0.5060
 9206TIP3    H127575   4.795   7.968   4.015  1.0712 -2.7979 -1.3007
 9206TIP3    H227576   4.910   8.052   4.065 -0.2539 -0.6729 -1.7699
 9207TIP3   OH227577   7.169   0.014   5.397  0.5836  0.0877  1.0196
 9207TIP3    H127578   7.194  -0.068   5.439  0.3173 -0.0083  0.9955
 9207TIP3    H227579   7.208   0.082   5.452  2.6365 -0.0942 -0.1866
 9208TIP3   OH227580   4.884   6.525   3.893 -0.7193  0.2817  0.1197
 9208TIP3    H127581   4.877   6.614   3.858 -2.7409 -0.3976 -1.2766
 9208TIP3    H227582   4.794   6.498   3.911 -0.0157 -0.9377  1.9779
 9209TIP3   OH227583   2.433   6.408   2.767 -0.3071  0.4448 -0.5013
 9209TIP3    H127584   2.446   6.347   2.695 -0.5035  0.2542 -0.3762
 9209TIP3    H227585   2.518   6.450   2.778  0.6055 -1.7664  1.1912
 9210TIP3   OH227586   2.786   7.599   6.128  0.1054  0.0769 -0.3179
 9210TIP3    H127587   2.755   7.636   6.045 -2.8247  0.1390  0.7627
 9210TIP3    H227588   2.806   7.508   6.106 -1.7387 -0.2228 -0.8727
 9211TIP3   OH227589   7.085   0.160   4.786 -0.7502  0.1054  0.1784
 9211TIP3    H127590   7.102   0.083   4.731  1.9092  0.1470  0.8807
 9211TIP3    H227591   7.039   0.126   4.862  0.1561 -0.7733  0.3436
 9212TIP3   OH227592   3.680   5.853   1.886 -0.5069 -0.0725 -0.4383
 9212TIP3    H127593   3.594   5.812   1.896 -0.2308 -1.1127 -2.1321
 9212TIP3    H227594   3.663   5.933   1.837 -0.6273  0.1968  0.0413
 9213TIP3   OH227595   5.807   1.890   3.610 -0.2168  0.7190 -0.3508
 9213TIP3    H127596   5.746   1.839   3.557  0.2661  0.2188 -0.4365
 9213TIP3    H227597   5.806   1.845   3.695 -0.8694  1.4223  0.0176
 9214TIP3   OH227598   3.024   6.200   2.020 -0.1913 -0.6508  0.1648
 9214TIP3    H127599   3.082   6.125   2.011 -0.3334 -0.7572  0.1422
 9214TIP3    H227600   3.039   6.232   2.109  0.5365 -0.1554 -0.1289
 9215TIP3   OH227601   3.685   6.253   3.791 -0.0014  0.4821 -0.1798
 9215TIP3    H127602   3.757   6.218   3.843  0.1549 -0.0378 -0.7446
 9215TIP3    H227603   3.614   6.189   3.800 -0.0876  0.5525 -0.3488
 9216TIP3   OH227604   5.705   7.505   3.120  0.4106 -0.5093  0.3590
 9216TIP3    H127605   5.792   7.464   3.123  0.4162 -0.4354  1.9916
 9216TIP3    H227606   5.666   7.482   3.204 -0.9661 -0.1242 -0.1713
 9217TIP3   OH227607   4.831   7.155   2.485 -0.6514  0.0709  0.2201
 9217TIP3    H127608   4.785   7.133   2.566 -1.7571  1.9499  0.1400
 9217TIP3    H227609   4.874   7.074   2.458 -1.0610 -0.8085  2.1788
 9218TIP3   OH227610   5.462   0.369   5.262 -0.0763  0.0392 -0.2427
 9218TIP3    H127611   5.481   0.276   5.255  0.0745  0.0386  0.1701
 9218TIP3    H227612   5.474   0.402   5.172  0.6570 -0.1933 -0.2397
 9219TIP3   OH227613   2.823   7.391   4.303 -0.4421 -0.1105  0.3557
 9219TIP3    H127614   2.797   7.406   4.212 -0.9795  1.5905  0.7686
 9219TIP3    H227615   2.757   7.331   4.338  0.3940 -1.6677 -0.6726
 9220TIP3   OH227616   5.389   1.037   3.257  0.0773  0.0846 -0.2462
 9220TIP3    H127617   5.416   1.129   3.250  3.2678 -0.7174  0.8247
 9220TIP3    H227618   5.298   1.037   3.226  0.6671  3.2309 -2.2851
 9221TIP3   OH227619   1.178   7.899   1.635 -0.0750  0.0743  0.2144
 9221TIP3    H127620   1.143   7.970   1.580  0.6307  0.8095  0.7000
 9221TIP3    H227621   1.273   7.911   1.632  0.0695 -1.1595 -0.0998
 9222TIP3   OH227622   4.298   5.663   4.202 -0.4068  0.2280  0.1543
 9222TIP3    H127623   4.265   5.598   4.264 -1.6319 -0.2783 -1.0135
 9222TIP3    H227624   4.238   5.659   4.128  3.5592 -2.3456 -3.1181
 9223TIP3   OH227625   7.952   3.131   6.761 -0.1588  0.0174 -0.7660
 9223TIP3    H127626   8.022   3.095   6.706  0.6851  0.4050  0.0456
 9223TIP3    H227627   7.901   3.055   6.787  0.3790 -0.3582 -0.7895
 9224TIP3   OH227628   4.824   0.082   2.471  0.2277  0.1765  0.2375
 9224TIP3    H127629   4.782   0.011   2.520  1.7544 -0.2230  1.0051
 9224TIP3    H227630   4.776   0.161   2.498 -0.7766 -0.4140  0.2063
 9225TIP3   OH227631   5.230   1.853   1.290 -0.2790 -0.2715 -0.7067
 9225TIP3    H127632   5.201   1.845   1.200 -0.6958  0.2828 -0.6232
 9225TIP3    H227633   5.151   1.871   1.340 -0.0005 -0.2156 -0.2802
 9226TIP3   OH227634   5.294   6.652   4.075  1.0159 -0.3921  0.5212
 9226TIP3    H127635   5.359   6.686   4.013  1.4325 -0.6166  0.8378
 9226TIP3    H227636   5.256   6.730   4.115  0.9302 -0.2542  0.1732
 9227TIP3   OH227637   8.163   3.425   6.360  0.3040 -0.0386  0.1061
 9227TIP3    H127638   8.185   3.518   6.360 -1.2267  0.3225 -0.2870
 9227TIP3    H227639   8.116   3.412   6.442  1.2831 -0.6605  0.5822
 9228TIP3   OH227640   6.127   5.514   4.495 -0.1413 -0.0419 -0.0773
 9228TIP3    H127641   6.146   5.480   4.582 -0.2418  0.8217  0.2893
 9228TIP3    H227642   6.048   5.468   4.468 -1.3709  1.2696  1.2075
 9229TIP3   OH227643   6.142   1.533   4.200  0.1263 -0.0845 -0.2133
 9229TIP3    H127644   6.092   1.535   4.282 -1.5391 -0.8468 -1.1788
 9229TIP3    H227645   6.198   1.456   4.209  0.5421  0.2979  0.5381
 9230TIP3   OH227646   3.250   6.931   2.508  0.4284  0.5428 -0.5690
 9230TIP3    H127647   3.303   6.916   2.587  0.4628 -0.0393 -0.7066
 9230TIP3    H227648   3.240   7.027   2.505 -1.1740  0.4618  1.1733
 9231TIP3   OH227649   4.794   7.809   3.463  0.6938  0.0199  0.3667
 9231TIP3    H127650   4.850   7.731   3.470  0.6724  0.0030  0.3509
 9231TIP3    H227651   4.852   7.882   3.482  0.1304 -0.1866  3.2402
 9232TIP3   OH227652   4.118   6.510   3.793 -0.1806 -0.2664 -0.0390
 9232TIP3    H127653   4.096   6.564   3.869  1.8736  0.0167  0.3878
 9232TIP3    H227654   4.145   6.426   3.830 -0.5794 -0.6118 -0.5351
 9233TIP3   OH227655   8.200   0.556   4.336 -0.0907  0.4582 -0.4690
 9233TIP3    H127656   8.235   0.501   4.266  2.1064  0.3338  0.7014
 9233TIP3    H227657   8.274   0.610   4.364 -0.4046 -0.8235  3.0510
 9234TIP3   OH227658   2.805   6.891   2.571 -0.8177  0.2670  0.0211
 9234TIP3    H127659   2.893   6.927   2.579 -0.1423 -1.4428  0.7546
 9234TIP3    H227660   2.803   6.850   2.485 -1.1833  1.0424 -0.3389
 9235TIP3   OH227661   5.779   1.354   3.789 -0.3262 -0.6815  0.0024
 9235TIP3    H127662   5.819   1.384   3.708 -2.3702 -0.7687 -1.0626
 9235TIP3    H227663   5.853   1.328   3.844  1.0554 -1.2127 -2.0579
 9236TIP3   OH227664   3.554   6.858   1.556  0.2765 -0.0638 -0.7080
 9236TIP3    H127665   3.468   6.893   1.533  0.9638  1.4114 -1.1073
 9236TIP3    H227666   3.586   6.816   1.476  1.3233  2.3031 -1.5727
 9237TIP3   OH227667   2.912   7.620   3.386  0.4899  0.0850 -0.4621
 9237TIP3    H127668   2.869   7.592   3.305  1.9863 -2.6740 -0.3286
 9237TIP3    H227669   2.866   7.701   3.410 -2.5801 -1.1311 -1.9711
 9238TIP3   OH227670   4.883   1.408   3.998  0.0722  0.4255  0.0216
 9238TIP3    H127671   4.955   1.378   3.943  0.3140  0.7979  0.1291
 9238TIP3    H227672   4.857   1.330   4.047  0.0436  0.1624 -0.4093
 9239TIP3   OH227673   5.821   6.636   4.716 -0.2529 -0.7780  0.3307
 9239TIP3    H127674   5.844   6.696   4.786  1.7470 -0.3787 -0.6414
 9239TIP3    H227675   5.779   6.691   4.649  1.2853 -0.5064 -0.4192
 9240TIP3   OH227676   6.743   2.111   2.852  0.0606 -0.4096 -0.3937
 9240TIP3    H127677   6.833   2.086   2.829  0.0056  0.8082 -1.9687
 9240TIP3    H227678   6.718   2.175   2.786 -1.1533  1.0114  1.4108
 9241TIP3   OH227679   3.639   7.384   2.958 -0.0576 -0.7151  0.9045
 9241TIP3    H127680   3.570   7.323   2.982 -0.0716 -0.7410  0.8020
 9241TIP3    H227681   3.636   7.452   3.025 -2.1323  0.8304 -0.6746
 9242TIP3   OH227682   2.395   1.527   4.231  0.1384  0.1172 -0.1113
 9242TIP3    H127683   2.356   1.452   4.186  0.9462 -0.3699 -0.0048
 9242TIP3    H227684   2.465   1.557   4.173  1.2432 -0.5731  0.8355
 9243TIP3   OH227685   5.420   6.807   3.525 -0.5526 -0.1119 -0.0568
 9243TIP3    H127686   5.432   6.804   3.431  0.8533  1.5594  0.0441
 9243TIP3    H227687   5.325   6.808   3.537 -0.7336  0.7182 -1.4898
 9244TIP3   OH227688   2.360   6.981   2.377  0.2801  0.2314 -0.1823
 9244TIP3    H127689   2.415   7.012   2.449 -0.3405  1.6907 -0.3175
 9244TIP3    H227690   2.423   6.957   2.309  0.7848  1.3947 -0.1452
 9245TIP3   OH227691   4.577   0.895   5.499  0.5037 -0.3736  0.7115
 9245TIP3    H127692   4.518   0.856   5.434  1.4108 -0.9662  0.2465
 9245TIP3    H227693   4.632   0.954   5.448  2.3600 -2.1060  0.6504
 9246TIP3   OH227694   7.300   2.682   3.655 -0.2744 -0.3461 -0.4378
 9246TIP3    H127695   7.320   2.645   3.569  1.3257 -0.2846 -0.1189
 9246TIP3    H227696   7.217   2.728   3.644  0.0808 -0.0795 -2.0371
 9247TIP3   OH227697   6.096   0.317   1.357 -0.1891 -0.3095 -0.1382
 9247TIP3    H127698   6.060   0.405   1.349 -1.1091 -0.6633  0.1054
 9247TIP3    H227699   6.146   0.304   1.276 -1.2977 -0.1450 -0.8508
 9248TIP3   OH227700   2.353   6.365   4.278 -0.3598  0.0941 -0.0362
 9248TIP3    H127701   2.277   6.422   4.267 -0.8174 -0.5427 -0.2076
 9248TIP3    H227702   2.333   6.312   4.355  1.1589  1.8701  1.6224
 9249TIP3   OH227703   2.135   7.859   1.768  0.0808  0.3390 -0.0169
 9249TIP3    H127704   2.120   7.869   1.862  1.2057 -1.3077  0.3665
 9249TIP3    H227705   2.157   7.946   1.737 -1.6924  1.1749  0.9780
 9250TIP3   OH227706   2.505   7.179   1.586  0.6589 -0.0474  0.0337
 9250TIP3    H127707   2.473   7.251   1.532  0.7641  0.0516  0.1032
 9250TIP3    H227708   2.449   7.105   1.563 -0.2258  0.3560  0.8301
 9251TIP3   OH227709   5.423   1.327   3.258  0.5228 -0.0803 -0.3400
 9251TIP3    H127710   5.359   1.361   3.195  0.9030  0.6456 -0.3439
 9251TIP3    H227711   5.411   1.382   3.336 -0.7314 -1.7035  0.6520
 9252TIP3   OH227712   7.823   0.706   2.692  0.0110  0.0742 -0.4972
 9252TIP3    H127713   7.835   0.784   2.746 -0.5236 -0.9657  1.1421
 9252TIP3    H227714   7.910   0.687   2.658  0.0633  1.6376 -1.2739
 9253TIP3   OH227715   2.420   7.088   3.673  0.1404 -0.5142 -0.2482
 9253TIP3    H127716   2.500   7.136   3.654  0.0374 -0.0046  0.5556
 9253TIP3    H227717   2.380   7.137   3.745 -1.3930 -0.1840 -1.2984
 9254TIP3   OH227718   3.406   7.302   3.051  0.1052 -0.0692 -0.6078
 9254TIP3    H127719   3.466   7.269   3.119 -1.4940 -2.8691 -0.4639
 9254TIP3    H227720   3.341   7.352   3.100  1.5569  1.9212 -0.6341
 9255TIP3   OH227721   4.787   6.779   3.824 -0.2377  0.1825 -0.0856
 9255TIP3    H127722   4.749   6.779   3.737  1.7648 -0.2630 -0.9985
 9255TIP3    H227723   4.742   6.849   3.871 -1.5926  0.1692 -1.3523
 9256TIP3   OH227724   6.729   0.446   3.620  0.1858 -0.3516  0.5953
 9256TIP3    H127725   6.750   0.367   3.570  2.5070  0.4698  0.2034
 9256TIP3    H227726   6.665   0.492   3.566  1.5193 -0.2329 -0.9266
 9257TIP3   OH227727   4.636   0.350   1.988 -0.0182  0.5853 -0.3423
 9257TIP3    H127728   4.638   0.380   1.897 -1.9008 -0.2725 -0.6829
 9257TIP3    H227729   4.643   0.431   2.040  2.6477  0.9580 -1.2044
 9258TIP3   OH227730   3.903   6.831   3.477 -0.2832 -0.2703  0.4628
 9258TIP3    H127731   3.891   6.759   3.415  1.1208 -0.0143 -0.1460
 9258TIP3    H227732   3.913   6.789   3.562 -0.4049 -0.7481  0.2402
 9259TIP3   OH227733   4.062   7.329   3.992 -0.3011  0.2349  0.2712
 9259TIP3    H127734   4.059   7.424   4.001 -0.8631  0.1256  1.3915
 9259TIP3    H227735   3.972   7.305   3.969 -0.1992 -0.0309  0.1542
 9260TIP3   OH227736   3.138   6.889   3.233 -0.9737  0.2994 -0.7943
 9260TIP3    H127737   3.129   6.974   3.190 -2.3409  0.7750  0.4294
 9260TIP3    H227738   3.049   6.856   3.242 -0.5563 -0.6634 -0.0470
 9261TIP3   OH227739   4.255   1.511   2.303 -0.4176  0.4547  0.5936
 9261TIP3    H127740   4.294   1.596   2.281 -1.4734  0.8469  0.2232
 9261TIP3    H227741   4.239   1.516   2.398 -2.5470  1.5390  0.1981
 9262TIP3   OH227742   5.209   1.537   1.181 -0.4635  0.0087 -0.0898
 9262TIP3    H127743   5.145   1.466   1.174 -1.8847  1.2531  0.1997
 9262TIP3    H227744   5.238   1.553   1.091 -1.0469 -0.1008 -0.2942
 9263TIP3   OH227745   2.826   5.816   4.498 -0.3186  0.1665  0.5543
 9263TIP3    H127746   2.919   5.794   4.487 -0.4006 -0.7334  1.5498
 9263TIP3    H227747   2.824   5.911   4.502  0.4421  0.2423 -0.5021
 9264TIP3   OH227748   6.224   0.499   1.961 -0.6191 -0.4544  0.0875
 9264TIP3    H127749   6.137   0.463   1.974 -0.7556  0.0595  0.6585
 9264TIP3    H227750   6.230   0.515   1.867 -0.3221 -2.5156 -0.2643
 9265TIP3   OH227751   7.024   1.382   5.307 -1.0013  0.0700 -0.1872
 9265TIP3    H127752   6.975   1.322   5.251  0.8029 -0.3857 -1.3063
 9265TIP3    H227753   6.983   1.467   5.294 -2.1728 -0.5040 -0.2746
 9266TIP3   OH227754   5.726   0.559   1.031  0.2709 -0.8973 -0.1513
 9266TIP3    H127755   5.646   0.565   0.979  0.3271  0.2193 -0.1219
 9266TIP3    H227756   5.705   0.495   1.099 -0.9134  0.0396  0.3888
 9267TIP3   OH227757   4.084   7.290   4.561  0.0541 -0.4038 -0.1802
 9267TIP3    H127758   4.030   7.242   4.624  0.8958 -0.5904  0.4110
 9267TIP3    H227759   4.173   7.259   4.577 -0.0638 -2.6009 -3.4582
 9268TIP3   OH227760   6.337   0.035   3.063  0.0595 -0.6764 -0.3561
 9268TIP3    H127761   6.346   0.057   2.970 -0.1086 -1.7261 -0.6367
 9268TIP3    H227762   6.294   0.111   3.102  2.6686  0.9706 -0.5680
 9269TIP3   OH227763   6.775   0.649   2.563 -0.4066  0.1346 -0.4701
 9269TIP3    H127764   6.848   0.703   2.596 -0.7147  0.6625 -0.6474
 9269TIP3    H227765   6.711   0.650   2.634  0.6023 -2.0248  0.5388
 9270TIP3   OH227766   7.568   0.260   4.095 -0.3991  0.2752  0.0447
 9270TIP3    H127767   7.657   0.228   4.076 -1.3391 -2.5409  0.1820
 9270TIP3    H227768   7.582   0.340   4.145  2.0683  0.2414 -0.5157
 9271TIP3   OH227769   3.784   7.393   1.715  0.2234  0.1910 -0.3673
 9271TIP3    H127770   3.781   7.413   1.808 -1.3487  0.9558 -0.5603
 9271TIP3    H227771   3.760   7.301   1.709  0.8331  0.0059  0.0161
 9272TIP3   OH227772   6.119   7.878   4.684  0.1700 -0.2743  0.1827
 9272TIP3    H127773   6.115   7.783   4.689  1.8738 -0.3334  0.8036
 9272TIP3    H227774   6.198   7.895   4.632 -0.7437  0.7915 -0.8944
 9273TIP3   OH227775   4.028   7.771   0.813  0.2384 -0.3442  0.2482
 9273TIP3    H127776   3.979   7.812   0.884 -0.3766  0.6332 -0.7322
 9273TIP3    H227777   4.027   7.836   0.743 -0.2489 -1.8216 -1.1201
 9274TIP3   OH227778   2.633   7.698   3.532  0.1083 -0.1950  0.5194
 9274TIP3    H127779   2.577   7.742   3.596 -0.7621 -0.6488  0.0902
 9274TIP3    H227780   2.711   7.752   3.526 -0.6867  0.9636  0.4430
 9275TIP3   OH227781   4.031   6.648   4.020  0.0995 -0.0934 -0.4808
 9275TIP3    H127782   4.050   6.681   4.108  0.3436 -1.4652 -0.0102
 9275TIP3    H227783   3.976   6.715   3.981 -0.3980  0.3189  0.8914
 9276TIP3   OH227784   5.350   7.183   4.809 -0.4816  0.1955  0.3342
 9276TIP3    H127785   5.340   7.153   4.899 -0.6690 -0.1202  0.2130
 9276TIP3    H227786   5.360   7.277   4.816 -3.6660  0.5857  0.5077
 9277TIP3   OH227787   5.453   0.844   3.436 -0.1474  0.0779  0.3034
 9277TIP3    H127788   5.445   0.911   3.369 -0.1783  1.6931  1.8814
 9277TIP3    H227789   5.368   0.841   3.478 -0.2157 -1.1315  0.1033
 9278TIP3   OH227790   2.532   7.494   2.963 -0.8363  0.0802  0.4819
 9278TIP3    H127791   2.522   7.575   3.014 -0.2733  0.3209  0.2240
 9278TIP3    H227792   2.572   7.523   2.881 -0.5935 -0.4636  0.4049
 9279TIP3   OH227793   6.529   1.177   4.555  0.8717  0.5832  0.2599
 9279TIP3    H127794   6.616   1.136   4.562  0.1160 -0.7404  2.0489
 9279TIP3    H227795   6.468   1.104   4.555 -0.2670  1.5092 -1.1764
 9280TIP3   OH227796   5.103   6.438   3.159 -0.5727 -0.7484 -0.2348
 9280TIP3    H127797   5.181   6.476   3.199 -0.5971 -1.2423  0.2874
 9280TIP3    H227798   5.137   6.388   3.085 -0.6844  1.5431 -1.8667
 9281TIP3   OH227799   0.660   1.040   3.619  0.2916  0.6915 -0.6072
 9281TIP3    H127800   0.689   1.114   3.672  0.0770  0.1891  0.2210
 9281TIP3    H227801   0.565   1.048   3.617  0.3419  1.1493 -1.5780
 9282TIP3   OH227802   3.815   6.952   5.217 -0.1830 -0.2329  0.3111
 9282TIP3    H127803   3.826   6.878   5.157 -1.2553 -0.0370 -0.1492
 9282TIP3    H227804   3.832   6.916   5.304 -1.2486 -1.1641  0.1435
 9283TIP3   OH227805   6.166   0.412   5.823  0.6390 -0.1373  0.0691
 9283TIP3    H127806   6.115   0.476   5.773  1.0440 -0.4874 -0.7941
 9283TIP3    H227807   6.103   0.344   5.847  0.5381 -0.1802 -0.3249
 9284TIP3   OH227808   3.823   7.755   2.887 -0.0022  0.4648 -0.4424
 9284TIP3    H127809   3.742   7.709   2.867 -0.8083  1.6160  0.1239
 9284TIP3    H227810   3.795   7.835   2.930  1.5095  0.0300  1.4385
 9285TIP3   OH227811   2.923   4.931   3.883 -0.1505 -0.1583  0.4023
 9285TIP3    H127812   2.829   4.937   3.869 -0.0721 -0.0619 -0.1257
 9285TIP3    H227813   2.954   4.878   3.809  0.1542 -0.5321  0.7969
 9286TIP3   OH227814   2.161   6.105   5.241  0.2704 -0.3495  0.2812
 9286TIP3    H127815   2.234   6.153   5.279 -0.5912  0.8508  0.4748
 9286TIP3    H227816   2.194   6.017   5.226  1.5971  0.0540  0.8150
 9287TIP3   OH227817   4.548   1.749   4.019 -0.4335 -0.1162  1.0934
 9287TIP3    H127818   4.592   1.804   4.083  1.1115  1.7523 -1.4767
 9287TIP3    H227819   4.618   1.693   3.984 -0.6176  0.9064 -0.9921
 9288TIP3   OH227820   5.409   7.986   3.006  0.2464  0.1043  0.1354
 9288TIP3    H127821   5.394   8.005   2.914  0.5275  1.3162  0.3305
 9288TIP3    H227822   5.486   7.929   3.007  1.8673  2.2153 -0.2355
 9289TIP3   OH227823   5.537   5.921   0.382  0.1677  0.0522  0.1181
 9289TIP3    H127824   5.520   5.881   0.468 -0.1431  1.4357  0.7069
 9289TIP3    H227825   5.605   5.866   0.344  0.6746 -0.2754  1.4582
 9290TIP3   OH227826   2.405   6.245   2.364  0.1891  0.0942  0.1575
 9290TIP3    H127827   2.442   6.259   2.277  2.2120  1.1444  1.1679
 9290TIP3    H227828   2.344   6.318   2.376 -0.2053 -0.1309 -0.4040
 9291TIP3   OH227829   7.169   0.317   0.546  0.2139  0.2572 -0.0659
 9291TIP3    H127830   7.094   0.258   0.553  0.8346 -0.4876  0.2763
 9291TIP3    H227831   7.243   0.260   0.528  0.4249  1.1522 -2.1445
 9292TIP3   OH227832   4.780   1.344   2.763 -0.1394  0.4086  0.0045
 9292TIP3    H127833   4.731   1.381   2.689 -0.7383  1.9980  1.1653
 9292TIP3    H227834   4.822   1.266   2.727 -1.0241  0.7395 -1.8217
 9293TIP3   OH227835   5.904   0.071   2.977  0.4961  0.4129  0.2449
 9293TIP3    H127836   5.918   0.152   2.928 -1.5116  0.6849  0.1042
 9293TIP3    H227837   5.954   0.083   3.058  1.2974  1.2230 -0.3524
 9294TIP3   OH227838   8.449   0.571   3.612  0.0890 -0.1282 -0.4091
 9294TIP3    H127839   8.464   0.614   3.696 -1.0047  0.9108 -0.7359
 9294TIP3    H227840   8.456   0.478   3.632  0.0446  0.1147  0.7962
 9295TIP3   OH227841   3.168   7.456   3.564  0.2032  0.1946 -0.0974
 9295TIP3    H127842   3.142   7.547   3.582  1.5567  0.1984  1.9915
 9295TIP3    H227843   3.249   7.464   3.515  1.5501  0.1433  2.0494
 9296TIP3   OH227844   6.408   7.878   4.173  0.3627 -0.5083 -0.1016
 9296TIP3    H127845   6.376   7.801   4.221  1.5581 -0.0374  1.5146
 9296TIP3    H227846   6.330   7.916   4.135 -0.7248 -0.6791  1.8563
 9297TIP3   OH227847   1.337   1.879   3.551  0.4261 -0.2148 -0.3147
 9297TIP3    H127848   1.296   1.959   3.518  0.0990 -0.2947 -0.0932
 9297TIP3    H227849   1.430   1.891   3.532  0.4927  0.6077  0.5179
 9298TIP3   OH227850   1.729   7.952   2.729 -0.3661 -0.2666 -0.1620
 9298TIP3    H127851   1.812   7.963   2.774 -1.1375 -0.3375  1.3127
 9298TIP3    H227852   1.716   7.857   2.725 -0.0660 -0.2776 -0.9856
 9299TIP3   OH227853   4.145   6.691   1.478  0.2769  0.4420 -0.3290
 9299TIP3    H127854   4.077   6.632   1.448 -0.3110  0.8965  0.1073
 9299TIP3    H227855   4.175   6.736   1.399  1.6001 -1.3261 -0.8572
 9300TIP3   OH227856   4.172   6.925   3.133  0.5679  0.1196 -0.1123
 9300TIP3    H127857   4.212   6.883   3.209  2.6769 -2.3252 -2.4835
 9300TIP3    H227858   4.212   7.012   3.129 -2.2227  1.7351  3.5585
 9301TIP3   OH227859   5.018   7.265   2.266  0.2793 -0.0101 -0.7192
 9301TIP3    H127860   5.002   7.294   2.356  1.4679 -0.5805 -0.3203
 9301TIP3    H227861   5.083   7.327   2.232 -0.0675  0.1215 -1.1473
 9302TIP3   OH227862   5.126   7.411   4.496  0.2407 -0.1063 -0.1374
 9302TIP3    H127863   5.131   7.318   4.521  0.8531 -0.3034 -0.9802
 9302TIP3    H227864   5.214   7.433   4.466 -0.2820  0.3368 -1.3696
 9303TIP3   OH227865   3.787   7.237   1.452  0.4438 -0.8043 -0.2384
 9303TIP3    H127866   3.768   7.203   1.540  2.2560  0.3386  0.6350
 9303TIP3    H227867   3.709   7.287   1.428 -0.5544 -2.1335  0.2053
 9304TIP3   OH227868   3.019   7.359   3.004 -0.5930 -0.3283  0.2848
 9304TIP3    H127869   3.042   7.266   3.005  0.2069 -0.1336  0.1874
 9304TIP3    H227870   3.088   7.401   2.953 -0.2909  0.4850  1.3366
 9305TIP3   OH227871   7.248   0.336   4.268 -0.2942 -0.0208  0.8627
 9305TIP3    H127872   7.303   0.403   4.228 -0.0405  0.5365  2.1086
 9305TIP3    H227873   7.188   0.310   4.199  0.4674  0.5417 -0.0268
 9306TIP3   OH227874   4.927   0.335   3.119 -0.4457 -0.6812  0.1755
 9306TIP3    H127875   4.940   0.278   3.043 -0.3156 -1.4885  0.8006
 9306TIP3    H227876   5.016   0.361   3.144 -0.5916  1.0571 -1.0575
 9307TIP3   OH227877   5.394   7.472   5.165  0.1330  0.1839 -0.4952
 9307TIP3    H127878   5.403   7.503   5.075  1.0605  2.1308  0.2388
 9307TIP3    H227879   5.483   7.448   5.191 -0.0368  0.1957  0.1002
 9308TIP3   OH227880   2.827   5.899   1.115  0.4804  0.1970 -0.5159
 9308TIP3    H127881   2.905   5.945   1.147  1.6621 -0.0083 -3.0007
 9308TIP3    H227882   2.842   5.889   1.021 -2.7239  0.4804 -1.1062
 9309TIP3   OH227883   2.802   7.878   3.402  0.3407 -0.4964 -0.0121
 9309TIP3    H127884   2.880   7.927   3.426 -0.2771  0.3083  0.4009
 9309TIP3    H227885   2.737   7.945   3.380  0.0168 -1.1755 -1.1518
 9310TIP3   OH227886   2.421   6.527   5.744  0.0035 -0.4089 -0.1346
 9310TIP3    H127887   2.375   6.503   5.663 -1.4337  1.7605 -0.0224
 9310TIP3    H227888   2.484   6.594   5.716  1.2604 -1.4637  0.1455
 9311TIP3   OH227889   7.334   0.092   4.222 -0.4397  0.9412 -0.2805
 9311TIP3    H127890   7.262   0.139   4.262 -1.2917 -0.1234 -0.5393
 9311TIP3    H227891   7.402   0.158   4.209 -0.6135  1.5565  1.7760
 9312TIP3   OH227892   1.931   7.072   4.574  0.2777  0.3126  0.5492
 9312TIP3    H127893   1.839   7.047   4.576  0.2949  0.2490  0.5349
 9312TIP3    H227894   1.959   7.051   4.485  0.5583 -0.5481  0.8446
 9313TIP3   OH227895   5.194   7.772   2.883 -0.0529 -0.3301 -0.2849
 9313TIP3    H127896   5.162   7.801   2.969  0.8187 -0.7469  0.1797
 9313TIP3    H227897   5.238   7.849   2.846 -0.4166 -0.1552 -0.3522
 9314TIP3   OH227898   2.570   6.900   2.198 -0.8782 -0.0410 -0.0226
 9314TIP3    H127899   2.598   6.988   2.222 -0.3402 -0.5054  1.1067
 9314TIP3    H227900   2.615   6.843   2.261 -0.4688 -1.1888 -1.3350
 9315TIP3   OH227901   5.237   0.787   1.685 -0.4348 -0.2144 -0.9395
 9315TIP3    H127902   5.212   0.802   1.594 -2.5805 -1.1650 -0.5235
 9315TIP3    H227903   5.170   0.729   1.720  2.1329 -2.5528  0.3308
 9316TIP3   OH227904   6.519   0.455   3.126 -0.4024 -0.5437  0.1378
 9316TIP3    H127905   6.568   0.433   3.047 -0.2789 -0.1429  0.1005
 9316TIP3    H227906   6.527   0.377   3.182  1.9274  0.2309  0.9452
 9317TIP3   OH227907   2.726   7.543   2.751 -0.0417 -0.2793  0.1688
 9317TIP3    H127908   2.650   7.581   2.707 -0.3343 -0.7387  0.2705
 9317TIP3    H227909   2.796   7.608   2.739 -1.0954  1.3228  2.1919
 9318TIP3   OH227910   4.955   6.203   2.835  0.3078  0.2114 -0.0975
 9318TIP3    H127911   5.030   6.240   2.882  0.1961 -0.3772  0.5611
 9318TIP3    H227912   4.979   6.111   2.821 -0.0296  0.1757 -0.4352
 9319TIP3   OH227913   3.133   6.235   2.281 -0.3215 -0.3284 -0.6173
 9319TIP3    H127914   3.209   6.197   2.326  0.3368 -1.0384 -2.3096
 9319TIP3    H227915   3.161   6.324   2.257 -0.4812 -0.1436 -0.1341
 9320TIP3   OH227916   4.344   0.731   5.039  0.3833 -0.4202 -0.5826
 9320TIP3    H127917   4.267   0.717   4.984  0.5551 -0.1377 -0.9028
 9320TIP3    H227918   4.398   0.653   5.027  0.8309  0.0288 -1.5044
 9321TIP3   OH227919   3.568   6.482   3.912 -0.2604  0.4648  0.0848
 9321TIP3    H127920   3.610   6.416   3.857 -0.2628  0.5771 -0.0502
 9321TIP3    H227921   3.596   6.459   4.001  0.7999  1.0648 -0.0837
 9322TIP3   OH227922   2.288   7.237   3.900  0.4396 -0.0302  0.2050
 9322TIP3    H127923   2.334   7.212   3.981  0.2306 -0.5841  0.1518
 9322TIP3    H227924   2.195   7.232   3.923  0.3303 -2.0081 -0.6021
 9323TIP3   OH227925   3.929   7.868   5.133 -0.2273  0.1375  0.5488
 9323TIP3    H127926   3.864   7.909   5.189 -0.7061 -0.1357  0.1954
 9323TIP3    H227927   4.008   7.864   5.187 -0.6402  0.0104  1.1523
 9324TIP3   OH227928   4.249   0.155   4.237  0.0360 -0.1037  0.5665
 9324TIP3    H127929   4.312   0.187   4.172  0.3445 -0.7962  0.5143
 9324TIP3    H227930   4.262   0.060   4.238  0.0284 -0.0985  1.6367
 9325TIP3   OH227931   7.252   7.587   5.751  0.5611 -0.1574  0.5577
 9325TIP3    H127932   7.166   7.629   5.759 -0.5182 -1.9532 -1.2458
 9325TIP3    H227933   7.276   7.599   5.659  1.5859 -0.9409  0.7156
 9326TIP3   OH227934   5.615   7.310   3.307  0.6163 -0.1598 -0.2015
 9326TIP3    H127935   5.667   7.243   3.352  0.7721 -0.1725 -0.3995
 9326TIP3    H227936   5.532   7.267   3.288  0.4014 -0.0268  0.4368
 9327TIP3   OH227937   4.681   7.945   2.948  0.0258  0.3721  0.8700
 9327TIP3    H127938   4.645   7.974   2.864 -0.5470  2.2437  1.7465
 9327TIP3    H227939   4.675   7.849   2.944 -0.3853  0.4557 -1.0435
 9328TIP3   OH227940   4.699   7.579   2.179  0.3455 -0.2589 -0.5680
 9328TIP3    H127941   4.638   7.510   2.152  0.8035 -0.1805 -1.8241
 9328TIP3    H227942   4.740   7.545   2.258 -1.7933 -0.0394  0.6854
 9329TIP3   OH227943   7.604   1.320   5.422  0.1140 -0.1228  0.2599
 9329TIP3    H127944   7.653   1.254   5.471 -0.4663 -0.1465  0.8200
 9329TIP3    H227945   7.519   1.323   5.465 -0.7017 -0.7481 -1.2870
 9330TIP3   OH227946   5.373   7.173   3.326  0.8776  0.6133 -0.0915
 9330TIP3    H127947   5.357   7.079   3.318 -0.7120  1.0509 -2.4155
 9330TIP3    H227948   5.345   7.194   3.415  2.2425 -1.2634  0.8363
 9331TIP3   OH227949   4.794   7.408   1.066 -0.3937  0.3581 -0.3387
 9331TIP3    H127950   4.789   7.381   1.158 -0.4716 -0.6738 -0.6400
 9331TIP3    H227951   4.768   7.330   1.017 -1.0984  1.1345 -1.2109
 9332TIP3   OH227952   7.699   0.024   2.680  0.5677 -0.1824 -0.0946
 9332TIP3    H127953   7.604   0.019   2.695  0.4127  0.8345 -0.6923
 9332TIP3    H227954   7.733   0.073   2.754  0.2026  2.1586 -1.4224
 9333TIP3   OH227955   6.836   7.565   3.484 -0.3419  0.1563  0.2021
 9333TIP3    H127956   6.793   7.639   3.442  1.3044  0.3860 -1.1152
 9333TIP3    H227957   6.781   7.490   3.464 -1.4321  0.8290  0.6197
 9334TIP3   OH227958   5.996   7.159   4.873  0.5203 -0.1761 -0.4840
 9334TIP3    H127959   5.915   7.179   4.920  1.4131  0.6264  0.7298
 9334TIP3    H227960   6.057   7.228   4.898  1.2199 -0.0974 -2.3366
 9335TIP3   OH227961   4.444   7.440   1.618 -0.1039  0.0913 -0.3342
 9335TIP3    H127962   4.454   7.513   1.680  1.4055  0.5933 -1.1642
 9335TIP3    H227963   4.452   7.362   1.672  2.5640  0.5075 -0.0661
 9336TIP3   OH227964   8.304   0.128   3.955  0.0417 -0.2253 -0.2285
 9336TIP3    H127965   8.378   0.125   3.895  0.6292  0.6698  0.4391
 9336TIP3    H227966   8.343   0.144   4.041 -0.9561  0.8649  0.0393
 9337TIP3   OH227967   6.335   0.379   2.836 -0.4082 -0.0550 -0.2722
 9337TIP3    H127968   6.324   0.473   2.844  0.3501 -0.0619  0.9774
 9337TIP3    H227969   6.430   0.367   2.826 -0.5414 -0.6595 -0.8960
 9338TIP3   OH227970   4.594   7.610   3.326  0.1265 -0.5411 -0.2645
 9338TIP3    H127971   4.647   7.689   3.312  0.4458 -0.9608 -1.4684
 9338TIP3    H227972   4.616   7.582   3.414  0.5944  0.2841 -0.1122
 9339TIP3   OH227973   5.772   7.154   3.451  0.6042 -0.4664  0.1496
 9339TIP3    H127974   5.837   7.171   3.519  0.1553 -1.8545  0.9427
 9339TIP3    H227975   5.779   7.060   3.434  0.1780 -0.2666 -1.1789
 9340TIP3   OH227976   5.711   5.335   3.298 -0.7211 -0.2497  0.5007
 9340TIP3    H127977   5.773   5.360   3.367 -0.9648  0.3349  0.5119
 9340TIP3    H227978   5.742   5.250   3.267  0.8949  0.6667 -0.4418
 9341TIP3   OH227979   5.432   7.341   2.052  0.3479  0.9889 -0.2910
 9341TIP3    H127980   5.433   7.390   1.970  1.5431 -0.0295 -0.9045
 9341TIP3    H227981   5.482   7.262   2.033 -3.6919 -1.7785 -0.0993
 9342TIP3   OH227982   7.792   0.621   5.188 -0.5128  0.2193 -0.1839
 9342TIP3    H127983   7.839   0.558   5.243  0.8920  1.0208 -0.4541
 9342TIP3    H227984   7.707   0.580   5.174  0.1235 -1.3101  0.2314
 9343TIP3   OH227985   7.987   0.199   2.000  0.1074 -0.0790 -0.3370
 9343TIP3    H127986   8.050   0.244   2.057  0.0914 -1.9112  1.2022
 9343TIP3    H227987   7.929   0.153   2.061 -2.9372  1.7802 -1.7116
 9344TIP3   OH227988   4.561   7.044   3.093 -0.2681  0.4791 -0.2272
 9344TIP3    H127989   4.585   7.129   3.131  0.4830  0.4617 -0.6534
 9344TIP3    H227990   4.487   7.014   3.146 -0.3215  1.2455  0.1361
 9345TIP3   OH227991   5.064   7.569   1.988 -0.2376 -0.4505 -0.2596
 9345TIP3    H127992   4.974   7.593   1.965 -0.3025 -0.1823  0.2753
 9345TIP3    H227993   5.083   7.493   1.932 -0.6692 -0.2922 -0.6316
 9346TIP3   OH227994   3.346   7.582   1.802 -0.5233 -0.2922 -0.0479
 9346TIP3    H127995   3.414   7.575   1.736  0.7755 -0.6400  1.2965
 9346TIP3    H227996   3.382   7.641   1.868 -1.8908  0.2356  0.2370
 9347TIP3   OH227997   5.878   6.425   1.440 -0.1310  0.8955 -0.0358
 9347TIP3    H127998   5.914   6.474   1.367 -1.4619  3.4729  0.9975
 9347TIP3    H227999   5.791   6.397   1.411  0.4896 -0.6542 -0.4968
 9348TIP3   OH228000   7.176   0.162   3.105  0.2739 -0.0621 -0.3989
 9348TIP3    H128001   7.199   0.137   3.194 -0.5011  1.0903  0.1539
 9348TIP3    H228002   7.248   0.218   3.076 -0.5487  1.4234  0.3643
 9349TIP3   OH228003   6.299   7.075   2.877  0.0304  0.0243  0.2460
 9349TIP3    H128004   6.252   7.124   2.810  1.4891  1.3074  0.1353
 9349TIP3    H228005   6.389   7.106   2.870  0.4097 -0.6300  2.0740
 9350TIP3   OH228006   0.209   0.381   3.518  0.2538  0.3666  0.4612
 9350TIP3    H128007   0.186   0.423   3.601 -0.2113 -2.3434  1.7877
 9350TIP3    H228008   0.301   0.402   3.504  0.7051 -0.2266  2.3793
 9351TIP3   OH228009   0.117   1.233   4.014 -0.2611 -0.2855  0.0197
 9351TIP3    H128010   0.052   1.255   3.947 -1.3637 -0.0860  1.1417
 9351TIP3    H228011   0.066   1.199   4.087  0.6857  1.9838  1.8134
 9352TIP3   OH228012   0.997   3.853   6.621 -0.8371  0.0238 -0.5395
 9352TIP3    H128013   0.928   3.906   6.660 -0.7337  0.8541 -1.4660
 9352TIP3    H228014   0.992   3.769   6.666 -0.5061  1.0717  1.4763
 9353TIP3   OH228015   6.171   6.729   4.159  0.1342 -0.1514 -0.2518
 9353TIP3    H128016   6.249   6.775   4.129 -0.3510  0.6936 -0.2178
 9353TIP3    H228017   6.107   6.742   4.089  0.0479 -0.9209 -0.3239
 9354TIP3   OH228018   6.105   5.420   3.224  0.5369 -0.3434  0.4591
 9354TIP3    H128019   6.020   5.403   3.182  0.9458 -1.5445  0.1210
 9354TIP3    H228020   6.095   5.508   3.261 -0.9666 -0.5913  0.6903
 9355TIP3   OH228021   0.753   1.974   4.790 -0.4829  0.3740  0.1601
 9355TIP3    H128022   0.825   1.942   4.736  0.2254  0.2400  1.1597
 9355TIP3    H228023   0.795   2.038   4.848 -1.2571  0.6198  0.4469
 9356TIP3   OH228024   3.952   7.573   1.586  0.0241 -0.1115 -0.0941
 9356TIP3    H128025   3.876   7.529   1.626  0.5829  0.3917  1.5642
 9356TIP3    H228026   4.025   7.513   1.602  0.2611  0.1242 -0.2999
 9357TIP3   OH228027   7.647   1.359   1.692  0.0021  1.0806  0.2086
 9357TIP3    H128028   7.716   1.300   1.662  1.0953  1.4652  1.8938
 9357TIP3    H228029   7.686   1.446   1.689 -0.3360  1.2806  1.3544
 9358TIP3   OH228030   7.723   2.776   2.512  0.0030  0.2090 -1.0030
 9358TIP3    H128031   7.647   2.789   2.569  0.0911 -1.1181 -0.5755
 9358TIP3    H228032   7.798   2.799   2.567 -0.0076  0.2779 -1.0175
 9359TIP3   OH228033   6.171   7.623   3.659  0.5862 -0.5791 -0.4504
 9359TIP3    H128034   6.105   7.679   3.617 -0.2971 -1.0765  0.2458
 9359TIP3    H228035   6.251   7.639   3.609  0.1670  0.7313 -0.7283
 9360TIP3   OH228036   0.802   0.813   3.945 -0.4334 -0.1370  0.5297
 9360TIP3    H128037   0.869   0.881   3.935 -0.5899 -0.1228 -0.4471
 9360TIP3    H228038   0.767   0.827   4.033  1.7440 -0.9618  1.5560
 9361TIP3   OH228039   7.006   0.888   5.506  0.1369 -0.0530 -0.0606
 9361TIP3    H128040   6.910   0.883   5.505  0.2007 -1.4298 -2.5858
 9361TIP3    H228041   7.029   0.917   5.418  2.0467 -0.1175  0.4115
 9362TIP3   OH228042   3.877   5.425   5.907  0.0532 -0.1374  0.2423
 9362TIP3    H128043   3.928   5.372   5.969 -0.3687 -2.2723 -1.2103
 9362TIP3    H228044   3.926   5.420   5.825 -1.6677 -0.9845 -0.7682
 9363TIP3   OH228045   0.199   1.330   4.983  0.7626  0.0491  0.2213
 9363TIP3    H128046   0.269   1.279   5.024  2.0741  1.5895 -0.0940
 9363TIP3    H228047   0.215   1.322   4.889 -0.2571 -0.6510  0.0926
 9364TIP3   OH228048   8.129   0.427   4.617 -0.1896 -0.1855 -0.2945
 9364TIP3    H128049   8.209   0.406   4.568  0.2629  1.7183 -0.3992
 9364TIP3    H228050   8.061   0.372   4.576  0.3536  0.7606 -2.5452
 9365TIP3   OH228051   7.829   0.738   4.130  0.0229  0.3754 -0.0667
 9365TIP3    H128052   7.859   0.682   4.059 -2.0747  0.0662 -0.7423
 9365TIP3    H228053   7.785   0.678   4.191  0.8644  0.7900  0.9733
 9366TIP3   OH228054   6.535   0.456   0.950 -0.0686  0.3889 -0.0522
 9366TIP3    H128055   6.510   0.538   0.993 -1.3726 -0.6688  1.2411
 9366TIP3    H228056   6.454   0.406   0.945 -0.1746  0.7395 -4.4385
 9367TIP3   OH228057   6.218   6.075   5.222  0.0883 -0.7312  0.2483
 9367TIP3    H128058   6.156   6.078   5.149  0.5669 -0.2663 -0.1472
 9367TIP3    H228059   6.250   5.985   5.222 -0.0526 -0.7837  0.0030
 9368TIP3   OH228060   6.341   7.256   6.013 -0.0211 -0.1682 -0.2127
 9368TIP3    H128061   6.312   7.165   6.014  0.8980 -0.4603  0.8450
 9368TIP3    H228062   6.404   7.261   5.941  0.2720 -0.4801  0.0211
 9369TIP3   OH228063   2.220   4.200   6.580  0.5006 -0.1104  0.4459
 9369TIP3    H128064   2.237   4.294   6.570 -1.1446  0.0501 -1.0021
 9369TIP3    H228065   2.223   4.165   6.491 -0.8655 -1.0797  0.7652
 9370TIP3   OH228066   3.898   7.532   3.285 -0.2305 -0.2876  0.9020
 9370TIP3    H128067   3.885   7.626   3.296  1.4905  0.2441 -1.3088
 9370TIP3    H228068   3.946   7.505   3.363  1.2081  1.0857  0.5002
 9371TIP3   OH228069   0.193   0.133   3.727  0.4404  0.1191  0.2478
 9371TIP3    H128070   0.238   0.195   3.784 -0.3444  0.7927  0.1461
 9371TIP3    H228071   0.258   0.066   3.709  1.6344  1.4111 -0.4129
 9372TIP3   OH228072   5.034   5.342   0.362 -0.2980 -0.0234  0.6029
 9372TIP3    H128073   5.034   5.414   0.426 -1.3056  1.4182 -0.9755
 9372TIP3    H228074   4.958   5.289   0.386 -0.1682  0.0244  1.1276
 9373TIP3   OH228075   3.730   6.964   4.303 -0.1108  0.4729 -0.3643
 9373TIP3    H128076   3.802   7.022   4.329 -0.3798  0.6442 -0.0027
 9373TIP3    H228077   3.663   6.979   4.369 -0.3770  0.1199 -0.5606
 9374TIP3   OH228078   0.075   0.572   5.496 -0.7632  0.1262  0.5172
 9374TIP3    H128079   0.017   0.613   5.561 -0.6568 -1.6775  1.8062
 9374TIP3    H228080   0.149   0.541   5.548  0.8725  1.4628 -0.9678
 9375TIP3   OH228081   0.767   0.122   4.320  0.6288 -0.2877 -0.0996
 9375TIP3    H128082   0.694   0.172   4.283  1.4989 -0.3578 -1.9959
 9375TIP3    H228083   0.768   0.040   4.270  1.1114 -0.9023  0.8964
 9376TIP3   OH228084   6.942   0.149   5.037 -0.7987 -0.3429 -0.0158
 9376TIP3    H128085   6.958   0.125   5.129  0.0803  0.1314 -0.0397
 9376TIP3    H228086   6.932   0.244   5.039  1.2530 -0.0965 -0.6895
 9377TIP3   OH228087   4.178   6.907   1.309  0.0391  0.9096  0.8857
 9377TIP3    H128088   4.157   6.969   1.378 -0.6515  1.9964 -0.2835
 9377TIP3    H228089   4.115   6.926   1.239  1.9745  1.1691 -0.8470
 9378TIP3   OH228090   4.598   0.297   2.438  0.3976 -0.0852  0.3529
 9378TIP3    H128091   4.508   0.324   2.420  0.3505  0.5510  1.4482
 9378TIP3    H228092   4.596   0.263   2.527  1.7765  2.6795  1.5108
 9379TIP3   OH228093   1.276   7.034   2.090 -0.1042 -0.1437 -0.1771
 9379TIP3    H128094   1.287   7.105   2.027 -0.9323 -1.3755 -1.7355
 9379TIP3    H228095   1.197   6.989   2.062  0.1848 -1.4460  1.0352
 9380TIP3   OH228096   6.273   2.371   3.748  0.1254  0.3919 -0.5083
 9380TIP3    H128097   6.310   2.291   3.786  0.4460  0.5278 -0.5368
 9380TIP3    H228098   6.278   2.357   3.653 -0.3353  0.2096 -0.5082
 9381TIP3   OH228099   5.157   8.000   1.528  0.2702 -0.4052 -0.1507
 9381TIP3    H128100   5.238   8.047   1.510  0.7223 -0.0839  2.4839
 9381TIP3    H228101   5.178   7.908   1.514  1.2402 -0.3632  1.0356
 9382TIP3   OH228102   8.118   0.655   1.982 -0.0280 -0.0580  0.4773
 9382TIP3    H128103   8.194   0.664   2.040  2.0224  0.7244 -2.2499
 9382TIP3    H228104   8.092   0.744   1.962 -2.1878 -0.3138  1.9767
 9383TIP3   OH228105   3.707   6.154   1.279  0.4398  0.8064  0.7504
 9383TIP3    H128106   3.727   6.216   1.209 -0.4053  0.5247  0.2477
 9383TIP3    H228107   3.612   6.156   1.285  0.3089 -1.4809 -0.2324
 9384TIP3   OH228108   0.205   0.521   3.261 -0.0542 -0.0657 -0.1847
 9384TIP3    H128109   0.300   0.515   3.271 -0.0046 -0.3879 -0.8536
 9384TIP3    H228110   0.176   0.567   3.340  0.8845  2.1561 -1.0921
 9385TIP3   OH228111   5.451   7.294   2.635 -0.0907  0.1516  0.0051
 9385TIP3    H128112   5.397   7.355   2.686 -0.5274 -0.6781  0.5499
 9385TIP3    H228113   5.501   7.246   2.701 -0.6818 -0.9586 -0.3390
 9386TIP3   OH228114   8.176   1.891   3.203 -0.5276  0.0291  0.3366
 9386TIP3    H128115   8.130   1.926   3.127  3.2107  0.1820 -1.9881
 9386TIP3    H228116   8.136   1.805   3.218 -3.4759  1.3428  0.2565
 9387TIP3   OH228117   5.889   6.487   3.264  0.0166 -0.2657 -0.1007
 9387TIP3    H128118   5.954   6.528   3.207  0.6852 -0.5845  0.4224
 9387TIP3    H228119   5.940   6.426   3.318 -0.8378 -1.1477 -0.2801
 9388TIP3   OH228120   7.126  -0.013   1.959 -0.2542 -0.3541  0.6376
 9388TIP3    H128121   7.061  -0.061   1.908  2.2923 -0.9764 -2.1507
 9388TIP3    H228122   7.097   0.079   1.954 -1.6362 -0.7810  0.5911
 9389TIP3   OH228123   7.861   0.289   3.551  0.0239  0.2684  0.0937
 9389TIP3    H128124   7.955   0.276   3.544  0.2446 -0.1253  3.0765
 9389TIP3    H228125   7.848   0.383   3.537  1.2217  0.8211  2.3461
 9390TIP3   OH228126  -0.008   0.061   0.449 -0.3316 -0.2206 -0.5699
 9390TIP3    H128127   0.005   0.052   0.543  0.8847 -1.5456 -0.8426
 9390TIP3    H228128   0.034   0.144   0.426 -4.1590  2.1663  0.6535
 9391TIP3   OH228129   1.111   0.173   3.597  0.1884  0.5420 -0.1687
 9391TIP3    H128130   1.056   0.248   3.620  0.8003  0.0559  3.1948
 9391TIP3    H228131   1.186   0.211   3.552 -0.0148  1.8603  0.5767
 9392TIP3   OH228132   0.918   1.795   4.652  0.4211 -0.0352 -0.7719
 9392TIP3    H128133   0.971   1.718   4.674 -0.6691 -0.4299  0.4975
 9392TIP3    H228134   0.845   1.760   4.601  0.1455  0.2221 -0.5499
 9393TIP3   OH228135   7.811   2.630   3.513  0.6693  0.1290  0.0222
 9393TIP3    H128136   7.851   2.658   3.431 -0.3070  0.6658 -0.2761
 9393TIP3    H228137   7.814   2.534   3.509  1.0429  0.1571 -0.4321
 9394TIP3   OH228138   6.996   7.347   4.922 -0.4740 -0.1010 -0.2125
 9394TIP3    H128139   6.973   7.403   4.996  1.5288 -0.2469  0.5358
 9394TIP3    H228140   6.972   7.399   4.845 -2.5376  0.0651  0.4993
 9395TIP3   OH228141   3.897   7.711   2.118 -0.4233 -0.0063 -0.4560
 9395TIP3    H128142   3.978   7.729   2.165 -0.4180 -1.8361  0.2900
 9395TIP3    H228143   3.834   7.773   2.154 -0.0607 -0.4519  0.9847
 9396TIP3   OH228144   0.195   1.036   4.699  0.4011  0.1507 -0.1579
 9396TIP3    H128145   0.196   1.132   4.704  0.8188  0.1309  0.1748
 9396TIP3    H228146   0.107   1.012   4.729  0.6412  0.3827  0.7719
 9397TIP3   OH228147   5.898   7.220   2.674 -0.0495  0.1537  0.5621
 9397TIP3    H128148   5.864   7.134   2.698 -0.0181  0.0740  0.3240
 9397TIP3    H228149   5.836   7.282   2.711 -0.0550  0.0298  0.7645
 9398TIP3   OH228150   7.478   2.992   3.012  0.4741 -0.0539 -0.3660
 9398TIP3    H128151   7.464   2.910   3.060 -0.5275 -0.4200 -1.2769
 9398TIP3    H228152   7.549   3.036   3.060  1.0783 -1.4887  0.0803
 9399TIP3   OH228153   4.958   7.557   3.140 -0.1011 -0.7470 -0.3501
 9399TIP3    H128154   4.881   7.501   3.130 -0.4593 -0.0907 -1.4014
 9399TIP3    H228155   5.030   7.505   3.104 -0.4756 -0.4436 -1.5523
 9400TIP3   OH228156   8.167   0.364   1.546  0.2367  0.2234 -0.1302
 9400TIP3    H128157   8.246   0.357   1.599  0.9588  0.1294 -1.1925
 9400TIP3    H228158   8.124   0.443   1.577 -0.8764 -1.3884  2.5975
 9401TIP3   OH228159   3.420   6.105   1.302  0.2127  0.2660 -0.5313
 9401TIP3    H128160   3.426   6.119   1.207  1.0655  1.2465 -0.3393
 9401TIP3    H228161   3.350   6.040   1.312 -0.0576  0.3441 -1.8115
 9402TIP3   OH228162   0.098   0.777   3.167  0.1522  0.2977 -0.1562
 9402TIP3    H128163   0.031   0.742   3.109 -0.2995  1.6712 -0.4896
 9402TIP3    H228164   0.161   0.706   3.178 -1.0195 -0.7883 -0.3646
 9403TIP3   OH228165   2.838   1.566   2.306  0.3561 -0.3874 -0.1236
 9403TIP3    H128166   2.797   1.552   2.392  0.6764 -2.0902 -0.2247
 9403TIP3    H228167   2.925   1.527   2.315  0.3461 -0.6875 -1.2654
 9404TIP3   OH228168   1.377   2.485   1.976 -0.2390 -0.1008  0.1646
 9404TIP3    H128169   1.435   2.504   1.902 -1.1799  0.6176 -0.4027
 9404TIP3    H228170   1.412   2.405   2.014  0.6458 -0.1178 -0.6624
 9405TIP3   OH228171   1.031   1.737   3.408 -0.4391 -0.5156 -0.3084
 9405TIP3    H128172   1.085   1.729   3.329 -1.4628  0.6093 -1.1257
 9405TIP3    H228173   0.946   1.767   3.376 -1.6143 -2.4230  0.9587
 9406TIP3   OH228174   0.412   3.526   6.396  0.4081 -0.1687 -0.5367
 9406TIP3    H128175   0.428   3.552   6.305 -0.1912 -0.0354 -0.6067
 9406TIP3    H228176   0.491   3.554   6.442  0.3308  0.6042 -0.8503
 9407TIP3   OH228177   2.250   6.878   1.916 -0.8168  1.2811  0.9628
 9407TIP3    H128178   2.192   6.873   1.841  2.2154  1.7433 -1.5112
 9407TIP3    H228179   2.219   6.953   1.966 -2.8230  1.0052  0.1722
 9408TIP3   OH228180   5.303   6.738   0.605 -0.0203 -0.4001 -0.3643
 9408TIP3    H128181   5.398   6.744   0.607 -0.0627  0.3113 -0.3847
 9408TIP3    H228182   5.283   6.649   0.633  0.6919 -0.8409 -1.2332
 9409TIP3   OH228183   0.251   2.493   3.731 -0.7427  0.0089  0.1846
 9409TIP3    H128184   0.252   2.555   3.804 -1.2201  0.6943 -0.3906
 9409TIP3    H228185   0.291   2.540   3.659  0.9565 -1.1251  0.3517
 9410TIP3   OH228186   5.551   7.710   3.789  0.2478 -0.3726 -0.0727
 9410TIP3    H128187   5.561   7.759   3.872 -0.0450  1.7461 -1.2413
 9410TIP3    H228188   5.632   7.726   3.742 -1.1552  1.8474 -1.8911
 9411TIP3   OH228189   6.295   6.880   2.090  0.1219  0.8090 -0.1242
 9411TIP3    H128190   6.290   6.790   2.059 -0.3352  1.9206 -3.4951
 9411TIP3    H228191   6.387   6.894   2.113  0.6154  0.0973 -1.6237
 9412TIP3   OH228192   5.269   7.629   4.121 -0.0799 -0.6152 -0.6663
 9412TIP3    H128193   5.282   7.722   4.143 -1.4704 -0.3376 -0.9443
 9412TIP3    H228194   5.301   7.582   4.197  0.0359  0.1268 -0.2463
 9413TIP3   OH228195   4.460   5.716   1.862 -0.1432  0.1184  0.5702
 9413TIP3    H128196   4.540   5.666   1.847 -0.3652  0.1984 -0.8794
 9413TIP3    H228197   4.485   5.807   1.851 -0.5124  0.1231 -0.2155
 9414TIP3   OH228198   4.320   7.787   0.158  0.0052 -0.1428  0.2391
 9414TIP3    H128199   4.360   7.703   0.183  0.9524 -0.0869 -1.0144
 9414TIP3    H228200   4.231   7.763   0.132 -0.0649 -0.6138  0.9015
 9415TIP3   OH228201   6.664   7.692   4.381 -0.5384  0.5979  0.0873
 9415TIP3    H128202   6.613   7.660   4.307  2.2204  1.4470 -2.3218
 9415TIP3    H228203   6.734   7.628   4.392  0.1595  1.4404  0.7142
 9416TIP3   OH228204   4.369   6.093   4.612 -0.1430 -0.8875 -0.0491
 9416TIP3    H128205   4.357   6.060   4.701 -1.0300 -2.3691 -0.6980
 9416TIP3    H228206   4.449   6.050   4.581 -0.5030 -1.3306 -0.3821
 9417TIP3   OH228207   8.250   1.299   2.916  0.4395 -0.6732  0.2735
 9417TIP3    H128208   8.246   1.338   2.828  0.7588 -0.5712  0.3031
 9417TIP3    H228209   8.222   1.370   2.974  1.1626 -0.4430  0.3406
 9418TIP3   OH228210   7.435   1.911   2.262 -0.1411  0.3701 -0.1514
 9418TIP3    H128211   7.470   1.824   2.242  1.5903  0.8982  0.4691
 9418TIP3    H228212   7.470   1.967   2.194 -2.9797  0.2381 -1.7871
 9419TIP3   OH228213   3.897   6.956   1.844  0.2816 -0.6530 -0.0039
 9419TIP3    H128214   3.906   6.864   1.818  0.0418 -0.1203 -2.0147
 9419TIP3    H228215   3.987   6.988   1.848  0.2501 -0.1798 -2.3286
 9420TIP3   OH228216   7.860   1.169   1.677  0.1067 -0.1291  0.2213
 9420TIP3    H128217   7.861   1.074   1.664  3.2828 -0.0675 -0.2440
 9420TIP3    H228218   7.948   1.197   1.654 -0.9220  3.0084 -0.0436
 9421TIP3   OH228219   4.818   7.679   1.459  0.5168  0.2410  0.1672
 9421TIP3    H128220   4.785   7.754   1.410 -0.1338  0.4232  0.8595
 9421TIP3    H228221   4.763   7.606   1.430  1.2804 -0.0063 -0.6516
 9422TIP3   OH228222   8.470   2.370   4.007  0.4310 -0.5461  0.2609
 9422TIP3    H128223   8.410   2.296   4.019 -0.1955 -0.1675 -0.5284
 9422TIP3    H228224   8.461   2.394   3.915 -0.0446  1.0875  0.7165
 9423TIP3   OH228225   5.763   6.930   1.424  0.6094 -0.4976 -0.2521
 9423TIP3    H128226   5.708   6.934   1.346 -1.1679 -1.8628  0.8714
 9423TIP3    H228227   5.852   6.939   1.392 -0.0624 -1.4629 -2.4983
 9424TIP3   OH228228   0.054   1.334   5.708 -0.2890 -0.0564 -0.1029
 9424TIP3    H128229   0.031   1.359   5.618 -1.0186 -0.5146 -0.0426
 9424TIP3    H228230   0.140   1.293   5.700  1.1655  2.8616 -0.1490
 9425TIP3   OH228231   6.703   0.010   5.368 -0.1876  0.0661  0.4719
 9425TIP3    H128232   6.678   0.075   5.433  2.3512  0.7461  0.7976
 9425TIP3    H228233   6.697  -0.074   5.414 -3.5823 -0.0288  0.0142
 9426TIP3   OH228234   1.949   4.372   6.821  0.1608 -0.3589 -0.4496
 9426TIP3    H128235   1.881   4.336   6.763 -0.0174  0.0662 -0.5146
 9426TIP3    H228236   1.978   4.452   6.776  2.9457 -2.1612 -2.0037
 9427TIP3   OH228237   4.786   7.074   4.362 -0.4368 -0.2867 -0.4263
 9427TIP3    H128238   4.736   7.046   4.439  1.1579 -0.4669  0.5617
 9427TIP3    H228239   4.764   7.010   4.295 -0.5171 -1.1502  0.4026
 9428TIP3   OH228240   0.961   0.326   3.169  0.1748  0.0730  0.2811
 9428TIP3    H128241   0.968   0.255   3.104  0.3122  0.2822  0.0657
 9428TIP3    H228242   1.037   0.381   3.151 -1.6206  2.0142 -1.6602
 9429TIP3   OH228243   7.248   6.508   4.430  0.7358  0.1163 -0.4502
 9429TIP3    H128244   7.214   6.425   4.397  0.1715  0.6635 -1.2583
 9429TIP3    H228245   7.181   6.572   4.409  1.4996  0.9108 -0.5135
 9430TIP3   OH228246   4.924   7.086   1.103  0.7027  0.6140  0.3809
 9430TIP3    H128247   4.879   7.111   1.184 -0.6076  0.5510 -0.3141
 9430TIP3    H228248   4.869   7.121   1.033  0.9787 -0.6998 -0.5149
 9431TIP3   OH228249   2.440   7.536   1.670  0.0764 -0.1140  0.2336
 9431TIP3    H128250   2.495   7.481   1.727 -0.3830 -2.0590 -1.1387
 9431TIP3    H228251   2.372   7.570   1.728 -1.9879 -4.2599  0.4023
 9432TIP3   OH228252   3.166   7.573   1.087 -0.3481  0.2809 -0.0259
 9432TIP3    H128253   3.077   7.600   1.109 -0.6287  0.1183 -0.9640
 9432TIP3    H228254   3.163   7.477   1.088  0.5346  0.2326  2.8291
 9433TIP3   OH228255   4.710   7.852   1.266 -0.3197 -0.2834 -0.4417
 9433TIP3    H128256   4.769   7.883   1.197  0.5115 -0.6422  0.0894
 9433TIP3    H228257   4.625   7.888   1.244 -0.0912 -0.5375 -1.7371
 9434TIP3   OH228258   1.279   1.019   3.594 -0.4387  0.3095 -0.4334
 9434TIP3    H128259   1.314   0.948   3.540  0.5170 -0.0306  0.6146
 9434TIP3    H228260   1.186   0.997   3.605 -0.1897 -0.6858 -0.2732
 9435TIP3   OH228261   1.070   0.315   4.155  0.3629 -0.2560 -0.4532
 9435TIP3    H128262   0.982   0.347   4.174  0.2799  0.3189 -1.7746
 9435TIP3    H228263   1.058   0.223   4.132  0.2410 -0.4619  0.4232
 9436TIP3   OH228264   5.381   6.526   3.752 -0.0879  0.1736 -0.0851
 9436TIP3    H128265   5.400   6.436   3.778 -2.7548 -0.8396 -1.5008
 9436TIP3    H228266   5.360   6.521   3.659  0.2400  2.3553 -0.3131
 9437TIP3   OH228267   7.240   0.717   3.887 -0.3157 -0.0038  0.0737
 9437TIP3    H128268   7.232   0.804   3.925 -1.8848  0.2542 -0.8402
 9437TIP3    H228269   7.262   0.660   3.961 -2.1271  0.6946  1.1732
 9438TIP3   OH228270   7.453   0.656   5.761 -0.5050  0.5814 -0.6940
 9438TIP3    H128271   7.531   0.709   5.748 -1.0380  2.2337  2.2184
 9438TIP3    H228272   7.404   0.663   5.679  0.5638  2.6986 -1.1749
 9439TIP3   OH228273   6.354   6.544   5.193 -0.4351 -0.2709  0.4136
 9439TIP3    H128274   6.288   6.544   5.123  0.0065 -1.2985 -0.0139
 9439TIP3    H228275   6.316   6.486   5.260 -0.0833 -0.6678  0.2721
 9440TIP3   OH228276   2.203   1.620   4.614 -0.0865  0.1528 -0.4308
 9440TIP3    H128277   2.258   1.660   4.547 -0.4436  1.1247 -0.1465
 9440TIP3    H228278   2.141   1.566   4.564 -0.6474  1.2382 -0.9149
 9441TIP3   OH228279   4.476   7.188   3.988  0.2513 -0.7517  0.2607
 9441TIP3    H128280   4.533   7.264   3.987 -0.8669  0.1060  0.8084
 9441TIP3    H228281   4.402   7.213   3.932  0.6517 -2.0497 -0.8824
 9442TIP3   OH228282   5.298   7.278   3.862 -0.0510 -0.0178 -0.0997
 9442TIP3    H128283   5.287   7.243   3.950  0.5305 -0.1913 -0.0948
 9442TIP3    H228284   5.361   7.348   3.871  0.5354 -0.4864 -0.4851
 9443TIP3   OH228285   5.697   6.113   4.451  0.0919  0.4485  0.4160
 9443TIP3    H128286   5.773   6.167   4.429 -1.3457  3.8154  3.0901
 9443TIP3    H228287   5.623   6.172   4.439 -1.7967 -1.7639  1.0069
 9444TIP3   OH228288   4.278   7.721   0.557  0.3837  0.4170 -0.1338
 9444TIP3    H128289   4.317   7.645   0.514  2.7409  1.5182 -0.0274
 9444TIP3    H228290   4.263   7.693   0.647 -0.7597 -0.5942 -0.6314
 9445TIP3   OH228291   3.768   0.450   3.755 -0.0762 -0.0195  0.1804
 9445TIP3    H128292   3.858   0.483   3.756 -0.3906  0.9006 -0.8289
 9445TIP3    H228293   3.778   0.356   3.742  0.7540  0.0376  0.3672
 9446TIP3   OH228294   4.256   7.594   0.808 -0.3648  0.4756 -0.6029
 9446TIP3    H128295   4.192   7.649   0.854  2.9127  2.8062  1.4159
 9446TIP3    H228296   4.209   7.513   0.788 -3.3658  1.3227  2.5705
 9447TIP3   OH228297   2.257   4.724   6.639 -0.0994 -0.1450  0.0927
 9447TIP3    H128298   2.269   4.815   6.610 -0.3286 -0.6781 -1.7101
 9447TIP3    H228299   2.346   4.688   6.642 -0.1168 -0.2352 -0.4427
 9448TIP3   OH228300   8.215   0.876   5.020 -0.2681 -0.3648 -0.1254
 9448TIP3    H128301   8.227   0.817   5.094 -2.9946 -0.3520  0.3981
 9448TIP3    H228302   8.228   0.964   5.057  1.1482 -0.4905 -0.3064
 9449TIP3   OH228303   1.132   1.597   3.874  0.0153 -0.3421 -0.2937
 9449TIP3    H128304   1.047   1.599   3.918  0.6076 -0.0171  0.8639
 9449TIP3    H228305   1.132   1.673   3.816  0.3973  0.9839  1.4099
 9450TIP3   OH228306   7.147   6.367   2.348  0.6873  0.0215 -0.4672
 9450TIP3    H128307   7.085   6.430   2.311  0.6279 -0.5151 -1.2943
 9450TIP3    H228308   7.142   6.382   2.442 -2.1483 -1.2858 -0.3424
 9451TIP3   OH228309   7.555   1.657   3.852 -0.1950  0.1866 -0.2816
 9451TIP3    H128310   7.618   1.722   3.885  0.1250  0.3649 -1.2356
 9451TIP3    H228311   7.496   1.642   3.926  0.0098  1.2151  0.1027
 9452TIP3   OH228312   7.266   1.664   3.416  0.0170  0.2091 -0.4842
 9452TIP3    H128313   7.293   1.661   3.324 -1.4488 -0.0722 -0.9179
 9452TIP3    H228314   7.344   1.695   3.462  0.8874  0.0099 -1.7687
 9453TIP3   OH228315   7.849   0.538   3.930 -0.2133  0.3213  0.1297
 9453TIP3    H128316   7.768   0.581   3.900  0.5061  1.6671  0.0436
 9453TIP3    H228317   7.835   0.445   3.911 -1.1993  0.7020 -1.1566
 9454TIP3   OH228318   0.947   1.312   3.934  0.5467  0.1976 -0.2766
 9454TIP3    H128319   0.866   1.319   3.985 -0.2535  3.4348 -1.8821
 9454TIP3    H228320   0.918   1.307   3.843  2.0894 -1.2860 -0.6988
 9455TIP3   OH228321   5.618   5.761   1.672 -0.4906 -0.3340  0.4762
 9455TIP3    H128322   5.567   5.714   1.737 -0.2342 -0.9384  0.2398
 9455TIP3    H228323   5.605   5.713   1.591  0.3512 -0.4188  0.3823
 9456TIP3   OH228324   5.952   6.023   4.045  0.0128  0.2474 -0.3982
 9456TIP3    H128325   5.907   6.041   4.127  1.3223  1.3848  0.1111
 9456TIP3    H228326   5.884   5.995   3.985 -0.7084 -2.4789  1.6050
 9457TIP3   OH228327   7.706   6.482   2.318 -0.6059  0.1558 -0.0621
 9457TIP3    H128328   7.683   6.407   2.373  1.3296 -0.4128  0.0012
 9457TIP3    H228329   7.761   6.445   2.249  1.6438  1.7322  0.8286
 9458TIP3   OH228330   6.343   7.127   5.489 -0.0690  0.4833 -0.0448
 9458TIP3    H128331   6.267   7.179   5.462  0.2380  1.4145  0.8630
 9458TIP3    H228332   6.322   7.038   5.461 -1.7889  0.6143  0.7715
 9459TIP3   OH228333   3.504   7.300   5.026 -0.7901 -0.1102 -0.0274
 9459TIP3    H128334   3.508   7.395   5.023 -0.8742 -0.0585  1.0559
 9459TIP3    H228335   3.537   7.271   4.941 -1.6758  0.8998 -0.7255
 9460TIP3   OH228336   5.864   7.677   3.442 -0.0740 -0.5197  0.0293
 9460TIP3    H128337   5.815   7.711   3.516 -1.3418 -1.3842 -0.4004
 9460TIP3    H228338   5.886   7.754   3.390  0.3755  0.0322  1.0330
 9461TIP3   OH228339   5.418   5.630   1.828  0.4643 -0.2438 -0.7464
 9461TIP3    H128340   5.366   5.623   1.908  1.6056 -2.7427 -0.1665
 9461TIP3    H228341   5.354   5.637   1.758 -0.5871 -0.1691  0.2084
 9462TIP3   OH228342   4.759   7.082   2.731  0.4474  0.2464  0.0565
 9462TIP3    H128343   4.762   7.035   2.814  0.7193 -0.9363 -0.6154
 9462TIP3    H228344   4.760   7.174   2.756 -1.0741 -0.0788  1.4319
 9463TIP3   OH228345   7.677   0.233   3.747  0.2253 -0.3449  0.4664
 9463TIP3    H128346   7.606   0.286   3.711 -0.1283 -0.0943  1.5173
 9463TIP3    H228347   7.748   0.242   3.683 -0.8509 -1.0189 -0.8536
 9464TIP3   OH228348   0.650   1.400   5.324  0.3252  0.7707  1.0655
 9464TIP3    H128349   0.561   1.432   5.308 -0.2544 -0.6254  1.4617
 9464TIP3    H228350   0.698   1.478   5.353 -0.5644  1.7005  0.1025
 9465TIP3   OH228351   5.891   7.884   0.490  0.4198 -0.2102  0.3031
 9465TIP3    H128352   5.882   7.975   0.464 -0.9654  0.5059  3.0627
 9465TIP3    H228353   5.983   7.863   0.474  0.5683  1.4085 -1.0908
 9466TIP3   OH228354   2.967   2.848   6.913  0.0654  0.4145 -0.3451
 9466TIP3    H128355   2.917   2.929   6.928  0.8833  1.0934 -1.2099
 9466TIP3    H228356   3.055   2.869   6.944  0.3750 -0.0093 -0.9271
 9467TIP3   OH228357   4.445   5.881   3.583 -0.2433 -0.0417  0.1588
 9467TIP3    H128358   4.363   5.842   3.614 -0.5239 -0.2249 -0.7966
 9467TIP3    H228359   4.470   5.828   3.508 -0.2697  1.1765 -0.7359
 9468TIP3   OH228360   7.391   0.868   4.911  0.3236 -0.5943  0.3872
 9468TIP3    H128361   7.296   0.876   4.903  0.4062 -0.1180 -0.1863
 9468TIP3    H228362   7.405   0.796   4.971 -0.3980 -1.2092 -0.1792
 9469TIP3   OH228363   7.114   6.981   4.621  0.2809 -0.0316  0.0378
 9469TIP3    H128364   7.137   6.933   4.700  2.3650 -1.0306 -1.1514
 9469TIP3    H228365   7.019   6.993   4.628  0.4507  0.0423  2.7431
 9470TIP3   OH228366   4.239   6.317   3.524 -0.2270  0.2142  0.2329
 9470TIP3    H128367   4.271   6.251   3.586 -1.1739 -1.3631 -0.8959
 9470TIP3    H228368   4.304   6.318   3.454 -0.4721  0.1093  0.0039
 9471TIP3   OH228369   5.099   6.638   2.155  0.1472  0.0228  0.0355
 9471TIP3    H128370   5.112   6.688   2.073 -1.8437  2.7351  1.2901
 9471TIP3    H228371   5.046   6.563   2.129  0.0326  0.5361 -1.2673
 9472TIP3   OH228372   5.377   5.247   2.065 -0.2205 -0.4502 -0.3388
 9472TIP3    H128373   5.306   5.227   2.004  0.0873  0.3161 -0.9663
 9472TIP3    H228374   5.444   5.182   2.044  0.5573  0.8328 -1.9933
 9473TIP3   OH228375   4.842   6.457   3.187 -0.1677 -0.2725 -0.3608
 9473TIP3    H128376   4.929   6.430   3.159  0.7700  2.4493 -0.1694
 9473TIP3    H228377   4.857   6.515   3.261 -2.1967 -0.3251  0.1370
 9474TIP3   OH228378   0.607   0.042   3.460  0.2355  0.2902 -0.3134
 9474TIP3    H128379   0.666   0.050   3.535 -1.3633 -1.0838  1.1280
 9474TIP3    H228380   0.605   0.130   3.422  1.5722  0.8545  0.8574
 9475TIP3   OH228381   6.851   7.692   2.992 -0.3693  0.2648  0.6110
 9475TIP3    H128382   6.852   7.632   3.067 -2.5209  0.3400  0.7316
 9475TIP3    H228383   6.789   7.760   3.017  0.2683  1.2731 -0.5097
 9476TIP3   OH228384   5.100   7.333   1.842 -0.1699 -0.0565 -0.3488
 9476TIP3    H128385   5.143   7.264   1.893 -0.3632 -0.2808 -0.4892
 9476TIP3    H228386   5.033   7.287   1.791 -0.5351  0.2863 -0.1761
 9477TIP3   OH228387   2.589   5.373   0.897 -0.0610  0.1203  0.1118
 9477TIP3    H128388   2.605   5.285   0.930 -0.3856 -0.8880 -2.3183
 9477TIP3    H228389   2.495   5.375   0.877 -0.1214  1.1400  0.4530
 9478TIP3   OH228390   7.752   0.591   3.393  0.1799  0.0995  0.2500
 9478TIP3    H128391   7.837   0.554   3.367  0.1020  0.9317 -1.2361
 9478TIP3    H228392   7.735   0.659   3.328 -1.7106 -0.1731  0.4521
 9479TIP3   OH228393   3.320   6.571   3.603 -0.1490 -0.1887  0.4791
 9479TIP3    H128394   3.278   6.536   3.524  2.7698 -0.1933 -1.1223
 9479TIP3    H228395   3.367   6.648   3.573  0.2860  0.3239  2.4091
 9480TIP3   OH228396   4.846   5.425   4.552 -0.1857 -0.2288  0.7505
 9480TIP3    H128397   4.916   5.415   4.488 -0.9483  0.4581 -0.2058
 9480TIP3    H228398   4.884   5.394   4.634  0.1820 -3.0206 -0.4134
 9481TIP3   OH228399   5.541   7.501   4.633 -0.0699  0.0385 -0.6642
 9481TIP3    H128400   5.456   7.517   4.674 -0.1595 -2.3568  0.1742
 9481TIP3    H228401   5.522   7.491   4.540 -0.6991 -0.3426 -0.4973
 9482TIP3   OH228402   5.877   7.184   2.407 -0.1059  0.1461  0.3804
 9482TIP3    H128403   5.909   7.210   2.493 -1.0818 -0.6133  0.9858
 9482TIP3    H228404   5.943   7.216   2.346  0.4485  0.9424  1.3868
 9483TIP3   OH228405   6.382   6.322   2.639 -0.1902  0.0712  0.1132
 9483TIP3    H128406   6.438   6.284   2.572 -0.7848  0.1148 -0.4227
 9483TIP3    H228407   6.388   6.416   2.624  1.6163  0.2349  1.7098
 9484TIP3   OH228408   2.310   0.844   0.060  0.6453  0.0977  0.8599
 9484TIP3    H128409   2.283   0.884  -0.022  1.4857 -1.1733 -0.0410
 9484TIP3    H228410   2.251   0.882   0.126  0.3577  1.5557 -0.2254
 9485TIP3   OH228411   8.390   0.995   2.653 -0.5300 -0.4430  0.3853
 9485TIP3    H128412   8.411   1.044   2.732  0.4473 -0.6016  0.2298
 9485TIP3    H228413   8.373   1.061   2.586  1.2309 -0.3101  0.0589
 9486TIP3   OH228414   6.550   6.967   2.085  0.3912  0.5086 -0.1537
 9486TIP3    H128415   6.590   6.880   2.084 -2.0706 -0.7134  1.4637
 9486TIP3    H228416   6.569   7.001   2.172  0.3127  1.1018 -0.3672
 9487TIP3   OH228417   8.257   1.031   4.077 -0.5457  0.6996 -0.0332
 9487TIP3    H128418   8.259   0.937   4.059  0.1159  0.9381 -1.2183
 9487TIP3    H228419   8.197   1.067   4.013  0.3794  1.2915 -0.5772
 9488TIP3   OH228420   3.655   7.167   2.102  0.6510 -0.1871  0.3967
 9488TIP3    H128421   3.655   7.076   2.073  0.6875  0.8515 -3.1823
 9488TIP3    H228422   3.747   7.187   2.118  0.8063 -0.3687 -0.2521
 9489TIP3   OH228423   2.642   2.223   6.520 -0.0908 -0.4866 -0.0131
 9489TIP3    H128424   2.547   2.215   6.509 -0.1402 -0.6583  0.5199
 9489TIP3    H228425   2.653   2.255   6.610  0.3179  0.4391 -0.3948
 9490TIP3   OH228426   0.383   1.219   4.425  0.1610  0.3852 -0.3109
 9490TIP3    H128427   0.306   1.191   4.376 -0.6862 -0.4859  1.4535
 9490TIP3    H228428   0.425   1.138   4.454  3.1302  0.7521 -3.2034
 9491TIP3   OH228429   5.930   3.358   6.559  0.2122  0.3575  0.2329
 9491TIP3    H128430   5.915   3.274   6.516  1.2071  0.2506  0.0876
 9491TIP3    H228431   5.945   3.336   6.650  3.4574  0.0776 -0.3162
 9492TIP3   OH228432   0.029   0.739   3.821  0.6442  0.0300 -0.5436
 9492TIP3    H128433   0.065   0.827   3.809  3.7075 -1.2481 -1.2134
 9492TIP3    H228434   0.013   0.732   3.915  0.6372  1.1965 -0.4496
 9493TIP3   OH228435   6.033   5.823   1.771 -0.1524 -0.2070 -0.1828
 9493TIP3    H128436   6.025   5.854   1.681 -0.2101 -1.5382 -0.6492
 9493TIP3    H228437   6.127   5.828   1.789 -0.2840  1.3513  0.1728
 9494TIP3   OH228438   2.689   1.037   1.849  0.2141 -0.2456  0.7070
 9494TIP3    H128439   2.723   1.122   1.820  1.5081 -0.3993  1.7197
 9494TIP3    H228440   2.596   1.039   1.826 -0.2514  2.2675  2.5497
 9495TIP3   OH228441   6.665   6.460   1.918  0.2420 -0.5382 -0.3369
 9495TIP3    H128442   6.602   6.397   1.884  1.3220 -1.2663 -0.9944
 9495TIP3    H228443   6.748   6.435   1.879  0.6931  1.3040 -0.6182
 9496TIP3   OH228444   6.590   5.722   0.309 -0.2799 -0.1812  0.2266
 9496TIP3    H128445   6.566   5.782   0.240 -0.6453 -0.5541  0.0282
 9496TIP3    H228446   6.660   5.668   0.271  0.9381  0.9518  0.8275
 9497TIP3   OH228447   5.021   6.767   0.915  0.4638  0.3429 -0.0603
 9497TIP3    H128448   5.014   6.807   1.002 -1.0252  0.2425 -0.1371
 9497TIP3    H228449   5.088   6.699   0.926 -0.3834 -0.3057  1.2510
 9498TIP3   OH228450   4.588   1.601   5.753 -0.1359 -0.2019 -0.3611
 9498TIP3    H128451   4.521   1.541   5.787 -1.5338  1.9593  0.8159
 9498TIP3    H228452   4.557   1.625   5.666 -0.6652  0.4651  0.0126
 9499TIP3   OH228453   3.825   5.339   3.972  0.4822  0.1956  0.5024
 9499TIP3    H128454   3.765   5.277   4.012  0.2976 -0.3867 -0.6540
 9499TIP3    H228455   3.892   5.285   3.929  0.4085  0.7815 -0.3772
 9500TIP3   OH228456   1.367   0.458   4.410  0.1607  0.6968  0.2254
 9500TIP3    H128457   1.336   0.545   4.437  1.0889  0.8669  0.7863
 9500TIP3    H228458   1.393   0.416   4.492 -1.5493 -0.6329  0.1031
 9501TIP3   OH228459   5.452   7.540   3.037  0.5420  0.1743 -0.3016
 9501TIP3    H128460   5.437   7.598   3.111 -0.4522  1.0166 -1.1566
 9501TIP3    H228461   5.535   7.496   3.058 -0.5380 -0.8240  2.0768
 9502TIP3   OH228462   7.140   7.440   0.764 -0.2835 -0.6384  0.1771
 9502TIP3    H128463   7.210   7.505   0.755  1.0964 -2.3194 -1.6136
 9502TIP3    H228464   7.162   7.390   0.842 -0.7145  0.2574  0.8844
 9503TIP3   OH228465   6.341   6.774   0.659  0.0651  0.1944 -0.3883
 9503TIP3    H128466   6.429   6.764   0.694  0.1411  0.9196 -0.3602
 9503TIP3    H228467   6.347   6.741   0.569  0.2100 -0.3383 -0.1842
 9504TIP3   OH228468   0.035   0.344   3.976  0.3478 -0.8010  0.3974
 9504TIP3    H128469   0.005   0.340   3.885  0.0221 -1.0057  0.5118
 9504TIP3    H228470   0.129   0.326   3.972  0.7093  1.0815 -0.1067
 9505TIP3   OH228471   4.669   7.750   1.720  0.2243  0.3272 -0.2485
 9505TIP3    H128472   4.741   7.800   1.684  1.1686  0.6569  2.0440
 9505TIP3    H228473   4.595   7.769   1.662  1.2911  2.0672 -1.0631
 9506TIP3   OH228474   1.981   0.639   4.007 -0.2059  0.6714 -0.0092
 9506TIP3    H128475   1.937   0.558   4.031  1.0815  0.8385  3.2104
 9506TIP3    H228476   1.935   0.670   3.929 -2.0590 -2.0484 -0.0449
 9507TIP3   OH228477   0.508   0.735   4.567  0.5434 -0.7175  0.1127
 9507TIP3    H128478   0.431   0.680   4.554 -1.1338  1.4519  0.6050
 9507TIP3    H228479   0.522   0.735   4.661  0.3219 -0.0395  0.1497
 9508TIP3   OH228480   6.661   5.565   4.358  0.0430 -0.1798 -0.2367
 9508TIP3    H128481   6.601   5.561   4.433  0.1812  0.7512 -0.0664
 9508TIP3    H228482   6.690   5.474   4.345  0.6612 -0.2362  1.3656
 9509TIP3   OH228483   6.590   6.714   4.453 -0.1481  0.2713  0.1765
 9509TIP3    H128484   6.584   6.806   4.426  2.6757  0.6251  0.6023
 9509TIP3    H228485   6.620   6.717   4.544 -1.2228 -1.0687  0.5897
 9510TIP3   OH228486   1.074   1.796   3.653 -0.0701 -0.3638 -0.1397
 9510TIP3    H128487   1.165   1.817   3.632 -0.3254  0.4247 -0.5107
 9510TIP3    H228488   1.033   1.778   3.568 -0.3360 -0.3838 -0.0090
 9511TIP3   OH228489   6.037   7.418   4.134  0.5957  0.1468 -0.7333
 9511TIP3    H128490   6.126   7.451   4.117  0.2907  3.7372  3.6619
 9511TIP3    H228491   5.981   7.477   4.084  0.4960  0.9505  0.3022
 9512TIP3   OH228492   1.187   1.863   4.607  0.0368  0.1803 -0.9023
 9512TIP3    H128493   1.189   1.768   4.592 -1.8772  0.2055 -1.5211
 9512TIP3    H228494   1.093   1.884   4.609  0.3009  1.4155  3.3396
 9513TIP3   OH228495   6.882   6.388   3.031  0.1153  0.3957  0.0556
 9513TIP3    H128496   6.885   6.327   3.105  0.1834  2.0215  1.4259
 9513TIP3    H228497   6.813   6.354   2.974 -0.0931 -0.7486  0.9785
 9514TIP3   OH228498   2.386   0.463   4.375  0.1749  0.4967  0.2219
 9514TIP3    H128499   2.359   0.446   4.285  0.5731  0.6019  0.0830
 9514TIP3    H228500   2.431   0.548   4.371 -0.1264  0.6775  0.5829
 9515TIP3   OH228501   0.063   6.920   2.116 -0.8287 -0.0283 -0.1826
 9515TIP3    H128502   0.070   6.956   2.028 -2.7575  0.2452 -0.2421
 9515TIP3    H228503   0.017   6.837   2.105  1.1501 -1.2345  0.2884
 9516TIP3   OH228504   7.178   7.973   4.846  0.1495 -0.5550 -0.2122
 9516TIP3    H128505   7.118   8.020   4.904 -0.3616 -2.5261  0.9386
 9516TIP3    H228506   7.175   7.882   4.878  2.3203 -1.0527 -1.3184
 9517TIP3   OH228507   1.333   0.225   4.272  0.3519 -0.3986  0.1578
 9517TIP3    H128508   1.357   0.307   4.316 -0.5072  0.7554 -1.4632
 9517TIP3    H228509   1.245   0.241   4.238  0.3337 -1.8519 -0.5080
 9518TIP3   OH228510   7.709   6.947   5.823 -0.5276 -0.1770  0.3827
 9518TIP3    H128511   7.712   7.031   5.776 -0.9444 -0.2464  0.2291
 9518TIP3    H228512   7.786   6.900   5.792  0.0642  0.4010  0.9490
 9519TIP3   OH228513   7.025   2.150   2.467 -0.5668 -0.1581 -0.0623
 9519TIP3    H128514   7.071   2.075   2.429 -1.1773  0.1605 -1.4781
 9519TIP3    H228515   7.023   2.215   2.397 -2.7489  0.0145  0.1153
 9520TIP3   OH228516   8.154   1.537   1.431  0.0697 -0.6622  0.0288
 9520TIP3    H128517   8.094   1.599   1.390  2.3487  1.3180 -0.4114
 9520TIP3    H228518   8.147   1.554   1.525 -1.3487 -1.6922  0.1355
 9521TIP3   OH228519   6.177   6.781   3.501 -0.0488  0.3996  0.6355
 9521TIP3    H128520   6.092   6.745   3.526 -0.2760  1.3145  1.1978
 9521TIP3    H228521   6.226   6.705   3.470 -0.7973 -0.2693  1.0530
 9522TIP3   OH228522   5.633   7.978   5.682  0.4864  0.2986  0.4103
 9522TIP3    H128523   5.687   8.054   5.660  0.8479  0.2789  1.2272
 9522TIP3    H228524   5.670   7.945   5.764 -1.4350  0.9236  1.5456
 9523TIP3   OH228525   2.874   0.417   3.953 -0.0164  0.6272  0.3096
 9523TIP3    H128526   2.861   0.341   3.896  2.3666  0.8650 -0.5806
 9523TIP3    H228527   2.886   0.380   4.040 -0.5910  0.0825  0.1607
 9524TIP3   OH228528   7.111   7.147   4.032 -0.0499 -0.3517  0.2818
 9524TIP3    H128529   7.199   7.168   4.003 -0.3007  0.0199 -0.2260
 9524TIP3    H228530   7.105   7.184   4.121 -0.2222  1.0328 -0.2971
 9525TIP3   OH228531   6.912   7.030   2.667 -0.2244  0.0552 -0.5905
 9525TIP3    H128532   6.910   6.953   2.724 -0.3117 -0.7294 -1.6333
 9525TIP3    H228533   6.899   7.104   2.726  0.8352 -0.6524  0.5601
 9526TIP3   OH228534   1.492   0.017   3.765  0.0170  0.2720 -0.1944
 9526TIP3    H128535   1.448   0.102   3.773  0.5699  0.2996  3.2407
 9526TIP3    H228536   1.422  -0.047   3.771  0.0302  0.4065  1.5908
 9527TIP3   OH228537   6.680   6.845   3.089 -0.5230 -0.0479 -0.5078
 9527TIP3    H128538   6.596   6.822   3.048 -1.3040  1.5594  0.1512
 9527TIP3    H228539   6.713   6.761   3.122 -2.4743 -0.5328  0.3227
 9528TIP3   OH228540   6.976   6.507   1.254 -0.3034 -1.0477  0.1181
 9528TIP3    H128541   7.058   6.534   1.213 -0.8405 -0.6542 -0.7153
 9528TIP3    H228542   6.910   6.563   1.214 -1.0983 -1.9566  0.1443
 9529TIP3   OH228543   4.363   4.462   6.550 -0.3204  0.2894 -0.6082
 9529TIP3    H128544   4.430   4.413   6.503 -1.0618 -0.3427 -1.0123
 9529TIP3    H228545   4.337   4.532   6.490 -1.4087 -0.6357 -1.2460
 9530TIP3   OH228546   7.191   7.394   5.223 -0.0587 -0.2721  0.3027
 9530TIP3    H128547   7.238   7.477   5.236  0.9852 -0.8987  0.5323
 9530TIP3    H228548   7.100   7.421   5.210  0.3713  0.9581 -0.2526
 9531TIP3   OH228549   6.207   5.782   1.337 -0.3469  0.0522 -0.1805
 9531TIP3    H128550   6.163   5.698   1.333 -0.9410  0.2922  1.0604
 9531TIP3    H228551   6.281   5.768   1.396 -0.3725  0.3616 -0.0707
 9532TIP3   OH228552   3.002   0.927   6.917 -0.3233  0.2565 -0.2237
 9532TIP3    H128553   2.907   0.922   6.911 -0.2356  0.5547 -2.4065
 9532TIP3    H228554   3.022   1.020   6.907  0.2628  0.0247 -1.3376
 9533TIP3   OH228555   3.117   4.173   1.776  0.4169  0.0525  0.2429
 9533TIP3    H128556   3.211   4.177   1.762  0.3054  0.6023 -0.3783
 9533TIP3    H228557   3.080   4.159   1.689 -0.1457  1.0894  0.3104
 9534TIP3   OH228558   6.287   5.605   0.358 -0.2341  0.1890 -0.2945
 9534TIP3    H128559   6.333   5.527   0.326 -0.0153 -0.3235  1.2353
 9534TIP3    H228560   6.310   5.673   0.295  1.7708 -0.3185 -0.1411
 9535TIP3   OH228561   0.380   1.638   6.129  0.6377 -0.4475 -0.1362
 9535TIP3    H128562   0.381   1.552   6.170 -0.3744 -1.5958 -2.4772
 9535TIP3    H228563   0.431   1.627   6.049 -0.9918  0.6582 -1.3515
 9536TIP3   OH228564   3.477   0.520   6.352 -0.0486 -0.3116  0.6216
 9536TIP3    H128565   3.550   0.522   6.289 -0.3619 -0.3066  0.2574
 9536TIP3    H228566   3.422   0.594   6.327 -0.0716 -0.1897  1.0302
 9537TIP3   OH228567   2.321   0.488   6.798 -0.8165  0.1133 -0.0641
 9537TIP3    H128568   2.409   0.459   6.821  0.5880  2.7171 -1.8850
 9537TIP3    H228569   2.283   0.518   6.881 -0.5676 -2.3619  0.9871
 9538TIP3   OH228570   5.440   6.422   0.345  0.8868 -0.0467  0.1142
 9538TIP3    H128571   5.473   6.356   0.406  0.0782  1.2231  1.9542
 9538TIP3    H228572   5.502   6.495   0.352 -0.1081  0.7634  0.6561
 9539TIP3   OH228573   3.174   4.780   1.504 -0.4729  0.3988  0.2886
 9539TIP3    H128574   3.086   4.789   1.469 -0.8313  0.0278  1.1069
 9539TIP3    H228575   3.229   4.770   1.426 -1.0051  1.7541 -0.2779
 9540TIP3   OH228576   3.281   5.859   1.319  0.2589 -0.1943  0.0980
 9540TIP3    H128577   3.319   5.856   1.231 -1.4889 -0.1705 -0.6684
 9540TIP3    H228578   3.303   5.775   1.357  0.4181 -0.4848 -0.6188
 9541TIP3   OH228579   4.878   6.465   1.658 -0.1234 -0.2065  0.0017
 9541TIP3    H128580   4.823   6.390   1.681 -0.1742 -0.3863 -0.6762
 9541TIP3    H228581   4.829   6.541   1.689  0.5046 -0.5174  1.7962
 9542TIP3   OH228582   3.911   5.361   0.134 -0.0724 -0.6402 -0.1323
 9542TIP3    H128583   3.968   5.311   0.076  1.1447 -0.8300  1.1738
 9542TIP3    H228584   3.971   5.396   0.201 -1.1483  1.1492 -0.0769
 9543TIP3   OH228585   5.524   4.792   0.632 -0.2961  0.1721  0.3123
 9543TIP3    H128586   5.528   4.857   0.562 -0.6103  0.2981  0.4117
 9543TIP3    H228587   5.533   4.842   0.713  2.4800 -0.2087  0.2997
 9544TIP3   OH228588   7.724   6.735   6.692 -0.2024  0.2176  0.3187
 9544TIP3    H128589   7.699   6.705   6.780 -1.7819  1.8795  0.4734
 9544TIP3    H228590   7.660   6.694   6.634  0.3981 -0.2979  0.0138
 9545TIP3   OH228591   6.425   3.717   2.164  0.2969 -0.2987  0.2313
 9545TIP3    H128592   6.424   3.725   2.069  0.2630 -0.0481  0.2544
 9545TIP3    H228593   6.451   3.626   2.180 -1.4812 -0.8581 -0.0277
 9546TIP3   OH228594   6.085   6.565   2.566  0.0263 -0.1907 -0.2350
 9546TIP3    H128595   6.028   6.495   2.596  0.3233 -0.5637 -0.5196
 9546TIP3    H228596   6.029   6.642   2.561 -0.3303 -0.4360 -0.0232
 9547TIP3   OH228597   1.188   1.210   6.864  0.2267 -0.3615  0.1058
 9547TIP3    H128598   1.202   1.123   6.829  0.7155 -1.0451  1.9191
 9547TIP3    H228599   1.253   1.265   6.820  0.9262 -1.2180  0.0510
 9548TIP3   OH228600   0.212   8.043   5.953  0.3694  0.6237 -0.1755
 9548TIP3    H128601   0.200   7.968   6.011 -0.1120  0.9396  0.1303
 9548TIP3    H228602   0.174   8.014   5.869  1.6033 -0.0493 -0.5075
 9549TIP3   OH228603   6.047   7.707   6.562 -0.3901 -0.2175 -0.0444
 9549TIP3    H128604   6.049   7.637   6.497  1.0821 -1.8020  1.6511
 9549TIP3    H228605   6.122   7.762   6.541  0.2016 -0.8400  0.3921
 9550TIP3   OH228606   1.212   0.466   5.882  0.0087 -0.4236  0.3632
 9550TIP3    H128607   1.254   0.522   5.817  0.5623 -1.8215 -0.5346
 9550TIP3    H228608   1.263   0.385   5.879  0.3004 -0.3542  2.8667
 9551TIP3   OH228609   6.278   5.489   2.340 -0.0375  0.0621 -0.4810
 9551TIP3    H128610   6.294   5.396   2.356  0.0954  0.2647  0.5659
 9551TIP3    H228611   6.237   5.521   2.420  0.8943  1.1391 -0.4262
 9552TIP3   OH228612   8.470   3.769   1.282 -0.1302  0.3632 -0.3478
 9552TIP3    H128613   8.383   3.732   1.262 -0.1125  0.0751  0.1050
 9552TIP3    H228614   8.526   3.693   1.293  0.2798  0.5634 -1.0868
 9553TIP3   OH228615   3.044   0.383   6.260  0.2686  0.1196 -0.0311
 9553TIP3    H128616   3.114   0.387   6.326 -1.4541  0.4230  1.8163
 9553TIP3    H228617   3.066   0.452   6.198  1.4794  0.3845  0.6771
 9554TIP3   OH228618   2.803   0.529   5.834  0.5032 -0.0838 -0.0438
 9554TIP3    H128619   2.709   0.537   5.819  0.9904  2.1914 -2.0413
 9554TIP3    H228620   2.837   0.490   5.753  1.4935  0.5797  0.0505
 9555TIP3   OH228621   4.621   3.773   0.276  0.1513  0.5480  0.2843
 9555TIP3    H128622   4.588   3.726   0.199  1.1902  0.9001 -0.3855
 9555TIP3    H228623   4.658   3.704   0.332  0.0106  0.3650  0.1524
 9556TIP3   OH228624   5.702   6.197   2.557 -0.2637 -0.2160 -0.5718
 9556TIP3    H128625   5.612   6.218   2.530 -0.5525  0.3643  0.7967
 9556TIP3    H228626   5.736   6.141   2.487 -0.9563  1.3148 -2.1566
 9557TIP3   OH228627   4.086   5.579   0.911 -0.4521  0.4501 -0.1142
 9557TIP3    H128628   4.044   5.572   0.997 -0.8491 -0.1872 -0.3590
 9557TIP3    H228629   4.160   5.638   0.926 -2.0062  2.3872  0.0921
 9558TIP3   OH228630   5.773   6.043   1.314  0.6278  0.1074  0.7131
 9558TIP3    H128631   5.693   6.074   1.355 -1.2226 -2.1113 -1.0894
 9558TIP3    H228632   5.809   5.979   1.375 -0.5815 -1.0506  0.2491
 9559TIP3   OH228633   8.344   1.970   0.930 -0.3089 -0.1794 -0.0934
 9559TIP3    H128634   8.271   2.006   0.980 -1.3950 -0.2837 -1.5655
 9559TIP3    H228635   8.329   1.875   0.932 -0.7300 -0.1452 -1.1387
 9560TIP3   OH228636   7.342   5.293   0.602  0.3157 -0.0723 -0.6921
 9560TIP3    H128637   7.427   5.307   0.644 -0.0247 -1.3197  0.4844
 9560TIP3    H228638   7.280   5.336   0.660 -0.0896 -1.2199 -0.2609
 9561TIP3   OH228639   3.764   0.290   6.874  0.1135  0.0942  0.0647
 9561TIP3    H128640   3.798   0.304   6.962 -0.7481  1.6918  0.1614
 9561TIP3    H228641   3.686   0.237   6.885 -0.3450  0.8215  0.3249
 9562TIP3   OH228642   1.902   1.064   6.776 -0.3621  0.5446 -0.0845
 9562TIP3    H128643   1.989   1.100   6.792  0.2307  0.9981 -3.8772
 9562TIP3    H228644   1.911   0.970   6.794  0.7900  0.6737  0.0145
 9563TIP3   OH228645   5.562   6.282   2.112 -0.2385  0.3454  0.2239
 9563TIP3    H128646   5.487   6.279   2.053 -1.6681  1.2379  1.9680
 9563TIP3    H228647   5.609   6.200   2.095  0.1454  1.1594 -3.0870
 9564TIP3   OH228648   1.038   1.455   5.422 -0.2169  0.1334  0.4386
 9564TIP3    H128649   0.964   1.514   5.411 -0.9340 -1.0455 -1.2823
 9564TIP3    H228650   1.022   1.412   5.507 -0.7462  0.9218  0.7420
 9565TIP3   OH228651   4.265   4.795   1.055 -0.1286 -0.0067  0.0398
 9565TIP3    H128652   4.185   4.758   1.092  0.6140 -1.5523  0.1371
 9565TIP3    H228653   4.302   4.848   1.127 -1.2976  1.1038 -0.1664
 9566TIP3   OH228654   7.033   5.152   0.256  0.3267 -0.1553  0.1070
 9566TIP3    H128655   7.119   5.190   0.272 -0.1430  0.6771  0.6545
 9566TIP3    H228656   6.983   5.221   0.214 -0.0486 -0.6687 -0.2989
 9567TIP3   OH228657   5.648   5.298   0.128 -0.2901  0.6008  0.6784
 9567TIP3    H128658   5.708   5.328   0.196 -0.1880  1.8238  0.0568
 9567TIP3    H228659   5.628   5.377   0.077 -1.8491  0.0615  0.4462
 9568TIP3   OH228660   6.031   1.194   3.839 -0.8763 -0.3236 -0.4651
 9568TIP3    H128661   5.977   1.204   3.918  1.7664  0.6026  1.3074
 9568TIP3    H228662   6.102   1.135   3.866  0.7626  1.0190 -1.7317
 9569TIP3   OH228663   2.990   4.710   0.299  0.0070  0.1158  0.1187
 9569TIP3    H128664   3.007   4.753   0.382 -1.3192  1.2464 -0.1615
 9569TIP3    H228665   2.932   4.637   0.321 -1.0885  0.9617  0.0902
 9570TIP3   OH228666   7.308   6.348   1.249 -0.5651 -0.0251  0.5851
 9570TIP3    H128667   7.234   6.286   1.246  0.1514 -0.8373 -1.3252
 9570TIP3    H228668   7.275   6.426   1.204 -0.2307 -0.4183 -0.3418
 9571TIP3   OH228669   4.666   6.179   0.287 -0.2813  0.1367 -0.3986
 9571TIP3    H128670   4.695   6.258   0.331  0.8361 -0.6042  0.2058
 9571TIP3    H228671   4.725   6.169   0.212  0.7177 -1.0602  0.5137
 9572TIP3   OH228672   6.522   7.427   0.899  0.2699  0.5154  0.1260
 9572TIP3    H128673   6.605   7.475   0.904  0.6249 -0.0973  0.1924
 9572TIP3    H228674   6.522   7.373   0.978  0.1611 -0.0468 -0.2557
 9573TIP3   OH228675   8.398   6.665   1.031 -0.8228  0.3238  0.1575
 9573TIP3    H128676   8.439   6.644   0.947  0.2052 -0.1423  0.7700
 9573TIP3    H228677   8.307   6.683   1.008 -0.9592 -1.4756 -0.8615
 9574TIP3   OH228678   7.965   7.864   6.319  0.1672  0.1790 -0.4476
 9574TIP3    H128679   7.977   7.854   6.414  0.0838  0.3308 -0.4209
 9574TIP3    H228680   7.887   7.918   6.310 -1.2981 -1.9275 -0.6425
 9575TIP3   OH228681   0.719   3.095   1.521 -0.3664  0.5556  0.0232
 9575TIP3    H128682   0.812   3.076   1.510 -0.1126  2.2335 -1.0146
 9575TIP3    H228683   0.705   3.093   1.615  0.3151 -1.4869  0.0988
 9576TIP3   OH228684   7.425   2.102   1.675  0.0662  0.2544  0.1587
 9576TIP3    H128685   7.418   2.186   1.631 -0.8305  0.8817  1.4359
 9576TIP3    H228686   7.335   2.069   1.676  0.2157 -0.1354  0.7620
 9577TIP3   OH228687   0.886   0.854   5.622 -0.4967  0.0317 -0.7526
 9577TIP3    H128688   0.950   0.915   5.658 -0.9951 -0.5409  1.1736
 9577TIP3    H228689   0.901   0.856   5.528  2.2487  0.0299 -0.3615
 9578TIP3   OH228690   5.393   6.121   0.618  0.0318 -0.2965  0.6082
 9578TIP3    H128691   5.317   6.078   0.577  0.5122  0.1236 -0.7748
 9578TIP3    H228692   5.452   6.049   0.641 -0.1019 -0.5240  0.2413
 9579TIP3   OH228693   4.960   1.429   6.220 -0.2984  0.2639  0.2060
 9579TIP3    H128694   4.939   1.427   6.314  2.2315  1.5647  0.8489
 9579TIP3    H228695   4.943   1.520   6.194  0.5820  0.3177 -0.2008
 9580TIP3   OH228696   1.654   7.976   5.830 -0.5768  0.5230  0.8301
 9580TIP3    H128697   1.667   8.054   5.776  0.3016 -1.2742 -1.6064
 9580TIP3    H228698   1.741   7.954   5.862 -0.9133  0.8350  2.0180
 9581TIP3   OH228699   6.973   2.834   1.640  0.4129 -0.8005 -0.0017
 9581TIP3    H128700   7.036   2.860   1.708  0.3938  0.2842 -0.3927
 9581TIP3    H228701   6.990   2.740   1.627  2.1938 -0.4590 -0.3449
 9582TIP3   OH228702   5.911   3.101   0.377 -0.0300  0.0749  0.5838
 9582TIP3    H128703   5.947   3.069   0.460 -1.2571  0.9037  1.4669
 9582TIP3    H228704   5.986   3.107   0.318  1.1556  1.0740  2.1570
 9583TIP3   OH228705   2.784   1.501   6.885 -0.9911 -0.0292 -0.7641
 9583TIP3    H128706   2.830   1.500   6.801 -0.2624 -2.7281 -0.3852
 9583TIP3    H228707   2.691   1.501   6.862 -0.7912 -1.0941 -1.5998
 9584TIP3   OH228708   6.173   2.251   0.093 -0.2325  0.0895 -0.1827
 9584TIP3    H128709   6.219   2.195   0.155  0.5190 -1.0772 -1.7424
 9584TIP3    H228710   6.238   2.316   0.067 -0.5330  0.5536  0.2344
 9585TIP3   OH228711   6.878   2.416   1.026 -0.2160  0.2471 -0.0522
 9585TIP3    H128712   6.920   2.334   1.001  0.6212  0.8126 -0.5160
 9585TIP3    H228713   6.818   2.435   0.954  0.2777  0.5278 -0.3878
 9586TIP3   OH228714   5.136   4.853   1.788  0.1166  0.1112 -0.2131
 9586TIP3    H128715   5.069   4.832   1.724  1.9157  0.9244 -2.4358
 9586TIP3    H228716   5.190   4.774   1.793 -0.5498 -0.2802  1.0171
 9587TIP3   OH228717   1.725   7.502   4.059  0.5606 -0.0081  0.2464
 9587TIP3    H128718   1.704   7.479   4.150 -0.1304  0.6297  0.2548
 9587TIP3    H228719   1.801   7.558   4.065  0.2487  0.3931  0.4672
 9588TIP3   OH228720   8.218   5.453   1.066  0.5417 -0.5914  0.4026
 9588TIP3    H128721   8.218   5.361   1.040  0.6250 -0.2694 -0.7348
 9588TIP3    H228722   8.216   5.450   1.162 -1.6283 -1.7733  0.3502
 9589TIP3   OH228723   0.692   7.974   6.613  0.3973 -0.5659  0.0332
 9589TIP3    H128724   0.602   8.002   6.595  0.2875 -0.3019  0.9955
 9589TIP3    H228725   0.682   7.887   6.653  0.6126 -0.8740 -0.5779
 9590TIP3   OH228726   3.903   0.390   5.578  0.4946 -0.1557  0.4122
 9590TIP3    H128727   3.864   0.325   5.519  1.5953  0.3048 -0.8510
 9590TIP3    H228728   3.844   0.465   5.574  0.2057 -0.3826  0.4236
 9591TIP3   OH228729   5.759   4.702   0.243  0.4500  0.9960 -0.0577
 9591TIP3    H128730   5.787   4.647   0.316  0.8338 -0.5298 -1.3194
 9591TIP3    H228731   5.667   4.678   0.228  0.5468  0.8602 -0.4529
 9592TIP3   OH228732   7.805   3.735   0.605  0.3940 -0.1055 -0.2779
 9592TIP3    H128733   7.822   3.742   0.510  3.4441  0.0660  0.2177
 9592TIP3    H228734   7.814   3.824   0.637  1.2438 -0.4387  0.4295
 9593TIP3   OH228735   6.996   5.487   1.206  0.3573 -0.4741 -0.0960
 9593TIP3    H128736   7.019   5.482   1.299  1.8645  0.7491 -0.3934
 9593TIP3    H228737   6.933   5.558   1.201  0.3176 -0.5037 -0.0328
 9594TIP3   OH228738   4.434   4.931   0.151 -0.2027  0.3267  0.3376
 9594TIP3    H128739   4.461   5.020   0.129 -0.1630  0.3584  0.5105
 9594TIP3    H228740   4.349   4.942   0.195 -1.4392  0.0773 -1.8986
 9595TIP3   OH228741   5.990   5.591   0.396  0.4379  0.3551 -0.4865
 9595TIP3    H128742   5.944   5.672   0.414  0.9446  0.0719  2.2164
 9595TIP3    H228743   6.078   5.619   0.369  0.4580  0.7161 -0.0467
 9596TIP3   OH228744   5.412   6.002   0.059 -0.6833  0.1375  0.8625
 9596TIP3    H128745   5.364   6.035   0.135  0.0270 -0.4124  1.5458
 9596TIP3    H228746   5.352   6.017  -0.015 -0.8840  1.7793  1.3399
 9597TIP3   OH228747   5.165   6.234   1.733  0.8427 -0.1256  0.3406
 9597TIP3    H128748   5.224   6.284   1.677  0.0291 -0.5790 -0.9591
 9597TIP3    H228749   5.134   6.297   1.798  3.0357  0.0157  1.2718
 9598TIP3   OH228750   6.760   5.973   2.139 -0.1727 -0.7134  0.0329
 9598TIP3    H128751   6.757   5.958   2.234  0.8918 -0.0434  0.1865
 9598TIP3    H228752   6.829   6.039   2.128 -0.7465 -0.3041 -1.1507
 9599TIP3   OH228753   6.972   4.498   1.727 -0.0908  0.2203  0.6394
 9599TIP3    H128754   7.000   4.547   1.650  2.9010  0.5491  1.8687
 9599TIP3    H228755   7.036   4.427   1.735 -2.5615 -2.0791  0.6906
 9600TIP3   OH228756   4.270   2.261   6.850  0.1021 -0.7217 -0.0657
 9600TIP3    H128757   4.347   2.272   6.794  0.2959  1.9001  0.6548
 9600TIP3    H228758   4.300   2.207   6.923  1.2822  0.3043  0.2190
 9601TIP3   OH228759   5.575   1.447   5.446  0.0236  0.0187 -0.3340
 9601TIP3    H128760   5.482   1.470   5.447  0.0991  0.3041  0.1559
 9601TIP3    H228761   5.620   1.531   5.454  0.3264 -0.0966 -0.8509
 9602TIP3   OH228762   3.873   2.218   5.336 -0.0079 -0.0997 -0.7136
 9602TIP3    H128763   3.861   2.280   5.264 -1.7476  0.7576  0.2777
 9602TIP3    H228764   3.895   2.273   5.411 -3.7668 -0.3940  0.7076
 9603TIP3   OH228765   7.941   6.947   0.834  0.1050 -0.1982  0.1550
 9603TIP3    H128766   7.939   6.951   0.738 -0.9466 -1.4949  0.1220
 9603TIP3    H228767   7.853   6.920   0.860  0.4165  0.0090  1.4965
 9604TIP3   OH228768   5.963   6.167   1.177  0.6047  0.2178  0.4688
 9604TIP3    H128769   6.016   6.208   1.245  0.3835  0.0055  0.7693
 9604TIP3    H228770   5.890   6.127   1.224  0.2173  0.4400  0.0690
 9605TIP3   OH228771   4.904   6.584   0.743 -0.1532 -0.3151  0.2571
 9605TIP3    H128772   4.846   6.623   0.677 -0.1056  1.2709  1.1336
 9605TIP3    H228773   4.905   6.647   0.815  0.7718 -1.4513  1.2654
 9606TIP3   OH228774   1.282   2.374   6.672 -0.1712 -0.3111  1.0819
 9606TIP3    H128775   1.334   2.295   6.665 -1.5028 -1.4281  3.2599
 9606TIP3    H228776   1.199   2.353   6.629 -1.1925 -0.7419  3.2019
 9607TIP3   OH228777   6.993   6.081   2.062 -0.3356  0.2641  0.7408
 9607TIP3    H128778   7.052   6.079   2.138 -0.7138 -2.1035  0.9993
 9607TIP3    H228779   7.022   6.157   2.012  3.8916 -1.6045  0.1435
 9608TIP3   OH228780   5.405   2.209   5.037  0.2739 -0.4858 -0.4139
 9608TIP3    H128781   5.326   2.212   4.983 -0.9617 -2.1373  1.2249
 9608TIP3    H228782   5.398   2.287   5.092 -0.3172 -0.7009 -0.1712
 9609TIP3   OH228783   7.566   5.230   2.975 -0.3689 -0.1244  0.1319
 9609TIP3    H128784   7.620   5.228   3.054 -0.1679  1.7940  0.0656
 9609TIP3    H228785   7.608   5.295   2.919 -1.5535 -0.1424 -0.7961
 9610TIP3   OH228786   8.371   1.879   0.556 -0.0432 -0.3294  0.7343
 9610TIP3    H128787   8.348   1.932   0.633 -0.7688 -0.1263  0.3781
 9610TIP3    H228788   8.331   1.926   0.482  1.6745  0.1458  0.0806
 9611TIP3   OH228789   3.473   7.867   6.255  0.3572 -0.3046  0.1124
 9611TIP3    H128790   3.554   7.880   6.304  0.8059  0.6937 -0.8760
 9611TIP3    H228791   3.416   7.939   6.284  0.3876 -0.0961 -0.3455
 9612TIP3   OH228792   4.600   2.522   6.727  0.3851  0.1360  0.7270
 9612TIP3    H128793   4.565   2.599   6.772 -0.8896  0.2860 -0.4910
 9612TIP3    H228794   4.652   2.556   6.655 -2.2348 -0.0851 -1.3718
 9613TIP3   OH228795   7.833   4.234   1.380  0.1826 -0.3485 -0.6571
 9613TIP3    H128796   7.798   4.276   1.459 -0.3260  0.7238 -1.4398
 9613TIP3    H228797   7.760   4.182   1.347  0.2347 -0.3953 -0.6990
 9614TIP3   OH228798   6.281   4.439   0.310 -0.8378 -0.2667  0.0124
 9614TIP3    H128799   6.251   4.529   0.312 -0.2148 -0.0626  0.6116
 9614TIP3    H228800   6.361   4.441   0.257 -3.5630 -1.3544 -4.3493
 9615TIP3   OH228801   1.532   5.710   0.101 -0.2013 -0.1535 -0.5991
 9615TIP3    H128802   1.483   5.708   0.019 -0.2396 -0.8073 -0.5639
 9615TIP3    H228803   1.569   5.798   0.105 -1.1230  0.2507 -0.7752
 9616TIP3   OH228804   6.560   5.873   0.065 -0.3905 -0.5548  0.6623
 9616TIP3    H128805   6.653   5.893   0.061 -0.2611 -1.0569  1.1380
 9616TIP3    H228806   6.518   5.958   0.077 -0.1152 -0.1445 -1.1457
 9617TIP3   OH228807   6.006   6.440   1.695  0.4507 -0.0347  0.5270
 9617TIP3    H128808   6.013   6.533   1.676  0.1952 -0.4248 -1.5851
 9617TIP3    H228809   5.968   6.401   1.616 -0.0085 -1.8470  1.5939
 9618TIP3   OH228810   7.488   2.233   0.222  0.0913  0.1830 -0.6403
 9618TIP3    H128811   7.484   2.323   0.191 -1.0136  0.0417 -0.9314
 9618TIP3    H228812   7.512   2.182   0.145 -1.2364  0.0029 -0.9478
 9619TIP3   OH228813   4.982   4.049   1.355 -0.3234  0.3840 -0.1521
 9619TIP3    H128814   5.055   3.987   1.358 -2.6280 -2.3944  0.9299
 9619TIP3    H228815   4.972   4.069   1.262  1.4526  0.3899 -0.3642
 9620TIP3   OH228816   7.108   3.288   0.041  0.0981  0.6688  0.0524
 9620TIP3    H128817   7.118   3.200   0.004  3.8204  0.8892  0.2867
 9620TIP3    H228818   7.129   3.276   0.134 -1.0654  1.5226  0.4239
 9621TIP3   OH228819   2.998   0.539   6.027 -0.1186  0.3292  0.1378
 9621TIP3    H128820   2.957   0.584   6.100 -1.4883  0.5812 -0.7531
 9621TIP3    H228821   2.930   0.536   5.959  0.9496 -0.3321 -0.9429
 9622TIP3   OH228822   7.856   2.038   1.102 -0.2607  0.6135 -0.4435
 9622TIP3    H128823   7.876   2.071   1.014 -0.1067  1.9260  0.0741
 9622TIP3    H228824   7.812   1.954   1.086  1.1056  0.1085 -1.7229
 9623TIP3   OH228825   4.023   0.157   6.840 -0.4483  0.1075  0.2444
 9623TIP3    H128826   3.930   0.157   6.864 -0.4113 -1.1927  0.3828
 9623TIP3    H228827   4.053   0.245   6.863 -2.1266  1.2218 -1.7021
 9624TIP3   OH228828   4.172   6.027   0.068  0.3111 -0.1229  0.0262
 9624TIP3    H128829   4.170   6.063   0.157 -1.3289 -1.0247  0.3744
 9624TIP3    H228830   4.093   6.061   0.027 -0.7733 -2.5504  0.0628
 9625TIP3   OH228831   6.498   5.938   0.661  0.3694  0.3025  0.1678
 9625TIP3    H128832   6.511   6.027   0.626  1.1173 -0.3979 -1.3658
 9625TIP3    H228833   6.415   5.910   0.623  1.0647 -0.3692 -0.8710
 9626TIP3   OH228834   4.694   0.985   6.678 -0.1114  0.2742 -0.4426
 9626TIP3    H128835   4.682   0.938   6.761 -1.6283  0.9239 -0.2760
 9626TIP3    H228836   4.755   1.055   6.699 -0.0815  0.1177  0.0030
 9627TIP3   OH228837   4.305   3.060   0.848  0.2094  0.1463 -0.0939
 9627TIP3    H128838   4.273   3.140   0.806  0.5089  0.1015 -0.4082
 9627TIP3    H228839   4.352   3.014   0.779  0.3871 -0.1059  0.1948
 9628TIP3   OH228840   7.356   7.680   6.886  0.0400  0.0035 -0.3488
 9628TIP3    H128841   7.409   7.639   6.818  0.5782 -0.1319  0.1452
 9628TIP3    H228842   7.359   7.618   6.959 -0.3610  0.2438 -0.1253
 9629TIP3   OH228843   6.600   5.151   0.321  0.3172 -0.2489 -0.4417
 9629TIP3    H128844   6.633   5.225   0.371  0.9843  1.0956 -2.7867
 9629TIP3    H228845   6.666   5.083   0.332  1.1012  0.4933 -0.5934
 9630TIP3   OH228846   7.911   3.502   0.738 -0.1619 -0.0004  0.1141
 9630TIP3    H128847   7.870   3.430   0.688  0.7009  1.1050 -2.2725
 9630TIP3    H228848   7.869   3.581   0.704  1.5752  0.8963 -0.0096
 9631TIP3   OH228849   2.352   2.535   6.244  0.1730 -0.5963 -0.2127
 9631TIP3    H128850   2.308   2.606   6.290 -0.6585 -1.3452  0.1601
 9631TIP3    H228851   2.293   2.512   6.171  0.7573 -0.4473 -0.7388
 9632TIP3   OH228852   4.316   0.366   4.930  0.1339 -0.3768 -0.5330
 9632TIP3    H128853   4.393   0.420   4.915  0.9679 -1.4310 -0.1109
 9632TIP3    H228854   4.281   0.395   5.014  0.4845 -0.3849 -0.3861
 9633TIP3   OH228855   5.915   2.536   6.207  0.1917  0.6799 -0.1339
 9633TIP3    H128856   5.879   2.456   6.246  2.6630  0.8195  2.5906
 9633TIP3    H228857   5.866   2.547   6.126 -2.1628 -2.0276  0.8351
 9634TIP3   OH228858   5.868   0.937   6.481  0.2698 -0.5844 -0.0646
 9634TIP3    H128859   5.882   1.031   6.481 -0.8797 -0.4022 -0.8960
 9634TIP3    H228860   5.938   0.902   6.426  0.1734 -0.1372 -0.4666
 9635TIP3   OH228861   2.420   1.782   6.315  0.1301  0.3474 -0.7264
 9635TIP3    H128862   2.503   1.756   6.355  0.0466 -1.0470 -1.4092
 9635TIP3    H228863   2.434   1.872   6.286  0.4602  1.0835  1.6609
 9636TIP3   OH228864   5.314   4.409   0.321 -0.7034 -0.1186 -0.9689
 9636TIP3    H128865   5.249   4.479   0.311  0.7030  1.5601  1.2247
 9636TIP3    H228866   5.275   4.349   0.384 -0.6600  0.2451 -0.5899
 9637TIP3   OH228867   7.863   2.734   1.192 -0.1833  0.0913 -0.2806
 9637TIP3    H128868   7.803   2.699   1.258  0.6657  0.0854  0.5160
 9637TIP3    H228869   7.900   2.656   1.150 -1.5828  0.1077 -1.5799
 9638TIP3   OH228870   3.113   2.143   6.534  0.4881 -0.0340  0.2246
 9638TIP3    H128871   3.088   2.147   6.442 -1.0374  1.8383  0.6758
 9638TIP3    H228872   3.193   2.196   6.539  0.0153  0.6951  0.1398
 9639TIP3   OH228873   4.526   6.715   1.418 -0.1785  0.2631 -0.4073
 9639TIP3    H128874   4.582   6.663   1.475 -0.1470 -0.7434 -1.3348
 9639TIP3    H228875   4.484   6.778   1.477 -1.8615 -2.1963  1.1313
 9640TIP3   OH228876   7.514   4.498   0.412 -0.0137 -0.0717 -0.1801
 9640TIP3    H128877   7.515   4.442   0.490  2.3597 -2.0237 -1.5215
 9640TIP3    H228878   7.479   4.441   0.343 -1.4876  1.4417 -0.7137
 9641TIP3   OH228879   3.254   1.164   6.718 -0.1172 -0.2489  0.5118
 9641TIP3    H128880   3.220   1.132   6.802  1.9783  2.6367  2.5421
 9641TIP3    H228881   3.336   1.117   6.706 -0.4987 -0.7851 -0.0315
 9642TIP3   OH228882   3.814   2.559   3.276 -0.7114 -0.3509 -0.7856
 9642TIP3    H128883   3.741   2.617   3.252 -0.7590 -0.4250 -0.8205
 9642TIP3    H228884   3.773   2.473   3.290 -0.6019 -0.4423 -1.0180
 9643TIP3   OH228885   2.437   1.618   4.985 -0.4137  0.0351  0.2410
 9643TIP3    H128886   2.506   1.662   5.035 -1.1924  2.7677 -1.0168
 9643TIP3    H228887   2.484   1.570   4.917  0.3392  0.7477  0.2505
 9644TIP3   OH228888   3.134   1.624   6.749 -0.2786  0.6111 -0.3229
 9644TIP3    H128889   3.125   1.719   6.743 -3.5050  0.4115  0.2319
 9644TIP3    H228890   3.219   1.610   6.790  0.1512  3.2535 -0.2532
 9645TIP3   OH228891   5.818   5.376   2.618 -0.2424 -0.5075  0.1266
 9645TIP3    H128892   5.806   5.354   2.526  0.3694 -0.4981  0.0423
 9645TIP3    H228893   5.897   5.431   2.620 -1.7586  1.6910  0.3418
 9646TIP3   OH228894   3.522   2.791   4.930  0.0913  0.0563  0.5238
 9646TIP3    H128895   3.459   2.786   5.001  0.1197  0.2500  0.5620
 9646TIP3    H228896   3.469   2.800   4.851  0.0607 -0.1316  0.5217
 9647TIP3   OH228897   3.695   0.979   6.263  0.8017  0.4199  0.0667
 9647TIP3    H128898   3.622   1.016   6.214 -0.6895 -0.2768  1.6962
 9647TIP3    H228899   3.718   1.047   6.327 -1.0312 -0.8208  2.1413
 9648TIP3   OH228900   5.244   1.307   6.859  0.0082 -0.2680 -0.3544
 9648TIP3    H128901   5.156   1.343   6.863 -0.4560 -1.5574  1.7592
 9648TIP3    H228902   5.281   1.323   6.946  1.5301 -0.5129 -0.9398
 9649TIP3   OH228903   0.202   7.522   6.004 -0.1246  0.1696 -0.5273
 9649TIP3    H128904   0.236   7.506   6.092 -1.6226  1.0039  0.2380
 9649TIP3    H228905   0.276   7.556   5.955  0.6582 -0.0263  0.5003
 9650TIP3   OH228906   7.367   4.441   0.061  0.5998 -0.1376  0.2489
 9650TIP3    H128907   7.402   4.479  -0.020 -1.1842  0.0460 -0.4614
 9650TIP3    H228908   7.388   4.348   0.054  0.7719 -0.0643 -0.2611
 9651TIP3   OH228909   7.323   5.464   2.016 -0.0792  0.7122 -0.4783
 9651TIP3    H128910   7.269   5.535   2.049  1.5126  0.6798  2.3310
 9651TIP3    H228911   7.382   5.506   1.954 -1.3570  1.2450 -1.3487
 9652TIP3   OH228912   6.740   4.876   0.248 -0.3190 -0.4525 -0.4723
 9652TIP3    H128913   6.659   4.926   0.248  0.9093  1.5896 -0.2021
 9652TIP3    H228914   6.736   4.823   0.169 -1.8879 -0.3172 -0.4858
 9653TIP3   OH228915   8.292   2.558   0.028  0.2052 -0.0500  0.0552
 9653TIP3    H128916   8.352   2.628   0.002  0.6858  0.3921  2.2901
 9653TIP3    H228917   8.345   2.500   0.082 -0.6936 -1.0942 -0.1791
 9654TIP3   OH228918   5.877   5.796   0.800  0.1368  0.3436  0.4894
 9654TIP3    H128919   5.969   5.798   0.774  0.3515 -1.9169  0.9392
 9654TIP3    H228920   5.874   5.847   0.881  1.1029 -0.0592  0.7806
 9655TIP3   OH228921   3.785   0.017   6.724 -0.0326 -0.2265 -0.2338
 9655TIP3    H128922   3.693  -0.008   6.719 -0.1728 -0.0617  1.4272
 9655TIP3    H228923   3.800   0.035   6.816  1.6106 -0.0158 -0.5350
 9656TIP3   OH228924   2.603   1.011   6.685 -0.5695 -0.2730  0.0053
 9656TIP3    H128925   2.508   1.007   6.693 -0.6264  1.8050  0.5988
 9656TIP3    H228926   2.627   0.929   6.641 -2.5646 -1.0639  0.3539
 9657TIP3   OH228927   6.175   4.910   0.862  0.1014 -0.1185 -0.5451
 9657TIP3    H128928   6.266   4.880   0.866 -0.2612 -1.2630 -0.5623
 9657TIP3    H228929   6.176   4.982   0.799  0.7142 -1.2516 -1.8697
 9658TIP3   OH228930   4.381   0.900   5.697  0.2106  0.2739  0.8722
 9658TIP3    H128931   4.408   0.986   5.731 -1.8588  0.9267  0.9156
 9658TIP3    H228932   4.449   0.877   5.634  0.8305  1.9037  0.9167
 9659TIP3   OH228933   7.889   5.637   0.312 -0.7724 -0.1222 -0.0889
 9659TIP3    H128934   7.918   5.725   0.336  2.2663 -0.8961 -0.7428
 9659TIP3    H228935   7.874   5.641   0.217 -0.1064 -0.4226 -0.2131
 9660TIP3   OH228936   6.009   4.995   1.602 -0.2265  0.1076 -0.3455
 9660TIP3    H128937   6.056   4.921   1.565 -0.4046 -0.6980  0.9839
 9660TIP3    H228938   6.048   5.072   1.561  0.0709 -0.7115 -1.6198
 9661TIP3   OH228939   7.692   6.986   0.973 -0.8384 -0.2246 -0.1608
 9661TIP3    H128940   7.721   7.026   1.054 -0.4901 -0.6221 -0.0879
 9661TIP3    H228941   7.679   6.894   0.995  1.8588 -0.8916 -1.2010
 9662TIP3   OH228942   4.113   0.942   6.396 -0.0113  0.1788 -0.3087
 9662TIP3    H128943   4.039   0.918   6.340 -0.7970 -0.2513  0.8833
 9662TIP3    H228944   4.151   0.858   6.422  0.8195  0.3981 -0.8170
 9663TIP3   OH228945   0.344   6.060   0.963 -0.5458 -0.1319 -0.9107
 9663TIP3    H128946   0.400   6.077   0.886 -1.2045 -3.9581 -2.3728
 9663TIP3    H228947   0.404   6.024   1.028 -0.0309  2.8931  0.3595
 9664TIP3   OH228948   7.409   2.899   1.218  0.0706 -0.1938  0.0759
 9664TIP3    H128949   7.320   2.865   1.204  0.2154 -0.2272 -0.8261
 9664TIP3    H228950   7.445   2.909   1.129  0.8451  0.1465  0.4209
 9665TIP3   OH228951   0.627   7.539   4.549  0.0982  0.0830  0.3353
 9665TIP3    H128952   0.721   7.544   4.562  0.2824  2.8434 -1.5029
 9665TIP3    H228953   0.590   7.564   4.633  1.0056 -0.6789  0.9660
 9666TIP3   OH228954   7.309   3.637   0.256 -0.3089 -0.3475 -0.0618
 9666TIP3    H128955   7.309   3.641   0.352  3.5221 -0.4168  0.0090
 9666TIP3    H228956   7.322   3.727   0.228  1.4608 -0.6840 -0.4033
 9667TIP3   OH228957   4.861   3.722   1.991 -0.3945 -0.1407 -0.6613
 9667TIP3    H128958   4.910   3.682   2.062 -1.2406  0.6216  0.3774
 9667TIP3    H228959   4.785   3.666   1.978 -1.1627  0.6741  0.2501
 9668TIP3   OH228960  -0.017   4.854   2.928  0.1213  0.3067  0.2238
 9668TIP3    H128961   0.050   4.786   2.927  0.4154  0.4817  3.2058
 9668TIP3    H228962  -0.014   4.891   2.840  1.3343 -2.1845 -0.8399
 9669TIP3   OH228963   3.798   0.222   5.844  0.5600  0.0563 -0.3092
 9669TIP3    H128964   3.872   0.179   5.800  1.0713  0.0941  0.5051
 9669TIP3    H228965   3.735   0.152   5.860  2.2680 -0.8459  2.8784
 9670TIP3   OH228966   7.014   4.679   1.057  0.2709 -0.0627  0.2109
 9670TIP3    H128967   6.926   4.641   1.066 -0.0645  0.6775  0.0680
 9670TIP3    H228968   7.056   4.661   1.141 -0.3132  0.3322  0.5935
 9671TIP3   OH228969   4.650   5.498   1.048  0.4851 -0.0243  0.5489
 9671TIP3    H128970   4.659   5.403   1.051  0.6699  0.0340  2.0239
 9671TIP3    H228971   4.561   5.512   1.015  0.3838 -0.7142  0.5120
 9672TIP3   OH228972   2.891   1.807   4.555  0.0732  0.4546  0.3267
 9672TIP3    H128973   2.904   1.713   4.571 -1.2647  0.3897  1.1031
 9672TIP3    H228974   2.945   1.825   4.478 -1.3098 -1.4309 -1.1367
 9673TIP3   OH228975   0.937   2.112   5.695 -0.2586  0.2865  0.5881
 9673TIP3    H128976   1.015   2.092   5.644 -0.0319  1.2107  0.5657
 9673TIP3    H228977   0.968   2.166   5.767 -0.9409  1.0363  0.3266
 9674TIP3   OH228978   6.825   7.324   1.048  0.2591 -0.1915  0.3297
 9674TIP3    H128979   6.881   7.294   1.120  1.2039  0.0470 -0.2851
 9674TIP3    H228980   6.779   7.246   1.019  2.4494 -1.0445 -1.0406
 9675TIP3   OH228981   7.071   7.225   1.694  0.3675  0.1204  0.3283
 9675TIP3    H128982   7.023   7.142   1.689  0.0377  0.3837 -1.3098
 9675TIP3    H228983   7.011   7.284   1.740 -0.2965  0.0240 -0.3788
 9676TIP3   OH228984   4.279   3.838   6.527 -0.0745  0.5042  0.2155
 9676TIP3    H128985   4.331   3.853   6.605 -1.4663  0.6278  1.1381
 9676TIP3    H228986   4.328   3.879   6.456  2.2409 -1.4139  0.6602
 9677TIP3   OH228987   5.173   4.915   0.872  0.2798 -0.0829 -0.1183
 9677TIP3    H128988   5.267   4.900   0.860  0.5235  1.1656  0.1460
 9677TIP3    H228989   5.158   4.899   0.965  0.4575  0.8044  0.0735
 9678TIP3   OH228990   4.289   2.103   6.214  0.1569  0.4449  0.6725
 9678TIP3    H128991   4.204   2.075   6.250  0.1028  1.4943  1.4188
 9678TIP3    H228992   4.338   2.022   6.200 -0.4044 -0.0850  1.6938
 9679TIP3   OH228993   5.636   7.416   0.041 -0.2365  0.5097  0.1002
 9679TIP3    H128994   5.567   7.432   0.106 -0.3752  0.4538 -0.0327
 9679TIP3    H228995   5.646   7.500  -0.004  0.9089  0.9790  1.1965
 9680TIP3   OH228996   5.305   3.469   0.477  0.2038  0.0214  0.1532
 9680TIP3    H128997   5.269   3.498   0.561 -0.1801 -2.5931  0.9353
 9680TIP3    H228998   5.384   3.420   0.500 -0.6213 -1.8420 -0.8882
 9681TIP3   OH228999   7.374   4.672   0.750 -0.1706  0.1278  0.1497
 9681TIP3    H129000   7.351   4.677   0.843 -0.4627  0.0109  0.0832
 9681TIP3    H229001   7.393   4.580   0.735  1.0392  0.3299  0.3690
 9682TIP3   OH229002   0.296   7.805   6.104  0.0735 -0.1817  0.6427
 9682TIP3    H129003   0.251   7.745   6.163  0.8310  1.6906  3.1921
 9682TIP3    H229004   0.389   7.784   6.115  0.1387 -0.8290 -1.0263
 9683TIP3   OH229005   4.960   3.679   1.672  0.5721 -0.4596 -0.1215
 9683TIP3    H129006   4.928   3.666   1.761 -0.0199 -0.1416 -0.2839
 9683TIP3    H229007   4.897   3.632   1.617  0.1468  0.5173 -0.4774
 9684TIP3   OH229008   0.547   6.649   2.565  0.2774  0.0572 -0.3721
 9684TIP3    H129009   0.543   6.668   2.658  0.0008 -1.1310 -0.1344
 9684TIP3    H229010   0.602   6.719   2.528  0.3447  0.5532  0.6612
 9685TIP3   OH229011   1.503   7.422   6.543  0.1154 -0.2707 -0.3603
 9685TIP3    H129012   1.544   7.456   6.622  0.1199  2.5308 -1.5163
 9685TIP3    H229013   1.486   7.499   6.489  0.1196 -2.1086 -3.1190
 9686TIP3   OH229014   6.181   0.216   3.819  0.1429  0.5794  0.2064
 9686TIP3    H129015   6.258   0.245   3.867 -0.9222  0.8301  1.7785
 9686TIP3    H229016   6.108   0.226   3.880 -0.7212 -2.5011 -0.2185
 9687TIP3   OH229017   4.087   1.422   6.046 -0.0449 -0.1608 -0.0651
 9687TIP3    H129018   4.114   1.378   6.126  0.6947 -0.1391 -0.2986
 9687TIP3    H229019   4.005   1.379   6.021 -0.2590 -0.1884  0.6836
 9688TIP3   OH229020   0.040   3.396   1.088 -0.7100 -0.5451  0.1458
 9688TIP3    H129021  -0.033   3.348   1.126  0.9388 -2.8566  0.5029
 9688TIP3    H229022   0.060   3.465   1.152 -2.0752 -0.3729  0.3876
 9689TIP3   OH229023   6.686   5.765   0.562 -0.6987  0.0674 -0.2564
 9689TIP3    H129024   6.650   5.753   0.474 -0.0444  2.8758 -0.9543
 9689TIP3    H229025   6.616   5.809   0.611  0.0165  1.2337 -0.2603
 9690TIP3   OH229026   3.554   5.538   1.773 -0.3654  0.3956 -0.0570
 9690TIP3    H129027   3.622   5.530   1.706 -0.7295  0.3964 -0.4310
 9690TIP3    H229028   3.592   5.496   1.851 -0.5524 -1.0329 -0.7209
 9691TIP3   OH229029   6.280   6.345   1.169  0.1780  0.0679  0.4081
 9691TIP3    H129030   6.223   6.355   1.245  0.0124 -0.5547  0.3667
 9691TIP3    H229031   6.368   6.364   1.203  0.0181  0.4887  0.5935
 9692TIP3   OH229032   6.980   5.818   0.894  0.0772  0.1600  0.2653
 9692TIP3    H129033   7.055   5.769   0.860 -0.5662  0.4358 -1.5900
 9692TIP3    H229034   7.017   5.875   0.962  1.4878  0.0457 -0.4014
 9693TIP3   OH229035   4.548   5.149   0.010 -0.3300 -0.3198 -0.0961
 9693TIP3    H129036   4.621   5.180   0.063  0.0267  0.7390 -1.1865
 9693TIP3    H229037   4.589   5.123  -0.073 -1.4190  2.0925 -1.4296
 9694TIP3   OH229038   4.917   5.295   1.122 -0.0264  0.1491 -0.4547
 9694TIP3    H129039   4.940   5.237   1.194  0.8755  0.7110 -0.2784
 9694TIP3    H229040   4.859   5.243   1.067 -1.1956 -0.0935  0.9782
 9695TIP3   OH229041   4.812   4.396   0.408 -0.4324  0.2630 -0.0577
 9695TIP3    H129042   4.757   4.470   0.383 -0.4433 -0.2995 -1.7548
 9695TIP3    H229043   4.770   4.320   0.368  1.2005 -0.2723 -0.8041
 9696TIP3   OH229044   6.055   5.312   0.838 -0.4171  0.2636  0.0707
 9696TIP3    H129045   6.114   5.254   0.886  1.0357  1.2508 -0.4707
 9696TIP3    H229046   6.107   5.342   0.763 -0.7050  3.1704  0.9592
 9697TIP3   OH229047   5.000   0.891   6.245 -0.3573  0.0532  0.1911
 9697TIP3    H129048   4.953   0.895   6.328  0.0106  1.8327  0.3373
 9697TIP3    H229049   5.070   0.827   6.260 -0.2629  0.3960  1.2661
 9698TIP3   OH229050   5.199   0.731   6.315 -0.3296  0.4675  0.3710
 9698TIP3    H129051   5.283   0.760   6.350 -0.1186  0.6909 -0.3158
 9698TIP3    H229052   5.211   0.637   6.298 -0.7357  0.1542  1.7764
 9699TIP3   OH229053   5.733   5.291   1.383  0.1668  0.1289  0.6404
 9699TIP3    H129054   5.678   5.214   1.367  3.1748 -1.8195 -0.6273
 9699TIP3    H229055   5.701   5.325   1.467 -0.4051 -3.2209  1.8701
 9700TIP3   OH229056   2.528   7.675   5.000  0.2922  0.0006  0.3816
 9700TIP3    H129057   2.527   7.625   5.082 -0.5043  0.9265  0.9544
 9700TIP3    H229058   2.462   7.744   5.013  0.0615  0.0737 -1.0963
 9701TIP3   OH229059   4.830   1.672   6.242  0.2057  0.2875  0.2557
 9701TIP3    H129060   4.895   1.738   6.268  1.5197 -1.7490  2.2353
 9701TIP3    H229061   4.837   1.669   6.146  0.9869  2.1147  0.2229
 9702TIP3   OH229062   4.465   3.326   4.448  0.4108  0.1676 -0.1779
 9702TIP3    H129063   4.409   3.257   4.414 -1.1413  1.4707 -0.3389
 9702TIP3    H229064   4.459   3.318   4.543 -0.5290  0.6769 -0.1927
 9703TIP3   OH229065   4.179   1.377   6.819  0.2076 -0.2166 -0.0097
 9703TIP3    H129066   4.222   1.387   6.904 -0.9695  0.8951  0.4924
 9703TIP3    H229067   4.248   1.391   6.755  0.5638  1.9207  0.7727
 9704TIP3   OH229068   3.517   4.969   0.586  0.4035  0.3686  0.2350
 9704TIP3    H129069   3.612   4.963   0.580  0.3572 -0.1023 -0.1157
 9704TIP3    H229070   3.499   4.973   0.680  0.8297  1.7431  0.2673
 9705TIP3   OH229071   1.331   5.940   2.039 -0.2841 -0.1908  0.1926
 9705TIP3    H129072   1.294   5.888   1.968 -0.5476 -0.0831  0.2522
 9705TIP3    H229073   1.256   5.978   2.084 -0.1023  0.0691  0.2822
 9706TIP3   OH229074   2.071   4.724   0.860  0.1073 -0.4226  0.3276
 9706TIP3    H129075   2.056   4.819   0.856  1.1603 -0.1391  2.4619
 9706TIP3    H229076   2.027   4.697   0.941  0.2248 -1.6787 -0.0220
 9707TIP3   OH229077   2.138   6.685   0.654 -0.1013  0.2567 -0.0720
 9707TIP3    H129078   2.198   6.648   0.590  0.1463  0.1748  0.2132
 9707TIP3    H229079   2.055   6.693   0.606 -0.4010 -1.4950  0.1310
 9708TIP3   OH229080   7.925   5.329   0.237 -0.4478 -0.5488 -0.2732
 9708TIP3    H129081   7.856   5.389   0.266 -0.5269 -1.7779  2.2225
 9708TIP3    H229082   8.002   5.384   0.224 -1.1387  0.4159 -0.3115
 9709TIP3   OH229083   4.854   1.335   6.449 -0.0105 -0.3874  0.0190
 9709TIP3    H129084   4.790   1.284   6.399  0.4782  0.2385 -1.2407
 9709TIP3    H229085   4.917   1.270   6.480  1.4764 -0.4227 -2.8789
 9710TIP3   OH229086   1.041   4.171   0.326 -0.9887  0.7212  0.1444
 9710TIP3    H129087   1.020   4.089   0.282 -0.0941  0.4787  0.1594
 9710TIP3    H229088   1.030   4.152   0.419  0.1349  0.3340  0.2099
 9711TIP3   OH229089   2.318   7.440   5.405  0.7152 -0.1557  0.1238
 9711TIP3    H129090   2.297   7.387   5.328  0.0830 -0.1858  0.3170
 9711TIP3    H229091   2.278   7.393   5.478 -2.2739  2.0125 -0.0302
 9712TIP3   OH229092   3.323   7.397   6.455 -0.2231  0.1821 -0.6619
 9712TIP3    H129093   3.309   7.364   6.366  1.8060 -1.6825 -0.3275
 9712TIP3    H229094   3.337   7.318   6.507 -0.3903  1.3303  1.1407
 9713TIP3   OH229095   0.093   4.911   0.015  0.2933 -0.5406  0.1531
 9713TIP3    H129096   0.071   4.877   0.102  2.0010 -0.2176  0.7358
 9713TIP3    H229097   0.108   4.833  -0.038 -1.3379 -0.7459 -0.0107
 9714TIP3   OH229098   8.010   5.415   1.570 -0.1475 -0.2761  0.1574
 9714TIP3    H129099   8.012   5.410   1.665  1.0634 -0.2903  0.1409
 9714TIP3    H229100   7.961   5.495   1.551 -3.3117 -1.9857  0.7105
 9715TIP3   OH229101   2.506   7.925   6.718 -0.1159  0.2697 -0.1541
 9715TIP3    H129102   2.587   7.875   6.730  0.7199  1.8974  1.2884
 9715TIP3    H229103   2.474   7.899   6.632  0.1582 -2.8950  0.6456
 9716TIP3   OH229104   3.522   7.589   6.249  0.3441 -0.0819 -0.6534
 9716TIP3    H129105   3.473   7.668   6.270  0.4088  0.2284 -1.6348
 9716TIP3    H229106   3.604   7.598   6.296 -0.2287 -0.2531  0.4061
 9717TIP3   OH229107   8.171   6.175   1.438 -0.4846 -0.0135 -0.0729
 9717TIP3    H129108   8.135   6.088   1.457  0.8782 -0.4677  0.5495
 9717TIP3    H229109   8.205   6.167   1.349 -2.3508  0.5771 -0.8628
 9718TIP3   OH229110   6.595   4.902   1.334  0.3024  0.3493 -0.0173
 9718TIP3    H129111   6.591   4.851   1.253  0.5030 -0.0507  0.2232
 9718TIP3    H229112   6.688   4.909   1.354  0.1745 -1.3238  1.2815
 9719TIP3   OH229113   1.078   4.965   0.094  0.0351 -0.4853 -0.0982
 9719TIP3    H129114   1.129   4.884   0.099  0.4650 -0.2316 -0.3585
 9719TIP3    H229115   1.138   5.029   0.055 -0.2848 -0.0270  0.1600
 9720TIP3   OH229116   1.296   5.917   0.712 -0.1782  0.0524 -0.3085
 9720TIP3    H129117   1.343   5.849   0.666  1.8175  0.0421  1.6663
 9720TIP3    H229118   1.311   5.997   0.661 -1.2303 -0.6470 -1.7590
 9721TIP3   OH229119   1.255   7.623   1.401  0.2896  0.5445  0.8456
 9721TIP3    H129120   1.203   7.558   1.450  1.4040 -0.9027  0.1512
 9721TIP3    H229121   1.345   7.594   1.413  0.6885  1.1214 -0.7102
 9722TIP3   OH229122   5.619   0.679   5.659 -0.3147  0.1326  0.4357
 9722TIP3    H129123   5.565   0.675   5.738  1.2597  1.4102  1.6071
 9722TIP3    H229124   5.624   0.772   5.638 -0.6725 -0.1986 -1.1447
 9723TIP3   OH229125   4.361   0.138   6.395  0.1797 -0.1341  0.3975
 9723TIP3    H129126   4.447   0.174   6.418 -0.1951  0.8624  0.2379
 9723TIP3    H229127   4.304   0.164   6.467 -0.5938  1.4816 -0.7827
 9724TIP3   OH229128   6.223   2.110   5.905 -0.4700  0.2458  0.3584
 9724TIP3    H129129   6.279   2.037   5.878  1.8994  2.2538 -0.2858
 9724TIP3    H229130   6.152   2.111   5.841  0.1457 -0.7276 -0.3453
 9725TIP3   OH229131   0.133   6.837   2.508 -0.1318 -0.2524 -0.5658
 9725TIP3    H129132   0.161   6.828   2.599 -1.7496  1.1133  0.0861
 9725TIP3    H229133   0.049   6.790   2.503 -0.2427  0.0080 -1.2642
 9726TIP3   OH229134   7.968   5.463   0.752 -0.6167  0.0160  0.3544
 9726TIP3    H129135   7.956   5.458   0.847 -0.3771 -0.1468  0.3769
 9726TIP3    H229136   7.917   5.390   0.717 -0.0858 -0.3836  0.4142
 9727TIP3   OH229137   1.578   5.982   0.033  0.0745 -0.7056  0.3786
 9727TIP3    H129138   1.564   6.042   0.106  2.7494  0.0298  0.3204
 9727TIP3    H229139   1.628   6.032  -0.031 -0.5154 -1.9779 -1.1163
 9728TIP3   OH229140   7.028   2.676   5.004 -0.4412 -0.2370 -0.1208
 9728TIP3    H129141   7.044   2.763   4.968  1.9253 -0.2827  0.7685
 9728TIP3    H229142   7.083   2.672   5.082 -1.3481 -2.1471  0.4463
 9729TIP3   OH229143   5.744   7.207   4.988  0.2472  0.6182  0.1983
 9729TIP3    H129144   5.705   7.122   5.011 -0.1955  0.4778 -1.0050
 9729TIP3    H229145   5.698   7.271   5.041 -0.1746  0.2154  0.3184
 9730TIP3   OH229146   4.643   0.231   6.396  0.4355  0.8710  0.0938
 9730TIP3    H129147   4.647   0.326   6.411  1.7018  0.7906  0.3399
 9730TIP3    H229148   4.712   0.195   6.452 -0.3657 -0.2504  0.3749
 9731TIP3   OH229149   4.538   3.225   6.601  0.8976  0.6207  0.2629
 9731TIP3    H129150   4.598   3.176   6.658  0.1056  0.1053  0.6672
 9731TIP3    H229151   4.578   3.221   6.514 -0.2156 -2.5639 -0.1422
 9732TIP3   OH229152   2.418   6.020   0.807 -0.2494 -0.2440 -0.3436
 9732TIP3    H129153   2.358   6.025   0.882 -0.2355  0.5843 -0.3811
 9732TIP3    H229154   2.412   6.106   0.766  3.0035  0.8071  1.2362
 9733TIP3   OH229155   1.530   7.621   6.329  0.2872  0.2303  0.2888
 9733TIP3    H129156   1.469   7.609   6.257  1.3119 -1.2819 -0.3660
 9733TIP3    H229157   1.568   7.707   6.315 -0.4872  0.4919 -0.2267
 9734TIP3   OH229158   5.467   1.668   6.930 -1.1003  0.2199  0.1301
 9734TIP3    H129159   5.500   1.718   6.855 -0.5023 -0.0131  0.2290
 9734TIP3    H229160   5.544   1.620   6.962 -1.8743 -1.5892 -0.6297
 9735TIP3   OH229161   8.141   5.481   0.144  0.1142  0.4370 -0.3297
 9735TIP3    H129162   8.195   5.455   0.219 -1.0239  1.2203  0.7823
 9735TIP3    H229163   8.185   5.558   0.109  0.1186  0.6536  0.1425
 9736TIP3   OH229164   7.948   5.859   1.139 -0.0522 -0.2285 -0.2202
 9736TIP3    H129165   7.885   5.880   1.208 -0.9546  0.7060 -1.3045
 9736TIP3    H229166   7.984   5.774   1.165 -1.8617 -0.8489  0.3585
 9737TIP3   OH229167   7.625   5.398   1.130  0.3710  0.2150 -0.0491
 9737TIP3    H129168   7.641   5.343   1.207 -0.1962  1.0273  0.6531
 9737TIP3    H229169   7.568   5.344   1.075  1.8413 -0.9052 -0.5319
 9738TIP3   OH229170   6.628   2.182   5.781 -0.0271 -0.4262 -0.0204
 9738TIP3    H129171   6.715   2.145   5.794  0.6000  1.0745  0.1627
 9738TIP3    H229172   6.642   2.258   5.725 -1.1576  0.0727  0.3472
 9739TIP3   OH229173   8.096   6.488   1.167 -0.4687 -0.1125  0.7631
 9739TIP3    H129174   8.104   6.577   1.199 -1.9647 -0.1446  1.2813
 9739TIP3    H229175   8.140   6.488   1.082  1.0186  0.6838  1.5267
 9740TIP3   OH229176   1.717   4.592   0.810  0.6577 -0.2627  0.2128
 9740TIP3    H129177   1.745   4.684   0.809  1.1517 -0.4134 -0.4259
 9740TIP3    H229178   1.770   4.550   0.742  0.7986 -1.1312  0.8546
 9741TIP3   OH229179   4.989   1.923   5.103 -0.0203 -0.2860 -0.2089
 9741TIP3    H129180   5.058   1.857   5.106  0.3950  0.1404 -0.2538
 9741TIP3    H229181   4.918   1.887   5.156  1.0048  0.1553  1.5131
 9742TIP3   OH229182   2.861   6.732   6.493 -0.3409  0.3111 -0.2909
 9742TIP3    H129183   2.922   6.725   6.566  0.1563  0.5502 -0.6760
 9742TIP3    H229184   2.878   6.655   6.439 -0.7403  0.1099 -0.1247
 9743TIP3   OH229185   3.094   1.576   6.166 -0.4687  0.0537  0.0746
 9743TIP3    H129186   3.165   1.531   6.120 -1.4047 -0.8426 -0.5098
 9743TIP3    H229187   3.111   1.669   6.150 -0.5892 -0.2233 -1.8041
 9744TIP3   OH229188   3.690   1.933   6.510 -1.1834  0.4355  0.2302
 9744TIP3    H129189   3.642   1.983   6.445 -0.9899 -0.2814 -0.4711
 9744TIP3    H229190   3.627   1.917   6.580 -1.2894  1.5167  0.3919
 9745TIP3   OH229191   6.343   0.986   4.527 -0.3208  0.0701  0.5101
 9745TIP3    H129192   6.307   0.924   4.590  0.3878  0.8779  1.7418
 9745TIP3    H229193   6.363   0.934   4.450 -0.3546 -1.1053  1.2857
 9746TIP3   OH229194   5.214   0.409   6.929  0.5683  0.0065 -0.2462
 9746TIP3    H129195   5.159   0.356   6.871  0.1468  1.1357 -0.8880
 9746TIP3    H229196   5.173   0.402   7.015  0.2337 -0.3145 -0.4297
 9747TIP3   OH229197   8.155   6.695   1.456 -0.0962 -0.1714  0.4255
 9747TIP3    H129198   8.213   6.716   1.529 -0.1945 -0.0589  0.4715
 9747TIP3    H229199   8.132   6.603   1.469  0.5476 -0.3841  0.0744
 9748TIP3   OH229200   0.401   2.264   6.779  0.1801  0.2691  0.2644
 9748TIP3    H129201   0.396   2.268   6.683  2.5157  1.9458  0.1900
 9748TIP3    H229202   0.319   2.304   6.809 -0.1331  0.5940 -1.0006
 9749TIP3   OH229203   0.157   6.019   0.107  0.4734 -0.1122  0.1255
 9749TIP3    H129204   0.082   6.020   0.048  1.7720  1.1642 -1.5395
 9749TIP3    H229205   0.132   6.077   0.179 -0.6610 -0.7640  0.2642
 9750TIP3   OH229206   7.267   5.190   0.355 -0.8046 -0.0146  0.1809
 9750TIP3    H129207   7.267   5.179   0.450  1.7124  0.6084  0.2963
 9750TIP3    H229208   7.292   5.103   0.321 -0.2201  0.1647  0.1563
 9751TIP3   OH229209   6.627   6.702   0.203  0.5764  0.0842  0.4113
 9751TIP3    H129210   6.706   6.663   0.240  1.4204 -0.6537 -2.0536
 9751TIP3    H229211   6.573   6.628   0.176 -0.7359  0.5936  1.5992
 9752TIP3   OH229212   6.505   0.520   5.952 -0.2419  0.0350  0.0195
 9752TIP3    H129213   6.528   0.538   5.861  0.1834  0.9423  0.2972
 9752TIP3    H229214   6.451   0.595   5.978 -2.1396 -1.2468 -0.1119
 9753TIP3   OH229215   7.473   4.903   0.641 -0.1816  0.2333 -0.3144
 9753TIP3    H129216   7.428   4.830   0.684 -0.0446 -0.5000 -1.3966
 9753TIP3    H229217   7.422   4.918   0.561  1.0255 -0.0750 -1.1522
 9754TIP3   OH229218   7.591   3.575   0.473 -0.5797  0.2192 -0.1868
 9754TIP3    H129219   7.651   3.561   0.399 -1.3003  0.2072 -0.7824
 9754TIP3    H229220   7.641   3.626   0.536  0.7969 -1.7094  0.3068
 9755TIP3   OH229221   4.300   0.731   6.596 -0.4149 -0.3392  0.4688
 9755TIP3    H129222   4.218   0.732   6.646  0.0094  1.5315  1.1694
 9755TIP3    H229223   4.287   0.664   6.530 -2.6481  0.1525  0.3757
 9756TIP3   OH229224   4.073   6.018   6.468  0.0684  0.2482 -0.1231
 9756TIP3    H129225   4.061   5.993   6.559 -1.1743  0.6366 -0.1747
 9756TIP3    H229226   4.013   5.961   6.419  1.9761 -1.1831 -0.8898
 9757TIP3   OH229227   0.721   4.391   0.788  0.4556  0.3066  0.1515
 9757TIP3    H129228   0.701   4.313   0.839 -1.7815 -0.0598 -1.2329
 9757TIP3    H229229   0.699   4.465   0.846 -2.7117 -0.0996 -0.4740
 9758TIP3   OH229230   1.898   5.671   1.691 -0.0937  0.5666 -0.2578
 9758TIP3    H129231   1.894   5.765   1.711  0.7343  0.5843 -0.1458
 9758TIP3    H229232   1.955   5.635   1.759  1.0803  0.2880 -1.3730
 9759TIP3   OH229233   0.804   4.163   2.413  0.3198  0.3102 -0.4482
 9759TIP3    H129234   0.720   4.184   2.454 -0.4415  1.3695 -2.4949
 9759TIP3    H229235   0.780   4.117   2.333  1.7336 -0.1743 -0.5963
 9760TIP3   OH229236   3.306   6.630   5.022 -0.0320  0.0472 -0.8687
 9760TIP3    H129237   3.238   6.573   5.059  1.1758 -1.1574 -0.4510
 9760TIP3    H229238   3.379   6.571   5.004  1.5110  1.5698  0.2147
 9761TIP3   OH229239   0.912   5.006   1.872 -0.6579 -0.0135 -0.1930
 9761TIP3    H129240   0.866   5.027   1.954 -0.7529 -2.7317  0.4884
 9761TIP3    H229241   0.999   5.044   1.884 -1.0996  0.7901  0.5912
 9762TIP3   OH229242   7.101   6.108   0.332 -0.5671 -0.2017  0.2045
 9762TIP3    H129243   7.168   6.045   0.305 -0.4350  0.0683 -0.1077
 9762TIP3    H229244   7.150   6.183   0.364 -0.7161  0.1687 -0.4255
 9763TIP3   OH229245   0.524   3.225   2.017  0.7648 -0.8265 -0.7348
 9763TIP3    H129246   0.510   3.133   2.039  0.8770 -0.0651  2.6502
 9763TIP3    H229247   0.437   3.258   1.996  0.1131 -0.7081  2.0706
 9764TIP3   OH229248   6.147   3.828   0.363  0.0493  0.0223  0.2862
 9764TIP3    H129249   6.076   3.808   0.303  0.1580 -1.9650  0.7557
 9764TIP3    H229250   6.227   3.805   0.315  0.1725 -0.9082  0.9110
 9765TIP3   OH229251   1.419   5.068   0.267 -0.0281 -0.2346 -0.1653
 9765TIP3    H129252   1.479   5.137   0.239 -0.1465  0.2429  0.7572
 9765TIP3    H229253   1.377   5.039   0.185  2.1621 -1.2638 -0.9485
 9766TIP3   OH229254   4.890   7.116   0.436 -0.2015  0.3233 -0.0163
 9766TIP3    H129255   4.957   7.057   0.400  0.1536  1.0383 -0.5473
 9766TIP3    H229256   4.933   7.202   0.438 -1.2402  0.8669 -0.7611
 9767TIP3   OH229257   6.007   2.159   5.440 -0.1764 -0.0842 -0.3890
 9767TIP3    H129258   6.088   2.205   5.464  0.6273  0.0863 -3.2172
 9767TIP3    H229259   5.971   2.212   5.368 -2.4668 -0.5358  0.4066
 9768TIP3   OH229260   5.319   0.107   6.383 -0.5035  0.3728  0.2776
 9768TIP3    H129261   5.242   0.152   6.417  1.0618  1.3408  2.6921
 9768TIP3    H229262   5.391   0.168   6.399  0.7905 -0.5134 -1.9382
 9769TIP3   OH229263   7.740   5.480   1.962 -0.0294 -0.5475  0.2069
 9769TIP3    H129264   7.683   5.555   1.944  1.1396  0.3368  0.0971
 9769TIP3    H229265   7.733   5.467   2.057  1.1164  0.8564  0.5154
 9770TIP3   OH229266   5.247   0.979   6.639  0.5124 -0.1438 -0.5513
 9770TIP3    H129267   5.240   0.883   6.640 -2.3378  0.0327 -1.4288
 9770TIP3    H229268   5.232   1.005   6.730  1.8367 -0.5193 -0.2023
 9771TIP3   OH229269   5.957   0.734   6.650 -0.2878 -0.0569 -0.3298
 9771TIP3    H129270   6.048   0.763   6.654 -0.2236 -0.3609  0.3808
 9771TIP3    H229271   5.911   0.806   6.607  0.0114  0.7638  0.7010
 9772TIP3   OH229272   1.160   2.787   0.741  0.0163 -0.2009 -0.0667
 9772TIP3    H129273   1.085   2.741   0.703 -0.5907  1.0399 -0.3879
 9772TIP3    H229274   1.215   2.809   0.666  1.0757 -1.7006  0.2245
 9773TIP3   OH229275   5.080   3.206   4.989 -0.1140 -0.2983  0.2171
 9773TIP3    H129276   5.154   3.257   5.022 -0.0629 -0.9074  1.0563
 9773TIP3    H229277   5.107   3.179   4.902 -0.3424  1.5168 -0.4317
 9774TIP3   OH229278   8.405   5.504   0.883 -0.1780  0.0812 -0.2207
 9774TIP3    H129279   8.350   5.472   0.955  0.1071  0.3118  0.1013
 9774TIP3    H229280   8.357   5.480   0.804 -0.6090  0.0369  0.0522
 9775TIP3   OH229281   3.778   1.024   6.695 -0.0144  0.0449  0.6895
 9775TIP3    H129282   3.869   1.052   6.700  0.2115 -0.5835  0.2523
 9775TIP3    H229283   3.727   1.103   6.708  0.5945  0.2957  1.5791
 9776TIP3   OH229284   5.832   2.462   5.499  0.2802  0.1121  0.5873
 9776TIP3    H129285   5.796   2.417   5.422 -0.5930 -1.1108  1.6960
 9776TIP3    H229286   5.900   2.519   5.463  0.0582 -0.6306 -1.0686
 9777TIP3   OH229287   3.446   7.602   6.655 -0.5310 -0.2645 -0.1530
 9777TIP3    H129288   3.420   7.548   6.580 -3.6920  1.6503 -0.5137
 9777TIP3    H229289   3.487   7.680   6.617  0.4915 -0.5869  0.2465
 9778TIP3   OH229290   6.814   5.986   0.024 -0.0165 -0.1078 -0.9209
 9778TIP3    H129291   6.882   6.012   0.087 -0.1098 -2.0880  0.0327
 9778TIP3    H229292   6.861   5.938  -0.043 -0.2854 -0.2513 -1.0070
 9779TIP3   OH229293   7.247   4.651   0.428 -0.0619 -0.3070 -0.0933
 9779TIP3    H129294   7.180   4.642   0.495  0.1108  2.2441  0.4855
 9779TIP3    H229295   7.329   4.628   0.472 -0.2091 -0.7028 -0.0250
 9780TIP3   OH229296   1.295   7.291   2.554 -0.7405  0.2460  0.0353
 9780TIP3    H129297   1.309   7.290   2.459 -2.4513 -0.1390 -0.2305
 9780TIP3    H229298   1.205   7.324   2.564 -0.3232  0.9306  1.5522
 9781TIP3   OH229299   4.792   0.459   5.916  0.1433 -0.1670  0.1937
 9781TIP3    H129300   4.761   0.368   5.916  0.5665 -0.3182  1.5870
 9781TIP3    H229301   4.717   0.510   5.885 -0.1837 -0.9555 -0.3312
 9782TIP3   OH229302   0.049   5.462   1.709  0.5513  0.5146 -0.2043
 9782TIP3    H129303   0.005   5.389   1.751  0.0534  2.0286  1.9878
 9782TIP3    H229304   0.131   5.426   1.676  0.4558 -0.9466  1.1369
 9783TIP3   OH229305   7.372   1.795   3.087 -0.0353  0.2312 -0.3367
 9783TIP3    H129306   7.302   1.846   3.128 -0.0016 -0.0302  0.0471
 9783TIP3    H229307   7.345   1.704   3.100 -0.8669  0.1628 -2.3543
 9784TIP3   OH229308   0.087   6.370   0.742  0.4680  0.0832  0.1382
 9784TIP3    H129309   0.099   6.312   0.667  0.9971 -0.8377  0.9150
 9784TIP3    H229310   0.138   6.329   0.812  0.9395  1.5442  0.6738
 9785TIP3   OH229311   5.185   3.450   6.035  0.2335 -0.1861  0.1598
 9785TIP3    H129312   5.200   3.357   6.014 -0.2955 -0.1949 -0.1795
 9785TIP3    H229313   5.104   3.472   5.990  0.9529  0.7500 -0.7159
 9786TIP3   OH229314   8.115   2.227   6.215  0.8275  0.2524  0.6151
 9786TIP3    H129315   8.068   2.226   6.131  1.4781  1.4234  0.2370
 9786TIP3    H229316   8.051   2.258   6.278  0.9957  1.5766  0.1476
 9787TIP3   OH229317   4.582   1.250   6.311 -0.5398  0.2390  0.3203
 9787TIP3    H129318   4.532   1.271   6.390 -1.0902  0.5821 -0.1160
 9787TIP3    H229319   4.541   1.170   6.278 -1.2269  0.8874 -0.4029
 9788TIP3   OH229320   6.411   6.282   0.850  0.0001 -0.5033 -0.3925
 9788TIP3    H129321   6.496   6.309   0.886 -0.4443 -0.5405  0.6943
 9788TIP3    H229322   6.429   6.263   0.758  0.9071  0.7714 -0.4932
 9789TIP3   OH229323   7.293   5.925   0.271 -0.1092 -0.4299  0.5229
 9789TIP3    H129324   7.282   5.859   0.340 -1.0282 -1.5969 -0.7214
 9789TIP3    H229325   7.388   5.932   0.261  0.0069 -1.7895  0.4652
 9790TIP3   OH229326   4.529   2.872   5.436  0.0926 -0.0184 -0.5193
 9790TIP3    H129327   4.491   2.813   5.371 -2.7672  3.5536 -2.2397
 9790TIP3    H229328   4.607   2.909   5.394 -0.2100  0.2361 -0.8522
 9791TIP3   OH229329   1.293   6.538   0.386  0.0093  0.0209  0.1261
 9791TIP3    H129330   1.381   6.502   0.381 -0.6174 -1.6018  0.5468
 9791TIP3    H229331   1.238   6.465   0.414 -1.7232  0.6272 -1.6087
 9792TIP3   OH229332   7.123   1.680   6.787  0.1480 -0.1067  0.2465
 9792TIP3    H129333   7.133   1.730   6.705 -1.2572  1.2584  0.8936
 9792TIP3    H229334   7.034   1.645   6.783 -0.0275  0.2060  1.3209
 9793TIP3   OH229335   4.681   0.543   3.051  0.6576 -0.3025  0.4426
 9793TIP3    H129336   4.747   0.590   3.102  1.1836  0.0681 -0.5603
 9793TIP3    H229337   4.654   0.604   2.983 -1.2357 -0.2187  1.2483
 9794TIP3   OH229338   0.006   5.543   0.137  0.0613  0.0936  0.3688
 9794TIP3    H129339  -0.044   5.472   0.177 -0.3759 -0.1667 -0.6193
 9794TIP3    H229340   0.083   5.499   0.100  0.6284  0.3793  1.2007
 9795TIP3   OH229341   7.451   4.147   0.006  0.0163  0.0808 -0.0332
 9795TIP3    H129342   7.362   4.118  -0.013 -0.1005  0.7789 -0.5882
 9795TIP3    H229343   7.498   4.067   0.029 -0.8915 -0.2202  0.8162
 9796TIP3   OH229344   5.704   1.030   3.951 -0.3816  0.2437 -0.4169
 9796TIP3    H129345   5.674   1.064   3.866 -1.1900  0.1228 -0.1838
 9796TIP3    H229346   5.700   1.105   4.010 -0.7569  0.0946 -0.2528
 9797TIP3   OH229347   5.445   2.966   4.058 -0.1222 -0.3345  0.2558
 9797TIP3    H129348   5.378   3.012   4.108 -0.4526  1.4474 -1.7288
 9797TIP3    H229349   5.513   3.032   4.042 -0.8252 -0.2947 -3.0414
 9798TIP3   OH229350   7.276   1.209   4.064 -0.5901 -0.1034 -0.2513
 9798TIP3    H129351   7.269   1.304   4.062  0.6167 -0.0096 -1.4076
 9798TIP3    H229352   7.186   1.177   4.060 -1.0614  0.9904  1.3790
 9799TIP3   OH229353   8.002   6.269   0.904 -0.2084 -0.8671 -0.3603
 9799TIP3    H129354   8.081   6.290   0.854 -0.4364 -0.8797 -0.7256
 9799TIP3    H229355   8.006   6.174   0.916 -0.4096 -0.9323 -0.7913
 9800TIP3   OH229356   3.463   1.442   5.062  0.2181  0.7564 -0.0734
 9800TIP3    H129357   3.421   1.495   4.995 -0.5946 -0.8948 -0.9110
 9800TIP3    H229358   3.542   1.408   5.020 -0.0320  0.1210 -0.0320
 9801TIP3   OH229359   7.048   6.929   1.018 -0.2210 -0.3230 -0.0105
 9801TIP3    H129360   7.132   6.970   1.001 -0.3953  1.0458  2.2245
 9801TIP3    H229361   7.070   6.840   1.045  0.6150  0.3422  1.5943
 9802TIP3   OH229362   4.657   2.095   6.673  0.0387  0.0808  0.7033
 9802TIP3    H129363   4.565   2.121   6.669 -0.1145 -0.1149  2.5253
 9802TIP3    H229364   4.657   2.005   6.638 -0.2655  0.5128 -0.4330
 9803TIP3   OH229365   5.039   1.116   6.460 -0.1104  0.5888 -0.0955
 9803TIP3    H129366   5.082   1.116   6.374  1.0769  0.6556  0.4853
 9803TIP3    H229367   5.008   1.026   6.472  0.7413  0.2941 -0.0948
 9804TIP3   OH229368   8.157   4.883   0.566  0.2563  0.3381  0.0813
 9804TIP3    H129369   8.112   4.826   0.629 -0.2356  0.6068 -0.0187
 9804TIP3    H229370   8.244   4.844   0.555  0.5332  0.5893  1.3279
 9805TIP3   OH229371   6.303   2.506   4.662 -0.1462 -0.0260  0.6515
 9805TIP3    H129372   6.311   2.519   4.567  0.7611  2.3765  1.0381
 9805TIP3    H229373   6.386   2.465   4.687  0.4331  1.1674  0.7032
 9806TIP3   OH229374   4.423   1.458   5.491  0.4336 -0.4513  0.5830
 9806TIP3    H129375   4.494   1.515   5.462 -0.0429  0.7704  1.7546
 9806TIP3    H229376   4.359   1.461   5.419  0.9275 -0.4346  0.1426
 9807TIP3   OH229377   4.439   1.402   5.890 -0.0002 -0.3078  0.5931
 9807TIP3    H129378   4.362   1.348   5.905 -0.8659  0.7098 -0.1055
 9807TIP3    H229379   4.469   1.426   5.977  0.2784 -1.7403  0.9062
 9808TIP3   OH229380   5.550   1.003   4.741  0.0209 -0.2111  0.1367
 9808TIP3    H129381   5.619   0.962   4.792  0.7383  1.3592  0.4583
 9808TIP3    H229382   5.497   1.049   4.806 -0.8644 -0.7286 -0.2029
 9809TIP3   OH229383   5.046   2.383   6.004 -0.5029 -0.4560 -0.3853
 9809TIP3    H129384   5.041   2.341   6.089  0.4543  0.8685  0.3573
 9809TIP3    H229385   5.117   2.337   5.959 -0.0063 -0.1953  0.1155
 9810TIP3   OH229386   6.269   1.015   6.172 -0.2764  0.2464 -0.1443
 9810TIP3    H129387   6.356   1.029   6.211 -0.8027  0.9126  0.8098
 9810TIP3    H229388   6.282   1.033   6.079  0.4696  1.0212  0.0946
 9811TIP3   OH229389   1.926   3.963   3.578 -0.3877 -0.3213  0.6507
 9811TIP3    H129390   2.001   3.920   3.538  0.9205  2.4664 -0.0125
 9811TIP3    H229391   1.941   3.954   3.672 -0.1822 -1.3240  0.5337
 9812TIP3   OH229392   3.816   2.001   6.155 -0.1953 -0.4339 -0.5341
 9812TIP3    H129393   3.788   2.065   6.089  0.9286  2.4935  1.6730
 9812TIP3    H229394   3.758   2.018   6.230  1.9757  0.0146  1.0979
 9813TIP3   OH229395   1.951   6.185   0.468 -0.5739  0.1087  0.0071
 9813TIP3    H129396   1.876   6.224   0.514 -0.4836 -0.6565  0.8129
 9813TIP3    H229397   1.977   6.251   0.405 -1.2886  0.8004  0.4248
 9814TIP3   OH229398   6.371   1.880   5.767  0.1635  0.5232 -0.0082
 9814TIP3    H129399   6.364   1.810   5.831  3.1895  1.2074  1.1604
 9814TIP3    H229400   6.352   1.838   5.683  1.3692 -1.5780  0.7355
 9815TIP3   OH229401   3.035   1.034   6.055  0.2342  0.2156  0.2939
 9815TIP3    H129402   2.992   0.952   6.032 -1.2806  0.7698  0.9917
 9815TIP3    H229403   3.128   1.015   6.053 -0.0744 -1.2729 -0.4372
 9816TIP3   OH229404   1.525   7.904   4.536  0.2469 -0.5708 -0.2666
 9816TIP3    H129405   1.440   7.938   4.565 -1.1093 -2.5798 -1.7614
 9816TIP3    H229406   1.528   7.924   4.442  1.1005 -1.1603 -0.3709
 9817TIP3   OH229407   0.579   1.819   5.693 -0.1395  0.2039  0.6017
 9817TIP3    H129408   0.515   1.882   5.725 -0.1529  0.4203  0.1516
 9817TIP3    H229409   0.528   1.757   5.641 -0.3039 -0.8392  1.9695
 9818TIP3   OH229410   2.327   7.894   5.025  0.1418  0.0421  0.5004
 9818TIP3    H129411   2.270   7.941   4.965 -0.3574  1.1615  1.8183
 9818TIP3    H229412   2.410   7.942   5.022  0.2035 -0.0645  0.4916
 9819TIP3   OH229413   1.026   6.253   0.673 -0.1473 -0.6628 -0.1837
 9819TIP3    H129414   1.118   6.279   0.671 -0.2181 -0.3847  0.0785
 9819TIP3    H229415   1.016   6.203   0.754  0.2868 -2.6600 -1.3318
 9820TIP3   OH229416   2.638   6.571   4.811 -0.0737  0.3314  0.2150
 9820TIP3    H129417   2.697   6.496   4.810  1.4468  1.4635  2.0092
 9820TIP3    H229418   2.577   6.554   4.739  0.7088 -2.2254  0.0817
 9821TIP3   OH229419   5.152   5.381   0.129 -0.3316  0.0674 -0.1395
 9821TIP3    H129420   5.120   5.364   0.218  0.3658 -1.7551 -0.2107
 9821TIP3    H229421   5.124   5.305   0.078  1.7420 -0.2870 -0.8027
 9822TIP3   OH229422   0.173   6.559   1.902  0.5889  0.1559 -0.6187
 9822TIP3    H129423   0.082   6.558   1.933  1.2235  1.2501  1.3265
 9822TIP3    H229424   0.165   6.575   1.808 -1.2582 -0.1623 -0.5408
 9823TIP3   OH229425   4.744   0.851   5.726 -0.3224 -0.4969 -0.0005
 9823TIP3    H129426   4.784   0.780   5.674 -2.2090 -2.0775  0.6160
 9823TIP3    H229427   4.669   0.879   5.673 -0.3439  0.1460  0.3676
 9824TIP3   OH229428   6.625   3.159   6.106  0.1865 -0.1338 -0.1039
 9824TIP3    H129429   6.613   3.237   6.051  0.8911  0.7867  1.0109
 9824TIP3    H229430   6.719   3.147   6.111  0.0696 -1.2628 -0.5349
 9825TIP3   OH229431   7.099   4.590   0.658 -0.1155 -0.1603 -0.2617
 9825TIP3    H129432   7.019   4.640   0.673 -0.2835 -0.4789 -0.0808
 9825TIP3    H229433   7.164   4.633   0.713  0.3434  1.3350 -1.9286
 9826TIP3   OH229434   8.127   3.156   0.816 -0.2909 -0.2547  0.1054
 9826TIP3    H129435   8.180   3.209   0.875 -1.2473  2.5447 -1.4498
 9826TIP3    H229436   8.049   3.134   0.867 -0.7326  1.4525  0.2207
 9827TIP3   OH229437   7.124   1.298   6.892  0.0004 -0.0135 -0.0242
 9827TIP3    H129438   7.038   1.270   6.925 -0.3164  1.2340  0.2678
 9827TIP3    H229439   7.118   1.286   6.797 -0.1952 -0.7226  0.0760
 9828TIP3   OH229440   0.255   6.681   2.287 -0.0781 -0.4409  0.2984
 9828TIP3    H129441   0.239   6.743   2.358 -1.2123  0.2154 -0.5148
 9828TIP3    H229442   0.253   6.735   2.208  0.7274 -1.2362 -0.2689
 9829TIP3   OH229443   1.589   5.289   0.175  0.0451 -0.1238 -1.0422
 9829TIP3    H129444   1.660   5.227   0.159  0.2160 -0.0578 -0.5369
 9829TIP3    H229445   1.559   5.313   0.087  0.2702 -0.5812 -1.2491
 9830TIP3   OH229446   8.266   1.372   0.910  0.0818  0.1204  0.2227
 9830TIP3    H129447   8.201   1.423   0.958  0.3341 -0.6609  1.4287
 9830TIP3    H229448   8.347   1.383   0.961  0.2589 -1.0454  0.2101
 9831TIP3   OH229449   8.001   3.827   3.281  0.2148 -0.0700 -0.2685
 9831TIP3    H129450   7.983   3.876   3.201 -1.2589 -1.1195 -0.5999
 9831TIP3    H229451   7.968   3.883   3.352  0.8777  0.5449 -0.4405
 9832TIP3   OH229452   3.660   1.447   6.505  0.1419  0.0572  0.6822
 9832TIP3    H129453   3.655   1.528   6.455  1.5552 -0.5155 -0.3894
 9832TIP3    H229454   3.672   1.378   6.440 -0.4851 -0.9740  1.6208
 9833TIP3   OH229455   6.522   6.028   1.140  0.1376  0.7195 -0.0509
 9833TIP3    H129456   6.430   6.007   1.151  0.1130  1.3752  0.9716
 9833TIP3    H229457   6.553   5.964   1.075 -0.9823  0.3939 -0.2772
 9834TIP3   OH229458   5.070   1.879   5.734  0.8635  0.4595  0.0329
 9834TIP3    H129459   5.069   1.928   5.651  1.7185  2.0244  0.9190
 9834TIP3    H229460   5.028   1.938   5.796  1.2662 -0.2474  0.9778
 9835TIP3   OH229461   5.241   2.490   4.151 -0.1009 -0.4640  0.3479
 9835TIP3    H129462   5.210   2.523   4.066 -1.0062  0.3571  0.9796
 9835TIP3    H229463   5.333   2.515   4.154  0.2361 -1.5010 -0.8734
 9836TIP3   OH229464   6.044   1.216   5.760  0.3512 -0.2251  0.2710
 9836TIP3    H129465   6.097   1.256   5.691  0.3831 -2.4212 -1.0300
 9836TIP3    H229466   5.966   1.271   5.765  1.7288  1.7683  0.6800
 9837TIP3   OH229467   7.841   2.926   5.516 -0.3232 -0.1121 -0.2573
 9837TIP3    H129468   7.913   2.967   5.563 -1.4161 -0.2406  1.5824
 9837TIP3    H229469   7.882   2.884   5.440  1.1072  2.4696 -0.9633
 9838TIP3   OH229470   0.330   3.798   1.061  0.6048  0.4850  0.8165
 9838TIP3    H129471   0.394   3.772   0.995  2.3724  2.3283  1.7252
 9838TIP3    H229472   0.346   3.739   1.135  0.5808  0.2824  0.6578
 9839TIP3   OH229473   3.975   1.825   6.520  0.1822 -0.3877  0.0341
 9839TIP3    H129474   3.961   1.745   6.471  1.4353 -1.0029  0.6556
 9839TIP3    H229475   3.889   1.846   6.557 -0.4554 -0.6651 -1.2834
 9840TIP3   OH229476   6.801   0.694   6.323  0.4814  0.2866  0.2529
 9840TIP3    H129477   6.864   0.630   6.288 -0.2710 -1.1141  1.3986
 9840TIP3    H229478   6.717   0.669   6.284  0.2038  0.6729  0.6011
 9841TIP3   OH229479   1.754   2.999   0.442 -1.1186 -0.2165  0.3973
 9841TIP3    H129480   1.771   3.083   0.484  0.4074  0.9884 -2.5034
 9841TIP3    H229481   1.808   2.936   0.490  1.9003  1.4216 -0.7406
 9842TIP3   OH229482   2.286   6.157   0.091  0.1625 -0.2131 -0.4360
 9842TIP3    H129483   2.308   6.096   0.021  0.8860 -0.6629  0.1762
 9842TIP3    H229484   2.194   6.140   0.111  0.5901 -1.7022  0.3160
 9843TIP3   OH229485   4.326   1.148   3.334 -0.7571  0.4608  0.2103
 9843TIP3    H129486   4.309   1.158   3.240 -3.5439 -1.5672  0.4334
 9843TIP3    H229487   4.266   1.210   3.376 -1.6727 -0.7611  0.7320
 9844TIP3   OH229488   2.619   0.519   6.786 -0.2075  0.4987  0.0353
 9844TIP3    H129489   2.670   0.501   6.865  0.2857 -1.0687 -0.6171
 9844TIP3    H229490   2.683   0.518   6.715 -0.5390  2.6205 -0.3305
 9845TIP3   OH229491   5.694   0.872   6.201 -0.1735  0.2107 -0.3475
 9845TIP3    H129492   5.646   0.824   6.133 -1.1473  1.7106 -0.7439
 9845TIP3    H229493   5.778   0.891   6.161 -0.6807  0.9375 -1.0866
 9846TIP3   OH229494   4.842   1.606   6.500 -0.7113 -0.3245  0.0275
 9846TIP3    H129495   4.842   1.512   6.479 -0.6907 -0.2185 -0.4598
 9846TIP3    H229496   4.846   1.649   6.414  0.3426  0.1086  0.2876
 9847TIP3   OH229497   7.995   1.304   6.742  0.1765  0.0504  0.0980
 9847TIP3    H129498   7.917   1.283   6.792  0.5723 -1.7143  0.0247
 9847TIP3    H229499   8.030   1.382   6.783 -0.6328 -0.1915  1.2744
 9848TIP3   OH229500   2.393   4.849   0.368  0.7070  0.2704  0.1516
 9848TIP3    H129501   2.318   4.793   0.388  0.2554  1.4336  1.8240
 9848TIP3    H229502   2.357   4.918   0.311  0.7978  0.0835 -0.1337
 9849TIP3   OH229503   7.244   5.317   0.071 -0.4696 -0.9406 -0.6908
 9849TIP3    H129504   7.253   5.410   0.090 -1.3168 -0.8353 -0.7797
 9849TIP3    H229505   7.301   5.274   0.135 -2.9306 -0.5666  1.8640
 9850TIP3   OH229506   1.567   4.205   0.852 -0.4767 -0.1288  0.1337
 9850TIP3    H129507   1.652   4.223   0.811 -0.2333 -1.3258  0.0918
 9850TIP3    H229508   1.538   4.123   0.813 -0.1293 -1.4354  2.4771
 9851TIP3   OH229509   4.900   1.910   6.594 -0.0262  0.7258 -0.0420
 9851TIP3    H129510   4.958   1.970   6.642  1.5646 -2.0857  1.7486
 9851TIP3    H229511   4.936   1.908   6.505  1.1533  0.8727  0.4171
 9852TIP3   OH229512   5.106   1.236   5.345 -0.3861 -0.3118  0.4048
 9852TIP3    H129513   5.124   1.142   5.336 -0.6068 -0.3841  0.6865
 9852TIP3    H229514   5.107   1.269   5.255  3.3622  0.1392  0.5371
 9853TIP3   OH229515   0.752   7.270   1.359 -0.3257 -0.4524 -0.2832
 9853TIP3    H129516   0.705   7.292   1.439 -1.1697 -1.1796 -0.5755
 9853TIP3    H229517   0.755   7.175   1.358 -2.0124 -0.5160 -2.0778
 9854TIP3   OH229518   5.814   1.768   4.824  0.1321  0.0501 -0.1471
 9854TIP3    H129519   5.792   1.745   4.733 -3.3753  3.9614 -0.4645
 9854TIP3    H229520   5.889   1.827   4.816  0.9605 -1.0129 -0.3326
 9855TIP3   OH229521   7.988   3.438   1.233  0.4416 -0.0711  0.3998
 9855TIP3    H129522   8.056   3.414   1.171  0.2952  2.2474 -0.7306
 9855TIP3    H229523   8.002   3.532   1.249 -2.3631  0.4364  0.2578
 9856TIP3   OH229524   5.049   2.223   5.174  0.3637 -0.1701 -0.6774
 9856TIP3    H129525   5.045   2.127   5.170  0.7630 -0.1901 -0.6088
 9856TIP3    H229526   5.110   2.247   5.104  1.1889 -0.0389  0.0798
 9857TIP3   OH229527   1.119   5.281   0.316 -0.0588 -0.7635 -0.0667
 9857TIP3    H129528   1.065   5.356   0.338 -0.1945 -0.9169  0.1282
 9857TIP3    H229529   1.129   5.233   0.398  1.9004  0.2271  0.3103
 9858TIP3   OH229530   7.951   5.924  -0.005 -0.1981 -0.2267 -0.2366
 9858TIP3    H129531   8.040   5.919   0.029  0.3689 -0.1840 -1.6611
 9858TIP3    H229532   7.905   5.850   0.035  0.6518 -0.6226  0.0103
 9859TIP3   OH229533   0.844   5.851   1.796  0.2237 -0.0196  0.1893
 9859TIP3    H129534   0.785   5.843   1.722  0.8760  1.0381 -0.4536
 9859TIP3    H229535   0.797   5.905   1.859 -0.1510 -0.5541  0.3748
 9860TIP3   OH229536   5.508   1.383   6.801  0.1456 -0.0501  0.1113
 9860TIP3    H129537   5.484   1.457   6.857 -0.4634  1.2835 -1.8394
 9860TIP3    H229538   5.431   1.327   6.800 -0.8326  1.2743 -1.4742
 9861TIP3   OH229539   5.892   0.042   5.532 -0.1896  0.3332 -0.3421
 9861TIP3    H129540   5.845  -0.035   5.564 -0.0132  0.0228 -0.8161
 9861TIP3    H229541   5.980   0.033   5.568 -0.6117  1.1430  0.9053
 9862TIP3   OH229542   4.159   1.901   5.734  0.1838 -0.1410  0.0277
 9862TIP3    H129543   4.143   1.866   5.646  1.5764 -0.5210 -0.0904
 9862TIP3    H229544   4.100   1.852   5.791 -0.1765 -0.4305 -0.5918
 9863TIP3   OH229545   5.348   2.441   5.174  0.4015  0.2729  0.3687
 9863TIP3    H129546   5.409   2.496   5.124 -0.1688  0.0761 -0.5689
 9863TIP3    H229547   5.288   2.503   5.215 -0.5280  0.3502 -1.0694
 9864TIP3   OH229548   0.040   6.255   0.255 -0.2106  0.1122 -0.1601
 9864TIP3    H129549   0.031   6.330   0.196  0.4972  0.2527 -0.0943
 9864TIP3    H229550  -0.045   6.210   0.250 -1.3066  1.9544  1.2313
 9865TIP3   OH229551   5.958   2.202   6.687  0.0248 -0.2040 -0.0547
 9865TIP3    H129552   5.997   2.226   6.602  2.1929 -0.2359  0.8975
 9865TIP3    H229553   6.025   2.226   6.751 -1.8593  0.4226  1.7141
 9866TIP3   OH229554   7.169   4.631   0.147  0.5245 -0.0808  0.4077
 9866TIP3    H129555   7.199   4.642   0.238 -0.1068  0.4284  0.5582
 9866TIP3    H229556   7.214   4.552   0.117 -0.1459 -0.9137  1.5394
 9867TIP3   OH229557   7.418   3.347   5.279 -0.1841 -0.3830  0.2750
 9867TIP3    H129558   7.456   3.382   5.199  1.8768 -1.3100  0.8009
 9867TIP3    H229559   7.324   3.360   5.270  0.1153  0.3371 -1.8869
 9868TIP3   OH229560   7.644   6.978   0.688  0.2887  0.7002  0.2123
 9868TIP3    H129561   7.659   6.989   0.782 -1.1498  0.9401  0.4245
 9868TIP3    H229562   7.561   7.022   0.672  1.0347  1.5696 -1.3681
 9869TIP3   OH229563   7.325   1.514   6.682  0.4125 -0.7951 -0.1306
 9869TIP3    H129564   7.271   1.439   6.657  0.5668 -0.9460 -0.0072
 9869TIP3    H229565   7.264   1.574   6.725 -0.0576 -0.1305 -1.6650
 9870TIP3   OH229566   4.243   6.331   4.518  0.2018  0.1340 -0.1449
 9870TIP3    H129567   4.290   6.383   4.584  0.4856  0.7701 -0.8445
 9870TIP3    H229568   4.257   6.240   4.545 -1.6213  0.4475  1.9858
 9871TIP3   OH229569   1.508   6.022   0.310  0.0209  0.2931 -0.1101
 9871TIP3    H129570   1.591   5.998   0.351 -0.5994  1.1985  1.7587
 9871TIP3    H229571   1.446   5.956   0.344 -0.4640  0.9502  0.2989
 9872TIP3   OH229572   1.664   4.901   0.182  0.9029  0.3443  0.0699
 9872TIP3    H129573   1.611   4.923   0.259  0.3538  0.8601 -0.4488
 9872TIP3    H229574   1.609   4.841   0.132  0.8998  0.6931 -0.3484
 9873TIP3   OH229575   6.875   0.609   4.685  0.5669 -0.2958  0.1179
 9873TIP3    H129576   6.971   0.616   4.686  0.7260 -1.0344 -2.8595
 9873TIP3    H229577   6.858   0.516   4.698  0.2917 -0.2253  0.2459
 9874TIP3   OH229578   3.102   7.536   5.744  0.5542  0.2616  0.3286
 9874TIP3    H129579   3.138   7.494   5.666  0.6587  1.0485 -0.0538
 9874TIP3    H229580   3.008   7.524   5.737  0.6993 -1.3934  1.0904
 9875TIP3   OH229581   0.417   4.750   0.251 -0.4238 -0.3317 -0.0665
 9875TIP3    H129582   0.487   4.742   0.316 -0.5830  1.0910  0.2950
 9875TIP3    H229583   0.462   4.772   0.169 -0.3006 -1.2323 -0.2453
 9876TIP3   OH229584   0.200   6.705   0.160  0.3260 -0.9681 -0.8706
 9876TIP3    H129585   0.176   6.791   0.127  1.6866 -0.0663  0.4213
 9876TIP3    H229586   0.119   6.671   0.200  0.4049  0.8248  0.9197
 9877TIP3   OH229587   1.184   1.735   6.057  0.2077  0.0110 -0.5834
 9877TIP3    H129588   1.104   1.788   6.056  0.5855  0.7488  2.6251
 9877TIP3    H229589   1.172   1.675   6.131  2.6719  0.2269  0.0443
 9878TIP3   OH229590   0.094   2.976   6.189 -0.2205 -0.4572 -0.1692
 9878TIP3    H129591   0.182   2.945   6.168 -0.5884  0.2848 -3.1270
 9878TIP3    H229592   0.102   3.017   6.275  1.6223 -3.1433  0.9814
 9879TIP3   OH229593   2.879   5.697   0.562 -0.2119  0.4801 -0.2876
 9879TIP3    H129594   2.852   5.634   0.629  1.3242  0.7223  0.5856
 9879TIP3    H229595   2.816   5.769   0.571 -0.8324 -0.0881 -0.0199
 9880TIP3   OH229596   2.401   4.456   0.074  0.4219  0.3980 -0.0038
 9880TIP3    H129597   2.376   4.430  -0.015 -0.7950  0.9597  0.1661
 9880TIP3    H229598   2.413   4.551   0.070  1.1916  0.3143  0.2392
 9881TIP3   OH229599   3.762   5.770   4.802  0.1114 -0.1268 -0.7333
 9881TIP3    H129600   3.724   5.692   4.843 -0.5108 -0.1936 -1.4129
 9881TIP3    H229601   3.735   5.842   4.858 -1.4844 -0.1153 -1.4900
 9882TIP3   OH229602   4.776   1.006   5.963  0.3114 -0.3017  0.3070
 9882TIP3    H129603   4.707   1.006   6.030 -0.0540  0.8294 -0.0656
 9882TIP3    H229604   4.748   0.939   5.900  0.0346 -0.5133  0.6522
 9883TIP3   OH229605   6.243   0.598   4.341  0.5952 -0.2996 -0.2741
 9883TIP3    H129606   6.270   0.573   4.429  0.5130 -0.1483 -0.2079
 9883TIP3    H229607   6.151   0.574   4.336  0.1314  1.3242  0.2699
 9884TIP3   OH229608   6.609   1.558   6.252 -0.3072 -0.2240 -0.0119
 9884TIP3    H129609   6.625   1.483   6.309 -0.2275  0.0815  0.3708
 9884TIP3    H229610   6.691   1.568   6.202 -0.4140 -0.5553 -0.2578
 9885TIP3   OH229611   2.829   5.235   0.112  0.2996  0.0733  0.3864
 9885TIP3    H129612   2.813   5.154   0.161  0.1337 -0.5006 -0.5836
 9885TIP3    H229613   2.794   5.217   0.025  1.5152  0.6906 -0.2511
 9886TIP3   OH229614   8.217   4.113   0.002  0.0594  0.1994 -0.1715
 9886TIP3    H129615   8.184   4.063   0.077 -1.7382 -1.1972 -1.8381
 9886TIP3    H229616   8.292   4.063  -0.029  1.3964  1.2825  1.2266
 9887TIP3   OH229617   7.256   0.960   6.789 -0.1850 -0.0115  0.0252
 9887TIP3    H129618   7.246   1.055   6.791 -1.3953 -0.0955 -1.0827
 9887TIP3    H229619   7.338   0.946   6.741 -0.7799  0.4533 -1.1570
 9888TIP3   OH229620   6.374   0.053   4.706  0.1511 -0.6379 -0.2447
 9888TIP3    H129621   6.352  -0.029   4.750 -0.5763 -0.2157  0.1790
 9888TIP3    H229622   6.295   0.075   4.656  1.3577 -1.7250 -2.7109
 9889TIP3   OH229623   7.168   2.318   5.494 -0.6604 -0.4840 -0.4426
 9889TIP3    H129624   7.258   2.326   5.464  0.3633  1.4206  2.8241
 9889TIP3    H229625   7.158   2.225   5.517  1.5071 -0.1742  2.0007
 9890TIP3   OH229626   6.285   1.713   5.571 -0.1844 -0.1118 -0.0078
 9890TIP3    H129627   6.212   1.760   5.532  2.1098  2.1948 -1.7215
 9890TIP3    H229628   6.306   1.645   5.507 -0.0952 -0.0282 -0.0676
 9891TIP3   OH229629   7.668   3.474   5.496 -0.3243 -0.0451 -0.0920
 9891TIP3    H129630   7.733   3.448   5.432 -0.6895 -0.8020 -0.1649
 9891TIP3    H229631   7.648   3.394   5.544 -1.3449  0.1259 -0.2042
 9892TIP3   OH229632   0.942   5.988   0.205  0.9729  0.3205  0.0259
 9892TIP3    H129633   0.850   6.007   0.222  0.4097 -2.1089 -0.1191
 9892TIP3    H229634   0.985   6.001   0.290  0.1403 -0.4669  0.5749
 9893TIP3   OH229635   2.043   5.438   0.539 -0.2134  0.3300 -0.0746
 9893TIP3    H129636   2.022   5.453   0.631 -2.8789 -0.4274 -0.5216
 9893TIP3    H229637   2.023   5.521   0.496 -0.6656  0.1476 -0.2246
 9894TIP3   OH229638   6.478   1.646   5.263  0.1373 -0.8010  0.6063
 9894TIP3    H129639   6.492   1.623   5.171 -0.6286  1.1389 -0.0288
 9894TIP3    H229640   6.519   1.731   5.273 -1.1120 -0.2938  1.6673
 9895TIP3   OH229641   8.017   0.303   5.494 -0.3753 -0.3108 -0.1273
 9895TIP3    H129642   8.054   0.222   5.531  1.5068  0.0565 -1.1697
 9895TIP3    H229643   7.985   0.278   5.408  2.9616  0.6649 -1.7223
 9896TIP3   OH229644   6.238   1.177   5.374 -0.6816  0.1890  0.6232
 9896TIP3    H129645   6.191   1.225   5.306  0.3278 -1.6587 -1.4091
 9896TIP3    H229646   6.306   1.128   5.327  0.7890 -0.2081  3.0808
 9897TIP3   OH229647   1.668   0.725   5.354 -0.1957  0.2493  0.1572
 9897TIP3    H129648   1.664   0.712   5.260 -2.7863  0.7732  0.1480
 9897TIP3    H229649   1.703   0.643   5.388  3.3369  1.0300 -1.4112
 9898TIP3   OH229650   4.617   0.445   3.958 -0.0777 -0.0905  0.4036
 9898TIP3    H129651   4.615   0.372   3.896  0.5133 -0.4583  0.8097
 9898TIP3    H229652   4.711   0.463   3.970 -0.1990  0.0999  1.0457
 9899TIP3   OH229653   6.854   5.084   6.039  0.3925  0.3268  0.5318
 9899TIP3    H129654   6.919   5.100   5.970 -0.4830  1.5827 -0.0241
 9899TIP3    H229655   6.895   5.114   6.119  1.3281 -0.9121  0.5315
 9900TIP3   OH229656   6.340   0.368   6.223 -0.1516 -0.0443 -0.2350
 9900TIP3    H129657   6.279   0.324   6.164 -1.4236 -0.0733  1.0794
 9900TIP3    H229658   6.416   0.310   6.227 -1.0112 -1.1675 -0.0520
 9901TIP3   OH229659   6.883   7.083   6.897 -0.0768 -0.0373 -0.7063
 9901TIP3    H129660   6.897   7.162   6.949  3.0687 -1.4483  0.7227
 9901TIP3    H229661   6.959   7.080   6.838  0.0849 -2.1918 -0.4156
 9902TIP3   OH229662   7.302   1.734   5.120  0.1768  0.0387 -0.4626
 9902TIP3    H129663   7.386   1.731   5.166 -0.6627  1.9118  1.2939
 9902TIP3    H229664   7.238   1.748   5.189 -1.5882 -1.2394 -1.8029
 9903TIP3   OH229665   8.228   1.827   6.462  0.5143  0.2473  0.1617
 9903TIP3    H129666   8.320   1.847   6.475  0.8561 -0.5169 -0.9805
 9903TIP3    H229667   8.223   1.731   6.470 -0.1310  0.2598 -0.0386
 9904TIP3   OH229668   0.377   1.150   6.814  0.1985 -0.3154  0.2626
 9904TIP3    H129669   0.346   1.061   6.826 -1.6319  0.5776  2.5637
 9904TIP3    H229670   0.471   1.146   6.834  0.0940 -1.6920  0.4820
 9905TIP3   OH229671   6.246   2.286   5.478 -0.2162 -0.1635  0.1701
 9905TIP3    H129672   6.293   2.271   5.395 -0.3102 -2.6978  0.5299
 9905TIP3    H229673   6.293   2.232   5.542 -1.1971  0.4328  1.4130
 9906TIP3   OH229674   1.118   4.898   0.950 -0.3569 -0.1964  0.2384
 9906TIP3    H129675   1.089   4.987   0.930  0.0991  0.2213  1.3579
 9906TIP3    H229676   1.044   4.843   0.928 -0.8879  0.5356  0.1754
 9907TIP3   OH229677   5.911   1.001   2.901  0.6017 -0.1399 -0.0266
 9907TIP3    H129678   5.992   1.015   2.852  0.2600  1.0104 -0.2547
 9907TIP3    H229679   5.934   0.934   2.966  1.3849 -0.7544 -0.9260
 9908TIP3   OH229680   0.348   2.582   4.571 -0.5875 -0.2889  0.1908
 9908TIP3    H129681   0.276   2.644   4.584  1.1883  2.2842 -1.8450
 9908TIP3    H229682   0.340   2.554   4.480  1.4532  0.6904 -0.3197
 9909TIP3   OH229683   6.692   1.079   6.138 -0.6879  0.5589 -0.1602
 9909TIP3    H129684   6.753   1.095   6.210 -2.8577  2.8595  1.2572
 9909TIP3    H229685   6.700   1.156   6.082 -0.9957  0.0357 -0.9307
 9910TIP3   OH229686   7.384   2.017   5.083  0.3335 -0.0166 -0.3429
 9910TIP3    H129687   7.310   2.069   5.113  0.2860  0.6556 -1.5852
 9910TIP3    H229688   7.355   1.927   5.091  0.9760  0.0313  3.3089
 9911TIP3   OH229689   3.029   7.636   0.450  0.5309  0.4298 -0.2173
 9911TIP3    H129690   2.981   7.693   0.510  0.4144  1.5348 -1.3538
 9911TIP3    H229691   2.968   7.565   0.431  0.6222 -0.0202  1.0765
 9912TIP3   OH229692   8.192   3.733   5.662 -0.8347  0.9105  0.2854
 9912TIP3    H129693   8.150   3.811   5.698 -1.6216  0.6592 -0.0737
 9912TIP3    H229694   8.124   3.666   5.663 -0.3477  0.4038  0.0063
 9913TIP3   OH229695   7.137   0.677   4.677 -0.1865  0.3639 -0.6831
 9913TIP3    H129696   7.172   0.699   4.763  0.4571  0.1576 -0.8916
 9913TIP3    H229697   7.207   0.700   4.616 -0.1827 -0.6083 -1.0528
 9914TIP3   OH229698   8.472   2.082   4.584  0.0213  0.0316 -0.2298
 9914TIP3    H129699   8.485   1.988   4.596 -1.2395 -0.1406 -0.1417
 9914TIP3    H229700   8.406   2.089   4.515 -0.6298  0.8163  0.4546
 9915TIP3   OH229701   1.689   7.218   0.434  0.0786 -0.4298 -0.2231
 9915TIP3    H129702   1.646   7.300   0.409 -0.9865 -0.7590  0.5051
 9915TIP3    H229703   1.783   7.237   0.430 -0.1662  0.7486 -0.3121
 9916TIP3   OH229704   5.598   2.269   5.880 -0.6117 -0.5075  0.0774
 9916TIP3    H129705   5.681   2.222   5.878  0.9197  2.1622 -2.8254
 9916TIP3    H229706   5.611   2.340   5.943  0.0370  1.0825 -1.8017
 9917TIP3   OH229707   6.838   2.670   5.712  0.8505  0.2452 -0.4420
 9917TIP3    H129708   6.831   2.664   5.617 -0.0373 -0.9015 -0.3112
 9917TIP3    H229709   6.842   2.764   5.730 -1.6167  0.5568 -1.4364
 9918TIP3   OH229710   5.911   2.743   3.507 -0.5746 -0.5869 -0.0185
 9918TIP3    H129711   5.994   2.713   3.469 -1.5394 -0.0216 -2.6804
 9918TIP3    H229712   5.861   2.663   3.521  0.3602 -0.9188  1.4680
 9919TIP3   OH229713   7.954   0.752   5.867 -0.4422 -0.1850  0.3636
 9919TIP3    H129714   8.023   0.815   5.852 -2.1544  1.6448 -0.0577
 9919TIP3    H229715   7.994   0.667   5.849  1.1577  0.9769 -1.7122
 9920TIP3   OH229716   7.064   0.241   6.118  0.1915 -0.2388  0.2144
 9920TIP3    H129717   7.118   0.236   6.039  1.7887  2.2280  1.0696
 9920TIP3    H229718   7.004   0.314   6.102 -1.5580 -1.6638  0.0967
 9921TIP3   OH229719   4.300   5.610   4.879 -0.3618  0.0491  0.0705
 9921TIP3    H129720   4.348   5.563   4.947  0.9562  0.0664 -0.8272
 9921TIP3    H229721   4.240   5.546   4.842 -0.1249 -0.3219  0.3341
 9922TIP3   OH229722   0.609   2.208   5.705 -0.1112 -0.4523 -0.0765
 9922TIP3    H129723   0.565   2.275   5.755 -0.9191 -1.2863  0.3372
 9922TIP3    H229724   0.655   2.155   5.770  0.1456 -0.5794 -0.3566
 9923TIP3   OH229725   1.912   4.592   0.304 -0.5208 -0.0040  0.3503
 9923TIP3    H129726   1.933   4.668   0.358  0.7398 -0.4816  0.5235
 9923TIP3    H229727   1.954   4.610   0.219  0.4425 -0.8611  0.6360
 9924TIP3   OH229728   6.192   0.841   4.695  0.2677 -0.1826 -0.0718
 9924TIP3    H129729   6.126   0.773   4.686 -0.1373  0.3631 -1.3096
 9924TIP3    H229730   6.269   0.796   4.731 -0.1170 -1.2115 -0.5272
 9925TIP3   OH229731   7.103   1.206   4.936 -0.4145  0.2725 -0.0435
 9925TIP3    H129732   7.030   1.210   4.999  0.1457 -0.8843  0.7077
 9925TIP3    H229733   7.123   1.297   4.916  0.5691  0.7548  2.8536
 9926TIP3   OH229734   1.434   7.354   5.981 -0.1142 -0.5422 -0.5108
 9926TIP3    H129735   1.529   7.369   5.971  0.1810 -1.8100  0.2894
 9926TIP3    H229736   1.402   7.435   6.020  0.6603 -0.1241 -0.7190
 9927TIP3   OH229737   1.778   2.992   0.160  0.2421 -0.3500  0.5198
 9927TIP3    H129738   1.814   2.997   0.249  1.7925 -2.0107  0.0201
 9927TIP3    H229739   1.716   3.065   0.155  1.1994  0.6439  2.4823
 9928TIP3   OH229740   1.760   3.317   0.911  0.4776  0.2016 -1.1640
 9928TIP3    H129741   1.762   3.399   0.962 -0.4398 -1.3444  1.4692
 9928TIP3    H229742   1.680   3.323   0.859 -0.8668  0.0122  0.8076
 9929TIP3   OH229743   3.098   7.282   0.716 -0.0085  0.4493  0.3170
 9929TIP3    H129744   3.057   7.201   0.747 -0.2744 -0.0751 -1.3394
 9929TIP3    H229745   3.031   7.321   0.659  0.9097  0.7570 -0.5615
 9930TIP3   OH229746   2.458   4.763   0.078  0.5475  0.1297 -0.5834
 9930TIP3    H129747   2.487   4.853   0.063  3.1826  0.1302  3.8560
 9930TIP3    H229748   2.459   4.752   0.173 -0.4922 -4.3632 -0.9666
 9931TIP3   OH229749   0.628   4.713   0.434  0.0534 -0.0296 -0.1527
 9931TIP3    H129750   0.599   4.629   0.471  1.0771  1.5818  4.6144
 9931TIP3    H229751   0.719   4.697   0.408  0.2906 -0.3271  0.8636
 9932TIP3   OH229752   8.227   0.849   6.539 -0.9709 -0.2890  0.5472
 9932TIP3    H129753   8.291   0.851   6.468 -1.6763 -0.6576 -0.1101
 9932TIP3    H229754   8.236   0.934   6.582 -1.3712  0.4243 -0.7420
 9933TIP3   OH229755   3.024   3.585   1.723  0.2739  0.3139  0.1694
 9933TIP3    H129756   3.109   3.548   1.746  0.0533  0.1891  0.7928
 9933TIP3    H229757   2.964   3.551   1.789  0.2449  2.5115  1.3173
 9934TIP3   OH229758   0.922   0.940   6.631 -0.5018 -0.5900 -0.0005
 9934TIP3    H129759   0.944   1.011   6.571  1.2536 -1.2628 -0.1778
 9934TIP3    H229760   0.975   0.957   6.709 -0.9169 -1.0896  0.3907
 9935TIP3   OH229761   8.065   1.555   4.082 -0.6547  0.4111 -0.5853
 9935TIP3    H129762   8.125   1.481   4.089  0.9090  1.7343  0.3635
 9935TIP3    H229763   8.065   1.576   3.988  0.1086  0.1716 -0.6488
 9936TIP3   OH229764   2.333   6.373   0.733 -0.1168 -0.0726  0.4663
 9936TIP3    H129765   2.242   6.368   0.761 -0.2123  2.4199  0.6994
 9936TIP3    H229766   2.383   6.388   0.813  0.2402  1.0089  0.0455
 9937TIP3   OH229767   2.600   3.506   0.684  0.3555  0.0682 -0.4452
 9937TIP3    H129768   2.604   3.595   0.719 -0.1648 -0.2480  0.4285
 9937TIP3    H229769   2.598   3.518   0.589 -0.9115  1.0362 -0.3035
 9938TIP3   OH229770   1.072   6.168   0.929  0.1970  0.0466 -0.5539
 9938TIP3    H129771   1.016   6.161   1.006 -1.0437 -1.4224 -1.5750
 9938TIP3    H229772   1.135   6.096   0.939 -0.6981 -0.8830 -1.4803
 9939TIP3   OH229773   0.597   7.794   0.033  0.1220  0.0112  0.7265
 9939TIP3    H129774   0.575   7.702   0.047 -3.8256  0.6594 -0.6652
 9939TIP3    H229775   0.598   7.805  -0.062  1.1868  1.2757  0.8630
 9940TIP3   OH229776   8.077   4.564   1.522 -0.2282  0.1255 -0.2200
 9940TIP3    H129777   8.047   4.652   1.502  0.9906  0.9738  1.5250
 9940TIP3    H229778   8.172   4.574   1.535 -0.6571 -0.6161  4.1163
 9941TIP3   OH229779   8.373   1.763   5.586 -0.0712 -0.1635 -0.1957
 9941TIP3    H129780   8.294   1.733   5.542 -0.4864  0.5224  0.0740
 9941TIP3    H229781   8.373   1.717   5.670 -0.7791  0.6938  0.2770
 9942TIP3   OH229782   7.428   2.174   6.793 -0.4395  0.2590 -0.2672
 9942TIP3    H129783   7.490   2.246   6.780 -1.0825  0.9442  0.3985
 9942TIP3    H229784   7.345   2.208   6.760 -0.6736 -0.2961 -0.2530
 9943TIP3   OH229785   8.241   2.170   5.442  0.2456  0.2242 -0.4934
 9943TIP3    H129786   8.232   2.079   5.415  0.0139 -0.6673  2.4153
 9943TIP3    H229787   8.335   2.189   5.434  0.8342 -1.3575  2.0097
 9944TIP3   OH229788   7.183   1.992   6.341  0.0545  0.1159  0.2657
 9944TIP3    H129789   7.107   1.948   6.304  0.7834  0.1261 -1.2688
 9944TIP3    H229790   7.171   2.084   6.320  0.1060  0.2226  0.6982
 9945TIP3   OH229791   1.413   5.609   0.934 -0.3953 -0.3050  0.2501
 9945TIP3    H129792   1.442   5.658   0.857  0.5550 -0.1685  0.6828
 9945TIP3    H229793   1.481   5.542   0.946  0.0685  0.3880  1.6255
 9946TIP3   OH229794   6.282   2.910   3.866  0.2660  0.8157 -0.1155
 9946TIP3    H129795   6.202   2.898   3.814 -1.5878  0.4577  2.7222
 9946TIP3    H229796   6.327   2.826   3.861  0.1400  0.8067 -1.1949
 9947TIP3   OH229797   6.984   1.490   5.893 -0.0095 -0.5034  0.1595
 9947TIP3    H129798   7.027   1.423   5.840  0.5622 -0.2310  0.2750
 9947TIP3    H229799   7.034   1.570   5.877 -2.6022  0.7038 -2.5271
 9948TIP3   OH229800   5.298   0.874   6.084  0.2711  0.1967 -0.3264
 9948TIP3    H129801   5.266   0.872   6.174  0.8849 -1.3449 -0.1356
 9948TIP3    H229802   5.218   0.870   6.031 -0.0362 -0.0119  0.1472
 9949TIP3   OH229803   7.675   6.497   0.328  0.4093 -0.3812  0.1730
 9949TIP3    H129804   7.717   6.583   0.322  0.3413 -0.1921  2.2011
 9949TIP3    H229805   7.598   6.504   0.272  0.9087  0.5568 -0.4198
 9950TIP3   OH229806   0.393   7.964   0.105  0.2502  0.1714 -0.0858
 9950TIP3    H129807   0.408   8.003   0.191  1.0770 -0.1580 -0.0747
 9950TIP3    H229808   0.472   7.912   0.088 -0.7003 -1.2534 -0.2306
 9951TIP3   OH229809   6.592   7.771   6.755  0.7411 -0.5633 -0.4159
 9951TIP3    H129810   6.535   7.847   6.758 -0.1213 -1.2356  1.0169
 9951TIP3    H229811   6.555   7.716   6.685 -0.6453 -1.1815  0.7660
 9952TIP3   OH229812   5.575   2.369   3.575 -0.2711 -0.1025 -0.0479
 9952TIP3    H129813   5.520   2.446   3.593  0.2404  0.4323 -0.7280
 9952TIP3    H229814   5.546   2.303   3.638 -2.0232  0.0206 -0.6781
 9953TIP3   OH229815   5.979   0.543   0.164 -0.1690  0.5257 -0.4112
 9953TIP3    H129816   5.918   0.557   0.236  1.1719 -1.3152  1.1428
 9953TIP3    H229817   6.042   0.479   0.198  0.6703 -0.1591 -3.1238
 9954TIP3   OH229818   6.733   2.271   4.475 -0.1969  0.4786 -0.1162
 9954TIP3    H129819   6.778   2.302   4.553 -1.0917 -0.2247  0.6843
 9954TIP3    H229820   6.803   2.256   4.412  0.7583 -1.0629  1.2715
 9955TIP3   OH229821   6.496   1.969   6.126 -0.0210 -0.1866  0.1593
 9955TIP3    H129822   6.481   1.878   6.099  1.7028 -0.8918  1.5103
 9955TIP3    H229823   6.550   2.006   6.057  1.2289 -0.8854  0.7514
 9956TIP3   OH229824   6.776   1.340   6.394  0.4802 -0.0756 -0.5738
 9956TIP3    H129825   6.700   1.309   6.444  1.5464 -2.6805 -0.4774
 9956TIP3    H229826   6.829   1.387   6.458  2.0325 -3.7337  0.9859
 9957TIP3   OH229827   2.257   5.558   0.125  0.4341 -0.2066 -0.4902
 9957TIP3    H129828   2.335   5.553   0.070 -0.5620 -2.9083 -1.7576
 9957TIP3    H229829   2.281   5.512   0.206 -0.0356 -1.6064 -1.1398
 9958TIP3   OH229830   8.019   3.927   5.703  0.1413  0.0645 -0.3966
 9958TIP3    H129831   7.940   3.874   5.689  0.2684  0.1321 -1.4555
 9958TIP3    H229832   7.990   4.017   5.688 -0.5457  0.5663  3.3540
 9959TIP3   OH229833   7.155   2.726   4.543  0.3072 -0.1110  0.1283
 9959TIP3    H129834   7.140   2.649   4.597  1.0294 -1.0294 -0.9645
 9959TIP3    H229835   7.068   2.764   4.531  0.0792 -0.1651  1.5232
 9960TIP3   OH229836   6.727   1.292   5.402  0.2519  0.0804  0.4045
 9960TIP3    H129837   6.760   1.287   5.312 -0.6917 -2.0584  0.1487
 9960TIP3    H229838   6.673   1.213   5.412  0.6394  0.1106  2.9638
 9961TIP3   OH229839   7.855   3.919   0.079 -0.1931  0.2410  0.0519
 9961TIP3    H129840   7.767   3.957   0.081 -0.5464 -0.3281 -3.0501
 9961TIP3    H229841   7.903   3.972   0.015  1.7825  0.5698  1.7299
 9962TIP3   OH229842   6.458   1.882   4.952  0.4603 -0.6207 -0.1830
 9962TIP3    H129843   6.444   1.822   4.879  0.8699 -0.5528 -0.3208
 9962TIP3    H229844   6.520   1.837   5.009  0.3932 -0.5345 -0.0402
 9963TIP3   OH229845   6.909   1.872   4.493 -0.1208 -0.4089 -0.3054
 9963TIP3    H129846   6.826   1.883   4.540  1.0127 -0.7166  1.8535
 9963TIP3    H229847   6.955   1.955   4.506 -0.0907 -0.2185 -1.5454
 9964TIP3   OH229848   8.212   2.352   6.638 -0.4262 -0.2505  0.3450
 9964TIP3    H129849   8.195   2.260   6.658 -1.2211 -0.2440 -0.3180
 9964TIP3    H229850   8.231   2.392   6.724  0.3952 -1.1239  0.5718
 9965TIP3   OH229851   0.151   0.650   5.188  0.6027 -0.3921 -0.4533
 9965TIP3    H129852   0.148   0.575   5.129  0.0187 -1.9547  1.5524
 9965TIP3    H229853   0.141   0.613   5.275 -1.8021  2.1892  0.4455
 9966TIP3   OH229854   3.188   7.869   5.725  0.0541  0.2028  0.7386
 9966TIP3    H129855   3.277   7.834   5.716  1.4006  3.1007  1.8657
 9966TIP3    H229856   3.171   7.868   5.819 -1.3728 -0.9349  0.4737
 9967TIP3   OH229857   2.868   4.454   0.425 -0.7721 -0.2946 -0.0935
 9967TIP3    H129858   2.781   4.493   0.433 -0.6975 -0.0610 -0.3878
 9967TIP3    H229859   2.867   4.413   0.338 -1.3969 -2.3292  0.8482
 9968TIP3   OH229860   4.445   1.917   6.076  1.0228 -0.1782 -0.0089
 9968TIP3    H129861   4.519   1.903   6.017  0.7694 -0.7612 -0.1937
 9968TIP3    H229862   4.382   1.848   6.053  0.8693 -0.3351  0.8556
 9969TIP3   OH229863   8.094   3.405   6.640  0.1573 -0.2709 -0.1965
 9969TIP3    H129864   8.057   3.461   6.708  0.1263 -2.8948  2.0648
 9969TIP3    H229865   8.029   3.335   6.629  0.8383 -0.6572 -1.8793
 9970TIP3   OH229866   1.198   3.682   0.188 -0.4419 -0.6093  0.0461
 9970TIP3    H129867   1.278   3.660   0.235 -0.9827 -0.8496  0.8781
 9970TIP3    H229868   1.208   3.642   0.102 -0.2666 -1.8376  0.6232
 9971TIP3   OH229869   6.482   1.074   5.017  0.1448  0.1510  0.0872
 9971TIP3    H129870   6.402   1.120   4.993  0.3170 -0.4407 -1.6505
 9971TIP3    H229871   6.552   1.137   4.997  0.2395 -0.0097 -0.0782
 9972TIP3   OH229872   8.198   4.204   6.725  0.1777 -0.1998  0.2806
 9972TIP3    H129873   8.213   4.221   6.632 -0.9254  0.6808  0.2422
 9972TIP3    H229874   8.130   4.267   6.750  1.8110  0.8657  2.1537
 9973TIP3   OH229875   0.237   6.093   5.762  0.1562  0.6859 -0.3622
 9973TIP3    H129876   0.174   6.150   5.806 -1.3114  0.4418 -2.1242
 9973TIP3    H229877   0.227   6.008   5.804  0.5430  1.0641  0.5186
 9974TIP3   OH229878   5.397   0.552   6.799 -0.3317 -0.0299  0.2275
 9974TIP3    H129879   5.331   0.512   6.856 -1.2031 -0.3636 -1.0039
 9974TIP3    H229880   5.414   0.638   6.839 -2.3172  0.5073 -0.0406
 9975TIP3   OH229881   5.940   7.050   6.174  0.5023  0.3500 -0.2086
 9975TIP3    H129882   6.007   7.115   6.196  1.4063 -0.6831  0.1393
 9975TIP3    H229883   5.972   7.010   6.093  0.1500  0.0677 -0.2066
 9976TIP3   OH229884   0.019   1.827   5.169 -0.6278  0.2519  0.4429
 9976TIP3    H129885   0.048   1.736   5.174  0.1276  0.5132  0.9333
 9976TIP3    H229886   0.026   1.860   5.258 -0.0164  1.0536  0.1096
 9977TIP3   OH229887   8.133   3.805   5.413 -0.1063 -0.4625  0.5630
 9977TIP3    H129888   8.142   3.727   5.358  2.0467 -0.1451  0.4326
 9977TIP3    H229889   8.155   3.775   5.501 -1.4690 -0.4759  0.9230
 9978TIP3   OH229890   1.857   4.338   0.398 -0.0540  0.3846  0.2556
 9978TIP3    H129891   1.842   4.257   0.349  1.5544 -0.3264  0.9203
 9978TIP3    H229892   1.884   4.401   0.331 -1.0761  0.3268 -0.2277
 9979TIP3   OH229893   3.788   5.613   1.629  0.4920  0.0842 -0.2060
 9979TIP3    H129894   3.734   5.648   1.558 -1.2289  0.5901  1.3288
 9979TIP3    H229895   3.878   5.634   1.602 -0.0869 -0.0675 -2.4099
 9980TIP3   OH229896   4.906   1.649   3.587 -0.3859 -0.3761 -0.1804
 9980TIP3    H129897   4.862   1.733   3.596 -0.2899 -0.4231  0.7745
 9980TIP3    H229898   4.943   1.650   3.499  1.0050  1.2439  0.3884
 9981TIP3   OH229899   7.471   1.772   5.407 -0.2339 -0.2156 -0.1327
 9981TIP3    H129900   7.474   1.697   5.467 -0.6632 -0.5995 -0.5806
 9981TIP3    H229901   7.495   1.735   5.322 -2.5744 -0.3084 -0.7839
 9982TIP3   OH229902   1.274   1.261   5.643 -0.2048  0.0755 -0.0291
 9982TIP3    H129903   1.299   1.169   5.651 -1.2490 -0.2065  0.0349
 9982TIP3    H229904   1.179   1.262   5.656 -0.0616  1.2946  1.0590
 9983TIP3   OH229905   7.947   3.125   4.883  0.3827  0.1178 -0.1166
 9983TIP3    H129906   7.872   3.077   4.919 -1.8555  4.3682  1.3497
 9983TIP3    H229907   7.911   3.171   4.807  2.1573  0.1953 -0.9150
 9984TIP3   OH229908   2.274   6.391   0.222  0.2994 -0.5588 -0.3892
 9984TIP3    H129909   2.348   6.375   0.281  0.9810  0.2455 -1.0012
 9984TIP3    H229910   2.261   6.308   0.176  0.5865 -0.8166 -0.0031
 9985TIP3   OH229911   6.746   6.926   4.299  0.3739  0.3539 -0.5072
 9985TIP3    H129912   6.704   6.979   4.231 -0.4448  0.2420 -0.0968
 9985TIP3    H229913   6.742   6.836   4.266  1.7649  0.5392 -1.2048
 9986TIP3   OH229914   1.545   4.913   2.937 -0.5878  0.7961 -0.4019
 9986TIP3    H129915   1.503   4.869   2.863 -0.7287  2.1040 -1.1309
 9986TIP3    H229916   1.474   4.956   2.983 -0.8365 -2.0749  1.9954
 9987TIP3   OH229917   5.432   2.232   3.772  0.4385 -0.1384 -0.1497
 9987TIP3    H129918   5.414   2.179   3.850 -0.6198  1.0135  0.3981
 9987TIP3    H229919   5.427   2.169   3.700 -3.5362 -0.3549  0.2180
 9988TIP3   OH229920   6.710   2.079   3.739  0.1581 -0.0238  0.2026
 9988TIP3    H129921   6.732   2.163   3.701  0.6483 -0.6492 -0.9071
 9988TIP3    H229922   6.791   2.028   3.734 -0.2059 -0.6490  0.6167
 9989TIP3   OH229923   2.279   6.774   6.130  0.3450 -0.4066 -0.3927
 9989TIP3    H129924   2.365   6.812   6.113 -0.8036  1.7415 -1.6695
 9989TIP3    H229925   2.219   6.849   6.128 -1.6975 -1.9992 -0.6907
 9990TIP3   OH229926   7.520   2.526   4.179  0.5217  0.3512 -0.9936
 9990TIP3    H129927   7.436   2.563   4.205  1.4845  0.8169  1.5816
 9990TIP3    H229928   7.585   2.582   4.223  2.1082 -1.6667 -0.7216
 9991TIP3   OH229929   1.436   7.674   0.220 -0.5437 -0.7548  0.3267
 9991TIP3    H129930   1.379   7.654   0.294 -1.7671 -0.0795 -0.4078
 9991TIP3    H229931   1.380   7.725   0.160  0.5469 -0.9233 -0.8511
 9992TIP3   OH229932   7.836   2.461   5.879 -0.1901 -0.2549 -0.2646
 9992TIP3    H129933   7.856   2.445   5.786  0.5613  1.5597 -0.4440
 9992TIP3    H229934   7.742   2.479   5.880 -1.0781 -4.3212 -0.0535
 9993TIP3   OH229935   0.591   0.533   4.401 -0.0847 -0.9206 -0.0899
 9993TIP3    H129936   0.677   0.494   4.408 -0.4617 -1.8848 -0.7616
 9993TIP3    H229937   0.586   0.593   4.475  2.6133  2.0216 -2.1459
 9994TIP3   OH229938   6.758   2.617   6.289  0.1177 -0.1781 -0.1556
 9994TIP3    H129939   6.736   2.708   6.308  0.8831  0.6165 -2.8341
 9994TIP3    H229940   6.680   2.568   6.315 -0.0540  1.1510  1.9104
 9995TIP3   OH229941   7.244   0.169   6.348 -0.5324  0.1717  0.2740
 9995TIP3    H129942   7.292   0.107   6.294  0.5859 -0.6936  2.2305
 9995TIP3    H229943   7.184   0.212   6.287 -0.2965 -1.7722 -1.3775
 9996TIP3   OH229944   7.345   0.696   5.496 -0.2452 -0.2911 -0.0877
 9996TIP3    H129945   7.437   0.716   5.480 -0.4222 -0.5276 -1.5023
 9996TIP3    H229946   7.298   0.771   5.459 -0.5975  0.4292  1.7332
 9997TIP3   OH229947   7.692   0.564   5.503  0.2616  0.6106  0.0383
 9997TIP3    H129948   7.698   0.493   5.439 -0.2853  1.2972 -0.7867
 9997TIP3    H229949   7.658   0.522   5.583  2.2384 -0.5038  0.3134
 9998TIP3   OH229950   6.922   1.900   3.822 -0.3052 -0.2174 -0.6068
 9998TIP3    H129951   6.972   1.835   3.772  0.8938  0.4779 -0.3446
 9998TIP3    H229952   6.919   1.865   3.911  2.5731  1.2399  0.1462
 9999TIP3   OH229953   4.465   7.644   4.508  0.3523 -0.2179  0.3695
 9999TIP3    H129954   4.496   7.714   4.450  0.0318  2.0260  2.7958
 9999TIP3    H229955   4.375   7.670   4.530  0.2318 -1.3985  1.3005
10000TIP3   OH229956   3.747   7.724   6.338 -0.0267 -0.4059  0.0139
10000TIP3    H129957   3.834   7.701   6.371  0.5707 -0.1716 -1.3297
10000TIP3    H229958   3.732   7.813   6.369  0.7837  0.0354 -0.8237
10001TIP3   OH229959   4.935   7.489   4.801  0.2982  0.8383 -0.4202
10001TIP3    H129960   4.901   7.480   4.712 -2.7007 -0.0716  0.7795
10001TIP3    H229961   4.890   7.566   4.836  0.4832  0.4188  0.7533
10002TIP3   OH229962   5.286   1.727   5.716 -0.0201  0.7563  0.1846
10002TIP3    H129963   5.215   1.790   5.730 -0.7543 -0.0210  0.0060
10002TIP3    H229964   5.241   1.643   5.705  0.7659  0.5924 -2.1993
10003TIP3   OH229965   2.695   4.735   1.135 -0.1819  0.4804 -0.2285
10003TIP3    H129966   2.732   4.741   1.047 -2.6414 -0.5026 -1.3775
10003TIP3    H229967   2.718   4.819   1.176  0.3238  1.2877 -2.0946
10004TIP3   OH229968   3.080   5.190   1.802  0.2794  0.5410  0.1937
10004TIP3    H129969   3.125   5.209   1.720  1.0392  0.4153  0.5747
10004TIP3    H229970   2.987   5.189   1.779  0.2773  3.2154 -0.1405
10005TIP3   OH229971   7.434   1.091   6.491  0.5423  0.5707  0.3709
10005TIP3    H129972   7.388   1.010   6.469  0.1451  1.6457 -3.0208
10005TIP3    H229973   7.526   1.072   6.477  0.2937  1.2550 -2.5531
10006TIP3   OH229974   3.588   6.331   0.259 -0.2110 -1.2394  0.2075
10006TIP3    H129975   3.622   6.410   0.217  0.2457 -0.6340  1.6760
10006TIP3    H229976   3.533   6.290   0.193  0.4103 -0.2569 -0.9356
10007TIP3   OH229977   1.987   7.507   6.322 -0.4193  0.1606  1.1449
10007TIP3    H129978   1.928   7.518   6.247  1.4447  0.0544 -0.3612
10007TIP3    H229979   2.012   7.596   6.346  1.1335  0.0940 -0.1305
10008TIP3   OH229980   7.657   4.529   5.508 -0.1756 -0.5342  0.8444
10008TIP3    H129981   7.724   4.569   5.564  1.8660 -1.1411 -1.1187
10008TIP3    H229982   7.704   4.499   5.431 -3.0065  0.8620 -1.5536
10009TIP3   OH229983   3.569   7.203   0.036  0.0246 -0.0188  0.1271
10009TIP3    H129984   3.662   7.221   0.052  0.0558  1.8915 -1.9436
10009TIP3    H229985   3.568   7.117  -0.005  0.8745 -0.1069  0.2839
10010TIP3   OH229986   5.849   0.166   6.838 -0.0650 -0.0663  0.0863
10010TIP3    H129987   5.942   0.170   6.815 -0.0048  0.0535  0.3601
10010TIP3    H229988   5.841   0.221   6.915 -0.2467 -0.6008  0.4513
10011TIP3   OH229989   5.300   1.632   4.857 -0.2772 -0.0569 -0.2566
10011TIP3    H129990   5.298   1.727   4.848 -0.9634 -0.0090  0.3545
10011TIP3    H229991   5.249   1.615   4.937  0.5692 -0.8670  0.1177
10012TIP3   OH229992   2.657   7.468   0.031  0.0143 -0.3119  0.5319
10012TIP3    H129993   2.664   7.521  -0.049 -0.3876 -0.4416  0.4110
10012TIP3    H229994   2.570   7.489   0.065 -1.1963 -2.8395 -0.8921
10013TIP3   OH229995   0.217   3.910   6.772  0.3204 -0.0116 -0.1670
10013TIP3    H129996   0.125   3.934   6.785 -0.1706 -0.9042 -1.7881
10013TIP3    H229997   0.227   3.828   6.820 -0.6565 -1.6686 -2.6741
10014TIP3   OH229998   8.306   3.002   6.307 -0.2079 -0.4344 -0.3271
10014TIP3    H129999   8.376   2.989   6.243  0.9000  0.2491  0.7062
10014TIP3    H230000   8.262   2.917   6.313 -1.3786 -0.0696 -3.1801
10015TIP3   OH230001   4.268   0.741   5.878  0.0423  0.0982 -0.5143
10015TIP3    H130002   4.337   0.674   5.882 -0.8385 -0.7314  1.5864
10015TIP3    H230003   4.299   0.804   5.813  2.7738 -0.2780  0.3628
10016TIP3   OH230004   2.288   5.151   0.962  0.4877  0.0608  0.0605
10016TIP3    H130005   2.380   5.131   0.979  0.1944  0.3747  2.2286
10016TIP3    H230006   2.256   5.187   1.045 -1.5236  0.1950 -0.7452
10017TIP3   OH230007   8.071   3.483   4.095  0.0494  0.2273 -0.3285
10017TIP3    H130008   8.106   3.562   4.056 -0.3458  0.7867  0.4306
10017TIP3    H230009   8.094   3.413   4.034  0.8532  0.8513 -0.7428
10018TIP3   OH230010   1.668   6.621   0.898  0.1179 -0.2072  0.0932
10018TIP3    H130011   1.729   6.668   0.842  1.0321 -0.4045  0.9089
10018TIP3    H230012   1.705   6.532   0.904 -1.0231 -0.7365 -0.5835
10019TIP3   OH230013   1.754   5.547   0.163  0.3288 -0.7426  0.6164
10019TIP3    H130014   1.683   5.604   0.134 -1.1851 -3.2247 -0.7739
10019TIP3    H230015   1.710   5.472   0.203  2.2786 -0.7245  2.9432
10020TIP3   OH230016   4.108   7.815   5.391 -0.5867  0.3272  0.2102
10020TIP3    H130017   4.145   7.837   5.477 -2.6987 -0.3688  1.3224
10020TIP3    H230018   4.074   7.726   5.402 -1.6543  0.5757 -1.0966
10021TIP3   OH230019   7.530   3.341   4.755 -0.4531  0.0392  0.9528
10021TIP3    H130020   7.520   3.272   4.821  2.2585  0.6590  2.1161
10021TIP3    H230021   7.525   3.296   4.671 -0.5798 -1.2830  1.6644
10022TIP3   OH230022   2.407   6.404   1.209  0.2945 -0.1952 -0.3097
10022TIP3    H130023   2.431   6.459   1.135 -0.9049  2.4006  1.1545
10022TIP3    H230024   2.313   6.417   1.219 -0.0675 -2.8216 -0.1472
10023TIP3   OH230025   1.145   1.589   4.651  0.1879 -0.2592 -0.0402
10023TIP3    H130026   1.136   1.590   4.747 -0.3183  0.2881 -0.0953
10023TIP3    H230027   1.127   1.498   4.627  0.8921 -0.5364  0.4352
10024TIP3   OH230028   0.892   1.760   6.299  0.6480  0.6980  0.0257
10024TIP3    H130029   0.907   1.769   6.204  0.7304  0.8535  0.0536
10024TIP3    H230030   0.851   1.674   6.308 -0.9308  1.4069 -0.3293
10025TIP3   OH230031   7.691   2.382   4.019 -0.2445 -0.5381  0.1439
10025TIP3    H130032   7.617   2.430   4.057 -0.5636 -0.8445 -0.0922
10025TIP3    H230033   7.675   2.383   3.925  0.5376  0.1976  0.0129
10026TIP3   OH230034   6.620   0.846   5.965  0.1464  0.1940  0.8847
10026TIP3    H130035   6.667   0.903   6.025  0.4120 -0.9566  1.8015
10026TIP3    H230036   6.548   0.809   6.017 -0.4029  0.1859  0.1345
10027TIP3   OH230037   1.470   7.298   2.074  0.2823 -0.1209 -0.3471
10027TIP3    H130038   1.537   7.358   2.108 -1.3303  2.4601 -1.6154
10027TIP3    H230039   1.510   7.259   1.997  0.8706  0.3107 -0.2640
10028TIP3   OH230040   8.411   3.081   3.651 -0.1297 -0.1303 -0.2372
10028TIP3    H130041   8.404   2.989   3.674  0.2056 -0.9339 -3.2493
10028TIP3    H230042   8.505   3.097   3.643 -0.3011 -0.5589 -3.6002
10029TIP3   OH230043   0.600   3.180   5.437 -0.0550  0.2411 -0.1672
10029TIP3    H130044   0.510   3.213   5.445  0.5754  1.5172  2.2914
10029TIP3    H230045   0.607   3.150   5.347 -2.4203  1.7083 -0.8804
10030TIP3   OH230046   0.347   2.327   5.088 -0.2725  0.1658  0.3875
10030TIP3    H130047   0.405   2.370   5.026 -1.4519  0.5321 -0.4876
10030TIP3    H230048   0.274   2.388   5.099 -0.6072 -0.3828  1.2824
10031TIP3   OH230049   7.525   0.371   3.542  0.2091  0.3950 -0.5677
10031TIP3    H130050   7.586   0.383   3.469  1.9493 -2.3402  0.3870
10031TIP3    H230051   7.457   0.312   3.506  1.0103 -0.8673 -0.0406
10032TIP3   OH230052   5.907   1.060   6.802  0.0620  0.3508  0.4577
10032TIP3    H130053   5.850   1.125   6.762 -0.4238 -0.3480  0.0104
10032TIP3    H230054   5.848   1.000   6.848  0.3570 -0.8017 -0.6328
10033TIP3   OH230055   5.197   7.642   6.365 -0.2416 -0.2170 -0.5459
10033TIP3    H130056   5.198   7.732   6.399 -1.9134 -0.3989  0.0189
10033TIP3    H230057   5.248   7.647   6.284  1.6830  0.7308  0.7002
10034TIP3   OH230058   2.680   4.599   0.021 -0.5385 -0.3280  0.3084
10034TIP3    H130059   2.642   4.586  -0.066 -0.0052 -0.9168  0.1624
10034TIP3    H230060   2.649   4.686   0.048 -0.0489  0.2032 -0.8021
10035TIP3   OH230061   7.808   0.591   6.724 -0.9836 -0.1091 -0.1965
10035TIP3    H130062   7.835   0.501   6.737 -1.3125 -0.0004  1.3681
10035TIP3    H230063   7.885   0.635   6.689 -0.6334 -0.8600 -0.3688
10036TIP3   OH230064   7.915   1.217   5.814  0.2476 -0.3798  0.1573
10036TIP3    H130065   8.007   1.196   5.833 -0.5021 -1.5253  2.7597
10036TIP3    H230066   7.885   1.263   5.892 -1.1999  0.7094 -1.0146
10037TIP3   OH230067   2.137   6.385   1.236  0.1735 -0.2139 -0.8168
10037TIP3    H130068   2.123   6.317   1.302 -0.6476 -0.5102 -1.2850
10037TIP3    H230069   2.053   6.392   1.191  0.5102  0.5046 -1.3407
10038TIP3   OH230070   0.791   1.758   5.253 -0.8322  0.2382 -0.2224
10038TIP3    H130071   0.726   1.726   5.190 -0.6098 -0.7912  0.0580
10038TIP3    H230072   0.837   1.828   5.207 -1.2653  0.0837 -0.8931
10039TIP3   OH230073   7.663   3.136   4.357  0.3362  0.2646 -0.3320
10039TIP3    H130074   7.693   3.090   4.278 -0.1435 -1.0517  0.2367
10039TIP3    H230075   7.695   3.083   4.430  1.9960  2.2487  0.4076
10040TIP3   OH230076   7.820   3.588   4.516  0.1468  0.3415  0.2841
10040TIP3    H130077   7.753   3.651   4.488  1.2877  1.5232  0.1053
10040TIP3    H230078   7.837   3.535   4.438 -1.3183 -0.6513  0.6335
10041TIP3   OH230079   5.242   5.823   5.592  0.0342  0.1553 -0.5466
10041TIP3    H130080   5.250   5.779   5.507 -0.3550 -1.3715  0.2060
10041TIP3    H230081   5.155   5.799   5.624  1.8810 -3.0228  2.3570
10042TIP3   OH230082   0.147   0.719   6.707 -0.2906 -0.0355 -0.4870
10042TIP3    H130083   0.067   0.684   6.668 -0.2243  0.7130 -1.3135
10042TIP3    H230084   0.145   0.688   6.798 -1.5185 -0.0228 -0.4994
10043TIP3   OH230085   0.562   3.777   5.902 -0.1665 -0.5706 -0.3284
10043TIP3    H130086   0.495   3.794   5.835 -0.3780 -1.3442 -0.3199
10043TIP3    H230087   0.546   3.844   5.969 -0.8416 -0.6624 -0.3949
10044TIP3   OH230088   8.134   2.825   4.650  0.0022 -0.5589 -0.4222
10044TIP3    H130089   8.064   2.760   4.653  0.0453 -0.6391 -1.1600
10044TIP3    H230090   8.185   2.802   4.572  1.1678 -0.8396  0.3996
10045TIP3   OH230091   7.670   0.848   5.575 -0.0912  0.3135 -0.2336
10045TIP3    H130092   7.663   0.759   5.541  1.6008  0.1382 -0.1279
10045TIP3    H230093   7.728   0.841   5.651  0.2198  1.5404 -0.3441
10046TIP3   OH230094   1.647   1.097   5.831  0.4231  0.2119  0.4389
10046TIP3    H130095   1.617   1.089   5.922 -0.1051 -2.0189  0.0926
10046TIP3    H230096   1.703   1.021   5.817 -0.3876 -0.0636 -1.4325
10047TIP3   OH230097   8.189   0.570   6.716 -0.2383  0.4015 -0.7474
10047TIP3    H130098   8.140   0.652   6.706 -1.3262 -0.3962 -2.1614
10047TIP3    H230099   8.135   0.505   6.671 -0.3924 -1.4992  2.0880
10048TIP3   OH230100   5.660   7.387   0.639  0.6921 -0.5562 -0.1447
10048TIP3    H130101   5.675   7.355   0.728  0.7533  1.5370  0.6247
10048TIP3    H230102   5.697   7.319   0.582  0.5637 -1.9493  1.4232
10049TIP3   OH230103   0.392   3.003   5.679  0.8910 -0.2899 -0.0606
10049TIP3    H130104   0.309   2.969   5.712 -1.4453  2.1038 -3.1025
10049TIP3    H230105   0.412   2.949   5.602  1.0675  0.4076 -0.5156
10050TIP3   OH230106   5.619   6.209   0.384  0.7148  0.2268  0.1394
10050TIP3    H130107   5.550   6.143   0.385  0.6629  0.2818  1.0477
10050TIP3    H230108   5.686   6.175   0.443  0.6035  1.0577  0.7661
10051TIP3   OH230109   2.840   4.852   0.564 -0.4163  0.0338  0.2037
10051TIP3    H130110   2.779   4.778   0.558  0.3410 -0.5192 -0.6395
10051TIP3    H230111   2.786   4.924   0.595 -1.3731 -0.6209  0.0868
10052TIP3   OH230112   0.877   1.501   6.386 -0.6840 -0.0146 -0.4222
10052TIP3    H130113   0.891   1.482   6.479 -0.2717  0.7208 -0.3302
10052TIP3    H230114   0.943   1.449   6.341  0.3738  1.0933 -0.1784
10053TIP3   OH230115   3.118   3.442   6.678  0.0805 -0.4598  0.2123
10053TIP3    H130116   3.157   3.521   6.715  1.5645 -0.4619 -1.2836
10053TIP3    H230117   3.024   3.463   6.672  0.0901  0.2354  2.1259
10054TIP3   OH230118   3.426   7.025   1.073  0.0555  0.1256  0.3017
10054TIP3    H130119   3.472   7.036   0.990  0.6240  1.3117  0.7615
10054TIP3    H230120   3.334   7.039   1.051  0.4627  3.1462  0.3174
10055TIP3   OH230121   6.341   4.455   0.842 -0.5407  0.5167 -1.0538
10055TIP3    H130122   6.318   4.432   0.932  0.0156  0.5137 -0.9126
10055TIP3    H230123   6.260   4.491   0.806 -1.0213 -0.3155 -0.8345
10056TIP3   OH230124   4.713   5.321   1.940 -0.0815  0.9502  0.5791
10056TIP3    H130125   4.798   5.281   1.956 -1.3789 -1.7776  0.8801
10056TIP3    H230126   4.718   5.406   1.985  2.3710  0.7421  0.7569
10057TIP3   OH230127   4.281   5.226   2.687  0.3880 -0.1973  0.3273
10057TIP3    H130128   4.310   5.314   2.712 -0.6962 -0.6186  3.1709
10057TIP3    H230129   4.267   5.232   2.592  1.2592  2.4114  0.3147
10058TIP3   OH230130   5.481   4.699   1.345  0.2296  0.3506 -1.2063
10058TIP3    H130131   5.569   4.695   1.383 -0.6778 -0.0880  0.9202
10058TIP3    H230132   5.432   4.754   1.405 -1.5225 -1.1841 -1.1856
10059TIP3   OH230133   1.250   0.781   5.342  0.0382  0.0389 -0.0440
10059TIP3    H130134   1.315   0.821   5.399 -0.8221 -1.9751  2.3950
10059TIP3    H230135   1.279   0.691   5.331 -0.8783 -0.1289 -1.1991
10060TIP3   OH230136   4.751   6.860  -0.003 -0.3544  0.1333 -0.5232
10060TIP3    H130137   4.745   6.946   0.039  0.1468 -1.1272  2.2812
10060TIP3    H230138   4.843   6.852  -0.028 -0.5870  0.7674 -1.5770
10061TIP3   OH230139   2.292   2.697   6.649  0.4681  0.2491 -0.8125
10061TIP3    H130140   2.361   2.638   6.680 -1.5088 -1.7701 -0.1008
10061TIP3    H230141   2.298   2.691   6.553  0.9071 -0.3899 -0.7537
10062TIP3   OH230142   8.289   0.092   6.124 -0.3088  0.2521 -0.3318
10062TIP3    H130143   8.319   0.002   6.132 -2.2875 -0.3418  0.6715
10062TIP3    H230144   8.254   0.099   6.036 -0.2436  0.0178 -0.3759
10063TIP3   OH230145   2.439   7.592   1.213  0.1270 -0.3430 -0.0194
10063TIP3    H130146   2.464   7.514   1.164 -0.5160 -1.0707  0.7645
10063TIP3    H230147   2.359   7.565   1.259 -1.3124  1.4630 -1.4218
10064TIP3   OH230148   5.623   7.342   1.426 -0.6225  0.4695 -0.1019
10064TIP3    H130149   5.607   7.262   1.477  0.6429 -0.8660 -1.7273
10064TIP3    H230150   5.715   7.362   1.443 -0.2458  0.1265 -1.6489
10065TIP3   OH230151   0.695   2.293   6.468 -0.8647  0.1612 -0.4190
10065TIP3    H130152   0.754   2.228   6.431 -1.0750 -0.4014  0.2207
10065TIP3    H230153   0.750   2.371   6.481 -0.0308 -0.6211  0.9636
10066TIP3   OH230154   2.321   2.745   5.528 -0.2501 -0.7909 -0.1328
10066TIP3    H130155   2.339   2.828   5.485 -2.3619 -0.7556 -1.0182
10066TIP3    H230156   2.336   2.679   5.461  2.0254 -1.1865  0.7464
10067TIP3   OH230157   4.056   6.127   1.287 -0.3685  0.0718 -0.2715
10067TIP3    H130158   4.024   6.134   1.377 -0.5898 -0.4523 -0.3094
10067TIP3    H230159   4.019   6.045   1.254 -0.5773  0.4382 -0.9605
10068TIP3   OH230160   3.297   6.707   1.915  0.7954  0.3052 -0.0745
10068TIP3    H130161   3.341   6.643   1.972  0.3779 -0.2492 -0.3736
10068TIP3    H230162   3.257   6.654   1.847 -0.6902  0.7777  0.4249
10069TIP3   OH230163   1.377   3.114   5.571 -0.4196 -0.5543 -0.1050
10069TIP3    H130164   1.459   3.132   5.617 -0.1665 -3.6454  0.7656
10069TIP3    H230165   1.309   3.132   5.635 -0.2728 -0.6344  0.0744
10070TIP3   OH230166   1.300   1.466   5.444 -0.1614 -0.7586 -0.2120
10070TIP3    H130167   1.300   1.435   5.534  0.7675 -0.8678 -0.2418
10070TIP3    H230168   1.212   1.446   5.412 -0.5687 -0.5174  0.7309
10071TIP3   OH230169   5.170   7.197   1.061 -0.1731 -0.3778 -0.3177
10071TIP3    H130170   5.230   7.136   1.018  0.4307  1.0190 -1.5140
10071TIP3    H230171   5.085   7.151   1.061  0.3147 -1.3017 -0.9906
10072TIP3   OH230172   4.164   7.403   1.568 -0.3271  0.1714  0.4252
10072TIP3    H130173   4.131   7.399   1.478  0.1653 -1.8056  0.3111
10072TIP3    H230174   4.260   7.400   1.558 -0.2799 -0.2796  1.0229
10073TIP3   OH230175   1.606   0.946   6.289 -0.7130 -0.3484 -0.3443
10073TIP3    H130176   1.660   0.870   6.267  0.2549  0.3176 -0.2829
10073TIP3    H230177   1.558   0.919   6.367  0.3032 -0.5688  0.2041
10074TIP3   OH230178   4.993   6.223   0.336  0.1562 -0.1150  0.8865
10074TIP3    H130179   5.014   6.134   0.366 -0.4913 -0.4036  0.4757
10074TIP3    H230180   4.966   6.269   0.416 -0.0378 -0.4424  1.0114
10075TIP3   OH230181   7.401   0.182   1.246 -0.0324 -0.2149 -0.1845
10075TIP3    H130182   7.363   0.131   1.318  0.3931 -0.1130  0.1123
10075TIP3    H230183   7.490   0.202   1.275  0.2202 -0.3728 -0.8395
10076TIP3   OH230184   2.442   6.136   1.189  0.4082  0.3919 -0.2545
10076TIP3    H130185   2.422   6.228   1.203 -0.3397  0.4958 -1.8864
10076TIP3    H230186   2.535   6.135   1.164 -0.3028  1.0294 -3.0849
10077TIP3   OH230187   0.608   2.851   5.837  0.6141 -0.1759  0.0146
10077TIP3    H130188   0.539   2.916   5.819 -0.2462 -1.1461 -0.2425
10077TIP3    H230189   0.690   2.899   5.825  0.0026  0.5787 -1.3261
10078TIP3   OH230190   1.516   1.107   6.069 -0.4192  0.5881  0.2316
10078TIP3    H130191   1.430   1.131   6.105 -1.1280 -0.0401 -0.9883
10078TIP3    H230192   1.545   1.034   6.123 -1.6858 -0.6539 -0.7253
10079TIP3   OH230193   0.453   0.036   6.808 -0.4654 -0.5380  0.2861
10079TIP3    H130194   0.376   0.052   6.864  0.9792  1.4519  1.7717
10079TIP3    H230195   0.521   0.092   6.845  1.2099 -0.9570 -2.0955
10080TIP3   OH230196   1.803   2.477   6.403  0.8009  0.4770  0.4266
10080TIP3    H130197   1.867   2.527   6.453 -0.6624  2.0138  0.8002
10080TIP3    H230198   1.828   2.385   6.417  2.7216  1.0289  0.7970
10081TIP3   OH230199   7.552   1.506   6.864 -0.4845  0.2728 -0.6200
10081TIP3    H130200   7.494   1.481   6.936  1.2049  0.0786  0.7139
10081TIP3    H230201   7.493   1.534   6.794 -2.1790 -0.1306  0.6128
10082TIP3   OH230202   0.738   3.013   5.622 -0.3840  0.1358 -0.0392
10082TIP3    H130203   0.756   3.085   5.682 -2.8564  0.6072  0.1645
10082TIP3    H230204   0.707   3.055   5.542  0.3716 -0.6154 -0.7416
10083TIP3   OH230205   3.760   6.182   4.333 -0.4536  0.4039 -0.1905
10083TIP3    H130206   3.830   6.143   4.385  0.3023  0.8280 -0.8811
10083TIP3    H230207   3.804   6.246   4.278 -1.4333  0.8982 -0.4038
10084TIP3   OH230208   8.028   1.502   1.011 -0.2531 -0.2683 -0.0702
10084TIP3    H130209   8.044   1.596   1.023 -1.0093 -0.0015 -1.1405
10084TIP3    H230210   7.938   1.489   1.042  0.5370 -1.0215  2.0079
10085TIP3   OH230211   4.677   7.190   0.927  0.5165 -0.1012  0.0888
10085TIP3    H130212   4.698   7.159   0.839  0.4710 -1.7943  0.6497
10085TIP3    H230213   4.585   7.169   0.939 -0.1672  2.4747 -0.3888
10086TIP3   OH230214   0.744   3.457   6.851 -0.9444  0.3957 -0.2105
10086TIP3    H130215   0.736   3.410   6.768  0.3821  0.6902 -0.5289
10086TIP3    H230216   0.739   3.389   6.918 -0.0965 -0.0909 -0.6261
10087TIP3   OH230217   2.051   0.851   6.205 -0.3506 -0.4171  0.0607
10087TIP3    H130218   2.071   0.923   6.146 -2.2758 -0.9967 -1.3258
10087TIP3    H230219   2.137   0.815   6.229  0.5508  1.3150 -0.4562
10088TIP3   OH230220   2.736   2.279   6.270 -0.3426  0.1675  0.2738
10088TIP3    H130221   2.670   2.236   6.216 -0.3894  1.1639 -0.4645
10088TIP3    H230222   2.703   2.268   6.360 -2.1231  1.6413 -0.1617
10089TIP3   OH230223   8.298   2.309   4.389 -0.1961 -0.3030  0.4418
10089TIP3    H130224   8.240   2.345   4.322 -0.4752 -1.8339 -0.1587
10089TIP3    H230225   8.312   2.218   4.363  1.1047 -0.4332  1.5134
10090TIP3   OH230226   7.959   0.419   4.965  0.2233 -0.2582 -0.1934
10090TIP3    H130227   7.976   0.444   5.056 -0.0974 -0.5970 -0.0379
10090TIP3    H230228   8.016   0.344   4.950  0.1569 -0.3040 -0.2189
10091TIP3   OH230229   1.846   4.360   5.963  0.1103 -0.0783 -0.1823
10091TIP3    H130230   1.767   4.308   5.945  1.0805 -0.7924 -2.5685
10091TIP3    H230231   1.902   4.302   6.014 -0.2820 -0.0933  0.2407
10092TIP3   OH230232   0.442   2.021   4.471 -0.3019  0.1608  0.4940
10092TIP3    H130233   0.393   2.005   4.390  0.4552  1.2943 -0.2016
10092TIP3    H230234   0.432   2.115   4.486  2.3268  0.5614 -0.0918
10093TIP3   OH230235   4.520   6.736   0.074  0.3437 -0.2482  0.1240
10093TIP3    H130236   4.519   6.761   0.167 -1.7552 -0.3156  0.1291
10093TIP3    H230237   4.604   6.768   0.042  0.6651  0.6534  1.8138
10094TIP3   OH230238   2.060   4.705   0.105  0.0969 -0.3618  0.4787
10094TIP3    H130239   2.021   4.643   0.044  0.8804 -1.5644  1.1791
10094TIP3    H230240   2.133   4.744   0.057 -0.3921  0.0178  0.0405
10095TIP3   OH230241   4.583   6.481   3.943 -0.2296  0.2873  0.5515
10095TIP3    H130242   4.581   6.391   3.977 -0.3928  0.6083  1.4099
10095TIP3    H230243   4.493   6.497   3.915  0.1916 -0.4316 -1.2644
10096TIP3   OH230244   7.363   0.888   2.567 -0.3527  0.2750 -0.5392
10096TIP3    H130245   7.335   0.796   2.568 -1.4964  0.6215  0.2111
10096TIP3    H230246   7.323   0.926   2.645  0.6952  1.2515 -0.4608
10097TIP3   OH230247   4.024   5.431   1.736 -0.0041 -0.5728 -0.2353
10097TIP3    H130248   3.998   5.520   1.757 -1.5763 -0.7252 -1.4235
10097TIP3    H230249   4.105   5.440   1.686 -0.4587  0.2253 -0.8414
10098TIP3   OH230250   2.433   1.249   4.809 -0.4833  0.7268  0.1108
10098TIP3    H130251   2.442   1.344   4.801 -0.5835  0.6636 -0.8441
10098TIP3    H230252   2.494   1.214   4.744  0.3040  0.1218  1.1764
10099TIP3   OH230253   3.969   3.419   1.975 -0.5081  0.5470  0.0250
10099TIP3    H130254   3.959   3.332   2.012 -0.0722  0.6767  0.4592
10099TIP3    H230255   3.894   3.469   2.008 -0.2593  0.5916  0.5358
10100TIP3   OH230256   2.444   2.463   5.579 -0.6193  0.6137 -0.7585
10100TIP3    H130257   2.371   2.400   5.587  0.5136 -0.7962 -1.3873
10100TIP3    H230258   2.459   2.470   5.485 -0.9903  2.1515 -0.7149
10101TIP3   OH230259   5.177   7.566   1.676  0.3459  0.1819  0.4039
10101TIP3    H130260   5.144   7.486   1.717  2.0535  0.6486  2.8482
10101TIP3    H230261   5.249   7.536   1.620  0.4123 -0.0979  0.6340
10102TIP3   OH230262   3.942   6.555   0.226 -0.1093  0.6556 -0.1350
10102TIP3    H130263   3.938   6.526   0.317  1.0074 -2.4671 -1.0334
10102TIP3    H230264   3.852   6.547   0.194  0.0958 -1.4785 -0.2364
10103TIP3   OH230265   3.756   5.466   1.309 -0.2990  0.5413  0.3439
10103TIP3    H130266   3.674   5.450   1.262  0.9232 -0.8762 -1.4020
10103TIP3    H230267   3.731   5.519   1.385 -2.9399 -0.6661  0.3534
10104TIP3   OH230268   4.402   6.083   0.968 -0.0379 -0.0145  0.5983
10104TIP3    H130269   4.376   6.134   1.045 -1.7893 -0.8095  0.5701
10104TIP3    H230270   4.353   6.001   0.977  1.0558 -0.7896 -0.4897
10105TIP3   OH230271   4.798   6.668   2.997 -0.6341 -0.0675 -0.0015
10105TIP3    H130272   4.786   6.605   3.069 -1.7340 -0.0069 -0.1266
10105TIP3    H230273   4.816   6.613   2.921 -0.5834 -0.1856  0.0936
10106TIP3   OH230274   1.026   0.803   4.671  0.2098 -0.3991  1.0144
10106TIP3    H130275   0.979   0.733   4.626  0.7228  0.1921 -0.4724
10106TIP3    H230276   1.056   0.763   4.753 -0.9140 -1.4265  0.9409
10107TIP3   OH230277   3.890   2.306   4.812  0.4793 -0.0578  0.3028
10107TIP3    H130278   3.931   2.329   4.729 -2.3782 -1.0922 -1.4762
10107TIP3    H230279   3.919   2.217   4.829 -0.1813 -0.4025 -0.3864
10108TIP3   OH230280   0.417   2.614   6.053 -0.1476  0.1308  0.3151
10108TIP3    H130281   0.500   2.587   6.014 -0.7831  0.1100 -1.0453
10108TIP3    H230282   0.442   2.662   6.132  1.1238 -0.6796  0.4238
10109TIP3   OH230283   4.813   5.622   0.819 -0.1742  0.2918  0.4896
10109TIP3    H130284   4.741   5.677   0.789 -0.7902  0.3765  2.0458
10109TIP3    H230285   4.771   5.557   0.875  0.4792 -2.0750 -1.6695
10110TIP3   OH230286   6.087   7.180   0.807 -0.1710  0.6172  0.0442
10110TIP3    H130287   6.101   7.089   0.781  0.5134  1.0785 -1.2473
10110TIP3    H230288   6.162   7.200   0.864 -0.7621  0.1281  1.0052
10111TIP3   OH230289   3.264   1.086   5.538 -0.2224  0.4956 -0.4642
10111TIP3    H130290   3.238   1.128   5.456  0.2384  0.4239 -0.6484
10111TIP3    H230291   3.271   1.158   5.600 -0.3894  0.5732 -0.5354
10112TIP3   OH230292   4.718   5.742   1.165  0.3523 -0.3891 -0.0283
10112TIP3    H130293   4.711   5.661   1.113  3.6024 -0.6760 -0.1014
10112TIP3    H230294   4.718   5.812   1.099  0.5408 -0.5268 -0.1781
10113TIP3   OH230295   3.866   6.829   1.528 -0.3627 -0.0985  0.1356
10113TIP3    H130296   3.784   6.839   1.575 -0.2107  0.8916  0.1889
10113TIP3    H230297   3.914   6.762   1.578 -1.8732 -2.0456 -0.9365
10114TIP3   OH230298   4.703   5.669   1.700 -0.1038 -0.1910  0.4069
10114TIP3    H130299   4.735   5.710   1.619  1.0197 -1.4990  0.1648
10114TIP3    H230300   4.780   5.664   1.756 -1.0389  1.3892  1.8687
10115TIP3   OH230301   0.535   2.638   6.658  0.5055 -0.2886 -0.5169
10115TIP3    H130302   0.566   2.581   6.588 -1.0951 -0.7546 -0.8607
10115TIP3    H230303   0.468   2.692   6.617  0.4542  0.3127  0.3541
10116TIP3   OH230304   2.558   1.735   5.684 -0.4740  0.1391  0.2017
10116TIP3    H130305   2.550   1.684   5.603 -1.3711  2.0353 -0.9357
10116TIP3    H230306   2.652   1.753   5.691 -0.2257 -1.1175  0.2813
10117TIP3   OH230307   2.991   4.686   1.030 -0.2297 -0.3358 -0.0442
10117TIP3    H130308   2.926   4.715   0.966 -0.3208  1.5946  0.9003
10117TIP3    H230309   3.023   4.766   1.071  1.3339 -1.3970  0.8892
10118TIP3   OH230310   2.954   3.494   5.252  0.0596  0.1647  0.0084
10118TIP3    H130311   3.009   3.418   5.232  0.7741  0.4309  0.9637
10118TIP3    H230312   2.880   3.457   5.301  0.5104  0.1059  0.6521
10119TIP3   OH230313   0.166   3.460   4.792  0.1959  0.5191  0.1243
10119TIP3    H130314   0.137   3.403   4.863 -0.3413 -2.3868 -2.3415
10119TIP3    H230315   0.092   3.465   4.732  1.1530  1.6689 -1.0075
10120TIP3   OH230316   6.953   7.756   0.645 -0.0160 -0.1946  0.8840
10120TIP3    H130317   7.030   7.702   0.629  0.2783  0.7037 -0.7782
10120TIP3    H230318   6.905   7.708   0.713  0.8441 -1.9161  0.3195
10121TIP3   OH230319   2.455   3.242   6.789  0.2104 -0.1917 -0.4124
10121TIP3    H130320   2.466   3.155   6.827 -2.2608 -0.0545  0.7415
10121TIP3    H230321   2.543   3.268   6.763  0.8689 -3.4376 -1.6922
10122TIP3   OH230322   2.465   3.915   6.623  0.5217  0.3221  0.2831
10122TIP3    H130323   2.509   3.869   6.695  0.0120 -0.9998 -0.2360
10122TIP3    H230324   2.372   3.909   6.645  0.4075  0.4784 -0.1608
10123TIP3   OH230325   2.114   1.371   5.025  0.0431 -0.8398 -0.1284
10123TIP3    H130326   2.194   1.321   5.039 -0.0853 -1.4938 -1.6246
10123TIP3    H230327   2.061   1.316   4.967 -0.4816  0.6267 -1.0863
10124TIP3   OH230328   0.941   0.997   6.910  0.1554  0.0245 -0.5412
10124TIP3    H130329   0.943   1.060   6.982 -0.1841  2.3034 -2.4895
10124TIP3    H230330   1.033   0.971   6.899  0.2560 -0.0721  0.4677
10125TIP3   OH230331   2.941   3.166   4.951 -0.0884  0.3903 -0.1445
10125TIP3    H130332   2.845   3.164   4.947 -0.0533  0.3453 -0.9067
10125TIP3    H230333   2.970   3.148   4.862  0.6335  0.5246  0.0583
10126TIP3   OH230334   2.655   2.682   4.671  0.2530 -0.0351  0.2388
10126TIP3    H130335   2.596   2.608   4.678 -0.2211  0.3897  0.7336
10126TIP3    H230336   2.736   2.645   4.636 -0.6741 -0.4165 -1.5212
10127TIP3   OH230337   0.464   3.172   4.628  0.3691 -0.6039 -0.1006
10127TIP3    H130338   0.499   3.093   4.668  0.3627 -1.1070 -1.0933
10127TIP3    H230339   0.470   3.238   4.698 -0.1699 -1.6125  0.9153
10128TIP3   OH230340   6.508   7.269   6.379 -0.3951 -0.4842 -0.3657
10128TIP3    H130341   6.541   7.211   6.310  0.5320 -1.0545  0.5408
10128TIP3    H230342   6.562   7.348   6.371  1.3858 -1.4809  1.2242
10129TIP3   OH230343   7.284   7.903   6.156 -0.2785 -0.2531 -0.1985
10129TIP3    H130344   7.267   7.928   6.066 -1.8723  1.7587  0.6260
10129TIP3    H230345   7.240   7.970   6.209  1.0604 -1.0946  2.0705
10130TIP3   OH230346   4.934   5.670   1.878 -0.1820 -0.0142  0.1032
10130TIP3    H130347   4.987   5.697   1.954  0.1164 -0.7824  0.1726
10130TIP3    H230348   4.991   5.610   1.830 -1.7671 -2.5621  1.3427
10131TIP3   OH230349   6.153   4.638   0.725 -0.7262 -0.1069  0.2378
10131TIP3    H130350   6.198   4.712   0.766 -1.5876  0.3245  0.4178
10131TIP3    H230351   6.061   4.665   0.723 -0.8134 -0.4943 -1.1779
10132TIP3   OH230352   1.154   0.941   5.845 -0.1776 -0.1568 -0.7468
10132TIP3    H130353   1.220   0.949   5.776 -1.0188  0.8939 -1.4398
10132TIP3    H230354   1.205   0.926   5.925  0.9186  0.8270 -1.2417
10133TIP3   OH230355   3.536   5.221   3.757  0.0800 -0.7812  0.7696
10133TIP3    H130356   3.525   5.201   3.850 -0.9015 -1.9595  0.4119
10133TIP3    H230357   3.457   5.271   3.734  1.5490  1.8499  1.1660
10134TIP3   OH230358   4.663   6.421   0.483  0.0690 -0.0635  0.0737
10134TIP3    H130359   4.590   6.463   0.528 -0.9757 -2.2243  0.4564
10134TIP3    H230360   4.739   6.475   0.506 -1.1450  1.3343  0.8997
10135TIP3   OH230361   2.022   2.862   6.479 -0.8083 -0.2843  0.5269
10135TIP3    H130362   1.933   2.878   6.446  0.1810  0.2890 -2.0035
10135TIP3    H230363   2.064   2.948   6.475  0.4322 -0.9186 -0.0677
10136TIP3   OH230364   2.266   1.934   4.587 -0.1342  0.3462 -0.4342
10136TIP3    H130365   2.276   2.008   4.527 -1.4722  0.5174 -0.4626
10136TIP3    H230366   2.292   1.858   4.535 -0.1882  0.6280 -0.8799
10137TIP3   OH230367   6.275   1.366   1.264 -0.3664  0.5002 -0.3271
10137TIP3    H130368   6.251   1.284   1.221 -1.5638  0.3150  0.6593
10137TIP3    H230369   6.193   1.397   1.303  0.3099  1.6016  0.2438
10138TIP3   OH230370   2.437   7.776   0.588 -0.0664  0.6015  0.0842
10138TIP3    H130371   2.427   7.687   0.554  1.0429  0.2195  0.7354
10138TIP3    H230372   2.514   7.810   0.543 -1.8462  2.1052 -1.9489
10139TIP3   OH230373   8.418   2.551   6.441 -0.0860  0.1655 -0.2490
10139TIP3    H130374   8.406   2.497   6.363 -0.5279  0.0860 -0.1260
10139TIP3    H230375   8.340   2.534   6.494 -0.7326  1.7357 -0.6837
10140TIP3   OH230376   1.768   1.405   5.969  0.2945  0.7639 -0.5175
10140TIP3    H130377   1.812   1.352   5.904 -0.1117  1.6873 -1.5562
10140TIP3    H230378   1.729   1.342   6.030 -0.5947 -0.1275 -1.9998
10141TIP3   OH230379   8.364   2.489   6.175 -0.0092 -0.5572 -0.3868
10141TIP3    H130380   8.419   2.553   6.131 -1.6253  0.4996 -0.9257
10141TIP3    H230381   8.326   2.437   6.104 -2.1889  0.7928 -0.2670
10142TIP3   OH230382   5.286   6.184   0.300 -0.0000  0.0954 -0.7731
10142TIP3    H130383   5.203   6.197   0.346  0.5336  0.5235  0.0861
10142TIP3    H230384   5.317   6.273   0.281  1.3902  0.0134  0.9761
10143TIP3   OH230385   0.307   0.105   0.334  0.2420  0.4522 -0.1396
10143TIP3    H130386   0.361   0.071   0.264  1.8365  0.1050  1.2304
10143TIP3    H230387   0.320   0.199   0.332 -1.7854  0.7376 -1.9688
10144TIP3   OH230388   3.128   5.129   3.204 -0.1578  0.8677  0.1121
10144TIP3    H130389   3.209   5.090   3.238  0.3387 -0.4261 -2.4319
10144TIP3    H230390   3.062   5.061   3.218  0.1279  0.1807 -1.7918
10145TIP3   OH230391   4.713   5.231   0.910 -0.1502  0.8338 -0.1873
10145TIP3    H130392   4.714   5.238   0.815  0.2358  1.2971 -0.1561
10145TIP3    H230393   4.623   5.209   0.932 -0.2838  0.9077 -0.6494
10146TIP3   OH230394   4.146   4.865   0.806 -0.4568  0.1517 -0.0835
10146TIP3    H130395   4.194   4.856   0.889 -0.8043  0.5658  0.1640
10146TIP3    H230396   4.167   4.786   0.757  0.9499  0.5847 -0.2061
10147TIP3   OH230397   5.055   5.274   0.818  0.3121 -0.2651  0.2676
10147TIP3    H130398   5.042   5.294   0.911  0.1670 -1.0755  0.4184
10147TIP3    H230399   5.011   5.191   0.804  1.4983 -0.8280 -0.2145
10148TIP3   OH230400   0.950   2.790   5.442  0.1775 -0.1010 -0.4509
10148TIP3    H130401   0.951   2.821   5.533 -0.1914  0.1014 -0.5140
10148TIP3    H230402   0.992   2.860   5.393  0.9115 -0.4692 -0.3586
10149TIP3   OH230403   2.266   6.623   0.072 -0.7016 -0.0482 -0.2064
10149TIP3    H130404   2.280   6.550   0.133  0.7354  0.3393 -0.0680
10149TIP3    H230405   2.190   6.669   0.109 -0.6145 -0.5333  0.6056
10150TIP3   OH230406   7.529   1.617   4.694 -0.3753  0.2260  0.4117
10150TIP3    H130407   7.530   1.616   4.598  2.2581  1.2500  0.4016
10150TIP3    H230408   7.504   1.527   4.719 -0.6919 -0.1482 -1.1996
10151TIP3   OH230409   8.014   2.298   5.386  0.3933  0.0177 -0.3218
10151TIP3    H130410   8.095   2.258   5.416 -1.1287 -1.6746  1.6740
10151TIP3    H230411   8.004   2.269   5.295  1.1895 -1.0933 -0.0592
10152TIP3   OH230412   8.256   1.413   1.989  0.5748  0.1415  0.0809
10152TIP3    H130413   8.195   1.404   2.062 -0.3214 -0.5715 -0.7387
10152TIP3    H230414   8.326   1.469   2.023 -0.2640  0.5328  1.2023
10153TIP3   OH230415   5.572   7.767   0.879 -0.8753  0.3879 -0.2197
10153TIP3    H130416   5.532   7.793   0.962 -1.7587  1.0369 -0.8356
10153TIP3    H230417   5.515   7.697   0.846 -0.1467 -0.3342  0.0339
10154TIP3   OH230418   3.325   6.073   0.249 -0.2597  0.5583  0.2642
10154TIP3    H130419   3.332   6.149   0.192 -2.0898  0.1024 -0.6241
10154TIP3    H230420   3.367   6.002   0.200 -0.9410  0.3945 -0.0870
10155TIP3   OH230421   5.054   7.372   0.463 -0.3312  0.1953  0.0859
10155TIP3    H130422   5.108   7.439   0.506 -1.8853  1.1736  0.5296
10155TIP3    H230423   5.118   7.315   0.420  1.1482  0.5117  1.7673
10156TIP3   OH230424   1.994   6.521   2.933 -0.1270  0.1959 -0.2372
10156TIP3    H130425   2.084   6.513   2.965 -0.1235 -0.1654 -0.3304
10156TIP3    H230426   2.001   6.509   2.838 -0.3776 -0.7202 -0.1476
10157TIP3   OH230427   4.331   5.803   0.745  0.1712 -0.1042 -0.1177
10157TIP3    H130428   4.352   5.819   0.653  1.1115  0.7498  0.2323
10157TIP3    H230429   4.249   5.850   0.759  1.1890  1.7135  0.0326
10158TIP3   OH230430   5.699   7.644   0.565  0.6267  0.3936  0.8540
10158TIP3    H130431   5.680   7.575   0.628  1.6698 -0.1948  0.5318
10158TIP3    H230432   5.659   7.613   0.483  1.1094  0.1611  0.7054
10159TIP3   OH230433   6.232   5.582   0.993  0.0203 -0.2426  0.4593
10159TIP3    H130434   6.162   5.517   0.994  0.7213 -1.0452 -1.1663
10159TIP3    H230435   6.190   5.663   0.964 -0.9003  0.1085  2.7021
10160TIP3   OH230436   4.321   6.634   1.085  0.8756 -0.6093 -0.6923
10160TIP3    H130437   4.246   6.582   1.057  0.6556 -0.6507 -0.0449
10160TIP3    H230438   4.325   6.621   1.180  0.1357  1.4455 -0.3598
10161TIP3   OH230439   5.340   5.505   2.374  0.3096  0.0108 -0.2706
10161TIP3    H130440   5.409   5.546   2.427  2.0428 -0.2358 -2.2811
10161TIP3    H230441   5.354   5.411   2.385 -1.2284 -0.0629  1.2173
10162TIP3   OH230442   3.214   3.123   4.575  0.0440 -0.4053 -0.2970
10162TIP3    H130443   3.225   3.139   4.481 -1.2122  0.6104 -0.2785
10162TIP3    H230444   3.279   3.180   4.617  0.5458 -0.7948 -0.5343
10163TIP3   OH230445   5.997   6.982   0.123  0.3102 -0.2177 -0.3642
10163TIP3    H130446   5.952   6.967   0.206  0.0849 -1.0281 -0.6213
10163TIP3    H230447   6.009   7.076   0.118 -1.2188 -0.0014 -0.1992
10164TIP3   OH230448   4.279   5.148   2.142  0.5291  0.4623 -0.2215
10164TIP3    H130449   4.311   5.238   2.135  2.0076 -0.0474 -0.0734
10164TIP3    H230450   4.244   5.142   2.231  0.0194  1.0057 -0.3756
10165TIP3   OH230451   5.626   6.029   1.604 -0.5063  0.1212  0.1041
10165TIP3    H130452   5.662   5.942   1.621  0.1268  0.2942 -0.3241
10165TIP3    H230453   5.543   6.030   1.652  0.8692  0.3133  2.6061
10166TIP3   OH230454   2.888   5.584   1.524  0.3399  0.1074 -0.5309
10166TIP3    H130455   2.871   5.513   1.462 -0.7095  0.1299 -0.2779
10166TIP3    H230456   2.924   5.654   1.471 -0.1622 -0.0259 -1.0500
10167TIP3   OH230457   1.314   0.604   5.669  0.0551  0.6607  0.2059
10167TIP3    H130458   1.358   0.615   5.585 -0.2751  1.9526  0.2012
10167TIP3    H230459   1.222   0.621   5.651 -0.1729 -0.1319  0.6120
10168TIP3   OH230460   2.459   3.491   6.618 -0.2561 -0.7814  0.0566
10168TIP3    H130461   2.411   3.425   6.668  0.6152 -0.1456  1.7821
10168TIP3    H230462   2.396   3.561   6.604 -0.5445 -1.0203  0.1477
10169TIP3   OH230463   3.690   7.930   2.186 -0.5264  0.0704  0.1771
10169TIP3    H130464   3.677   7.989   2.260 -1.4859  3.7245 -2.7493
10169TIP3    H230465   3.688   7.987   2.109  0.6481 -3.5427 -2.6897
10170TIP3   OH230466   8.304   0.083   1.189  0.0389 -0.0915 -0.5150
10170TIP3    H130467   8.350   0.165   1.172 -2.7552  1.4542 -0.9913
10170TIP3    H230468   8.269   0.093   1.278 -0.3262 -0.7411 -0.5832
10171TIP3   OH230469   4.716   7.999   1.550 -0.0517 -0.0084  0.3452
10171TIP3    H130470   4.629   8.038   1.561 -0.4584 -0.4927 -1.0776
10171TIP3    H230471   4.726   7.990   1.455  1.1801 -0.8077  0.5477
10172TIP3   OH230472   7.513   0.557   0.740 -0.2798 -0.3493 -0.0642
10172TIP3    H130473   7.467   0.614   0.802 -2.3007  0.6914 -2.4389
10172TIP3    H230474   7.485   0.469   0.763  0.0577 -0.0926  1.3669
10173TIP3   OH230475   1.434   3.383   5.955 -0.4693  0.1427 -0.1761
10173TIP3    H130476   1.424   3.331   6.035 -1.2956  1.0952  0.3522
10173TIP3    H230477   1.347   3.382   5.916  0.0127 -0.5980 -1.2467
10174TIP3   OH230478   5.207   7.721   0.971 -0.1075  0.0206 -0.3035
10174TIP3    H130479   5.249   7.740   1.055  1.6095 -0.0813 -1.1181
10174TIP3    H230480   5.212   7.803   0.923 -1.3295  0.1528 -0.2070
10175TIP3   OH230481   0.979   1.749   5.665 -0.1750  0.2145  0.0676
10175TIP3    H130482   1.053   1.808   5.681 -0.3984  1.8662 -4.3424
10175TIP3    H230483   0.903   1.807   5.665 -0.8543 -0.6734 -0.5042
10176TIP3   OH230484   1.441   2.842   6.421 -0.2119 -0.3229  0.3930
10176TIP3    H130485   1.396   2.924   6.439 -0.0299 -0.5261  1.8421
10176TIP3    H230486   1.379   2.774   6.447 -0.0404 -0.6415 -0.0184
10177TIP3   OH230487   3.813   3.439   4.940 -0.3790 -0.1501  0.2184
10177TIP3    H130488   3.827   3.406   4.851  0.2601 -1.9758  0.9709
10177TIP3    H230489   3.804   3.533   4.929  0.7802 -0.2249 -1.6748
10178TIP3   OH230490   4.944   5.006   0.748 -0.6549  0.0543 -0.3878
10178TIP3    H130491   5.024   4.987   0.796 -1.0551  1.4055  0.8524
10178TIP3    H230492   4.881   4.939   0.778  0.2621 -1.6342 -2.1136
10179TIP3   OH230493   2.876   4.766   1.813 -0.0464  0.3179  0.0051
10179TIP3    H130494   2.933   4.699   1.776 -0.6006  0.3440 -0.9366
10179TIP3    H230495   2.835   4.807   1.736 -0.6330  0.9105  0.6242
10180TIP3   OH230496   5.009   4.887   2.118 -0.1593  0.2478  0.5731
10180TIP3    H130497   5.000   4.975   2.154  1.1111  0.3339  0.7262
10180TIP3    H230498   4.961   4.831   2.178  0.2670  0.6505  1.2868
10181TIP3   OH230499   6.451   7.588   6.561 -0.0584 -0.2641 -0.1625
10181TIP3    H130500   6.394   7.640   6.504 -0.0467 -1.1820 -1.0228
10181TIP3    H230501   6.393   7.529   6.608  0.1674 -1.2046 -1.0452
10182TIP3   OH230502   0.115   2.188   6.370  0.1220 -0.5552 -0.3104
10182TIP3    H130503   0.139   2.109   6.419  1.4928  0.0189 -0.0044
10182TIP3    H230504   0.020   2.190   6.371  0.1054 -1.3027  1.1628
10183TIP3   OH230505   5.850   6.650   0.248  0.5303 -0.1270 -0.2337
10183TIP3    H130506   5.884   6.561   0.265  1.1960  0.1789  0.0846
10183TIP3    H230507   5.836   6.653   0.154  2.3163  0.0455 -0.5112
10184TIP3   OH230508   3.670   7.461   0.507  0.3777  0.6768  0.0622
10184TIP3    H130509   3.711   7.487   0.424  0.5826 -0.9477 -0.3749
10184TIP3    H230510   3.577   7.478   0.495  0.2365 -0.7290 -1.0029
10185TIP3   OH230511   3.569   4.105   0.424 -0.6196  0.1341  0.1431
10185TIP3    H130512   3.509   4.044   0.469  1.0500 -1.2928  0.4779
10185TIP3    H230513   3.587   4.063   0.340 -1.0503  1.1753 -0.4813
10186TIP3   OH230514   2.874   4.678   5.289  0.2861 -0.2174 -0.4358
10186TIP3    H130515   2.966   4.703   5.281 -0.1313  1.4386 -0.2726
10186TIP3    H230516   2.836   4.696   5.203  0.1479 -1.0399 -0.5488
10187TIP3   OH230517   1.660   1.819   6.512 -0.1789  0.5262 -0.0117
10187TIP3    H130518   1.636   1.738   6.556 -1.4384  1.0044  0.2229
10187TIP3    H230519   1.754   1.828   6.526  0.2217 -1.5918 -1.2177
10188TIP3   OH230520   3.210   6.972   2.031  0.0741  0.1954  0.0098
10188TIP3    H130521   3.262   6.965   2.111 -1.7997  0.1248  1.2523
10188TIP3    H230522   3.230   6.892   1.983  1.8350  0.6161  0.0119
10189TIP3   OH230523   5.838   6.401   0.898  0.2082 -0.2222  0.3975
10189TIP3    H130524   5.803   6.313   0.908 -0.2770 -0.3245 -1.8853
10189TIP3    H230525   5.933   6.390   0.907  0.1096 -0.8820  0.6462
10190TIP3   OH230526   4.922   2.889   5.942  0.0036  0.1205 -0.1104
10190TIP3    H130527   4.988   2.834   5.901 -0.7238  0.4546 -1.7587
10190TIP3    H230528   4.849   2.830   5.959  0.3660 -0.0509  0.8507
10191TIP3   OH230529   7.222   6.318   2.632 -0.1007 -0.2978  0.0897
10191TIP3    H130530   7.165   6.241   2.643 -0.5481  0.0869  0.5008
10191TIP3    H230531   7.290   6.306   2.699 -1.4502  0.8023  1.6995
10192TIP3   OH230532   4.329   7.401   0.054  0.3267  0.1676  0.0596
10192TIP3    H130533   4.345   7.453   0.133  0.5111  0.9456 -0.4814
10192TIP3    H230534   4.415   7.364   0.032  0.6131  1.2628 -0.6898
10193TIP3   OH230535   7.743   7.634   6.459 -0.4617 -0.0505  0.4525
10193TIP3    H130536   7.830   7.657   6.493  0.2513  0.4409 -1.5956
10193TIP3    H230537   7.713   7.714   6.415 -2.1718 -0.0714  1.5411
10194TIP3   OH230538   5.231   6.527   0.200 -0.5343 -0.1314  0.6813
10194TIP3    H130539   5.222   6.474   0.120 -0.5637 -1.5290  1.5958
10194TIP3    H230540   5.300   6.484   0.249 -0.1727  1.0229  1.1945
10195TIP3   OH230541   3.410   4.829   1.688  0.0350  0.4442 -0.3375
10195TIP3    H130542   3.373   4.834   1.776  3.5140 -0.1674  1.2391
10195TIP3    H230543   3.371   4.751   1.650  1.2276 -1.3877  2.0397
10196TIP3   OH230544   1.841   2.669   5.908  0.4226 -0.1282  0.2349
10196TIP3    H130545   1.900   2.742   5.889 -1.8277  1.3820 -1.1813
10196TIP3    H230546   1.832   2.669   6.003  0.9162  1.0595  0.2853
10197TIP3   OH230547   5.173   8.038   0.175  0.9424 -0.2019  0.3235
10197TIP3    H130548   5.143   7.952   0.147  2.5740 -0.0654 -1.9665
10197TIP3    H230549   5.251   8.020   0.228  0.7402 -0.1637  0.6395
10198TIP3   OH230550   4.531   5.213   6.436  0.2077 -0.2975  0.1013
10198TIP3    H130551   4.618   5.249   6.417  1.0603 -1.2762  1.9742
10198TIP3    H230552   4.470   5.283   6.412  1.5599  0.7271 -0.4339
10199TIP3   OH230553   2.927   6.482   0.350  0.5047 -0.1680 -0.4480
10199TIP3    H130554   2.890   6.430   0.279  1.3142 -0.5515 -0.5986
10199TIP3    H230555   2.992   6.538   0.308 -0.9948  1.6581 -0.4290
10200TIP3   OH230556   6.841   4.592   0.161  0.4067  0.3922 -0.4915
10200TIP3    H130557   6.857   4.620   0.251 -1.0843 -0.3123  0.0083
10200TIP3    H230558   6.902   4.644   0.108 -0.3596  2.5490  0.6828
10201TIP3   OH230559   3.325   1.025   4.844  0.3784 -0.1894 -0.8933
10201TIP3    H130560   3.331   0.942   4.891  0.7849  0.0610 -0.5043
10201TIP3    H230561   3.290   1.087   4.908  1.2593  0.2329 -0.8203
10202TIP3   OH230562   3.559   1.622   5.611 -0.0921  0.6674 -0.0692
10202TIP3    H130563   3.634   1.562   5.610 -1.1151 -0.6893  1.5835
10202TIP3    H230564   3.563   1.667   5.527  1.8706 -0.2702 -0.5074
10203TIP3   OH230565   2.805   2.637   6.817 -0.3373 -0.0758 -0.5770
10203TIP3    H130566   2.811   2.587   6.736  0.3035 -0.3754 -0.3514
10203TIP3    H230567   2.885   2.690   6.819 -0.1730 -0.3363  0.0250
10204TIP3   OH230568   1.414   3.359   6.488  0.6639 -0.0926  0.0200
10204TIP3    H130569   1.348   3.360   6.418  0.6869 -0.2094 -0.0034
10204TIP3    H230570   1.497   3.371   6.443  0.6299  0.4059  0.0827
10205TIP3   OH230571   6.886   5.922   0.645 -0.9541 -0.1250  0.1884
10205TIP3    H130572   6.911   5.892   0.732  0.8483 -1.6445 -0.8201
10205TIP3    H230573   6.819   5.859   0.616 -0.1680 -0.7431 -0.2852
10206TIP3   OH230574   5.753   6.435   2.251 -0.1317 -0.4787  0.2624
10206TIP3    H130575   5.744   6.521   2.211 -0.5633 -1.3979 -1.6989
10206TIP3    H230576   5.692   6.380   2.203 -0.3799 -1.7232  1.9772
10207TIP3   OH230577   3.355   2.261   6.421 -0.0032 -0.3729  0.6545
10207TIP3    H130578   3.449   2.249   6.426  0.4644  2.1233 -1.0910
10207TIP3    H230579   3.331   2.234   6.332 -0.6712  0.3894  0.5882
10208TIP3   OH230580   5.871   6.889   0.345  0.5358 -0.4354 -0.6164
10208TIP3    H130581   5.839   6.803   0.315 -0.1459 -0.4032 -0.0164
10208TIP3    H230582   5.918   6.870   0.426 -0.4073 -0.1407  0.0119
10209TIP3   OH230583   5.833   5.133   0.960 -0.4115 -0.6310  0.4402
10209TIP3    H130584   5.777   5.210   0.966  1.6309  0.8815  0.7657
10209TIP3    H230585   5.916   5.161   0.997  1.4492 -1.9268 -2.5335
10210TIP3   OH230586   6.648   7.769   0.346  0.7431  0.2563  0.0060
10210TIP3    H130587   6.576   7.832   0.335 -0.2995 -0.5554  2.1350
10210TIP3    H230588   6.727   7.823   0.338 -0.1079  1.4649 -0.4859
10211TIP3   OH230589   7.948   1.601   2.132 -0.5607 -0.1502 -0.1867
10211TIP3    H130590   7.900   1.519   2.138 -1.6428  0.5464  0.8767
10211TIP3    H230591   7.908   1.657   2.198  0.4139  1.1085 -0.6463
10212TIP3   OH230592   4.712   5.411   0.550 -0.6650  0.1042  0.3665
10212TIP3    H130593   4.740   5.324   0.578 -0.7938 -0.3253 -0.8019
10212TIP3    H230594   4.763   5.471   0.604  0.2129 -0.6966  0.4487
10213TIP3   OH230595   4.335   2.423   6.589  0.3974 -0.6096 -0.8306
10213TIP3    H130596   4.275   2.466   6.650  0.9046 -2.1472  0.7588
10213TIP3    H230597   4.422   2.434   6.628  0.7373 -1.5025 -1.3161
10214TIP3   OH230598   6.085   4.378   1.003 -0.1162 -0.2080 -0.4793
10214TIP3    H130599   6.068   4.429   1.082  1.0145  0.1818 -0.4760
10214TIP3    H230600   6.066   4.288   1.029  0.3762 -0.0994  0.2889
10215TIP3   OH230601   4.431   5.834   1.164 -0.5343  0.2434  0.4519
10215TIP3    H130602   4.507   5.891   1.160  0.0121 -0.5515 -0.7975
10215TIP3    H230603   4.391   5.853   1.249  0.5660  1.2819  0.7501
10216TIP3   OH230604   3.941   3.546   5.185 -0.5462 -0.3672  0.0047
10216TIP3    H130605   3.929   3.484   5.113  0.5013  1.9473 -2.2441
10216TIP3    H230606   3.919   3.496   5.264  1.7522 -4.0648 -1.5563
10217TIP3   OH230607   6.852   6.641   0.374 -0.3798 -0.0519  0.0023
10217TIP3    H130608   6.921   6.693   0.332  0.0398 -0.9429 -0.4203
10217TIP3    H230609   6.900   6.578   0.429 -0.8977  0.4015  0.9947
10218TIP3   OH230610   5.428   2.028   5.535 -0.2032  0.0702  0.2074
10218TIP3    H130611   5.392   1.959   5.479  0.0137 -0.3357  0.5602
10218TIP3    H230612   5.372   2.104   5.520 -1.8465 -0.8381  1.5318
10219TIP3   OH230613   1.697   1.591   5.775 -0.0507 -0.5489 -0.6723
10219TIP3    H130614   1.713   1.685   5.782  3.2939 -0.8739 -2.7364
10219TIP3    H230615   1.735   1.554   5.854  1.6551 -0.4541 -1.4341
10220TIP3   OH230616   3.701   1.697   6.364 -0.2283  0.2214  0.6498
10220TIP3    H130617   3.680   1.785   6.394 -1.1521  0.7370 -1.3877
10220TIP3    H230618   3.775   1.710   6.304 -0.9720 -0.2288 -0.3924
10221TIP3   OH230619   7.162   5.709   1.695 -0.4239 -0.2629 -0.4160
10221TIP3    H130620   7.179   5.786   1.749  1.8652 -0.1800 -1.2038
10221TIP3    H230621   7.143   5.743   1.608 -1.0781 -0.5268 -0.3805
10222TIP3   OH230622   3.714   2.973   6.649  0.2867 -0.1480  0.2866
10222TIP3    H130623   3.771   3.023   6.707  0.0962 -0.3946  0.6931
10222TIP3    H230624   3.724   3.015   6.563 -1.2470  1.7334  0.9917
10223TIP3   OH230625   1.639   2.667   5.700 -0.0253 -0.4266 -0.4545
10223TIP3    H130626   1.719   2.676   5.752 -0.2687  0.8675 -0.3030
10223TIP3    H230627   1.604   2.581   5.725  0.2317 -0.1218  0.9837
10224TIP3   OH230628   7.872   6.813   1.558  0.9798 -0.1625  0.2538
10224TIP3    H130629   7.792   6.789   1.605  0.7098 -1.0598 -0.6500
10224TIP3    H230630   7.925   6.734   1.559  1.1695 -0.0489 -0.5554
10225TIP3   OH230631   6.643   1.417   3.746  0.4004 -0.0347 -0.3833
10225TIP3    H130632   6.580   1.428   3.818 -0.8340 -0.8250 -1.3318
10225TIP3    H230633   6.689   1.501   3.742 -0.2388  0.3808  0.6424
10226TIP3   OH230634   2.295   2.113   6.125 -0.5048  0.1556 -0.8025
10226TIP3    H130635   2.251   2.055   6.063  2.6901 -0.6886 -2.3965
10226TIP3    H230636   2.276   2.076   6.211 -0.6433 -1.7788 -1.6412
10227TIP3   OH230637   5.851   1.436   5.219 -0.4598 -0.3492  0.2601
10227TIP3    H130638   5.821   1.519   5.181  0.1472  0.3071  1.1931
10227TIP3    H230639   5.809   1.433   5.305  0.0103 -0.7083  0.4775
10228TIP3   OH230640   5.826   5.710   1.327  0.0561 -0.1764 -0.2456
10228TIP3    H130641   5.903   5.654   1.316 -0.1773 -0.7590  1.0990
10228TIP3    H230642   5.841   5.757   1.409 -1.1723 -0.5460  0.2044
10229TIP3   OH230643   6.613   6.726   0.726  0.3365  0.0670 -0.1750
10229TIP3    H130644   6.615   6.645   0.675  0.0918  0.4203 -0.7534
10229TIP3    H230645   6.682   6.780   0.688  2.5194 -1.0121  2.1504
10230TIP3   OH230646   4.066   5.572   0.451 -0.0036 -0.1064  0.5845
10230TIP3    H130647   3.979   5.610   0.467  0.6681  1.1041  1.3680
10230TIP3    H230648   4.067   5.555   0.356 -0.3029  1.8469  0.2214
10231TIP3   OH230649   3.136   3.451   6.163 -0.4800  0.2276 -0.2154
10231TIP3    H130650   3.151   3.396   6.239 -2.5340 -0.7281 -0.4822
10231TIP3    H230651   3.061   3.505   6.187  0.4239  1.6987 -0.6278
10232TIP3   OH230652   8.491   0.450   0.672  0.1867  0.0456  0.2089
10232TIP3    H130653   8.514   0.534   0.712  1.7510 -0.5634  0.6377
10232TIP3    H230654   8.396   0.452   0.664  0.3020  2.4160 -0.9989
10233TIP3   OH230655   7.068   7.268   0.139 -0.1617 -0.2242 -0.0050
10233TIP3    H130656   7.152   7.227   0.119  0.0816  0.8288 -1.1964
10233TIP3    H230657   7.003   7.203   0.112  0.2567 -1.9667  2.9625
10234TIP3   OH230658   3.625   5.304   1.541 -0.2829 -0.5548 -0.1808
10234TIP3    H130659   3.716   5.274   1.542  0.1889  0.8313  0.6125
10234TIP3    H230660   3.578   5.238   1.490  0.5500 -3.0391  2.1743
10235TIP3   OH230661   5.381   2.725   5.690 -0.3751  0.1728 -0.5016
10235TIP3    H130662   5.297   2.701   5.730 -0.6181 -0.9251 -1.6080
10235TIP3    H230663   5.386   2.669   5.612  1.5856 -0.0710 -0.2117
10236TIP3   OH230664   3.035   6.055   0.177  0.0446 -0.1153 -0.5799
10236TIP3    H130665   3.130   6.039   0.172 -0.1338 -1.1768 -0.7537
10236TIP3    H230666   2.999   6.005   0.103 -0.5550  1.1053 -1.1302
10237TIP3   OH230667   3.695   7.924   0.319 -0.9115  0.2676 -0.1905
10237TIP3    H130668   3.644   7.867   0.262 -0.6460  0.4060 -0.5703
10237TIP3    H230669   3.780   7.880   0.327 -0.6977  0.6190 -0.5045
10238TIP3   OH230670   0.529   6.694   1.389 -0.1919 -0.2702 -0.0320
10238TIP3    H130671   0.439   6.710   1.417  0.4584  2.3249  0.6987
10238TIP3    H230672   0.537   6.599   1.389 -2.9785 -0.5539 -0.2925
10239TIP3   OH230673   6.195   5.223   2.695  0.1008  0.0807 -0.0763
10239TIP3    H130674   6.238   5.248   2.777  0.7861 -0.4943 -0.2599
10239TIP3    H230675   6.253   5.256   2.627 -0.4143  0.4614 -0.3333
10240TIP3   OH230676   5.733   6.462   0.513 -0.3030 -0.1663 -0.2384
10240TIP3    H130677   5.817   6.417   0.504  0.2781  0.5230  1.5508
10240TIP3    H230678   5.676   6.400   0.557  0.2668  0.5340  1.5256
10241TIP3   OH230679   4.832   2.843   5.342  0.3590 -0.5706  0.3476
10241TIP3    H130680   4.847   2.848   5.247 -1.8087  0.2276  0.0125
10241TIP3    H230681   4.821   2.750   5.359 -1.6379 -0.5540 -0.6295
10242TIP3   OH230682   4.323   4.087   5.942 -0.1221  0.3719  0.6595
10242TIP3    H130683   4.269   4.010   5.923 -2.0643  1.3348  2.0577
10242TIP3    H230684   4.374   4.101   5.863  0.2071 -2.3032  0.3491
10243TIP3   OH230685   8.037   0.532   1.709 -0.4077 -0.4865 -0.2307
10243TIP3    H130686   7.950   0.503   1.735 -1.1529  2.0020  0.2038
10243TIP3    H230687   8.083   0.548   1.791  0.3075 -1.3987 -0.4587
10244TIP3   OH230688   7.360   7.198   3.937  0.4504 -0.3117  0.6466
10244TIP3    H130689   7.393   7.283   3.968  0.6569 -0.8580  1.9517
10244TIP3    H230690   7.424   7.171   3.871  1.7186 -0.5880  1.9787
10245TIP3   OH230691   2.272   0.186   6.471  0.0053  0.1118  0.3722
10245TIP3    H130692   2.200   0.141   6.428  1.9112 -0.7106 -2.0596
10245TIP3    H230693   2.311   0.121   6.529 -0.6136  0.2814  0.9832
10246TIP3   OH230694   3.701   3.656   6.834  0.2726  0.0450  0.0448
10246TIP3    H130695   3.621   3.708   6.825  0.0604 -0.5505 -1.7493
10246TIP3    H230696   3.671   3.571   6.865  0.3991  0.3271  0.9607
10247TIP3   OH230697   4.407   3.039   2.257 -0.3696 -0.0476  0.0374
10247TIP3    H130698   4.434   3.092   2.181  2.0192  0.5450  1.2540
10247TIP3    H230699   4.473   2.970   2.261 -0.6471 -0.2268  1.4027
10248TIP3   OH230700   1.224   4.494   2.615 -0.4155  0.0760  1.1126
10248TIP3    H130701   1.248   4.585   2.600 -2.1686  0.0679 -2.3444
10248TIP3    H230702   1.144   4.498   2.667 -1.7714  0.6110 -0.9866
10249TIP3   OH230703   2.889   1.778   4.111  0.0402  0.7970  0.3049
10249TIP3    H130704   2.862   1.686   4.116 -3.6053  1.6525 -1.7002
10249TIP3    H230705   2.980   1.775   4.083 -0.2983 -2.2019 -0.6512
10250TIP3   OH230706   3.400   2.386   6.657  0.1059 -0.4049  0.2166
10250TIP3    H130707   3.483   2.433   6.659  0.3818 -0.9364  1.4000
10250TIP3    H230708   3.388   2.362   6.565  0.7062  0.6440 -0.1371
10251TIP3   OH230709   4.817   4.692   0.228  0.5450  0.1284 -0.6572
10251TIP3    H130710   4.832   4.754   0.299  1.5076 -0.5012 -0.2979
10251TIP3    H230711   4.736   4.721   0.187  0.1867  0.7135  0.4679
10252TIP3   OH230712   4.025   0.415   6.415  0.2101 -0.8501  0.1189
10252TIP3    H130713   3.999   0.365   6.492  0.1077 -0.8582  0.0791
10252TIP3    H230714   4.010   0.507   6.440 -1.2287 -0.9263 -0.4094
10253TIP3   OH230715   6.031   7.263   0.560 -0.2948 -0.2797 -0.4670
10253TIP3    H130716   5.940   7.239   0.542 -0.7918  2.2172 -1.5138
10253TIP3    H230717   6.046   7.233   0.650 -1.8186 -1.6338 -0.6352
10254TIP3   OH230718   5.489   1.530   6.002  1.0196 -0.5933  0.9639
10254TIP3    H130719   5.445   1.449   5.978 -1.4935  0.1167  2.9134
10254TIP3    H230720   5.481   1.586   5.925 -0.3507 -0.9595  0.8324
10255TIP3   OH230721   5.513   5.349   1.726 -0.1578  0.4066 -0.2086
10255TIP3    H130722   5.551   5.402   1.795  2.4166 -0.9938 -0.4901
10255TIP3    H230723   5.476   5.412   1.664  0.5063  1.7616  0.7635
10256TIP3   OH230724   1.188   1.889   5.770 -0.3561 -0.4170 -0.2685
10256TIP3    H130725   1.263   1.859   5.719 -1.2548  0.0968 -1.9226
10256TIP3    H230726   1.224   1.958   5.827  0.2288  0.5919 -1.8333
10257TIP3   OH230727   6.398   4.710   0.298 -0.3684  0.3134  0.1079
10257TIP3    H130728   6.442   4.741   0.376 -1.7702 -0.2771  1.1539
10257TIP3    H230729   6.466   4.665   0.248  0.7977  1.7047  0.4027
10258TIP3   OH230730   4.273   5.456   0.247  0.0864 -0.4855 -0.2134
10258TIP3    H130731   4.251   5.548   0.229 -1.3771 -0.8037 -0.0990
10258TIP3    H230732   4.333   5.461   0.321  0.5952  0.4174 -0.6681
10259TIP3   OH230733   0.116   2.121   5.878  0.4194  0.1775  0.5058
10259TIP3    H130734   0.163   2.118   5.961  1.3638  1.2966  0.0239
10259TIP3    H230735   0.080   2.210   5.875  1.2878  0.4906 -0.7713
10260TIP3   OH230736   5.609   6.290   0.680 -0.1326 -0.1986  0.6764
10260TIP3    H130737   5.527   6.245   0.659  0.0758 -1.5830  2.6770
10260TIP3    H230738   5.649   6.236   0.748  1.7127  1.2891  0.8073
10261TIP3   OH230739   5.972   5.289   1.225 -0.1581 -0.3197 -0.1003
10261TIP3    H130740   5.926   5.280   1.308 -0.1521  0.8794  0.0453
10261TIP3    H230741   5.903   5.294   1.159 -0.2309  0.7198  0.0425
10262TIP3   OH230742   7.748   0.187   0.942  0.3466 -0.0338  0.0860
10262TIP3    H130743   7.715   0.105   0.979 -0.0261  1.7592  3.8784
10262TIP3    H230744   7.833   0.200   0.984  0.9400  0.9816 -1.3633
10263TIP3   OH230745   4.780   0.631   5.521 -0.0553 -0.2457  0.2118
10263TIP3    H130746   4.823   0.566   5.577  0.2220 -1.3572 -1.2519
10263TIP3    H230747   4.851   0.690   5.494 -0.3393  0.7998  1.6878
10264TIP3   OH230748   5.433   6.252   1.037  0.0244 -0.2852  1.1082
10264TIP3    H130749   5.451   6.159   1.048 -1.1783 -0.5815  0.6238
10264TIP3    H230750   5.339   6.257   1.021 -0.0597  1.0867  1.9138
10265TIP3   OH230751   8.503   7.868   6.242 -0.0090  0.0440  0.1601
10265TIP3    H130752   8.460   7.951   6.265  0.9339  0.8898 -1.0789
10265TIP3    H230753   8.438   7.801   6.264 -1.6097  1.2352 -0.7916
10266TIP3   OH230754   6.606   1.149   6.541 -0.2415  0.6880 -0.1322
10266TIP3    H130755   6.539   1.136   6.608 -0.0113  0.7173  0.1033
10266TIP3    H230756   6.671   1.081   6.558  0.0473  0.9870 -0.0384
10267TIP3   OH230757   6.624   7.059   2.335 -0.1623 -0.2463  0.5279
10267TIP3    H130758   6.690   7.124   2.313  0.9144 -1.6483 -0.4733
10267TIP3    H230759   6.575   7.098   2.408  1.5296  0.9529  1.0486
10268TIP3   OH230760   3.287   2.951   6.822 -0.1878 -0.3799  0.2440
10268TIP3    H130761   3.256   2.968   6.911  0.0872  1.6421 -0.0107
10268TIP3    H230762   3.246   3.019   6.769  0.0579 -1.2527 -1.0911
10269TIP3   OH230763   2.413   2.265   6.346  0.0119  0.6093 -0.0811
10269TIP3    H130764   2.396   2.358   6.331 -0.4149  0.3503 -1.2034
10269TIP3    H230765   2.403   2.224   6.260  1.1975 -0.3292  0.2248
10270TIP3   OH230766   2.877   3.411   6.524 -0.4197 -0.6417 -0.3728
10270TIP3    H130767   2.807   3.445   6.467 -0.7839 -0.0089  0.4358
10270TIP3    H230768   2.927   3.352   6.468  1.8254  3.2174 -2.6398
10271TIP3   OH230769   2.417   2.135   6.821 -0.2387  0.7216  0.9309
10271TIP3    H130770   2.379   2.206   6.873 -0.0608  0.4188  1.4763
10271TIP3    H230771   2.389   2.154   6.731 -0.4328  1.3213  1.1143
10272TIP3   OH230772   1.916   3.674   5.904 -0.0894 -0.1046 -0.1870
10272TIP3    H130773   1.827   3.673   5.869  0.0767  0.1315 -0.6169
10272TIP3    H230774   1.967   3.622   5.842 -0.0454 -0.7443  0.3800
10273TIP3   OH230775   1.686   4.587   5.873 -0.1877 -0.2020  0.3815
10273TIP3    H130776   1.727   4.512   5.916 -0.0766  0.1286  0.8526
10273TIP3    H230777   1.759   4.641   5.843 -0.2636 -0.6387 -0.5818
10274TIP3   OH230778   1.636   1.691   5.209  0.0457 -1.1161 -0.0959
10274TIP3    H130779   1.659   1.662   5.297 -1.3359 -0.1198  0.6010
10274TIP3    H230780   1.565   1.633   5.182  0.5934 -1.5430 -0.6409
10275TIP3   OH230781   4.115   5.687   0.168 -0.1069 -0.2842  0.4109
10275TIP3    H130782   4.172   5.758   0.198  0.8734 -1.0785  0.4534
10275TIP3    H230783   4.149   5.663   0.082 -1.6157  0.5667 -0.4439
10276TIP3   OH230784   3.298   2.455   6.933 -0.6482  1.0045  0.5651
10276TIP3    H130785   3.346   2.536   6.917  0.7997  0.6999  3.0838
10276TIP3    H230786   3.323   2.398   6.860  0.1053  2.0470 -0.0047
10277TIP3   OH230787   6.878   3.699   1.269  0.0473 -0.4187 -0.0904
10277TIP3    H130788   6.839   3.670   1.351  0.4798 -2.1426 -0.4648
10277TIP3    H230789   6.842   3.786   1.254  1.6117  0.8450  3.0049
10278TIP3   OH230790   6.519   5.853   2.067  0.1399  0.0842  0.1039
10278TIP3    H130791   6.518   5.771   2.018  1.1916  0.1644 -0.0674
10278TIP3    H230792   6.612   5.868   2.085 -0.2036  0.2432  1.8025
10279TIP3   OH230793   2.961   4.710   6.653 -0.3750  0.6044  0.3946
10279TIP3    H130794   3.051   4.678   6.660 -0.0364  1.1140 -1.3769
10279TIP3    H230795   2.914   4.665   6.723  0.8444 -1.1249  0.1199
10280TIP3   OH230796   5.011   2.314   4.321 -0.2968 -0.6176 -0.2653
10280TIP3    H130797   4.938   2.357   4.367  0.8359 -0.1983  1.1785
10280TIP3    H230798   5.068   2.386   4.294  1.0545 -1.1094  1.1937
10281TIP3   OH230799   6.454   2.875   4.879 -0.0719  0.0410 -0.1203
10281TIP3    H130800   6.397   2.805   4.911 -1.1066  0.0000 -1.9444
10281TIP3    H230801   6.400   2.922   4.815  0.7631  2.2173  0.7196
10282TIP3   OH230802   3.257   3.436   5.487 -0.3038  0.4764  0.2677
10282TIP3    H130803   3.345   3.405   5.508  0.5182  0.0613 -3.4341
10282TIP3    H230804   3.202   3.358   5.494  0.0035  0.2803  0.4948
10283TIP3   OH230805   7.223   6.977   0.032 -0.0622 -0.1980  0.6114
10283TIP3    H130806   7.311   7.014   0.024  0.2384 -0.4988  2.4360
10283TIP3    H230807   7.215   6.917  -0.043  0.7565  0.8671 -0.3382
10284TIP3   OH230808   1.104   3.986   6.104  0.2092  0.1677 -0.0872
10284TIP3    H130809   1.154   4.048   6.156  0.7194 -1.6917  1.7339
10284TIP3    H230810   1.078   3.918   6.166  0.4774 -1.9224 -2.1618
10285TIP3   OH230811   5.885   5.156   1.965  0.4058  0.0278  0.0141
10285TIP3    H130812   5.952   5.087   1.965  0.7006  0.2586 -2.9845
10285TIP3    H230813   5.933   5.237   1.980  0.7255  0.1026 -1.3420
10286TIP3   OH230814   3.453   3.827   5.440  0.1695 -0.4985  0.2021
10286TIP3    H130815   3.382   3.779   5.397 -0.6294 -0.1397  1.0839
10286TIP3    H230816   3.408   3.881   5.505  1.0314  1.4351 -0.7628
10287TIP3   OH230817   2.886   3.089   6.624  0.0360  0.5662  0.0867
10287TIP3    H130818   2.940   3.101   6.702  0.6482 -0.2010 -0.2046
10287TIP3    H230819   2.815   3.032   6.652 -1.8090  3.1904  0.9900
10288TIP3   OH230820   3.118   1.882   6.115 -0.1402 -0.0818 -0.1566
10288TIP3    H130821   3.070   1.928   6.047 -2.6938  1.0253  2.2622
10288TIP3    H230822   3.090   1.924   6.197  1.5860 -2.3943  1.7141
10289TIP3   OH230823   6.190   6.059   0.918 -0.6041  0.2115 -0.1853
10289TIP3    H130824   6.212   6.030   1.007  1.1980  0.9807 -0.3490
10289TIP3    H230825   6.244   6.137   0.905 -1.8258  0.8560 -1.4858
10290TIP3   OH230826   1.958   1.598   5.563  0.0990 -0.2438 -0.4269
10290TIP3    H130827   1.988   1.536   5.630 -1.4552 -1.2447 -0.6161
10290TIP3    H230828   2.037   1.622   5.515  0.7258 -2.1973 -0.4207
10291TIP3   OH230829   4.903   3.040   6.532 -0.1745 -0.0466  0.7650
10291TIP3    H130830   4.928   2.959   6.489  0.2850 -0.1710  1.2642
10291TIP3    H230831   4.866   3.094   6.462 -2.5155 -1.4996  0.8122
10292TIP3   OH230832   4.025   3.213   6.324 -0.1716 -0.2294 -0.1131
10292TIP3    H130833   3.992   3.142   6.268  0.2508 -0.4236 -0.1210
10292TIP3    H230834   3.949   3.269   6.340  0.0549  0.7071 -2.1904
10293TIP3   OH230835   4.223   4.066   6.851  0.3633  0.3944 -0.5773
10293TIP3    H130836   4.198   4.155   6.829 -0.3378  0.6432  1.1688
10293TIP3    H230837   4.287   4.076   6.921  0.1992 -0.4753 -0.2985
10294TIP3   OH230838   6.776   5.528   0.640 -0.0193 -0.0623 -0.5126
10294TIP3    H130839   6.757   5.457   0.579 -2.4886 -0.4062  0.5607
10294TIP3    H230840   6.759   5.608   0.590  0.6560 -0.2885 -1.0938
10295TIP3   OH230841   7.236   7.566   2.649  0.3812 -0.6021 -0.0867
10295TIP3    H130842   7.162   7.598   2.701  0.1583 -1.6569  0.2476
10295TIP3    H230843   7.200   7.494   2.598  1.1369 -0.9828 -0.0799
10296TIP3   OH230844   0.256   6.057   6.613 -0.0376  0.3285 -0.2745
10296TIP3    H130845   0.200   5.980   6.625  0.2589 -0.0458 -1.2599
10296TIP3    H230846   0.291   6.074   6.701  1.4509 -1.8673 -0.4073
10297TIP3   OH230847   5.840   7.383   0.902  0.1507  0.1130 -0.1020
10297TIP3    H130848   5.837   7.406   0.809 -1.7310 -1.2355 -0.4009
10297TIP3    H230849   5.849   7.288   0.902  1.6040  0.2340  1.1115
10298TIP3   OH230850   6.366   6.564   0.906  0.0468 -0.3110 -0.2022
10298TIP3    H130851   6.355   6.469   0.905 -0.6324 -0.2305 -2.2211
10298TIP3    H230852   6.353   6.591   0.816  3.0443  1.4116 -0.1925
10299TIP3   OH230853   1.439   0.026   0.264  0.2019 -0.7200  0.4025
10299TIP3    H130854   1.461  -0.056   0.309  3.3424 -1.0978 -1.6412
10299TIP3    H230855   1.382   0.072   0.325 -0.8685 -3.9966  2.0136
10300TIP3   OH230856   7.229   6.610   1.177 -0.3723  0.3883  0.0523
10300TIP3    H130857   7.214   6.694   1.221 -1.0199  0.5615 -0.4907
10300TIP3    H230858   7.306   6.625   1.122 -0.1321  0.4510  0.4037
10301TIP3   OH230859   2.895   3.542   5.874 -0.2256  0.2142 -0.1055
10301TIP3    H130860   2.926   3.585   5.954 -1.3851 -1.9129  1.5225
10301TIP3    H230861   2.800   3.544   5.881 -0.4243  1.8464 -2.4680
10302TIP3   OH230862   3.725   6.129   2.368  0.1314 -0.3970  0.2628
10302TIP3    H130863   3.670   6.148   2.444 -1.0427  0.4443 -0.7805
10302TIP3    H230864   3.722   6.034   2.359  0.1500 -0.4890  1.1648
10303TIP3   OH230865   7.583   5.949   0.190  0.0315  0.0030  0.4337
10303TIP3    H130866   7.528   5.895   0.132  0.0564  1.0076 -0.5519
10303TIP3    H230867   7.646   5.888   0.226 -1.2367 -1.0235  0.9674
10304TIP3   OH230868   6.744   3.392   2.114 -0.1287  0.0366  0.0230
10304TIP3    H130869   6.684   3.466   2.123 -1.7553 -1.3116  0.4669
10304TIP3    H230870   6.770   3.371   2.203  0.0077 -0.1794 -0.0666
10305TIP3   OH230871   2.746   0.906   5.159  0.2239 -0.6544 -0.4234
10305TIP3    H130872   2.783   0.854   5.230  0.6693 -0.4878 -0.5338
10305TIP3    H230873   2.732   0.843   5.088 -0.5193 -0.8838 -0.0869
10306TIP3   OH230874   1.094   0.063   4.104 -0.4720 -0.1428 -0.5268
10306TIP3    H130875   1.110   0.071   4.010  2.6667  0.4190 -0.0142
10306TIP3    H230876   1.113  -0.029   4.124 -1.2081 -0.2795 -0.4535
10307TIP3   OH230877   5.522   5.552   0.596  0.2889 -0.0053  0.3971
10307TIP3    H130878   5.541   5.558   0.690 -2.4204 -2.3060  1.1815
10307TIP3    H230879   5.480   5.466   0.586 -0.3586  0.6192 -2.7709
10308TIP3   OH230880   7.091   5.271   0.903  0.6794 -0.3652  0.5190
10308TIP3    H130881   7.055   5.346   0.856  0.5951 -1.3868 -1.0749
10308TIP3    H230882   7.140   5.309   0.976 -1.0527  1.1441  0.9026
10309TIP3   OH230883   5.174   7.190   0.273  0.0857  0.1472  0.8249
10309TIP3    H130884   5.233   7.116   0.278  1.3850  1.0414 -0.7599
10309TIP3    H230885   5.139   7.188   0.183  3.6266  3.9882 -0.8177
10310TIP3   OH230886   3.652   2.771   3.170 -0.1623 -0.1520  0.4305
10310TIP3    H130887   3.575   2.807   3.127  0.7161 -0.3575 -1.3727
10310TIP3    H230888   3.703   2.847   3.196  0.2532 -0.0222 -0.7072
10311TIP3   OH230889   7.004   6.866   0.286  0.7411 -0.5371 -0.2612
10311TIP3    H130890   7.075   6.810   0.254  1.3173  0.3593 -0.5684
10311TIP3    H230891   7.048   6.931   0.341  0.3216  0.8095 -1.4947
10312TIP3   OH230892   2.528   2.238   6.078 -0.4209  0.4807 -0.7755
10312TIP3    H130893   2.545   2.293   6.002 -0.1560 -2.3277 -2.8023
10312TIP3    H230894   2.435   2.216   6.071 -0.1078 -0.8157 -1.0230
10313TIP3   OH230895   2.347   5.547   5.579 -0.1897 -0.3347 -0.1199
10313TIP3    H130896   2.295   5.532   5.501  0.1343  0.7633 -0.5434
10313TIP3    H230897   2.284   5.544   5.651 -0.5858 -0.6447 -0.4775
10314TIP3   OH230898   0.660   2.685   6.883 -0.0064 -0.0413 -0.4070
10314TIP3    H130899   0.607   2.661   6.807  0.6922 -0.8240 -0.6579
10314TIP3    H230900   0.597   2.721   6.945 -0.8009 -0.7043 -0.8052
10315TIP3   OH230901   6.664   7.108   1.040  0.2764  0.4717  0.0581
10315TIP3    H130902   6.575   7.078   1.057 -0.4193  0.1701 -3.7526
10315TIP3    H230903   6.707   7.034   0.998  2.6960  0.2939  2.6638
10316TIP3   OH230904   3.407   2.636   5.401  0.2884 -0.1289 -0.3296
10316TIP3    H130905   3.433   2.728   5.398  1.3122 -0.4296 -0.6027
10316TIP3    H230906   3.476   2.589   5.355 -0.1306 -1.0628 -0.0202
10317TIP3   OH230907   7.607   6.310   1.745  0.2595  0.2244 -0.3324
10317TIP3    H130908   7.668   6.244   1.780  0.4940  0.7856  0.3206
10317TIP3    H230909   7.625   6.389   1.795 -0.8561  0.4662 -0.2995
10318TIP3   OH230910   4.036   3.971   5.758 -0.7094  0.1632  0.1221
10318TIP3    H130911   4.069   3.936   5.841 -0.4818  2.9118  1.2481
10318TIP3    H230912   4.102   3.948   5.694  0.3693  0.1858  1.2097
10319TIP3   OH230913   6.266   7.099   2.431  0.2774 -0.4067 -0.1017
10319TIP3    H130914   6.220   7.141   2.504 -0.0508 -0.6805 -0.1492
10319TIP3    H230915   6.341   7.056   2.470  1.7464  1.8948 -0.3043
10320TIP3   OH230916   3.279   2.881   4.214  0.3698 -0.3400  0.3294
10320TIP3    H130917   3.253   2.972   4.224 -0.9906 -0.8917  2.3750
10320TIP3    H230918   3.228   2.849   4.139  0.7722  0.5407 -0.3196
10321TIP3   OH230919   2.489   2.493   6.638  0.7105 -0.1325 -0.0103
10321TIP3    H130920   2.575   2.452   6.646  0.3410 -0.8791  0.1998
10321TIP3    H230921   2.427   2.422   6.656  0.0744  0.6244  0.8488
10322TIP3   OH230922   6.033   2.704   5.399 -0.5027  0.4508  0.4594
10322TIP3    H130923   5.947   2.736   5.373 -0.6982  0.9172  1.6525
10322TIP3    H230924   6.048   2.743   5.485 -0.1474 -1.5683  1.3260
10323TIP3   OH230925   4.792   1.288   5.958 -0.1950  0.4128 -0.2078
10323TIP3    H130926   4.742   1.214   5.924 -0.9243  0.8798 -0.1584
10323TIP3    H230927   4.734   1.329   6.022  0.3752  0.7635  0.0853
10324TIP3   OH230928   4.697   5.408   1.368  0.4827 -0.1834  0.0284
10324TIP3    H130929   4.723   5.386   1.278  0.5913 -2.0404  0.5079
10324TIP3    H230930   4.778   5.440   1.408  0.2107  1.6470 -0.8154
10325TIP3   OH230931   6.649   5.420   0.851  0.7831  0.2778  0.8428
10325TIP3    H130932   6.714   5.382   0.909  0.4900 -2.4704 -0.5411
10325TIP3    H230933   6.700   5.463   0.782  1.1469 -0.7710  0.4525
10326TIP3   OH230934   4.897   5.197   2.277 -0.2119 -0.3107 -1.2170
10326TIP3    H130935   4.958   5.245   2.333  1.0311  0.2358 -2.9856
10326TIP3    H230936   4.812   5.208   2.320  1.0142 -1.7133  1.6726
10327TIP3   OH230937   6.439   4.845   0.946  0.3344 -0.4779 -0.0590
10327TIP3    H130938   6.489   4.927   0.949  0.8428 -0.7511 -0.7953
10327TIP3    H230939   6.464   4.799   1.026  0.2953 -0.0547  0.1957
10328TIP3   OH230940   6.597   3.589   5.856  0.0374 -0.0373 -0.1857
10328TIP3    H130941   6.628   3.645   5.784  0.8115 -0.1226  0.0702
10328TIP3    H230942   6.516   3.630   5.885 -1.3143 -1.0770 -2.3677
10329TIP3   OH230943   4.286   3.302   6.348 -0.2426  0.1100 -0.3215
10329TIP3    H130944   4.196   3.270   6.338  0.0039 -1.5046  2.2194
10329TIP3    H230945   4.292   3.330   6.439  1.2410  2.2288 -1.0326
10330TIP3   OH230946   6.329   5.298   1.481 -0.3658 -0.4304  0.0642
10330TIP3    H130947   6.282   5.215   1.491 -0.0501 -0.4276  1.6010
10330TIP3    H230948   6.273   5.363   1.525  0.0338 -0.0563  0.0248
10331TIP3   OH230949   5.092   6.136   1.253  0.1907  0.3195  0.1482
10331TIP3    H130950   5.126   6.159   1.167 -0.5219  1.5917  0.1847
10331TIP3    H230951   5.121   6.207   1.310 -1.1453  0.6112  0.5002
10332TIP3   OH230952   4.725   6.165   0.575 -0.1885 -0.1287 -0.6429
10332TIP3    H130953   4.808   6.205   0.601  0.4188 -0.5220 -1.9426
10332TIP3    H230954   4.678   6.235   0.530 -0.5607  0.0897  0.0793
10333TIP3   OH230955   8.120   4.430   0.474  1.0771 -0.4841 -0.1156
10333TIP3    H130956   8.060   4.467   0.539  1.1894  0.4676 -0.5457
10333TIP3    H230957   8.099   4.336   0.473  2.3144 -0.8466  2.5946
10334TIP3   OH230958   7.554   6.297   1.309  0.1140 -0.0043  0.3078
10334TIP3    H130959   7.470   6.331   1.280  0.0967 -1.4209 -1.4238
10334TIP3    H230960   7.597   6.371   1.352 -2.4294  0.4364  2.1850
10335TIP3   OH230961   2.252   3.120   6.951  0.2619  0.0162  0.2986
10335TIP3    H130962   2.267   3.180   6.878 -0.1646 -1.6785 -1.1944
10335TIP3    H230963   2.242   3.034   6.911  0.8721 -1.0844  2.4161
10336TIP3   OH230964   6.304   6.051   2.381  0.1332 -0.4264  0.1326
10336TIP3    H130965   6.391   6.050   2.422  0.2560 -1.0955 -0.1412
10336TIP3    H230966   6.309   5.984   2.313 -1.1116 -1.5683  1.1583
10337TIP3   OH230967   7.329   6.468   1.941  0.6177 -0.6171 -0.6232
10337TIP3    H130968   7.387   6.520   1.997  2.0183 -1.7681 -0.9436
10337TIP3    H230969   7.307   6.526   1.869  0.3216  0.2678  0.1695
10338TIP3   OH230970   8.162   6.468   0.053 -0.0016  0.6613  0.5904
10338TIP3    H130971   8.138   6.395   0.111 -0.2649  0.2466 -0.0293
10338TIP3    H230972   8.227   6.517   0.102  0.6196 -0.3363  0.7788
10339TIP3   OH230973   4.081   2.295   5.972  0.1703 -0.0381 -0.7336
10339TIP3    H130974   4.077   2.267   5.880 -2.1340 -1.3225 -0.2835
10339TIP3    H230975   4.158   2.251   6.008 -0.4476 -1.6918 -1.3791
10340TIP3   OH230976   7.993   3.880   0.983 -0.0300 -0.0500  0.4697
10340TIP3    H130977   8.021   3.799   0.940  1.1545  0.3974  0.3594
10340TIP3    H230978   8.051   3.947   0.948 -0.8135  0.8026  0.7711
10341TIP3   OH230979   5.054   6.453   1.882  0.1103  0.2707  0.0638
10341TIP3    H130980   4.993   6.486   1.816  0.7440  0.4806 -0.4166
10341TIP3    H230981   4.998   6.432   1.957 -0.5523  0.4859 -0.3618
10342TIP3   OH230982   6.134   4.982   2.782 -0.4720  0.1989 -0.0611
10342TIP3    H130983   6.117   5.066   2.739 -0.1184  0.5888  0.5608
10342TIP3    H230984   6.229   4.982   2.796 -0.1128 -1.3309 -2.1993
10343TIP3   OH230985   2.864   3.129   2.777 -0.2410 -0.3301  0.6778
10343TIP3    H130986   2.844   3.081   2.857 -0.8159 -0.1416  0.6451
10343TIP3    H230987   2.920   3.069   2.726  0.2056 -0.4081  1.2623
10344TIP3   OH230988   0.607   3.090   5.170 -0.0118  0.2089 -0.4142
10344TIP3    H130989   0.658   3.122   5.096 -0.9374  1.2882 -0.5864
10344TIP3    H230990   0.520   3.072   5.134  0.5988 -2.9829 -0.4465
10345TIP3   OH230991   3.369   1.703   5.791  0.0468  0.4712 -0.0840
10345TIP3    H130992   3.421   1.746   5.858  0.5970  1.2541 -0.9963
10345TIP3    H230993   3.433   1.661   5.734 -0.4727 -1.4788  0.7206
10346TIP3   OH230994   2.833   1.767   5.782 -0.2219 -0.0774  0.3059
10346TIP3    H130995   2.882   1.690   5.811 -0.7510 -1.1783 -1.6339
10346TIP3    H230996   2.868   1.786   5.695  1.0975  2.9367  1.4349
10347TIP3   OH230997   2.385   0.587   0.206 -0.1779  0.2636 -0.0729
10347TIP3    H130998   2.334   0.563   0.129  0.0313  0.2998 -0.2229
10347TIP3    H230999   2.407   0.679   0.193 -1.4153  0.6893  0.7467
10348TIP3   OH231000   3.189   3.053   3.794 -0.4331 -0.0358 -0.9655
10348TIP3    H131001   3.235   3.001   3.728  0.0769 -0.6902 -0.1047
10348TIP3    H231002   3.183   3.140   3.756  3.1668  0.5323 -0.3565
10349TIP3   OH231003   5.835   5.817   0.507  0.3748 -0.1884  0.6634
10349TIP3    H131004   5.800   5.904   0.524 -0.9252 -0.8449  1.4365
10349TIP3    H231005   5.847   5.779   0.594  0.2761 -1.0242  0.3169
10350TIP3   OH231006   2.763   1.330   4.852 -0.0895 -0.7378 -0.5948
10350TIP3    H131007   2.720   1.315   4.768 -0.6959  0.5425 -0.5248
10350TIP3    H231008   2.855   1.343   4.830 -0.0034 -1.7590 -0.9112
10351TIP3   OH231009   3.349   2.621   6.098 -0.1038 -0.7112 -0.4718
10351TIP3    H131010   3.278   2.593   6.157  0.5768 -1.5573 -0.0392
10351TIP3    H231011   3.306   2.676   6.034 -0.5822  1.7503  1.8712
10352TIP3   OH231012   5.688   7.125   0.020 -0.2628 -0.3445  0.1897
10352TIP3    H131013   5.599   7.105  -0.008  0.0345 -0.0394 -0.9773
10352TIP3    H231014   5.691   7.221   0.024 -0.0712 -0.3632  0.5150
10353TIP3   OH231015   5.229   6.351   0.629  0.5263  0.0734  0.5200
10353TIP3    H131016   5.288   6.358   0.554  0.7296 -0.4158  0.6312
10353TIP3    H231017   5.261   6.275   0.678  1.3492  1.3167  1.9593
10354TIP3   OH231018   6.149   1.699   4.662  0.3610 -0.0095  0.7488
10354TIP3    H131019   6.170   1.644   4.737 -0.1720 -1.5074 -0.1697
10354TIP3    H231020   6.122   1.783   4.700  0.0218 -0.7751  2.2260
10355TIP3   OH231021   4.064   1.302   3.854 -0.5412 -0.2965 -0.2431
10355TIP3    H131022   4.013   1.375   3.889 -0.2893 -0.1422 -0.1904
10355TIP3    H231023   4.147   1.343   3.826  0.3963 -0.8685  1.5911
10356TIP3   OH231024   4.552   3.358   6.843 -0.0272 -0.3814  0.0374
10356TIP3    H131025   4.525   3.416   6.913 -0.4094 -1.6309  0.9400
10356TIP3    H231026   4.481   3.361   6.780 -0.4296 -0.5286  0.4839
10357TIP3   OH231027   5.524   6.463   0.882 -0.1674 -0.7348 -0.3987
10357TIP3    H131028   5.512   6.379   0.927  0.1585 -0.6043 -0.0713
10357TIP3    H231029   5.584   6.444   0.811  1.3293 -0.4035  0.7563
10358TIP3   OH231030   7.392   0.240   0.245 -0.3906  0.0142 -0.0310
10358TIP3    H131031   7.382   0.149   0.218 -3.2998  0.3900 -0.3975
10358TIP3    H231032   7.381   0.239   0.340  1.7554 -0.2755  0.2279
10359TIP3   OH231033   3.796   0.078   1.123 -0.3712  0.1753 -0.0422
10359TIP3    H131034   3.721   0.136   1.139 -0.7522 -0.6879  1.4174
10359TIP3    H231035   3.779   0.002   1.179  0.9609 -0.5986 -0.6729
10360TIP3   OH231036   4.251   2.915   4.090 -0.0077 -0.6008 -0.4653
10360TIP3    H131037   4.193   2.979   4.048  0.5168 -1.1752 -2.0720
10360TIP3    H231038   4.198   2.879   4.161 -0.9209  0.3386 -0.6461
10361TIP3   OH231039   2.444   4.528   4.192  0.1864 -0.1951  0.2883
10361TIP3    H131040   2.419   4.489   4.276  0.3424  0.0965  0.4684
10361TIP3    H231041   2.395   4.477   4.127 -1.3734  0.7557  0.6833
10362TIP3   OH231042   7.066   4.351   2.299 -0.0380 -0.3672  0.1801
10362TIP3    H131043   7.002   4.372   2.367 -0.7120  0.5379 -0.7102
10362TIP3    H231044   7.128   4.424   2.301  0.3571 -0.7059  0.3197
10363TIP3   OH231045   4.559   3.699   5.505 -0.3165 -0.5779  0.3444
10363TIP3    H131046   4.564   3.747   5.587  0.0326  2.0984 -1.1867
10363TIP3    H231047   4.465   3.693   5.487 -0.3251  1.0817 -0.2890
10364TIP3   OH231048   2.846   5.751   2.241 -0.4182  0.1479 -0.4869
10364TIP3    H131049   2.920   5.744   2.301 -0.2160 -0.4872 -0.8076
10364TIP3    H231050   2.873   5.702   2.163 -0.9787  0.3278 -0.7959
10365TIP3   OH231051   0.827   6.773   1.269 -0.0764 -0.3310  0.2593
10365TIP3    H131052   0.804   6.681   1.279 -0.5604 -0.2593 -0.2051
10365TIP3    H231053   0.852   6.782   1.177 -2.6011  0.5642 -0.3676
10366TIP3   OH231054   7.086   5.929   1.158  0.2664  0.6224 -0.3069
10366TIP3    H131055   7.023   5.879   1.209  0.8169 -1.4849 -1.6169
10366TIP3    H231056   7.164   5.934   1.213 -0.4524  1.7926  0.6325
10367TIP3   OH231057   4.824   2.326   6.748 -0.5619 -0.0048  0.3019
10367TIP3    H131058   4.735   2.359   6.734 -0.6688  0.4141  1.8940
10367TIP3    H231059   4.816   2.231   6.743 -1.2514  0.0005  1.2323
10368TIP3   OH231060   3.985   4.369   0.539 -0.4189 -0.5265 -0.3695
10368TIP3    H131061   4.062   4.373   0.595 -0.0639 -1.5586 -0.7766
10368TIP3    H231062   3.912   4.354   0.599 -0.1391 -0.8174 -0.1001
10369TIP3   OH231063   6.710   5.209   1.732 -0.3549  0.4034  0.2285
10369TIP3    H131064   6.685   5.241   1.646 -0.1458  1.3611  0.5165
10369TIP3    H231065   6.713   5.113   1.723 -1.1791  0.4559 -0.5827
10370TIP3   OH231066   4.973   2.706   4.239 -0.2631  0.2901 -0.2664
10370TIP3    H131067   4.885   2.677   4.264 -0.1936  1.9860  2.2470
10370TIP3    H231068   5.030   2.667   4.305  0.6151  0.7219 -0.7694
10371TIP3   OH231069   5.029   7.551   0.037 -0.3261 -0.6885 -0.0176
10371TIP3    H131070   5.007   7.487   0.105 -1.7130 -1.7473 -1.4152
10371TIP3    H231071   5.001   7.509  -0.045  1.5085  0.4545 -1.2721
10372TIP3   OH231072   4.151   5.825   0.429  0.1704  0.0710 -0.3537
10372TIP3    H131073   4.247   5.827   0.422  0.1658  0.2021 -0.3687
10372TIP3    H231074   4.129   5.732   0.419  0.2893  0.0515 -0.4355
10373TIP3   OH231075   6.118   6.287   1.395  0.2588  0.0612 -0.4175
10373TIP3    H131076   6.036   6.327   1.425  0.4693  0.1440  0.0506
10373TIP3    H231077   6.131   6.213   1.454  0.1568 -0.3709 -0.9372
10374TIP3   OH231078   0.786   4.320   6.589  0.2560  0.4106  0.1571
10374TIP3    H131079   0.718   4.280   6.534 -0.2008  1.3990 -0.0184
10374TIP3    H231080   0.868   4.285   6.555 -0.1067  0.0210 -0.3210
10375TIP3   OH231081   0.261   1.809   6.441  0.3932 -0.9774  0.8316
10375TIP3    H131082   0.240   1.886   6.495  1.5739 -0.5179  0.6539
10375TIP3    H231083   0.355   1.797   6.453  0.3140 -2.0569  0.3983
10376TIP3   OH231084   3.880   3.108   6.864 -0.0274  0.5006 -0.2974
10376TIP3    H131085   3.956   3.077   6.913 -0.3700 -1.3369 -0.8936
10376TIP3    H231086   3.805   3.073   6.912 -0.3616 -1.3602 -2.1601
10377TIP3   OH231087   6.818   6.838   1.188 -0.0287  0.1517  0.0831
10377TIP3    H131088   6.866   6.890   1.124  1.1870 -1.4151 -0.3067
10377TIP3    H231089   6.742   6.804   1.140  0.5410 -0.5031 -0.3577
10378TIP3   OH231090   5.716   6.508   1.126  0.0131  0.1799 -0.0771
10378TIP3    H131091   5.685   6.599   1.120  0.4842  0.4124  0.7634
10378TIP3    H231092   5.727   6.480   1.036 -0.2936  0.9157 -0.3480
10379TIP3   OH231093   1.506   3.136   6.816 -0.4669  0.2243  0.6860
10379TIP3    H131094   1.573   3.068   6.817 -0.5985 -0.0028 -2.5871
10379TIP3    H231095   1.426   3.091   6.789 -0.3541  1.8124 -2.4109
10380TIP3   OH231096   5.613   3.069   6.125 -0.4955 -0.2979 -0.1025
10380TIP3    H131097   5.684   3.011   6.100 -0.9482 -1.4783  1.2377
10380TIP3    H231098   5.593   3.119   6.046  1.6568 -0.0911 -0.5487
10381TIP3   OH231099   2.197   0.198   0.555  0.2831  0.1595 -0.3622
10381TIP3    H131100   2.193   0.104   0.567  0.3887 -0.2330 -2.9747
10381TIP3    H231101   2.106   0.227   0.553  0.1873 -0.1794 -1.3545
10382TIP3   OH231102   5.267   7.794   0.398 -0.5973  0.0940 -0.2276
10382TIP3    H131103   5.313   7.826   0.475  2.0062 -0.4803 -1.4904
10382TIP3    H231104   5.177   7.781   0.427  0.0827  1.0207  2.3778
10383TIP3   OH231105   0.637   2.211   6.946 -0.0801 -0.0156 -0.0740
10383TIP3    H131106   0.695   2.282   6.921  0.3656  0.1453  1.3589
10383TIP3    H231107   0.560   2.222   6.891  0.1285  1.3807 -0.1091
10384TIP3   OH231108   1.081   2.127   6.287 -0.5084 -0.3417 -0.2379
10384TIP3    H131109   1.151   2.067   6.310 -1.2384 -0.5399  1.5593
10384TIP3    H231110   1.102   2.208   6.335 -0.8179  0.0425 -0.7387
10385TIP3   OH231111   3.304   4.570   6.096  0.1338 -0.4156  0.1389
10385TIP3    H131112   3.346   4.553   6.180 -0.1838 -1.0243  0.1806
10385TIP3    H231113   3.268   4.485   6.070 -2.4596  0.4176  0.8741
10386TIP3   OH231114   2.110   3.498   5.780  0.0567 -0.0288  0.5178
10386TIP3    H131115   2.087   3.443   5.854 -3.9539 -0.3830 -0.8539
10386TIP3    H231116   2.111   3.438   5.705  1.0842  0.8130 -0.1503
10387TIP3   OH231117   5.720   3.789   2.143 -0.1594 -0.5262 -0.1519
10387TIP3    H131118   5.669   3.709   2.152 -4.3143  1.9283 -0.7661
10387TIP3    H231119   5.732   3.819   2.234 -1.5156 -0.1271 -0.0920
10388TIP3   OH231120   8.243   4.452   1.822 -0.1613  0.2915  0.2834
10388TIP3    H131121   8.277   4.534   1.784 -0.6976 -0.0008 -0.8598
10388TIP3    H231122   8.249   4.465   1.917  1.1832  1.0539  0.1074
10389TIP3   OH231123   4.013   5.453   1.197 -0.5581  0.3019  0.2152
10389TIP3    H131124   4.064   5.513   1.251 -0.4609 -1.0277  1.6378
10389TIP3    H231125   3.922   5.474   1.217 -0.5395  1.0799 -0.5276
10390TIP3   OH231126   2.469   0.183   6.277  0.1287 -0.2478  0.2311
10390TIP3    H131127   2.455   0.255   6.216  0.2250 -2.6135 -2.7038
10390TIP3    H231128   2.407   0.199   6.348  0.5145  2.9545 -0.0951
10391TIP3   OH231129   5.399   2.022   6.453 -0.1677 -0.2342 -0.5179
10391TIP3    H131130   5.349   2.041   6.374 -0.7436 -0.7735 -0.2898
10391TIP3    H231131   5.355   1.946   6.491  0.7868 -0.6818 -0.2838
10392TIP3   OH231132   4.786   5.753   1.436  0.1473  0.1358  0.2926
10392TIP3    H131133   4.742   5.737   1.353 -0.9020 -0.2552  0.9103
10392TIP3    H231134   4.808   5.847   1.434 -1.2369  0.4644  0.2097
10393TIP3   OH231135   4.509   2.996   5.141  0.0255  0.3209  0.6801
10393TIP3    H131136   4.492   2.902   5.137 -1.9441  0.6761 -0.1976
10393TIP3    H231137   4.447   3.034   5.077  0.9946  2.1702  0.8049
10394TIP3   OH231138   1.965   2.887   6.107 -0.1742  0.1953 -0.0656
10394TIP3    H131139   1.944   2.815   6.166 -0.7518  0.4271  0.0080
10394TIP3    H231140   2.053   2.914   6.133  0.4117 -1.0564 -0.6715
10395TIP3   OH231141   4.128   3.025   5.332 -0.0792  0.0688  0.1434
10395TIP3    H131142   4.055   3.077   5.298 -0.7041 -1.1586 -0.4259
10395TIP3    H231143   4.115   2.938   5.296  1.3917 -0.3053  0.4570
10396TIP3   OH231144   5.652   5.523   1.923  0.0836 -0.1413  0.2102
10396TIP3    H131145   5.566   5.563   1.928  0.0633 -0.1344 -0.1418
10396TIP3    H231146   5.690   5.535   2.010 -0.6860 -1.0904  0.6829
10397TIP3   OH231147   1.853   3.134   4.396  0.0191 -0.1924  0.1568
10397TIP3    H131148   1.917   3.148   4.465 -0.5029 -0.3808  0.6908
10397TIP3    H231149   1.807   3.054   4.422  0.2280 -0.6095 -0.7302
10398TIP3   OH231150   4.395   3.159   5.846  0.3310  0.0962 -0.0199
10398TIP3    H131151   4.320   3.133   5.899  0.3558 -0.0166 -0.0404
10398TIP3    H231152   4.406   3.088   5.783  0.9866 -0.2990  0.5378
10399TIP3   OH231153   6.843   5.746   1.160  0.0399 -0.3168 -0.0500
10399TIP3    H131154   6.753   5.721   1.179 -0.1676  1.1619  0.9798
10399TIP3    H231155   6.841   5.771   1.067 -0.9072  0.9669  0.3070
10400TIP3   OH231156   6.841   7.466   0.797 -0.4150 -0.0998  0.2743
10400TIP3    H131157   6.933   7.441   0.788 -0.4319  0.2073 -0.8594
10400TIP3    H231158   6.818   7.442   0.887  0.0700 -2.4691 -0.2079
10401TIP3   OH231159   5.186   4.806   1.183  0.0475  0.5647  1.3017
10401TIP3    H131160   5.274   4.768   1.179 -0.2787 -0.0469 -1.5743
10401TIP3    H231161   5.133   4.738   1.223  0.0102 -1.0440 -1.3183
10402TIP3   OH231162   4.411   2.701   6.301  0.0348  0.1694  0.2160
10402TIP3    H131163   4.478   2.763   6.329 -0.5098  1.0126 -0.3276
10402TIP3    H231164   4.419   2.699   6.206 -1.1934  0.8300  0.0913
10403TIP3   OH231165   5.661   4.474   5.859 -0.1904 -0.0445  0.4259
10403TIP3    H131166   5.691   4.559   5.890  0.6201  0.1042 -0.7133
10403TIP3    H231167   5.583   4.493   5.806 -0.6280 -0.1270  1.0365
10404TIP3   OH231168   3.959   2.404   5.540 -0.1046  0.0179 -0.3761
10404TIP3    H131169   4.047   2.374   5.559 -0.0708  0.4016  0.0834
10404TIP3    H231170   3.967   2.499   5.533 -0.5837  0.1096  0.2524
10405TIP3   OH231171   5.772   5.847   1.882  0.4572  1.1816 -0.1356
10405TIP3    H131172   5.715   5.799   1.822  0.1375 -0.3029  1.2827
10405TIP3    H231173   5.860   5.825   1.854  0.3338 -1.2017  1.1256
10406TIP3   OH231174   4.564   3.280   2.909  0.3979  0.6738 -0.3332
10406TIP3    H131175   4.531   3.370   2.912  0.7838  0.7835  1.1177
10406TIP3    H231176   4.622   3.279   2.833 -0.6832  1.2641 -1.1917
10407TIP3   OH231177   3.544   1.782   6.017 -0.1383  0.0860  0.6421
10407TIP3    H131178   3.611   1.782   6.086  0.5516 -1.5738 -0.0063
10407TIP3    H231179   3.575   1.845   5.953  1.7848 -2.0239 -0.5559
10408TIP3   OH231180   6.666   4.324   1.743  0.2315 -0.0357  0.4175
10408TIP3    H131181   6.754   4.362   1.742  0.8551 -1.4216  1.1820
10408TIP3    H231182   6.662   4.269   1.664  0.8451 -1.6857  1.5068
10409TIP3   OH231183   5.817   2.767   6.327  0.0379  0.2073 -0.1200
10409TIP3    H131184   5.861   2.832   6.272  1.0725 -1.0484 -0.8061
10409TIP3    H231185   5.872   2.689   6.320 -0.0900 -0.1409  2.2970
10410TIP3   OH231186   7.314   6.510   4.733 -0.3305 -0.1073  0.0738
10410TIP3    H131187   7.271   6.507   4.647  0.4131 -0.8893 -0.2861
10410TIP3    H231188   7.327   6.418   4.756 -0.0939  0.1114  0.7997
10411TIP3   OH231189   3.491   4.821   4.527  0.1574  0.1486 -0.2194
10411TIP3    H131190   3.478   4.850   4.437  0.9587  1.0592 -0.0466
10411TIP3    H231191   3.405   4.830   4.569  0.2472  1.6610 -0.3436
10412TIP3   OH231192   6.059   1.168   3.538 -0.3258  0.1077  0.1295
10412TIP3    H131193   5.998   1.182   3.611 -2.1269 -0.1039 -1.3073
10412TIP3    H231194   6.084   1.076   3.546 -1.7031 -0.3223 -0.4028
10413TIP3   OH231195   5.940   1.237   6.178  0.1098 -0.5566  0.2306
10413TIP3    H131196   5.881   1.259   6.250 -1.8575 -0.8976 -1.2417
10413TIP3    H231197   5.975   1.321   6.149  0.5777 -0.3779  1.2770
10414TIP3   OH231198   5.748   2.436   4.850 -0.3276 -0.0766  0.4615
10414TIP3    H131199   5.829   2.484   4.833 -0.2625 -0.3017  0.1439
10414TIP3    H231200   5.754   2.357   4.796 -0.7617 -0.0887  0.4269
10415TIP3   OH231201   0.346   5.255   0.419 -0.4534 -0.3634  0.1414
10415TIP3    H131202   0.337   5.173   0.370 -3.0847  0.1335 -0.2473
10415TIP3    H231203   0.421   5.299   0.377 -0.3626 -1.6009 -1.0267
10416TIP3   OH231204   0.826   7.433   0.613 -0.0384 -0.6084 -0.0837
10416TIP3    H131205   0.858   7.374   0.545  1.5527  0.1042  0.0215
10416TIP3    H231206   0.876   7.513   0.601 -1.9134  0.6211  0.0061
10417TIP3   OH231207   5.901   3.571   5.105  0.1961 -0.2778 -0.1293
10417TIP3    H131208   5.884   3.492   5.156  0.1537 -0.2782 -0.1439
10417TIP3    H231209   5.931   3.540   5.020  2.4417 -0.2484  0.6384
10418TIP3   OH231210   5.005   7.517   4.061  0.1680 -0.3402 -0.3648
10418TIP3    H131211   5.098   7.537   4.070  0.7310 -2.0642 -2.0363
10418TIP3    H231212   4.981   7.473   4.143  1.3729 -1.8992 -0.8428
10419TIP3   OH231213   7.754   5.177   0.956 -0.4313 -0.0397  0.5291
10419TIP3    H131214   7.829   5.235   0.972  0.5287 -1.1670  0.1694
10419TIP3    H231215   7.761   5.154   0.863 -0.6732 -0.9066  0.7209
10420TIP3   OH231216   5.465   2.922   5.484 -0.4383 -0.4386 -0.5158
10420TIP3    H131217   5.392   2.869   5.454 -3.2763  1.9343  1.8668
10420TIP3    H231218   5.487   2.887   5.570 -0.6836  0.6481 -0.0006
10421TIP3   OH231219   5.813   1.634   5.896  0.2112  0.4801 -0.3368
10421TIP3    H131220   5.771   1.683   5.968 -0.0583  0.0653 -0.2135
10421TIP3    H231221   5.906   1.654   5.905  0.4021 -0.9992  1.2351
10422TIP3   OH231222   5.694   1.457   6.205 -0.6594  0.1029 -0.5178
10422TIP3    H131223   5.643   1.517   6.150  0.0956  1.8466  0.6345
10422TIP3    H231224   5.781   1.497   6.210 -0.3131 -0.7839  0.7535
10423TIP3   OH231225   8.079   6.140   0.555  0.2137  0.5303  0.2459
10423TIP3    H131226   8.097   6.227   0.593  1.0077  0.3649  0.2575
10423TIP3    H231227   8.165   6.098   0.550 -0.1865 -0.3224  0.3933
10424TIP3   OH231228   3.760   3.948   4.543 -0.4310  0.3586 -0.2040
10424TIP3    H131229   3.769   4.026   4.598 -1.7267  1.3997 -1.4286
10424TIP3    H231230   3.718   3.980   4.463  2.6709 -0.8509 -2.3983
10425TIP3   OH231231   4.505   5.250   6.116 -0.3914 -0.5013 -0.3977
10425TIP3    H131232   4.445   5.320   6.143 -0.8408 -0.1020 -2.3713
10425TIP3    H231233   4.450   5.171   6.117 -0.4563 -0.4560 -0.3860
10426TIP3   OH231234   5.498   2.567   5.484 -0.2660 -0.0131 -0.4691
10426TIP3    H131235   5.487   2.476   5.456  1.3893 -0.3904  0.0450
10426TIP3    H231236   5.530   2.612   5.406  3.3619 -0.8544  0.4450
10427TIP3   OH231237   6.726   2.898   6.321 -0.0745  0.4116 -0.1094
10427TIP3    H131238   6.635   2.926   6.333 -0.1674 -0.5659  1.5966
10427TIP3    H231239   6.751   2.936   6.236 -1.4259  2.3695  0.3143
10428TIP3   OH231240   0.576   6.221   2.060  0.0132  0.0812 -0.0985
10428TIP3    H131241   0.535   6.301   2.093 -0.7128 -0.6216  0.7342
10428TIP3    H231242   0.619   6.183   2.136 -0.2279 -0.6697 -0.3347
10429TIP3   OH231243   4.189   4.719   6.329 -0.0346 -0.3146 -0.0100
10429TIP3    H131244   4.103   4.703   6.367  0.3813  0.7643  1.4429
10429TIP3    H231245   4.223   4.794   6.378  0.9871  0.4264 -1.7929
10430TIP3   OH231246   3.637   0.795   4.847  0.6621  0.1653  0.4381
10430TIP3    H131247   3.616   0.795   4.940  0.7317  2.0181  0.4640
10430TIP3    H231248   3.718   0.744   4.841  0.1927 -0.6998  1.2599
10431TIP3   OH231249   0.918   6.704   0.212 -0.0652  0.0438 -0.3006
10431TIP3    H131250   0.987   6.662   0.161  1.5310  2.1324  0.0918
10431TIP3    H231251   0.846   6.716   0.150  0.2207 -1.3362 -0.9301
10432TIP3   OH231252   5.576   2.034   5.215  0.2942  0.5468 -0.0623
10432TIP3    H131253   5.561   2.108   5.156 -0.2948  0.9537  0.5937
10432TIP3    H231254   5.619   2.073   5.292 -1.9917  0.5738  1.2337
10433TIP3   OH231255   5.437   2.723   4.183  0.5407  0.9411 -0.6998
10433TIP3    H131256   5.437   2.778   4.104  0.0419  0.1324 -1.2644
10433TIP3    H231257   5.415   2.784   4.254  0.4935  1.5763 -1.2509
10434TIP3   OH231258   8.411   6.092   0.864 -0.0856 -0.4555 -0.0209
10434TIP3    H131259   8.346   6.030   0.831  0.0715  0.0069 -1.2264
10434TIP3    H231260   8.494   6.044   0.861 -0.1435 -0.5635  0.1240
10435TIP3   OH231261   1.353   7.955   0.146  0.7254  0.5431 -0.5843
10435TIP3    H131262   1.279   7.941   0.087  0.4280 -0.5119  0.0396
10435TIP3    H231263   1.313   7.972   0.232  1.2329 -2.1199  0.2114
10436TIP3   OH231264   4.913   2.029   4.560  0.3653 -0.3552 -0.1801
10436TIP3    H131265   4.955   2.066   4.637 -1.3959 -0.3923  0.8193
10436TIP3    H231266   4.986   2.009   4.501  1.6288  1.1140  0.8121
10437TIP3   OH231267   4.350   3.225   4.980 -0.4090 -0.7393 -0.5452
10437TIP3    H131268   4.259   3.226   5.009  0.1387  1.4576  1.2954
10437TIP3    H231269   4.389   3.302   5.022  2.3249 -1.7153 -1.1843
10438TIP3   OH231270   7.465   6.630   0.726 -0.1720  0.1466 -0.4114
10438TIP3    H131271   7.519   6.679   0.665 -2.2239  0.6819 -1.8388
10438TIP3    H231272   7.409   6.576   0.671  0.3716 -2.0074  1.0888
10439TIP3   OH231273   6.778   6.591   2.802 -0.6417 -0.3561 -0.5165
10439TIP3    H131274   6.760   6.532   2.875 -1.9380  1.5536  0.7604
10439TIP3    H231275   6.702   6.579   2.743 -1.3719  0.7001  0.1987
10440TIP3   OH231276   6.255   2.404   5.959 -0.0919 -0.2651 -0.1262
10440TIP3    H131277   6.344   2.420   5.990 -0.7157 -0.5328  1.8622
10440TIP3    H231278   6.254   2.310   5.937  0.0854 -0.2863 -0.0468
10441TIP3   OH231279   7.454   6.467   0.152 -0.2837  0.1138  0.4865
10441TIP3    H131280   7.513   6.512   0.092  0.0027  0.2923  0.8942
10441TIP3    H231281   7.369   6.468   0.108  0.1029 -0.4892 -0.2706
10442TIP3   OH231282   6.872   2.833   4.209 -0.6342 -0.6882 -0.9387
10442TIP3    H131283   6.857   2.787   4.126  0.6152 -1.8466 -0.5305
10442TIP3    H231284   6.952   2.884   4.193 -2.3369  1.8680 -1.5941
10443TIP3   OH231285   5.626   6.322   1.324  0.1345 -0.1030 -0.5964
10443TIP3    H131286   5.634   6.358   1.235  0.5454  1.0742 -0.0929
10443TIP3    H231287   5.534   6.297   1.331 -0.1646  0.8598 -0.9627
10444TIP3   OH231288   6.352   1.579   4.521 -0.9857 -0.0905  0.2247
10444TIP3    H131289   6.407   1.572   4.599  0.5039 -0.2734 -0.8369
10444TIP3    H231290   6.291   1.650   4.541 -0.9153 -0.4401  1.7253
10445TIP3   OH231291   5.218   2.272   6.484  0.4879 -0.1166 -0.1379
10445TIP3    H131292   5.131   2.256   6.522  0.1829 -0.3359 -0.9289
10445TIP3    H231293   5.274   2.287   6.560 -0.3065  0.3527  0.3688
10446TIP3   OH231294   6.331   3.286   4.839 -0.1453 -0.1612 -0.0900
10446TIP3    H131295   6.387   3.362   4.854  0.1621 -0.5708  0.8618
10446TIP3    H231296   6.259   3.320   4.787 -1.0667  1.2286  2.0205
10447TIP3   OH231297   5.030   1.980   5.485  0.1703  0.5008  0.9004
10447TIP3    H131298   5.016   2.075   5.487  0.6235  0.5893  0.1895
10447TIP3    H231299   5.101   1.968   5.422  0.0084 -0.3261  0.8722
10448TIP3   OH231300   7.240   3.218   3.265  0.7189 -0.6760 -0.2464
10448TIP3    H131301   7.259   3.291   3.324  0.3951  0.2583 -1.2889
10448TIP3    H231302   7.318   3.211   3.210  0.5258 -0.7546 -0.5113
10449TIP3   OH231303   2.063   1.123   0.130  0.4348 -0.2332 -0.6605
10449TIP3    H131304   2.100   1.044   0.170 -1.0481 -0.1356  0.9798
10449TIP3    H231305   2.055   1.102   0.037 -0.5925 -2.2956 -0.1319
10450TIP3   OH231306   2.022   2.193   5.986  0.2135  0.6199 -0.0825
10450TIP3    H131307   1.980   2.165   6.067 -0.6209  1.4142 -0.2368
10450TIP3    H231308   2.078   2.119   5.961  0.8912  0.5940  1.4981
10451TIP3   OH231309   5.100   2.503   4.894  0.0939  0.8451 -0.0772
10451TIP3    H131310   5.111   2.528   4.803 -1.4452 -0.4067 -0.6303
10451TIP3    H231311   5.117   2.583   4.944 -0.3377  1.8489 -1.5301
10452TIP3   OH231312   2.728   2.209   0.031  0.0549  0.3634 -0.3711
10452TIP3    H131313   2.802   2.193   0.090 -0.3411  1.6242  0.4910
10452TIP3    H231314   2.660   2.149   0.062  0.7054 -0.7899 -1.1580
10453TIP3   OH231315   3.972   4.019   4.760  0.3313 -0.0313 -0.4813
10453TIP3    H131316   4.000   4.110   4.747  0.8695 -0.6403 -4.2974
10453TIP3    H231317   4.051   3.967   4.745 -0.6071 -1.2580 -1.2395
10454TIP3   OH231318   6.779   4.735   4.485  0.1065  0.1922 -0.2403
10454TIP3    H131319   6.837   4.709   4.556  0.4305  1.0714 -0.1706
10454TIP3    H231320   6.691   4.714   4.516  0.1516  1.6039  0.9090
10455TIP3   OH231321   6.674   4.024   3.749 -0.1078 -0.3512 -0.5756
10455TIP3    H131322   6.654   3.934   3.724  0.7629 -0.9434  0.7930
10455TIP3    H231323   6.607   4.045   3.814 -0.1940 -0.0838 -0.7533
10456TIP3   OH231324   4.558   2.348   4.276  0.5143  0.6514  0.8089
10456TIP3    H131325   4.596   2.408   4.341 -0.6381 -0.4235  2.5459
10456TIP3    H231326   4.504   2.405   4.220  0.2723  1.4084  1.7794
10457TIP3   OH231327   2.901   6.943   0.540  0.5483 -0.2456  0.2852
10457TIP3    H131328   2.957   7.018   0.562 -0.4366  0.9475 -1.1452
10457TIP3    H231329   2.957   6.886   0.488  0.6881  0.5606 -0.4640
10458TIP3   OH231330   0.204   5.651   0.352  0.1795  0.3810  0.5673
10458TIP3    H131331   0.168   5.578   0.402 -2.3677  1.9993  1.1576
10458TIP3    H231332   0.138   5.668   0.284  2.4271 -0.1630 -1.8635
10459TIP3   OH231333   6.584   1.880   6.735  0.2552 -0.3078 -0.3447
10459TIP3    H131334   6.646   1.910   6.802  2.2458 -0.3858 -2.1006
10459TIP3    H231335   6.546   1.800   6.771  0.7584  0.0612  1.0129
10460TIP3   OH231336   2.425   6.133   0.402  0.2530  0.2829 -0.0783
10460TIP3    H131337   2.424   6.081   0.322 -0.4826  0.3989 -0.1448
10460TIP3    H231338   2.340   6.117   0.443 -0.0413  1.5217 -0.1716
10461TIP3   OH231339   6.538   3.146   5.729 -0.0315  0.5470  0.0059
10461TIP3    H131340   6.489   3.211   5.779 -0.0998  0.9576 -0.5910
10461TIP3    H231341   6.472   3.090   5.690  0.0178  0.3288  0.2305
10462TIP3   OH231342   6.269   2.704   5.038 -0.0964  0.6541 -0.3055
10462TIP3    H131343   6.190   2.718   4.986 -1.0080 -2.1844  0.2296
10462TIP3    H231344   6.236   2.683   5.126  1.1018 -2.9112 -0.6369
10463TIP3   OH231345   4.113   0.175   6.242  0.6798  0.1439  0.0118
10463TIP3    H131346   4.080   0.261   6.267  0.6166  0.4964 -1.2585
10463TIP3    H231347   4.205   0.176   6.270  0.3470  0.1522  1.1286
10464TIP3   OH231348   4.752   3.005   6.226 -0.1364 -0.3675 -0.0505
10464TIP3    H131349   4.671   3.028   6.180  0.6422  0.0855 -1.2187
10464TIP3    H231350   4.817   2.997   6.157  1.2724  1.2634  1.0575
10465TIP3   OH231351   8.374   6.070   2.812 -0.2408  0.5208  0.3430
10465TIP3    H131352   8.331   6.097   2.731 -0.1602 -0.3515 -0.0045
10465TIP3    H231353   8.354   6.139   2.875  0.2301  1.5245 -0.5904
10466TIP3   OH231354   0.632   7.044   1.266 -0.0876 -0.2823  0.0375
10466TIP3    H131355   0.717   7.002   1.278 -0.8058 -1.4642  1.0686
10466TIP3    H231356   0.593   6.998   1.192 -0.6991 -1.1399  0.8964
10467TIP3   OH231357   8.200   4.852   0.279  0.2444  0.5779 -0.4369
10467TIP3    H131358   8.140   4.778   0.288  0.7964  0.2259  0.3867
10467TIP3    H231359   8.147   4.929   0.302 -0.3029  0.4328 -1.2065
10468TIP3   OH231360   6.551   3.981   0.349  1.0248  0.0032  0.1140
10468TIP3    H131361   6.456   3.974   0.342  1.0987 -0.0312 -0.9875
10468TIP3    H231362   6.567   4.073   0.370  0.7266 -0.0738  0.6741
10469TIP3   OH231363   6.256   6.265   0.468  0.1906  0.6933 -0.1971
10469TIP3    H131364   6.301   6.321   0.404 -1.1303  1.5984 -0.3444
10469TIP3    H231365   6.206   6.203   0.415  2.4526 -1.3262 -0.0408
10470TIP3   OH231366   4.445   1.843   4.498  0.0146 -0.2141 -0.0342
10470TIP3    H131367   4.532   1.806   4.512 -0.3066 -0.3903  1.7150
10470TIP3    H231368   4.410   1.854   4.587 -2.1778 -1.1731 -0.7527
10471TIP3   OH231369   4.139   1.762   5.512 -0.1194 -0.2285  0.7524
10471TIP3    H131370   4.082   1.757   5.435 -0.2430 -0.2293  0.8434
10471TIP3    H231371   4.104   1.697   5.573 -1.9040  1.8614  2.0465
10472TIP3   OH231372   4.739   3.097   5.282  0.1645 -0.1482  0.1150
10472TIP3    H131373   4.654   3.073   5.245  0.9428 -1.1786 -1.0659
10472TIP3    H231374   4.777   3.013   5.309  0.8503  0.3020  0.5567
10473TIP3   OH231375   7.774   1.863   5.192 -0.2208 -0.0038  0.2925
10473TIP3    H131376   7.729   1.916   5.126  1.1241 -0.6754 -1.1775
10473TIP3    H231377   7.866   1.889   5.186  0.0052 -0.4501  1.5501
10474TIP3   OH231378   6.493   2.141   6.704 -0.3579 -0.1725 -0.0426
10474TIP3    H131379   6.463   2.057   6.671  0.1226 -0.7150  0.8817
10474TIP3    H231380   6.558   2.119   6.771  2.3772  0.9365 -2.2151
10475TIP3   OH231381   5.175   3.039   4.108  0.4542 -0.8090 -0.0442
10475TIP3    H131382   5.189   3.060   4.016  1.0881 -0.2181  0.1771
10475TIP3    H231383   5.081   3.027   4.117  0.1672  1.1304 -0.3607
10476TIP3   OH231384   8.499   6.942   0.732 -0.1170 -0.2755 -0.1068
10476TIP3    H131385   8.548   7.014   0.694 -2.5517  0.2554 -2.3999
10476TIP3    H231386   8.445   6.983   0.800 -0.6858 -0.1144 -0.6540
10477TIP3   OH231387   5.293   0.771   5.600  0.7058  0.2275  0.2843
10477TIP3    H131388   5.336   0.771   5.686  1.2554 -1.8520  0.0315
10477TIP3    H231389   5.353   0.723   5.544 -0.3940  0.2369 -0.9027
10478TIP3   OH231390   3.811   4.421   6.153  0.7881 -0.3417 -0.2822
10478TIP3    H131391   3.906   4.417   6.164  0.6605 -0.6987  0.8117
10478TIP3    H231392   3.789   4.342   6.104  1.0947 -0.0662 -0.8667
10479TIP3   OH231393   5.197   4.310   6.445  0.4584  0.2573 -0.3332
10479TIP3    H131394   5.288   4.342   6.449  0.1929  1.1786 -1.3919
10479TIP3    H231395   5.154   4.352   6.519  0.5014  1.1238 -0.7917
10480TIP3   OH231396   6.943   1.003   5.875 -0.6494  0.7668  0.1011
10480TIP3    H131397   6.904   1.036   5.795 -0.1097  0.2628 -0.3771
10480TIP3    H231398   6.938   1.076   5.937 -1.8654  0.8720 -0.1103
10481TIP3   OH231399   5.474   1.875   4.032  0.3808 -0.2971  0.6350
10481TIP3    H131400   5.500   1.783   4.034  0.4147 -0.2744  2.3120
10481TIP3    H231401   5.434   1.890   4.117 -2.0025  0.5694 -0.5959
10482TIP3   OH231402   3.104   3.162   6.779 -0.2028  0.1314  0.4184
10482TIP3    H131403   3.115   3.256   6.761  3.0560 -0.1823  0.4583
10482TIP3    H231404   3.087   3.158   6.873  1.3957  0.6233  0.7555
10483TIP3   OH231405   6.862   5.135   1.278 -0.5278 -0.5460 -0.9129
10483TIP3    H131406   6.830   5.091   1.356 -1.2028  0.3840 -0.6629
10483TIP3    H231407   6.958   5.128   1.284 -0.6145 -1.4281 -0.5634
10484TIP3   OH231408   5.867   2.836   5.613 -0.1511  0.3103 -0.3629
10484TIP3    H131409   5.784   2.788   5.619 -0.2744  0.5427 -0.2063
10484TIP3    H231410   5.865   2.895   5.689  0.2140  0.2213 -0.2849
10485TIP3   OH231411   6.385   3.023   5.167 -0.3258 -0.1800 -0.0726
10485TIP3    H131412   6.469   3.026   5.121  0.7478 -0.2229  1.8328
10485TIP3    H231413   6.372   2.930   5.187  0.5339  0.1083  2.0006
10486TIP3   OH231414   3.421   2.096   5.552  0.7082 -0.0870  0.0021
10486TIP3    H131415   3.374   2.165   5.505  1.0208  0.0279 -0.1498
10486TIP3    H231416   3.441   2.135   5.637 -0.3631 -0.5035  0.4449
10487TIP3   OH231417   8.029   7.575   1.055 -0.4586 -0.0272  0.5876
10487TIP3    H131418   8.010   7.639   1.123  0.7790  1.3912 -0.3748
10487TIP3    H231419   8.124   7.575   1.047 -0.6757  1.5544 -2.7171
10488TIP3   OH231420   7.236   6.135   0.083 -0.4251 -0.0323 -0.3914
10488TIP3    H131421   7.242   6.044   0.112  0.0430 -0.4068 -1.6619
10488TIP3    H231422   7.297   6.182   0.141 -0.6765 -0.5122  0.2695
10489TIP3   OH231423   2.939   1.767   6.361 -0.7199  0.0877  0.5419
10489TIP3    H131424   2.887   1.823   6.303 -2.5943 -1.7316  0.4002
10489TIP3    H231425   2.997   1.719   6.301 -0.2384  0.6857  0.5182
10490TIP3   OH231426   5.491   3.404   4.016  0.1019  0.0582 -0.5756
10490TIP3    H131427   5.555   3.335   4.034  0.3026 -0.0069 -1.5210
10490TIP3    H231428   5.484   3.406   3.921 -0.6414  0.6746 -0.5130
10491TIP3   OH231429   7.782   0.586   1.193  0.6296  0.6424  0.0502
10491TIP3    H131430   7.842   0.543   1.132 -0.5607 -0.0086 -0.6748
10491TIP3    H231431   7.839   0.627   1.258  1.8692  0.4007 -0.8776
10492TIP3   OH231432   5.124   2.036   6.705 -0.1879  0.0345  0.3007
10492TIP3    H131433   5.108   2.008   6.796 -1.6566 -1.1642 -0.3059
10492TIP3    H231434   5.166   2.121   6.714 -0.1182 -0.1577  2.1255
10493TIP3   OH231435   5.039   3.661   5.213  0.0465  0.5118  0.4070
10493TIP3    H131436   4.985   3.709   5.276  1.2504  0.2241  1.6776
10493TIP3    H231437   5.047   3.573   5.250 -0.1108  0.0195 -0.6959
10494TIP3   OH231438   7.090   1.470   3.543  0.4301 -0.0510 -0.8097
10494TIP3    H131439   7.171   1.515   3.519  0.0821  1.1396  0.1950
10494TIP3    H231440   7.045   1.456   3.459  0.4896  1.6005 -1.1349
10495TIP3   OH231441   5.259   2.966   5.874  0.2022  0.7579 -0.3333
10495TIP3    H131442   5.297   2.887   5.837 -1.1478 -0.0329 -0.0769
10495TIP3    H231443   5.259   2.951   5.968 -2.2297  0.0225 -0.4153
10496TIP3   OH231444   4.942   4.777   5.693  0.2821  0.7752  0.0749
10496TIP3    H131445   4.910   4.726   5.767  0.3305  1.4372  0.5539
10496TIP3    H231446   5.026   4.736   5.670  0.3492  0.6741  0.4943
10497TIP3   OH231447   0.951   5.729   0.133  0.0653 -0.1709 -0.8142
10497TIP3    H131448   0.968   5.824   0.128 -0.5254 -0.0318 -0.1817
10497TIP3    H231449   0.894   5.712   0.057  0.0625  0.0042 -0.8530
10498TIP3   OH231450   3.473   3.412   6.678 -0.0598 -0.1364 -0.7511
10498TIP3    H131451   3.486   3.436   6.586 -0.6596  0.5638 -0.6575
10498TIP3    H231452   3.561   3.390   6.709  0.0151 -1.1984 -1.7137
10499TIP3   OH231453   7.660   7.130   3.742  0.0558 -0.1047  0.3887
10499TIP3    H131454   7.660   7.140   3.647 -1.5293  0.0770  0.3982
10499TIP3    H231455   7.752   7.113   3.764  0.3440 -0.7990 -1.2411
10500TIP3   OH231456   5.856   3.919   5.471 -0.0485 -0.1616  0.7577
10500TIP3    H131457   5.861   3.886   5.560 -1.8866 -0.9599  0.5929
10500TIP3    H231458   5.932   3.882   5.427  1.1148  0.5863  2.0848
10501TIP3   OH231459   6.412   2.128   5.641  0.1303  0.5629  0.0420
10501TIP3    H131460   6.492   2.146   5.689  0.0285  0.0530  0.4059
10501TIP3    H231461   6.385   2.041   5.670 -0.6012  0.7662 -0.0131
10502TIP3   OH231462   3.729   2.904   4.764 -0.3919  0.2745 -0.5374
10502TIP3    H131463   3.697   2.958   4.692 -2.9645  1.1738  1.2127
10502TIP3    H231464   3.651   2.863   4.801  0.9591 -0.8180  1.2411
10503TIP3   OH231465   4.724   4.331   6.136 -0.2969  0.5167 -0.6294
10503TIP3    H131466   4.709   4.421   6.165 -0.0553  0.5185 -0.5080
10503TIP3    H231467   4.657   4.315   6.070 -0.9407  0.4675  0.0269
10504TIP3   OH231468   6.189   1.802   5.040  0.0296 -0.0493 -0.1831
10504TIP3    H131469   6.155   1.814   5.128  0.9159 -0.2773  0.1914
10504TIP3    H231470   6.249   1.875   5.027 -0.8398  0.5466 -0.9747
10505TIP3   OH231471   2.040   6.542   1.033  0.2667 -0.6486  0.4713
10505TIP3    H131472   2.103   6.580   0.971  0.0573 -0.8973  0.0993
10505TIP3    H231473   2.094   6.509   1.104  0.6191 -1.3760 -0.1186
10506TIP3   OH231474   5.243   5.219   4.405  0.1669  0.7823  0.0553
10506TIP3    H131475   5.330   5.214   4.366  0.2748  1.8043  0.1400
10506TIP3    H231476   5.194   5.148   4.365  0.3082  1.7253 -1.8532
10507TIP3   OH231477   4.989   4.457   0.631 -0.2973 -0.0707 -1.0560
10507TIP3    H131478   4.962   4.374   0.670 -0.1274 -0.2123 -1.2382
10507TIP3    H231479   4.930   4.469   0.557  0.0437 -0.3071 -1.3655
10508TIP3   OH231480   3.575   2.443   5.304 -0.0328 -0.2637 -0.2501
10508TIP3    H131481   3.511   2.387   5.258  2.1321 -2.5599 -0.5651
10508TIP3    H231482   3.658   2.423   5.262  1.0684  2.0461  0.7566
10509TIP3   OH231483   4.296   5.452   6.066  0.0263  0.1593 -0.3618
10509TIP3    H131484   4.307   5.459   6.160  1.0601  1.8207 -0.5935
10509TIP3    H231485   4.206   5.423   6.054 -0.4678  1.0770  1.0969
10510TIP3   OH231486   6.501   3.563   3.590 -0.1945  0.1483  0.4340
10510TIP3    H131487   6.421   3.530   3.629 -0.6757  0.9675  0.1495
10510TIP3    H231488   6.533   3.490   3.536 -1.0706  0.0361  0.0639
10511TIP3   OH231489   4.800   2.774   3.914 -0.0611  0.0884 -0.2153
10511TIP3    H131490   4.830   2.865   3.922  2.6400 -0.9260  1.6673
10511TIP3    H231491   4.705   2.781   3.904  0.1553  3.1310 -0.6352
10512TIP3   OH231492   4.398   1.828   4.984 -0.6583 -0.0406  0.2557
10512TIP3    H131493   4.455   1.889   4.937 -0.7146 -0.2104 -0.0313
10512TIP3    H231494   4.440   1.817   5.070 -0.0317 -0.5069 -0.1120
10513TIP3   OH231495   4.829   7.172   1.743 -0.2054  0.0723  0.0869
10513TIP3    H131496   4.784   7.256   1.739 -1.7783 -0.7455  0.1004
10513TIP3    H231497   4.835   7.143   1.652  0.0848  0.0641  0.1067
10514TIP3   OH231498   1.057   0.604   0.108 -0.0947  0.1555 -0.3733
10514TIP3    H131499   1.079   0.520   0.149 -1.4739  0.2693  0.6435
10514TIP3    H231500   0.962   0.610   0.115 -0.0516  1.6117 -0.8312
10515TIP3   OH231501   6.711   2.714   4.778  0.4475 -0.2388  0.2695
10515TIP3    H131502   6.747   2.706   4.867 -0.6053  1.1088  0.8303
10515TIP3    H231503   6.649   2.787   4.784  0.9416  0.3702 -1.7683
10516TIP3   OH231504   5.520   1.829   6.708 -0.7006  0.4530  0.2482
10516TIP3    H131505   5.593   1.875   6.666 -0.2959 -0.8981 -0.5787
10516TIP3    H231506   5.453   1.823   6.640 -0.8384  0.0204  0.4216
10517TIP3   OH231507   0.925   6.393   1.781 -0.6241  0.2949 -0.5358
10517TIP3    H131508   1.014   6.361   1.799 -0.6210  0.7515  0.3277
10517TIP3    H231509   0.934   6.446   1.702 -0.2088 -0.0361 -0.7102
10518TIP3   OH231510   0.115   6.952   0.069  0.0584 -0.2199 -0.5177
10518TIP3    H131511   0.031   6.964   0.024 -0.5310 -0.7917  0.4068
10518TIP3    H231512   0.174   7.015   0.027 -0.6632 -0.2558 -1.6014
10519TIP3   OH231513   5.094   1.722   4.647 -0.1284  0.0131  0.2884
10519TIP3    H131514   5.177   1.719   4.693  0.1290 -1.0040 -0.2505
10519TIP3    H231515   5.113   1.771   4.566  0.1703 -1.0539 -0.2921
10520TIP3   OH231516   3.594   2.314   6.188  0.2415  0.4257  0.3342
10520TIP3    H131517   3.632   2.383   6.241  1.4865 -0.1605  0.2414
10520TIP3    H231518   3.600   2.346   6.098  0.4764  0.3661  0.3266
10521TIP3   OH231519   7.435   7.695   6.488 -0.2662 -0.9786  0.1906
10521TIP3    H131520   7.504   7.695   6.421  0.1119 -0.6480  0.5713
10521TIP3    H231521   7.477   7.657   6.565 -0.4783 -0.6843  0.4530
10522TIP3   OH231522   4.012   2.508   4.140  0.0465  0.1544  0.2044
10522TIP3    H131523   3.956   2.444   4.095 -1.7098  0.5682  1.7319
10522TIP3    H231524   3.957   2.586   4.149  1.2862  0.9910  0.6508
10523TIP3   OH231525   5.072   2.237   6.260 -0.8986 -0.8924 -0.1420
10523TIP3    H131526   5.015   2.278   6.325 -1.1975  1.7126 -1.9903
10523TIP3    H231527   5.161   2.249   6.295 -1.2205 -1.5383  0.8888
10524TIP3   OH231528   6.036   2.958   6.787  0.7935  0.4714 -0.3561
10524TIP3    H131529   6.015   2.887   6.726 -1.1839  0.9288 -0.2469
10524TIP3    H231530   6.110   2.925   6.838 -0.2143 -1.6182 -0.1837
10525TIP3   OH231531   6.203   1.324   4.494 -0.2860 -0.6129 -0.1024
10525TIP3    H131532   6.255   1.341   4.573 -0.4193 -1.9719  0.3012
10525TIP3    H231533   6.181   1.410   4.460  0.4590 -0.0155  0.9051
10526TIP3   OH231534   0.823   5.817   1.522  0.5195  0.2856  0.1123
10526TIP3    H131535   0.768   5.776   1.456  1.7182 -0.9416 -0.1513
10526TIP3    H231536   0.861   5.893   1.478  2.7758 -1.5671 -1.2545
10527TIP3   OH231537   6.679   2.490   5.843  0.0181 -0.8197 -0.1386
10527TIP3    H131538   6.749   2.545   5.810  1.3368 -1.0293  2.1620
10527TIP3    H231539   6.618   2.481   5.770  1.7003  0.4961 -1.7405
10528TIP3   OH231540   7.836   6.195   0.216 -0.4841  0.5737 -0.4175
10528TIP3    H131541   7.832   6.259   0.145  0.0972  0.2200 -0.7731
10528TIP3    H231542   7.755   6.210   0.266 -0.0004  2.0896 -0.0451
10529TIP3   OH231543   3.280   3.935   5.611  0.0895  0.2030 -0.1228
10529TIP3    H131544   3.205   3.986   5.581 -0.3821 -1.0038 -1.0596
10529TIP3    H231545   3.240   3.862   5.660  0.7770  1.1806  1.9500
10530TIP3   OH231546   3.569   4.778   5.819 -0.0731 -0.2815 -0.1103
10530TIP3    H131547   3.598   4.867   5.837 -1.7478  0.3338 -0.4027
10530TIP3    H231548   3.586   4.731   5.901  2.0231 -0.0173 -0.3861
10531TIP3   OH231549   0.395   7.187   0.233 -0.4954  0.0421  0.2663
10531TIP3    H131550   0.480   7.144   0.224 -0.4209  0.6463 -2.0791
10531TIP3    H231551   0.416   7.274   0.269 -0.1771  0.0032  0.1767
10532TIP3   OH231552   6.938   3.471   4.534 -0.4493 -0.3012  0.0217
10532TIP3    H131553   7.003   3.419   4.486  0.0287 -0.5114  0.8813
10532TIP3    H231554   6.945   3.558   4.496 -1.2801 -0.8624 -1.4568
10533TIP3   OH231555   2.842   1.938   6.148 -0.2568 -0.0998 -0.2672
10533TIP3    H131556   2.874   1.986   6.072 -0.5434  1.4743  0.5975
10533TIP3    H231557   2.758   1.902   6.120 -1.3790  2.2761 -0.0141
10534TIP3   OH231558   5.722   2.524   6.520  0.0309  0.4051 -0.1508
10534TIP3    H131559   5.686   2.449   6.569 -1.6308 -0.1662 -2.1688
10534TIP3    H231560   5.808   2.494   6.491 -0.0012 -0.1766  0.3383
10535TIP3   OH231561   5.197   1.213   5.676 -0.2002  0.0754  0.0755
10535TIP3    H131562   5.218   1.150   5.607  1.8537  0.2930  0.4617
10535TIP3    H231563   5.111   1.186   5.708 -1.0318 -0.2307 -2.3270
10536TIP3   OH231564   5.451   2.197   4.066 -1.1069  0.0445 -0.0691
10536TIP3    H131565   5.452   2.291   4.052 -2.5692 -0.1611 -1.6222
10536TIP3    H231566   5.361   2.176   4.091 -0.6534 -0.8598  0.8607
10537TIP3   OH231567   5.602   3.184   5.571 -0.2453 -0.3859 -0.4505
10537TIP3    H131568   5.626   3.116   5.634 -1.4784 -0.0947  0.3504
10537TIP3    H231569   5.523   3.224   5.608 -0.1790  0.7208 -1.4850
10538TIP3   OH231570   2.726   1.584   1.219 -0.0069 -0.1772 -0.2960
10538TIP3    H131571   2.666   1.514   1.245  0.4572 -0.9837 -1.3685
10538TIP3    H231572   2.672   1.643   1.167 -0.5418  0.5977  1.0883
10539TIP3   OH231573   5.528   2.689   5.248  0.3020  0.2509 -0.0438
10539TIP3    H131574   5.520   2.624   5.178 -1.1986 -1.0689  1.3034
10539TIP3    H231575   5.492   2.769   5.211  0.6089 -0.1204 -1.1589
10540TIP3   OH231576   6.523   2.587   6.421 -0.8075 -0.3693  0.2399
10540TIP3    H131577   6.469   2.631   6.486  0.1328  0.2979  0.5786
10540TIP3    H231578   6.524   2.495   6.449  0.4055  0.0879  1.7316
10541TIP3   OH231579   4.202   0.021   5.893  0.0148 -0.2603 -0.2792
10541TIP3    H131580   4.293   0.008   5.867  0.1797  2.1828 -0.9947
10541TIP3    H231581   4.155   0.036   5.811 -0.8121 -0.2178  0.1902
10542TIP3   OH231582   5.168   3.618   6.260  0.3189 -0.0956 -0.4075
10542TIP3    H131583   5.189   3.578   6.176  0.3091  0.1673 -0.5341
10542TIP3    H231584   5.072   3.619   6.263  0.3001  1.2973 -1.0662
10543TIP3   OH231585   6.975   3.627   5.839  0.2296 -0.4447 -0.5115
10543TIP3    H131586   6.906   3.567   5.868  0.5455 -0.7349 -0.3650
10543TIP3    H231587   7.040   3.625   5.909 -0.3883  1.0947  0.1217
10544TIP3   OH231588   5.096   3.371   6.453 -0.3569 -0.1174 -0.1126
10544TIP3    H131589   5.140   3.447   6.416  1.4321  0.1803  2.5078
10544TIP3    H231590   5.018   3.407   6.496 -1.3114 -0.2052 -1.7478
10545TIP3   OH231591   3.688   2.600   5.581 -0.2436 -0.3846 -0.1815
10545TIP3    H131592   3.722   2.606   5.671  1.8559  1.3348 -1.0481
10545TIP3    H231593   3.766   2.604   5.526 -1.6930  1.2947 -2.1764
10546TIP3   OH231594   8.253   4.814  -0.008 -0.3914  0.5203  0.1944
10546TIP3    H131595   8.160   4.832   0.009 -0.8246 -0.6649 -0.8806
10546TIP3    H231596   8.289   4.793   0.079 -1.2646  0.3888  0.5293
10547TIP3   OH231597   5.734   5.232   0.551 -0.1654 -0.2042 -0.4226
10547TIP3    H131598   5.647   5.192   0.552  0.2991 -1.2594 -1.5561
10547TIP3    H231599   5.794   5.159   0.543  0.6425  0.7428 -3.7966
10548TIP3   OH231600   3.259   0.692   6.262  0.2181 -0.3751  0.1836
10548TIP3    H131601   3.206   0.726   6.334  0.1253 -2.4267  1.1277
10548TIP3    H231602   3.277   0.768   6.207 -1.4255  0.8449  1.2941
10549TIP3   OH231603   5.959   4.147   6.288  0.1897  0.1105  0.3023
10549TIP3    H131604   6.024   4.195   6.338 -0.7822 -0.7158  2.4569
10549TIP3    H231605   5.890   4.211   6.270 -1.0157 -0.3474  2.9987
10550TIP3   OH231606   5.974   3.142   6.373  0.2344 -0.6119  0.0719
10550TIP3    H131607   5.969   3.127   6.279  0.2123 -2.5351  0.3653
10550TIP3    H231608   5.888   3.117   6.406 -0.1384  1.1256  0.4896
10551TIP3   OH231609   6.032   1.944   4.706  0.0856 -1.0194  0.0192
10551TIP3    H131610   5.978   1.979   4.636 -0.8903 -2.8943 -0.1957
10551TIP3    H231611   6.116   1.989   4.697 -0.6225  0.0827 -1.2020
10552TIP3   OH231612   4.993   2.742   6.758  0.4737  0.2423  0.6581
10552TIP3    H131613   5.041   2.788   6.826  0.8711  0.2926  0.3516
10552TIP3    H231614   5.061   2.714   6.696 -0.0951  2.0361 -0.7995
10553TIP3   OH231615   0.949   6.607   2.241 -0.0320 -0.1168 -0.1180
10553TIP3    H131616   0.878   6.576   2.185 -0.6965  0.6378  0.3029
10553TIP3    H231617   0.999   6.667   2.185 -1.8430  2.1826  0.6707
10554TIP3   OH231618   6.151   5.111   1.360 -0.9294  0.0394 -0.2885
10554TIP3    H131619   6.244   5.107   1.338 -1.2224 -1.0420 -1.3628
10554TIP3    H231620   6.108   5.137   1.279 -1.6654 -0.3731 -0.0313
10555TIP3   OH231621   2.906   0.630   6.278  0.6048 -0.4429 -0.0872
10555TIP3    H131622   2.943   0.660   6.361 -1.0907  0.3561  0.4052
10555TIP3    H231623   2.835   0.571   6.303 -0.3519  0.3168 -0.9220
10556TIP3   OH231624   5.217   1.287   6.587 -0.4150 -0.0504  0.1063
10556TIP3    H131625   5.217   1.280   6.682  1.3669 -0.7247  0.0892
10556TIP3    H231626   5.146   1.230   6.558  1.2751 -2.6377  0.8919
10557TIP3   OH231627   1.164   2.850   3.801  0.4354  0.1252 -0.3699
10557TIP3    H131628   1.241   2.814   3.846 -0.2427 -0.4694  0.3283
10557TIP3    H231629   1.123   2.775   3.759 -0.0007  0.3707 -0.3853
10558TIP3   OH231630   5.136   3.017   3.803  0.0217  0.0950  0.3028
10558TIP3    H131631   5.043   3.018   3.784  0.2657 -0.7167 -1.0279
10558TIP3    H231632   5.159   3.110   3.816 -0.5462  0.5241 -1.6006
10559TIP3   OH231633   3.183   2.289   6.011 -0.1083 -0.6177  0.4155
10559TIP3    H131634   3.242   2.362   6.027 -1.4465  1.1329 -2.2398
10559TIP3    H231635   3.102   2.314   6.055  0.3727 -2.0130  2.1797
10560TIP3   OH231636   4.579   2.783   6.869  0.1253 -0.1422  0.5928
10560TIP3    H131637   4.614   2.836   6.796 -1.9146  0.5554  0.0824
10560TIP3    H231638   4.615   2.824   6.947  0.3044  0.6879  0.0877
10561TIP3   OH231639   6.900   3.216   4.996  0.0618  0.1324 -0.4127
10561TIP3    H131640   6.893   3.310   5.014 -0.4783  0.1453 -0.6887
10561TIP3    H231641   6.960   3.210   4.922 -0.5076  0.3119 -0.8932
10562TIP3   OH231642   2.115   6.926   2.505  0.0591  0.1405 -0.1553
10562TIP3    H131643   2.191   6.935   2.448  1.0686  0.0969  1.1659
10562TIP3    H231644   2.129   6.843   2.551  0.7320  1.5752  2.2998
10563TIP3   OH231645   7.151   3.198   6.618  0.1975 -0.7426 -0.0343
10563TIP3    H131646   7.077   3.256   6.602  0.4971 -0.7319 -1.4287
10563TIP3    H231647   7.175   3.213   6.710 -1.9450 -1.2336  0.6206
10564TIP3   OH231648   4.429   1.764   5.510 -0.3481 -0.2675  0.8972
10564TIP3    H131649   4.336   1.763   5.490  0.1484  0.7067 -1.6313
10564TIP3    H231650   4.444   1.848   5.554 -0.0443  1.3400 -2.1385
10565TIP3   OH231651   7.243   2.867   5.736  0.6394  0.0093  0.3551
10565TIP3    H131652   7.196   2.815   5.801  1.7014 -1.1483  0.2095
10565TIP3    H231653   7.178   2.930   5.704 -0.4402 -0.7263  1.0854
10566TIP3   OH231654   5.684   3.109   5.054 -0.3925 -0.3633 -0.3870
10566TIP3    H131655   5.627   3.159   4.996  0.8270  0.5415 -0.8269
10566TIP3    H231656   5.771   3.147   5.041  0.0343 -0.6586  1.4709
10567TIP3   OH231657   6.656   4.682   0.809  0.0959  0.0270 -0.0855
10567TIP3    H131658   6.615   4.760   0.848 -0.2655 -1.3477  2.3924
10567TIP3    H231659   6.748   4.706   0.797 -0.0759  0.9428  0.4079
10568TIP3   OH231660   7.223   2.886   4.302 -0.3126  0.6464  0.2264
10568TIP3    H131661   7.253   2.976   4.295  1.1457  0.1433 -0.2003
10568TIP3    H231662   7.221   2.868   4.396  3.6966 -0.2401  0.2432
10569TIP3   OH231663   5.704   2.120   5.454  0.2837 -0.0629 -0.2646
10569TIP3    H131664   5.766   2.059   5.493  0.2397  0.7704  1.1236
10569TIP3    H231665   5.621   2.102   5.498 -0.0153  0.1806 -0.7160
10570TIP3   OH231666   5.806   1.304   6.490 -0.0369 -0.0788 -0.0782
10570TIP3    H131667   5.715   1.329   6.473 -0.2021  0.3018  1.3598
10570TIP3    H231668   5.805   1.265   6.577  1.2250  0.1553  0.0490
10571TIP3   OH231669   3.526   2.191   4.611 -0.2928  0.5198  0.4091
10571TIP3    H131670   3.531   2.233   4.526 -2.7354  0.4023  0.1618
10571TIP3    H231671   3.559   2.257   4.673  3.7788 -0.2558 -0.8168
10572TIP3   OH231672   1.315   6.163   0.605  0.0521 -0.0028 -0.0709
10572TIP3    H131673   1.377   6.186   0.536  1.3537  0.7819  1.3224
10572TIP3    H231674   1.310   6.242   0.660  0.4017 -1.1850  1.7092
10573TIP3   OH231675   5.444   1.556   6.291  0.0260  0.3388 -0.4570
10573TIP3    H131676   5.521   1.611   6.305  0.6916 -0.7420  0.2630
10573TIP3    H231677   5.448   1.531   6.199  1.8545 -1.5957  0.1023
10574TIP3   OH231678   7.172   2.200   5.109 -0.2737 -0.0685 -0.5643
10574TIP3    H131679   7.108   2.231   5.045  0.4213  0.1372 -1.1667
10574TIP3    H231680   7.249   2.255   5.096  0.4894 -1.1420 -0.7339
10575TIP3   OH231681   5.816   0.932   4.792  0.6164  0.1284 -0.3212
10575TIP3    H131682   5.869   1.006   4.764  0.0852  1.1792  1.4135
10575TIP3    H231683   5.826   0.929   4.887 -1.7410 -0.1680 -0.0367
10576TIP3   OH231684   0.390   3.659   0.610  0.2512 -0.1357 -0.3042
10576TIP3    H131685   0.439   3.585   0.646 -1.4040 -1.1893 -0.1172
10576TIP3    H231686   0.389   3.643   0.516 -0.5961 -0.6816 -0.2097
10577TIP3   OH231687   4.252   2.062   5.222  0.1034  0.1019 -0.2948
10577TIP3    H131688   4.213   2.021   5.144  1.4928 -1.8012 -0.0201
10577TIP3    H231689   4.177   2.088   5.276 -0.8247 -3.0369 -0.0021
10578TIP3   OH231690   6.349   6.087   0.107 -0.0592  0.2373 -0.1940
10578TIP3    H131691   6.298   6.074   0.027  0.6122 -3.2706 -0.1379
10578TIP3    H231692   6.284   6.084   0.177 -0.2039 -0.7432 -0.3586
10579TIP3   OH231693   0.244   2.046   6.584 -1.0131  0.0292 -0.1708
10579TIP3    H131694   0.295   2.114   6.541 -0.4491 -0.2057  0.1129
10579TIP3    H231695   0.300   2.016   6.655 -1.7159  0.0387  0.3891
10580TIP3   OH231696   5.954   2.027   4.989  0.8531  0.0452  0.3562
10580TIP3    H131697   5.988   1.957   4.934 -0.4686  0.1099 -0.5525
10580TIP3    H231698   6.032   2.067   5.027  1.6542 -1.5863  0.4951
10581TIP3   OH231699   6.881   4.677   0.432 -0.3434 -0.0323  0.2548
10581TIP3    H131700   6.970   4.650   0.454 -0.2865 -1.0881 -1.2247
10581TIP3    H231701   6.883   4.773   0.436  0.9351 -0.0420 -0.0798
10582TIP3   OH231702   7.243   5.486   0.766 -0.1955 -0.5360 -0.0813
10582TIP3    H131703   7.289   5.559   0.806 -0.4003 -0.1639 -0.5252
10582TIP3    H231704   7.153   5.492   0.798 -0.3750 -0.2010 -0.6455
10583TIP3   OH231705   0.762   2.569   5.803 -0.7177  0.0294  0.1478
10583TIP3    H131706   0.680   2.605   5.769 -1.3611 -1.2806  0.2574
10583TIP3    H231707   0.817   2.645   5.819 -1.2035  0.7984 -1.7624
10584TIP3   OH231708   5.912   0.943   6.058  0.1281  0.1018 -0.8867
10584TIP3    H131709   5.925   1.022   6.005  2.1102  1.2021  1.1786
10584TIP3    H231710   5.958   0.961   6.140 -0.5228 -2.6864  0.1389
10585TIP3   OH231711   2.729   2.591   6.372 -0.7491  0.2189  0.0152
10585TIP3    H131712   2.779   2.587   6.453  0.2005 -0.2991 -0.5854
10585TIP3    H231713   2.724   2.500   6.343 -0.9070  0.4286 -0.6199
10586TIP3   OH231714   4.764   2.658   6.527  0.1268 -0.1844  0.6946
10586TIP3    H131715   4.773   2.633   6.436 -0.2169 -3.0297  1.3975
10586TIP3    H231716   4.853   2.677   6.556  0.1149  1.8060 -0.4755
10587TIP3   OH231717   4.311   2.895   6.531 -0.5458  0.1664  0.1787
10587TIP3    H131718   4.406   2.887   6.533 -0.4807  0.9482  0.3301
10587TIP3    H231719   4.291   2.963   6.595 -1.2611 -0.4962  0.6652
10588TIP3   OH231720   6.113   2.801   6.309  0.0359 -0.5532 -0.0574
10588TIP3    H131721   6.094   2.870   6.245  1.3732  1.1361  1.3080
10588TIP3    H231722   6.139   2.726   6.256 -0.4099  0.3150 -1.5407
10589TIP3   OH231723   3.975   1.818   5.303 -0.2830  0.6989 -0.1071
10589TIP3    H131724   4.003   1.835   5.213 -0.6272 -0.0390 -0.3633
10589TIP3    H231725   3.887   1.781   5.294  0.2325 -0.6996  0.4327
10590TIP3   OH231726   8.307   6.123   0.255  0.0398 -0.0639  0.3212
10590TIP3    H131727   8.230   6.180   0.246 -0.2815 -0.2405  1.9355
10590TIP3    H231728   8.293   6.054   0.190 -0.0156  1.1896 -1.0197
10591TIP3   OH231729   7.509   3.422   6.753 -0.1082 -0.7651 -0.2981
10591TIP3    H131730   7.561   3.424   6.833 -0.8027  0.2833  0.1429
10591TIP3    H231731   7.572   3.431   6.682  0.2149  2.0800  0.2828
10592TIP3   OH231732   2.381   5.815   2.143 -0.2319  0.1475 -0.2895
10592TIP3    H131733   2.396   5.898   2.189  0.1009  0.5609 -1.1243
10592TIP3    H231734   2.451   5.811   2.078  0.2479 -1.1936  0.3003
10593TIP3   OH231735   3.818   1.990   0.605 -0.5025 -0.3628 -0.5043
10593TIP3    H131736   3.848   2.005   0.516 -0.7470  2.7970 -0.1051
10593TIP3    H231737   3.723   1.982   0.597 -0.8509  2.9674 -0.2179
10594TIP3   OH231738   6.023   4.760   5.142  0.0977 -0.2991 -0.2066
10594TIP3    H131739   6.024   4.682   5.087  0.0310  0.1543 -0.8647
10594TIP3    H231740   5.968   4.822   5.094 -1.6804 -0.6066  1.3921
10595TIP3   OH231741   5.096   2.471   5.338  0.0186 -0.0750  0.1807
10595TIP3    H131742   5.011   2.513   5.344  0.8287  2.0882 -2.3674
10595TIP3    H231743   5.094   2.424   5.255  0.5811 -1.8472  1.1230
10596TIP3   OH231744   4.190   0.208   0.222  0.2177  0.1501  0.1425
10596TIP3    H131745   4.195   0.114   0.204  0.6746  0.6892 -2.7598
10596TIP3    H231746   4.244   0.248   0.154 -2.6860  2.7197 -0.7502
10597TIP3   OH231747   4.903   0.881   6.505 -0.2905 -0.5995 -0.2321
10597TIP3    H131748   4.931   0.793   6.529 -2.5992 -2.4968 -4.1574
10597TIP3    H231749   4.831   0.901   6.565 -1.0425 -2.2053 -0.5879
10598TIP3   OH231750   2.950   1.057   0.260 -0.1600 -0.1035  1.1436
10598TIP3    H131751   2.956   0.965   0.235 -1.2303 -0.0803  0.7546
10598TIP3    H231752   3.017   1.069   0.327  0.6312 -0.9339  0.5047
10599TIP3   OH231753   4.976   0.918   5.387 -0.0915 -0.4589 -0.1300
10599TIP3    H131754   4.992   0.835   5.433 -0.9322  1.0829  3.1135
10599TIP3    H231755   5.047   0.976   5.417 -1.3336  0.9364  0.1609
10600TIP3   OH231756   6.156   2.070   4.174  0.2865 -0.0158 -0.2175
10600TIP3    H131757   6.196   1.986   4.196  3.2306  0.9690 -1.4749
10600TIP3    H231758   6.087   2.049   4.111 -0.0231 -1.6259  0.6546
10601TIP3   OH231759   5.736   1.618   5.039  0.4933  0.1102 -0.1244
10601TIP3    H131760   5.694   1.690   5.087  1.4727  0.2053  0.6157
10601TIP3    H231761   5.772   1.660   4.961  2.7410  0.8201  1.2522
10602TIP3   OH231762   4.676   1.584   5.422 -0.2311  0.7351  0.0911
10602TIP3    H131763   4.739   1.517   5.448 -0.3124 -0.1683 -1.8964
10602TIP3    H231764   4.715   1.666   5.449 -0.5282 -0.1440  3.3741
10603TIP3   OH231765   6.869   1.541   6.147 -0.2664  0.4077  0.0247
10603TIP3    H131766   6.910   1.530   6.061  0.3575 -0.3563  0.4039
10603TIP3    H231767   6.927   1.602   6.193  0.6087 -0.8647  0.6480
10604TIP3   OH231768   7.813   7.413   1.416  0.2868 -0.0797  0.6016
10604TIP3    H131769   7.848   7.498   1.441  0.1284 -0.4217  2.0336
10604TIP3    H231770   7.884   7.351   1.435 -0.0546 -0.4218  0.7646
10605TIP3   OH231771   5.653   2.314   4.374 -0.4506  0.0169 -0.8151
10605TIP3    H131772   5.588   2.340   4.308 -0.8725  1.0333 -0.0047
10605TIP3    H231773   5.725   2.277   4.323 -1.1948 -0.1067 -1.7913
10606TIP3   OH231774   3.897   1.724   6.159  0.0725  0.5956  0.0363
10606TIP3    H131775   3.880   1.707   6.066  2.0577  0.2784 -0.2729
10606TIP3    H231776   3.915   1.818   6.163  1.8475  0.2796 -0.1999
10607TIP3   OH231777   3.283   0.113   6.639 -0.3660 -0.8102 -0.5938
10607TIP3    H131778   3.265   0.144   6.727  2.0612 -0.6714 -0.0924
10607TIP3    H231779   3.264   0.020   6.641  1.9651 -1.2961  0.8081
10608TIP3   OH231780   4.223   2.655   6.754  0.3114  0.3008 -0.5235
10608TIP3    H131781   4.248   2.747   6.743  0.1666  0.5427  0.9907
10608TIP3    H231782   4.143   2.658   6.806  1.0230 -0.7241  0.6606
10609TIP3   OH231783   3.253   1.494   5.955 -0.8164 -0.0935  0.4140
10609TIP3    H131784   3.312   1.564   5.925  0.6065 -1.3468  0.1962
10609TIP3    H231785   3.221   1.454   5.874 -1.6937  0.3493  0.5377
10610TIP3   OH231786   6.160   2.220   5.043  0.1572  0.2610  0.2040
10610TIP3    H131787   6.153   2.284   4.972  2.0019  0.0541 -0.2111
10610TIP3    H231788   6.251   2.228   5.072 -0.1877 -0.6946  1.5599
10611TIP3   OH231789   8.086   6.292   0.237 -0.0755 -0.2861  0.2395
10611TIP3    H131790   8.091   6.290   0.333 -0.3954  0.2017  0.2675
10611TIP3    H231791   8.019   6.227   0.215 -2.0381  1.5923  0.5044
10612TIP3   OH231792   4.255   3.608   3.406  0.1789  0.4423  0.1832
10612TIP3    H131793   4.222   3.582   3.320 -0.0746 -0.6223  0.5926
10612TIP3    H231794   4.316   3.679   3.388  0.9601 -0.5099 -0.9902
10613TIP3   OH231795   6.877   2.984   6.811 -0.0362 -0.0455  0.7370
10613TIP3    H131796   6.826   3.031   6.744 -2.1903 -0.5780  1.9479
10613TIP3    H231797   6.862   2.892   6.792 -0.6368 -0.2014  1.9280
10614TIP3   OH231798   0.643   7.711   4.009 -0.3310 -0.2838 -0.2479
10614TIP3    H131799   0.707   7.654   3.967 -0.9728  0.0706 -1.7470
10614TIP3    H231800   0.684   7.737   4.092  0.6454 -1.5874 -0.3080
10615TIP3   OH231801   5.183   2.250   4.919 -0.3034  0.0323  0.3488
10615TIP3    H131802   5.162   2.344   4.921  1.7674  0.5029  3.1953
10615TIP3    H231803   5.217   2.235   4.831  0.3118  2.2139  0.1734
10616TIP3   OH231804   2.499   4.903   0.779  0.7588 -0.3299 -0.1296
10616TIP3    H131805   2.509   4.809   0.789  0.4182 -0.2624  0.8938
10616TIP3    H231806   2.445   4.913   0.700 -0.1072 -1.0321  0.3609
10617TIP3   OH231807   7.604   1.324   6.297  0.0163 -0.2372 -0.4220
10617TIP3    H131808   7.625   1.389   6.229  0.7033 -0.0798 -0.0639
10617TIP3    H231809   7.602   1.241   6.250  2.2093 -0.3683 -0.3614
10618TIP3   OH231810   6.350   3.991   1.861  0.4593  0.2931  0.0065
10618TIP3    H131811   6.305   4.036   1.933  2.0330  2.1817 -0.1338
10618TIP3    H231812   6.405   4.059   1.821  2.2146 -1.5565 -0.8250
10619TIP3   OH231813   0.174   3.129   6.381 -0.0019 -0.0596 -0.0232
10619TIP3    H131814   0.128   3.191   6.439 -0.1546 -0.5017  0.3334
10619TIP3    H231815   0.253   3.175   6.355 -0.7689  0.8071 -0.8402
10620TIP3   OH231816   0.230   1.742   5.779  0.1244  0.2101 -0.4194
10620TIP3    H131817   0.223   1.672   5.714 -1.0898  1.4050 -1.6108
10620TIP3    H231818   0.274   1.813   5.733  0.9911  0.3794  0.6558
10621TIP3   OH231819   5.458   5.595   6.450  0.3395 -0.0536  0.3144
10621TIP3    H131820   5.428   5.663   6.389 -0.3984 -0.2301  0.4845
10621TIP3    H231821   5.537   5.560   6.409 -0.2983 -0.3577 -0.6750
10622TIP3   OH231822   6.961   1.643   5.250 -0.0175 -0.0235  0.0126
10622TIP3    H131823   7.038   1.700   5.244 -0.5994  0.9069  1.3476
10622TIP3    H231824   6.888   1.698   5.223 -0.6133 -0.0666  1.4983
10623TIP3   OH231825   4.772   2.732   2.132 -0.5655  0.6198  0.8138
10623TIP3    H131826   4.716   2.771   2.064  0.9478  0.2120 -0.7008
10623TIP3    H231827   4.826   2.805   2.163 -0.9740  0.7155  1.3178
10624TIP3   OH231828   5.687   2.080   3.930  0.3493 -0.8006 -0.1532
10624TIP3    H131829   5.693   1.988   3.954  3.4423 -0.0266  2.3226
10624TIP3    H231830   5.598   2.105   3.954  0.4666 -2.3919  2.0903
10625TIP3   OH231831   6.489   5.315   4.385 -0.4922  0.0417  0.0769
10625TIP3    H131832   6.493   5.407   4.412  1.1622  0.2078 -0.7210
10625TIP3    H231833   6.567   5.275   4.424 -2.0296 -1.4122  1.7569
10626TIP3   OH231834   5.105   4.219   5.780 -0.7320 -0.4389 -0.5725
10626TIP3    H131835   5.023   4.188   5.743  0.5603 -2.7739 -1.5647
10626TIP3    H231836   5.148   4.140   5.814  1.8574  0.4805 -1.5988
10627TIP3   OH231837   7.047   3.289   5.437  0.2294  0.0608  0.0314
10627TIP3    H131838   7.010   3.374   5.458  0.2039  0.5584 -1.9689
10627TIP3    H231839   7.137   3.293   5.471  0.1247  0.7456  0.2394
10628TIP3   OH231840   0.016   2.238   5.451  0.3392  0.3399 -0.0967
10628TIP3    H131841   0.002   2.176   5.522  1.4468  2.5808  2.1560
10628TIP3    H231842   0.094   2.205   5.406  0.0548 -0.7034  0.1464
10629TIP3   OH231843   5.692   2.635   5.667  0.0119  0.0578 -0.0735
10629TIP3    H131844   5.628   2.624   5.598 -1.5649 -1.3187  1.5592
10629TIP3    H231845   5.757   2.566   5.651  1.3353  1.6537 -1.9102
10630TIP3   OH231846   3.320   6.582   0.382  0.6551 -1.0915 -0.2112
10630TIP3    H131847   3.405   6.619   0.360  1.1525 -1.7983  0.5052
10630TIP3    H231848   3.269   6.587   0.301  0.7524  1.0404 -0.1602
10631TIP3   OH231849   5.561   4.053   6.329 -0.6272 -0.0400  0.3740
10631TIP3    H131850   5.606   4.076   6.248  0.9588 -1.0603  0.9392
10631TIP3    H231851   5.528   4.137   6.362 -1.1164  0.4074 -1.2025
10632TIP3   OH231852   7.363   0.886   4.265 -0.0769 -0.0736  0.1822
10632TIP3    H131853   7.430   0.872   4.332  0.1796 -0.3425 -0.1278
10632TIP3    H231854   7.304   0.950   4.303  1.3315  1.5089 -0.2424
10633TIP3   OH231855   8.458   3.594   6.730 -0.0746  0.0694  0.3716
10633TIP3    H131856   8.460   3.688   6.711 -1.7153  0.2429  0.9516
10633TIP3    H231857   8.402   3.558   6.662 -2.7077  0.1174  2.4212
10634TIP3   OH231858   7.062   2.149   3.799  0.2568  0.0509 -0.3833
10634TIP3    H131859   7.141   2.153   3.853 -0.5775  2.7364  0.7604
10634TIP3    H231860   7.027   2.061   3.813  1.8860 -0.4319  0.7959
10635TIP3   OH231861   7.389   2.836   4.619  0.5739  0.2571 -0.1946
10635TIP3    H131862   7.303   2.802   4.593  1.2674 -0.9883 -0.8890
10635TIP3    H231863   7.452   2.782   4.571  1.8679 -1.2691  3.0777
10636TIP3   OH231864   8.105   2.531   5.917  0.0809  0.9733 -0.4702
10636TIP3    H131865   8.011   2.529   5.898 -0.4868  0.4069  2.1005
10636TIP3    H231866   8.122   2.447   5.960  1.5571  1.5050  0.0028
10637TIP3   OH231867   0.869   2.189   6.668  0.0439 -0.2205 -0.4755
10637TIP3    H131868   0.819   2.251   6.721 -0.3865  0.8961 -2.1495
10637TIP3    H231869   0.818   2.108   6.672  0.3284 -0.3390  1.2794
10638TIP3   OH231870   7.987   2.221   5.041  0.2276 -0.0920 -0.0883
10638TIP3    H131871   8.062   2.250   4.989 -0.4960 -2.6245 -2.6518
10638TIP3    H231872   7.911   2.241   4.986 -0.7544 -0.5112  1.1003
10639TIP3   OH231873   7.359   4.538   4.961  1.0719 -0.0438 -0.3558
10639TIP3    H131874   7.278   4.500   4.995 -0.4865  3.9629  0.7774
10639TIP3    H231875   7.429   4.490   5.005 -0.7969 -0.6323  2.0995
10640TIP3   OH231876   4.504   4.620   5.305 -0.3346 -0.2740 -0.5046
10640TIP3    H131877   4.531   4.711   5.322  2.0218 -0.8878 -0.8102
10640TIP3    H231878   4.410   4.626   5.289 -0.6604  1.7850  1.9216
10641TIP3   OH231879   8.151   2.727   6.304  0.1024 -0.0834 -0.0899
10641TIP3    H131880   8.134   2.711   6.396  0.1924 -1.9204 -0.3624
10641TIP3    H231881   8.228   2.673   6.284 -0.0734  0.0848 -1.2769
10642TIP3   OH231882   8.028   3.994   5.247  0.2155 -0.0597  0.4537
10642TIP3    H131883   8.072   3.934   5.307  0.6901 -0.6627 -0.4743
10642TIP3    H231884   7.989   3.936   5.180  0.3698  0.6457 -0.2512
10643TIP3   OH231885   7.546   1.877   4.805 -0.3744 -0.1452  0.1029
10643TIP3    H131886   7.518   1.786   4.801 -0.1359 -0.2881  1.6355
10643TIP3    H231887   7.637   1.873   4.833 -0.0444  0.5276 -0.8321
10644TIP3   OH231888   8.004   2.354   5.680 -0.5540 -0.3898  0.4348
10644TIP3    H131889   7.967   2.335   5.594  0.2740  1.1118 -0.2622
10644TIP3    H231890   8.033   2.269   5.713 -0.6679 -0.9362 -0.8524
10645TIP3   OH231891   1.376   7.324   0.713  0.0214 -0.3451 -0.1052
10645TIP3    H131892   1.308   7.330   0.781 -1.1337 -1.5140 -1.1308
10645TIP3    H231893   1.352   7.391   0.649  0.9651  0.5819  0.5010
10646TIP3   OH231894   5.515   0.906   0.008 -0.2799 -0.0206 -0.0448
10646TIP3    H131895   5.609   0.890   0.012 -0.1581  1.0620  1.6064
10646TIP3    H231896   5.477   0.842   0.067 -0.8657 -2.3931 -2.8865
10647TIP3   OH231897   5.562   4.896   6.509  0.2647 -0.2252  0.3541
10647TIP3    H131898   5.490   4.945   6.550  0.8937  1.0239 -0.0196
10647TIP3    H231899   5.519   4.827   6.459 -0.6903  0.6641 -0.0660
10648TIP3   OH231900   7.445   2.224   4.137  0.0332 -0.1110 -0.2444
10648TIP3    H131901   7.369   2.230   4.195 -0.3347  0.5175 -0.7842
10648TIP3    H231902   7.486   2.310   4.143  0.7126 -0.4569  0.0573
10649TIP3   OH231903   5.074   0.539   0.388  0.1900 -0.3684  0.1924
10649TIP3    H131904   4.992   0.517   0.431  0.3499 -0.9427  0.2052
10649TIP3    H231905   5.089   0.631   0.410 -0.1775 -0.4126  0.6240
10650TIP3   OH231906   0.273   5.342   6.074  0.6663  0.3269 -0.3028
10650TIP3    H131907   0.299   5.417   6.127 -0.2905  0.4283  0.0263
10650TIP3    H231908   0.191   5.368   6.034  1.5428  0.3735 -2.1126
10651TIP3   OH231909   3.744   7.164   0.554  0.3632 -0.4667 -0.1383
10651TIP3    H131910   3.712   7.253   0.539 -1.1767 -1.0216 -0.2705
10651TIP3    H231911   3.700   7.136   0.634  1.1576 -0.9552  0.1239
10652TIP3   OH231912   5.741   1.681   5.391  0.4548 -0.2685  0.0814
10652TIP3    H131913   5.676   1.704   5.325  0.9188 -2.2119 -1.0749
10652TIP3    H231914   5.804   1.754   5.390 -1.1856  1.1781  0.5730
10653TIP3   OH231915   6.589   2.489   4.332 -0.1512 -0.3406 -0.0181
10653TIP3    H131916   6.601   2.560   4.394 -0.5148  0.2630 -0.6332
10653TIP3    H231917   6.645   2.419   4.364  0.1006  0.1748  0.6639
10654TIP3   OH231918   6.968   3.259   3.276  0.1710  0.3879 -0.0707
10654TIP3    H131919   6.975   3.334   3.217  0.4644 -1.7828 -2.8897
10654TIP3    H231920   7.059   3.232   3.290  0.0759  0.6593  1.0799
10655TIP3   OH231921   6.457   4.696   6.772  0.0804  0.2767  0.0708
10655TIP3    H131922   6.427   4.627   6.830 -1.4195  0.9057  0.0505
10655TIP3    H231923   6.392   4.699   6.702  0.9235  0.7161 -0.7106
10656TIP3   OH231924   0.657   4.191   5.206 -0.0391  0.3215  0.7001
10656TIP3    H131925   0.696   4.244   5.276 -1.2976  0.6341  1.1791
10656TIP3    H231926   0.624   4.113   5.251 -2.4623  1.3463  0.7577
10657TIP3   OH231927   5.921   3.142   4.603  0.2429 -0.1276 -0.9510
10657TIP3    H131928   5.921   3.103   4.691  0.6358 -1.7559 -1.6615
10657TIP3    H231929   5.962   3.076   4.547 -1.3268  0.2807 -2.6355
10658TIP3   OH231930   7.368   4.695   5.256 -0.1557 -0.0984 -0.0556
10658TIP3    H131931   7.415   4.756   5.312 -0.0283 -1.5235  1.4140
10658TIP3    H231932   7.436   4.638   5.221 -0.6969 -1.8616  1.7002
10659TIP3   OH231933   7.615   2.564   5.329 -0.0885  0.1775  0.7049
10659TIP3    H131934   7.656   2.588   5.412 -0.1944 -0.9783  1.0918
10659TIP3    H231935   7.668   2.610   5.263 -0.1290  1.2613  1.4093
10660TIP3   OH231936   7.438   3.483   5.042 -0.7608 -0.3003  0.0815
10660TIP3    H131937   7.479   3.471   4.956 -1.2061  2.2076 -0.5130
10660TIP3    H231938   7.493   3.548   5.085 -0.7176 -1.3325  1.6127
10661TIP3   OH231939   5.180   1.287   4.853 -0.4867 -0.0102 -0.1445
10661TIP3    H131940   5.231   1.330   4.784 -1.8013  1.1595 -0.3924
10661TIP3    H231941   5.097   1.266   4.811 -0.7006 -0.7511  0.6415
10662TIP3   OH231942   7.927   2.624   3.781 -0.6054  0.1703  0.3635
10662TIP3    H131943   7.851   2.615   3.724  0.3414  0.3114 -0.9501
10662TIP3    H231944   8.001   2.631   3.721  0.5637 -0.9932  1.6221
10663TIP3   OH231945   1.203   7.722   0.398 -0.1678 -0.0280  0.4409
10663TIP3    H131946   1.126   7.688   0.354  0.6725 -1.9230  0.3953
10663TIP3    H231947   1.179   7.811   0.423 -1.6235  0.1410 -1.4125
10664TIP3   OH231948   5.783   3.077   4.332 -0.6454 -0.3358 -0.1812
10664TIP3    H131949   5.875   3.051   4.331 -0.7407 -0.6675 -0.2484
10664TIP3    H231950   5.776   3.139   4.405 -0.0817  0.7052 -0.9987
10665TIP3   OH231951   4.684   1.622   1.578  0.1610  0.2829 -0.2259
10665TIP3    H131952   4.759   1.642   1.522 -0.3435  1.7476 -0.4096
10665TIP3    H231953   4.650   1.708   1.603  0.6509 -0.3027  2.7034
10666TIP3   OH231954   6.276   3.430   3.729 -0.0875 -0.1559  0.6142
10666TIP3    H131955   6.254   3.416   3.637  0.5818 -1.6322  0.6572
10666TIP3    H231956   6.266   3.343   3.769 -2.5012  0.8914  2.3880
10667TIP3   OH231957   6.879   4.720   5.371  0.3518 -0.2641 -0.0948
10667TIP3    H131958   6.800   4.666   5.367  0.9564 -1.2707  1.2211
10667TIP3    H231959   6.849   4.805   5.403 -0.3269 -0.3601 -0.4630
10668TIP3   OH231960   8.042   2.607   5.285 -0.2433 -0.1067 -1.1587
10668TIP3    H131961   8.029   2.535   5.346 -0.8227 -1.2116 -2.5431
10668TIP3    H231962   8.122   2.651   5.315 -1.1443  0.0980  1.0504
10669TIP3   OH231963   6.405   6.180   5.048 -0.0398 -0.5171 -0.4125
10669TIP3    H131964   6.375   6.254   4.995 -0.2146 -0.2590  0.0397
10669TIP3    H231965   6.331   6.159   5.105  0.7324  0.3395  0.9387
10670TIP3   OH231966   0.783   2.597   6.187  0.2863 -0.4059  0.1217
10670TIP3    H131967   0.796   2.651   6.109  0.7987 -1.2634 -0.3826
10670TIP3    H231968   0.866   2.604   6.235 -0.3588  0.9036  1.0847
10671TIP3   OH231969   6.796   3.417   5.927 -0.7090  0.1830 -0.0409
10671TIP3    H131970   6.799   3.457   6.014 -0.3731  0.4120 -0.1571
10671TIP3    H231971   6.724   3.463   5.883 -1.1718 -0.2452  0.2678
10672TIP3   OH231972   0.931   6.426   1.058  0.8201 -0.0832  0.9957
10672TIP3    H131973   1.007   6.376   1.028  0.5689 -0.3093  0.7368
10672TIP3    H231974   0.962   6.517   1.061  0.1016  0.3754 -2.6314
10673TIP3   OH231975   1.127   6.964   1.489 -0.3279  0.8329 -0.1182
10673TIP3    H131976   1.176   7.045   1.476 -0.6568  1.4018  1.9348
10673TIP3    H231977   1.190   6.894   1.471 -0.0083  1.5477 -1.7909
10674TIP3   OH231978   6.996   2.554   6.418  0.6371 -0.1117 -0.1749
10674TIP3    H131979   6.925   2.590   6.364  1.2732 -0.1324 -1.0297
10674TIP3    H231980   6.951   2.505   6.486 -0.1691 -0.7464 -1.1480
10675TIP3   OH231981   8.280   2.676   5.398  0.4033 -0.4908 -0.0305
10675TIP3    H131982   8.307   2.741   5.332 -0.8166  1.5398  1.3988
10675TIP3    H231983   8.361   2.645   5.437  0.9564  1.2439  0.2284
10676TIP3   OH231984   6.657   1.901   6.471 -0.3385 -0.2790  0.0531
10676TIP3    H131985   6.650   1.911   6.566  1.2740 -1.3177  0.3036
10676TIP3    H231986   6.567   1.894   6.441 -0.8514 -0.3359  1.5520
10677TIP3   OH231987   0.069   4.145   5.313  0.3503  0.4074 -0.0943
10677TIP3    H131988   0.007   4.107   5.251 -1.1052  2.4948  0.0164
10677TIP3    H231989   0.033   4.125   5.399 -1.0153  2.8539 -0.0436
10678TIP3   OH231990   4.749   3.962   3.965  0.5314 -0.4318 -0.3849
10678TIP3    H131991   4.794   3.925   4.041 -0.0616 -0.0487  0.1581
10678TIP3    H231992   4.661   3.981   3.995  0.2072 -0.5241 -1.2514
10679TIP3   OH231993   6.863   1.457   4.534  0.2530  0.3650 -0.1584
10679TIP3    H131994   6.924   1.520   4.496  2.5290 -1.2244  0.7487
10679TIP3    H231995   6.806   1.431   4.462  0.9800  1.5049 -1.1459
10680TIP3   OH231996   0.892   4.629   0.378  0.5657 -0.0636 -0.4412
10680TIP3    H131997   0.979   4.655   0.348  1.6856 -2.1415  0.8161
10680TIP3    H231998   0.891   4.653   0.471 -0.0312 -0.4075 -0.3543
10681TIP3   OH231999   4.427   4.050   5.693  0.8995  0.2342  0.5897
10681TIP3    H132000   4.516   4.015   5.686  0.5284 -0.7205  0.5998
10681TIP3    H232001   4.370   3.978   5.667 -0.0203 -0.2296  3.7040
10682TIP3   OH232002   0.155   4.779   1.130 -0.3473 -0.1610  0.0297
10682TIP3    H132003   0.073   4.739   1.160  0.8805 -0.8346  2.6370
10682TIP3    H232004   0.186   4.720   1.061 -0.1304 -2.0553  1.7075
10683TIP3   OH232005   7.895   2.693   3.230  0.3088 -0.6408 -0.0977
10683TIP3    H132006   7.906   2.788   3.232 -0.8566 -0.4835 -0.5758
10683TIP3    H232007   7.984   2.658   3.227  0.7184  0.4656 -1.1712
10684TIP3   OH232008   6.398   2.343   5.116 -0.4775 -0.2031 -0.3070
10684TIP3    H132009   6.424   2.435   5.109  0.4981 -0.4785 -0.4045
10684TIP3    H232010   6.472   2.294   5.080 -1.3964 -0.9860 -1.1527
10685TIP3   OH232011   4.929   1.691   5.994  0.0922  0.3721 -0.1936
10685TIP3    H132012   4.902   1.613   5.945  1.8658 -0.5278  0.1903
10685TIP3    H232013   5.004   1.725   5.945 -1.7397  2.9068 -1.3347
10686TIP3   OH232014   7.111   2.952   6.963 -0.2549  0.1342 -0.8811
10686TIP3    H132015   7.098   2.869   6.918 -0.7281  0.3472 -1.1327
10686TIP3    H232016   7.041   3.008   6.932 -0.2464  0.4644 -0.3096
10687TIP3   OH232017   5.962   3.439   4.862  0.2056  0.1652  0.4597
10687TIP3    H132018   5.940   3.436   4.769 -2.7660 -1.6341  1.1360
10687TIP3    H232019   6.037   3.498   4.867 -0.9661  2.0780 -2.7937
10688TIP3   OH232020   7.954   5.193   2.054 -0.0626  0.4563  0.1063
10688TIP3    H132021   7.865   5.163   2.076  0.8056 -0.2212  2.9611
10688TIP3    H232022   8.007   5.166   2.129  2.3291  1.9809 -0.9828
10689TIP3   OH232023   5.504   3.331   3.738  0.2798  0.0759  0.2276
10689TIP3    H132024   5.581   3.387   3.728  0.0682  0.5214  1.0256
10689TIP3    H232025   5.536   3.243   3.716  0.9823  0.2817  0.3997
10690TIP3   OH232026   7.388   1.156   5.285  0.4171 -0.4598  0.2001
10690TIP3    H132027   7.384   1.215   5.360 -0.9650  0.6040 -0.6736
10690TIP3    H232028   7.451   1.198   5.226  0.9492 -0.9055  0.4594
10691TIP3   OH232029   4.575   2.051   5.503  0.4385  0.0083 -0.3156
10691TIP3    H132030   4.484   2.069   5.523  0.4263  0.1635 -0.5143
10691TIP3    H232031   4.624   2.115   5.554  0.4245  0.1240 -0.4475
10692TIP3   OH232032   6.663   2.816   6.576 -0.0289 -0.0167 -0.2749
10692TIP3    H132033   6.568   2.805   6.569 -0.4634  1.0802  3.1744
10692TIP3    H232034   6.689   2.848   6.489 -2.8196 -0.1428 -1.2204
10693TIP3   OH232035   5.879   3.246   3.666 -0.0156  0.7367 -0.3574
10693TIP3    H132036   5.900   3.212   3.580 -0.2361 -0.2409 -0.0252
10693TIP3    H232037   5.880   3.341   3.655  0.3808  0.6234 -1.3304
10694TIP3   OH232038   6.616   4.434   5.656  0.2737  0.0921 -0.0855
10694TIP3    H132039   6.578   4.356   5.695 -0.3824  0.4010 -0.1001
10694TIP3    H232040   6.642   4.488   5.731  0.9138 -0.2195 -0.0734
10695TIP3   OH232041   4.577   2.169   5.775  0.7473  0.0228 -0.0318
10695TIP3    H132042   4.481   2.174   5.782  0.7751  1.0032 -0.1838
10695TIP3    H232043   4.603   2.100   5.835  0.0028  0.2650  0.5683
10696TIP3   OH232044   7.255   1.849   3.876  0.1844  0.3761  0.5249
10696TIP3    H132045   7.176   1.883   3.919 -0.8236  1.2724 -1.9250
10696TIP3    H232046   7.312   1.926   3.868 -0.2348  0.5435 -0.9915
10697TIP3   OH232047   6.331   1.448   2.668 -0.2791  0.3417 -0.3442
10697TIP3    H132048   6.299   1.450   2.758  1.6506 -0.6777  0.4039
10697TIP3    H232049   6.378   1.531   2.658  0.9365 -0.2696  0.1647
10698TIP3   OH232050   2.799   4.782   0.879  0.1624  0.0019 -0.6636
10698TIP3    H132051   2.748   4.750   0.805 -0.5076  0.3163 -0.3424
10698TIP3    H232052   2.806   4.876   0.865  1.0402 -0.0956 -0.9379
10699TIP3   OH232053   7.276   3.124   5.971  0.3638  0.1820 -0.1753
10699TIP3    H132054   7.320   3.208   5.979  2.2703 -0.8586  0.6308
10699TIP3    H232055   7.327   3.077   5.904 -0.4564 -0.4636 -0.3541
10700TIP3   OH232056   0.503   2.502   6.400 -0.5959 -0.4172  0.5530
10700TIP3    H132057   0.548   2.421   6.378 -0.7480  0.2548 -2.3448
10700TIP3    H232058   0.411   2.483   6.385 -0.3821  1.1400 -3.0130
10701TIP3   OH232059   7.042   3.494   6.842 -0.1907  0.3506  0.1957
10701TIP3    H132060   7.081   3.410   6.864 -0.1418 -0.0639 -1.3975
10701TIP3    H232061   7.116   3.554   6.833 -0.0718  0.0784 -0.6729
10702TIP3   OH232062   8.214   2.309   3.690 -0.2312  0.3005 -0.5470
10702TIP3    H132063   8.162   2.309   3.610 -1.9936 -0.6721  0.5739
10702TIP3    H232064   8.285   2.247   3.673 -2.3537 -2.2996 -0.2865
10703TIP3   OH232065   7.002   5.029   0.772 -0.0207  0.0945 -0.1489
10703TIP3    H132066   7.004   5.114   0.816 -0.5466 -0.2597  0.5759
10703TIP3    H232067   7.089   4.993   0.786  0.0207  0.2646  0.0404
10704TIP3   OH232068   1.076   4.005   1.359 -0.0089 -0.2461  0.4686
10704TIP3    H132069   1.126   3.935   1.400  0.1761  0.4294  1.4261
10704TIP3    H232070   1.028   3.963   1.288  1.1505 -1.0818  0.1710
10705TIP3   OH232071   4.851   0.748   0.598  0.0100 -0.0237  0.4816
10705TIP3    H132072   4.868   0.832   0.556 -0.6337 -1.1710 -2.1580
10705TIP3    H232073   4.755   0.739   0.596 -0.0522 -0.1013  2.2682
10706TIP3   OH232074   6.621   2.184   6.311  0.1567  0.0782 -0.2694
10706TIP3    H132075   6.640   2.244   6.239 -2.0978  3.0282  1.4522
10706TIP3    H232076   6.575   2.110   6.269 -1.1822  1.7647 -1.8837
10707TIP3   OH232077   7.184   4.860   6.010  0.2205  0.0251 -0.2299
10707TIP3    H132078   7.243   4.934   5.996 -0.3084  1.0941  2.7765
10707TIP3    H232079   7.148   4.875   6.098 -2.3490 -2.1074 -0.8724
10708TIP3   OH232080   5.458   4.461   6.157  0.0012  0.1379  0.5929
10708TIP3    H132081   5.400   4.387   6.142  0.2777  0.0591 -0.1142
10708TIP3    H232082   5.435   4.524   6.089 -1.3236  1.3850  2.1472
10709TIP3   OH232083   1.684   7.561   0.147 -0.3644  0.2692  0.0628
10709TIP3    H132084   1.715   7.560   0.238 -1.1507 -0.5805  0.3268
10709TIP3    H232085   1.589   7.572   0.154 -0.5304 -0.6609 -0.6200
10710TIP3   OH232086   7.195   4.521   5.829 -0.1043  0.2613 -0.0407
10710TIP3    H132087   7.135   4.501   5.902  0.2311 -0.3513  0.0688
10710TIP3    H232088   7.140   4.516   5.751 -0.4808  0.9821  0.1762
10711TIP3   OH232089   6.876   2.723   4.467 -0.1400  0.5364 -0.0904
10711TIP3    H132090   6.874   2.775   4.387 -0.1390  0.6355 -0.0259
10711TIP3    H232091   6.796   2.670   4.464 -0.1040  0.4866 -0.1911
10712TIP3   OH232092   5.006   2.249   5.485 -0.3716  0.1600 -0.1880
10712TIP3    H132093   5.027   2.291   5.401 -0.1350  0.1792 -0.1197
10712TIP3    H232094   5.060   2.296   5.549  0.5636 -0.8374 -0.2341
10713TIP3   OH232095   3.852   0.498   1.059 -0.5226 -0.3299 -0.0628
10713TIP3    H132096   3.758   0.504   1.079 -1.0552 -0.4611 -2.3263
10713TIP3    H232097   3.877   0.588   1.039  0.9736  0.5210  4.9529
10714TIP3   OH232098   8.249   2.771   4.006  0.0282  0.0876  0.0543
10714TIP3    H132099   8.333   2.731   4.028  1.3299  1.9372 -1.3964
10714TIP3    H232100   8.211   2.712   3.941  1.0743  0.2254 -0.6894
10715TIP3   OH232101   6.595   3.366   6.762  0.7809  0.1401 -0.0613
10715TIP3    H132102   6.650   3.429   6.715  1.1501 -0.4221 -0.3857
10715TIP3    H232103   6.516   3.359   6.710  1.4273 -0.9194 -0.9176
10716TIP3   OH232104   6.336   4.029   2.810 -0.1321 -0.6045 -0.8651
10716TIP3    H132105   6.357   4.005   2.900  1.5084  1.8502 -0.5492
10716TIP3    H232106   6.247   4.064   2.816 -0.5972 -1.8355 -0.4664
10717TIP3   OH232107   2.726   7.271   0.446 -0.8401  0.1084  0.1315
10717TIP3    H132108   2.714   7.346   0.388 -2.0637 -0.3401 -0.2102
10717TIP3    H232109   2.698   7.196   0.395  1.3122 -0.7340  0.1186
10718TIP3   OH232110   6.622   3.295   6.408 -0.4079 -0.1422  0.7396
10718TIP3    H132111   6.620   3.203   6.382 -1.9234 -0.7186  2.8489
10718TIP3    H232112   6.540   3.309   6.454  0.1360  2.0964  1.0594
10719TIP3   OH232113   7.954   3.378   6.048 -0.1311  0.3029  0.5471
10719TIP3    H132114   8.023   3.316   6.071  0.1544  1.0347  1.7829
10719TIP3    H232115   7.959   3.445   6.117 -0.5102  1.6198 -0.6666
10720TIP3   OH232116   7.421   2.672   4.953  0.5103 -0.0663 -0.0685
10720TIP3    H132117   7.386   2.681   4.865  1.3377  0.2999 -0.3608
10720TIP3    H232118   7.442   2.761   4.981  1.8829 -0.3481 -0.1759
10721TIP3   OH232119   6.237   3.160   6.474  0.0707  0.0119  0.0977
10721TIP3    H132120   6.142   3.163   6.466 -0.0602  1.9166  1.7460
10721TIP3    H232121   6.269   3.154   6.384 -1.5819  1.1138 -0.5912
10722TIP3   OH232122   6.429   4.210   3.632  0.2393 -0.1483 -0.1771
10722TIP3    H132123   6.360   4.156   3.671 -0.4831 -0.2680 -1.5995
10722TIP3    H232124   6.383   4.265   3.569  0.9569  2.2173  1.3094
10723TIP3   OH232125   4.867   3.508   3.717 -0.0424 -0.5452 -0.2373
10723TIP3    H132126   4.933   3.442   3.696 -0.0102 -1.0940  1.4752
10723TIP3    H232127   4.904   3.590   3.685  1.3927 -0.8801  0.5122
10724TIP3   OH232128   0.610   2.847   3.492 -0.2388  0.7079  0.7408
10724TIP3    H132129   0.550   2.895   3.549 -0.7401  0.9407  0.0235
10724TIP3    H232130   0.567   2.847   3.406  0.6789  0.6785  0.2742
10725TIP3   OH232131   7.714   1.250   6.759  0.4828 -0.0219 -0.3630
10725TIP3    H132132   7.689   1.279   6.847 -0.4411 -0.1746 -0.5761
10725TIP3    H232133   7.670   1.311   6.700 -0.3934 -1.0309 -0.7756
10726TIP3   OH232134   0.018   2.001   5.626 -0.4489 -0.5242 -0.0312
10726TIP3    H132135  -0.045   1.931   5.642  0.2205 -0.8578  1.2170
10726TIP3    H232136   0.037   2.037   5.712  1.3623 -0.6974 -0.3286
10727TIP3   OH232137   6.119   4.989   3.708 -0.3509 -0.2279  0.2519
10727TIP3    H132138   6.212   4.967   3.704 -0.0172  1.2354 -0.5054
10727TIP3    H232139   6.077   4.911   3.744  1.0001 -1.3947 -0.6654
10728TIP3   OH232140   8.042   1.331   5.331  0.2611  0.1463 -0.4114
10728TIP3    H132141   8.109   1.264   5.315  0.2072  0.3920 -1.6718
10728TIP3    H232142   8.036   1.335   5.426 -0.0666 -1.9873 -0.3074
10729TIP3   OH232143   7.211   4.778   6.808 -0.0461 -0.6376  0.5808
10729TIP3    H132144   7.124   4.817   6.819 -0.1159 -0.1714 -1.4891
10729TIP3    H232145   7.272   4.850   6.826 -0.0964 -0.6916  0.9784
10730TIP3   OH232146   0.552   2.605   5.141 -0.1945  0.2415  0.0229
10730TIP3    H132147   0.493   2.603   5.216  0.8021 -1.4128  0.7952
10730TIP3    H232148   0.638   2.625   5.178  0.0735  0.7635 -0.8564
10731TIP3   OH232149   6.344   3.956   5.688  0.1008  0.6879 -0.3385
10731TIP3    H132150   6.300   4.029   5.731  0.4296  0.9888 -0.5041
10731TIP3    H232151   6.374   3.993   5.605  0.6591  0.4896 -0.2249
10732TIP3   OH232152   5.649   3.143   4.104 -0.0920  0.2173 -0.0458
10732TIP3    H132153   5.713   3.112   4.168 -0.6305 -0.3361  0.2320
10732TIP3    H232154   5.688   3.123   4.019 -0.1723 -0.7094  0.1288
10733TIP3   OH232155   8.438   2.877   6.900 -0.1065  0.2716 -0.4653
10733TIP3    H132156   8.439   2.969   6.871 -0.8306 -0.1028 -1.6747
10733TIP3    H232157   8.424   2.827   6.820  4.3525 -1.1510 -0.4917
10734TIP3   OH232158   3.726   6.960   0.941 -0.2863  0.6502 -0.8415
10734TIP3    H132159   3.714   6.906   0.863 -1.4321  1.8334 -1.5014
10734TIP3    H232160   3.703   7.049   0.913 -0.6823  1.0938  0.8405
10735TIP3   OH232161   7.107   2.546   4.749  0.3192  0.4583  0.6907
10735TIP3    H132162   7.112   2.572   4.841 -1.0211  0.9488  0.6466
10735TIP3    H232163   7.179   2.485   4.736 -0.9147 -1.4651  2.6805
10736TIP3   OH232164   7.436   3.017   3.974 -0.0348  0.2260 -0.0277
10736TIP3    H132165   7.397   2.939   4.013  0.0844 -0.1960 -0.7333
10736TIP3    H232166   7.439   2.998   3.880  1.5764  0.3726 -0.0217
10737TIP3   OH232167   6.782   3.563   6.696 -0.1848 -0.4640  0.1455
10737TIP3    H132168   6.863   3.569   6.747  0.9313 -0.3299 -1.5607
10737TIP3    H232169   6.784   3.642   6.641 -1.4127 -0.5355  0.0006
10738TIP3   OH232170   6.959   0.733   6.760 -0.1172 -0.0046 -0.1608
10738TIP3    H132171   6.994   0.812   6.718  2.6419 -0.6411  0.8284
10738TIP3    H232172   6.943   0.673   6.687  2.4910 -0.2831 -0.5469
10739TIP3   OH232173   6.201   4.160   5.784 -0.5323  0.3043 -0.3328
10739TIP3    H132174   6.183   4.229   5.721 -0.5404 -0.1980 -0.8902
10739TIP3    H232175   6.115   4.132   5.815 -0.5370  0.4277 -0.2389
10740TIP3   OH232176   8.015   4.880   6.196 -0.0493  0.1032  0.0909
10740TIP3    H132177   8.019   4.897   6.101  0.8674 -1.0380 -0.0845
10740TIP3    H232178   7.990   4.964   6.234 -1.0157  0.4252 -1.2183
10741TIP3   OH232179   7.469   4.018   6.943  0.2175 -0.2990  0.4063
10741TIP3    H132180   7.451   4.035   6.850  1.1097 -2.1636 -0.1400
10741TIP3    H232181   7.456   4.103   6.986 -1.3859  0.3160 -1.2306
10742TIP3   OH232182   1.577   2.718   5.021 -0.2555 -0.1471 -0.2057
10742TIP3    H132183   1.532   2.641   5.055 -0.2114 -0.2920 -0.4714
10742TIP3    H232184   1.507   2.780   5.002 -0.4044 -0.6331 -1.2761
10743TIP3   OH232185   5.721   0.066   0.474 -0.1191 -0.1137 -0.1456
10743TIP3    H132186   5.749   0.135   0.534  0.4853  0.2540 -0.8357
10743TIP3    H232187   5.799   0.012   0.461 -0.7862 -1.3975  0.9951
10744TIP3   OH232188   6.629   4.707   6.233 -0.3418  0.1332  0.2439
10744TIP3    H132189   6.697   4.733   6.171  0.1892  1.6490  1.4405
10744TIP3    H232190   6.671   4.714   6.319 -1.3387 -1.0867  0.8536
10745TIP3   OH232191   4.908   1.425   0.862 -0.3910 -0.4145  0.2771
10745TIP3    H132192   4.923   1.372   0.784 -1.2292 -0.4614  0.1456
10745TIP3    H232193   4.876   1.509   0.828  1.5712  0.4331  0.4417
10746TIP3   OH232194   6.010   4.060   4.375 -0.3169 -0.0040  0.0746
10746TIP3    H132195   6.085   4.021   4.420  0.7316 -0.5049 -2.0536
10746TIP3    H232196   5.945   3.990   4.371 -0.4184  0.0465  0.8094
10747TIP3   OH232197   6.118   3.067   5.585  0.2920 -0.3060 -0.0074
10747TIP3    H132198   6.154   3.125   5.518  2.1914  0.0274  1.2728
10747TIP3    H232199   6.130   2.979   5.550 -1.4150 -0.0113 -1.3855
10748TIP3   OH232200   7.504   3.095   4.645 -0.6665  0.2792  0.2171
10748TIP3    H132201   7.462   3.011   4.662 -2.1323  0.3948 -2.4792
10748TIP3    H232202   7.597   3.073   4.634 -1.0240 -0.9958 -0.4106
10749TIP3   OH232203   1.113   6.536   0.756 -0.5558  0.5226 -0.0915
10749TIP3    H132204   1.121   6.610   0.696  1.7150  0.5751  0.2311
10749TIP3    H232205   1.126   6.574   0.843  1.0936 -0.2930  0.0405
10750TIP3   OH232206   7.818   2.901   6.851 -0.4624 -0.6662  0.1349
10750TIP3    H132207   7.753   2.970   6.865  0.8274  0.6658 -0.2095
10750TIP3    H232208   7.838   2.868   6.938  0.3985  0.8290  0.5191
10751TIP3   OH232209   6.235   5.808   5.217 -0.5767  0.5204 -0.5810
10751TIP3    H132210   6.315   5.791   5.266  0.0798 -0.9923 -2.0967
10751TIP3    H232211   6.165   5.775   5.272  0.1667 -1.3495 -0.7268
10752TIP3   OH232212   7.147   1.857   5.349  0.0896 -0.0856  0.1107
10752TIP3    H132213   7.105   1.943   5.359  0.2211 -0.1315  1.0463
10752TIP3    H232214   7.177   1.834   5.437 -2.7540 -2.5311  0.5071
10753TIP3   OH232215   7.132   3.414   4.322  0.1248  0.1087 -0.3014
10753TIP3    H132216   7.066   3.411   4.252  0.2366 -1.2862 -0.3582
10753TIP3    H232217   7.211   3.375   4.282 -0.2254 -2.0498  1.0229
10754TIP3   OH232218   1.979   7.624   1.038 -0.3663  0.0904  0.1597
10754TIP3    H132219   1.960   7.693   1.102 -0.2030  1.4200 -1.2164
10754TIP3    H232220   1.894   7.588   1.015 -0.5035  0.2910  0.3524
10755TIP3   OH232221   0.133   1.995   3.705  0.0247  0.0395 -0.1181
10755TIP3    H132222   0.148   2.089   3.702  1.1638 -0.1276  0.1982
10755TIP3    H232223   0.044   1.986   3.740  1.0266  0.9437  2.8474
10756TIP3   OH232224   1.713   6.878   1.040 -0.2138  0.0952  0.2510
10756TIP3    H132225   1.797   6.924   1.032  0.6075 -1.1366  1.6074
10756TIP3    H232226   1.724   6.799   0.987 -1.3076  0.9750 -1.3369
10757TIP3   OH232227   7.734   5.028   5.219  0.9522  0.0815  0.2285
10757TIP3    H132228   7.773   5.086   5.154  0.6775  1.3215  1.1410
10757TIP3    H232229   7.775   5.054   5.302  0.4889 -0.7204  0.7180
10758TIP3   OH232230   3.942   0.979   0.350  0.2845  0.2679 -0.5058
10758TIP3    H132231   3.852   0.990   0.320  0.1528  1.1481  0.1806
10758TIP3    H232232   3.971   0.897   0.310  0.4474  1.8300 -3.7610
10759TIP3   OH232233   1.177   6.355   1.773 -0.5489  0.0823 -0.6539
10759TIP3    H132234   1.192   6.288   1.707  1.7279  2.3537 -2.5451
10759TIP3    H232235   1.259   6.360   1.823  0.0752  2.7351 -1.8202
10760TIP3   OH232236   1.239   6.711   0.194  0.0126 -0.0069  0.1238
10760TIP3    H132237   1.244   6.797   0.234 -0.4278 -0.5403  1.3393
10760TIP3    H232238   1.258   6.649   0.265  1.8807 -0.8688 -1.0647
10761TIP3   OH232239   0.280   5.263   0.724 -0.5271  0.3106 -0.4040
10761TIP3    H132240   0.282   5.237   0.631  1.9971  0.3224 -0.3796
10761TIP3    H232241   0.295   5.358   0.722 -0.0059  0.2384  0.0289
10762TIP3   OH232242   7.650   3.080   6.650 -0.3863  0.0232  0.0601
10762TIP3    H132243   7.645   3.084   6.745 -2.8751 -2.4081  0.0858
10762TIP3    H232244   7.560   3.094   6.620  0.0570 -0.9373 -1.8352
10763TIP3   OH232245   1.026   5.706   1.198  0.0219  0.1121 -0.0148
10763TIP3    H132246   1.063   5.713   1.110 -1.1253 -0.3550 -0.5486
10763TIP3    H232247   1.045   5.616   1.225 -0.3138  0.0143 -0.1026
10764TIP3   OH232248   6.871   2.733   6.690 -0.0840 -0.1958  0.5483
10764TIP3    H132249   6.783   2.743   6.655  0.4025 -0.0105 -0.6591
10764TIP3    H232250   6.905   2.653   6.648  0.4871 -0.0063  0.6352
10765TIP3   OH232251   0.211   5.863   1.780 -0.1212  0.5083  0.0109
10765TIP3    H132252   0.121   5.890   1.801 -0.1387  1.0411 -0.7670
10765TIP3    H232253   0.265   5.936   1.808  0.1511 -0.1221  1.1821
10766TIP3   OH232254   1.748   4.357   0.983 -0.8463 -0.3418  0.5438
10766TIP3    H132255   1.658   4.341   0.955 -2.0961  1.1964  3.4840
10766TIP3    H232256   1.772   4.440   0.942 -0.9434 -0.5242  0.1220
10767TIP3   OH232257   6.383   2.711   6.623 -0.1411  0.2859  0.5004
10767TIP3    H132258   6.293   2.728   6.596  0.5528  3.1637 -0.2063
10767TIP3    H232259   6.382   2.724   6.718 -0.5991 -0.3579  0.5879
10768TIP3   OH232260   0.583   5.269   1.793 -0.4608 -0.5587  0.1081
10768TIP3    H132261   0.489   5.264   1.804 -0.3903  1.3518  1.9759
10768TIP3    H232262   0.596   5.318   1.712 -1.0863  0.5350  0.6676
10769TIP3   OH232263   7.934   7.589   0.213 -0.4279  0.0575 -0.0488
10769TIP3    H132264   8.028   7.589   0.199 -0.3663 -0.9509  0.3223
10769TIP3    H232265   7.899   7.646   0.144  0.3465 -0.5226 -0.9299
10770TIP3   OH232266   5.014   1.787   4.187 -0.0361  0.0924 -0.2492
10770TIP3    H132267   4.975   1.703   4.213  1.0534 -0.2941  0.1754
10770TIP3    H232268   5.077   1.762   4.119 -0.5141  0.7117 -0.9274
10771TIP3   OH232269   7.030   4.310   4.870  0.0354 -0.2261 -0.0945
10771TIP3    H132270   7.008   4.242   4.933 -0.9728 -0.0067 -0.1975
10771TIP3    H232271   6.974   4.384   4.894  1.1822  0.5975  0.0741
10772TIP3   OH232272   5.466   1.936   3.156 -0.1871 -0.2195  0.0074
10772TIP3    H132273   5.373   1.934   3.130 -0.8418  2.3099  2.0482
10772TIP3    H232274   5.477   1.858   3.210 -1.1790 -0.4228 -0.0695
10773TIP3   OH232275   4.008   7.206   0.967 -0.0700  0.1074  0.6986
10773TIP3    H132276   3.951   7.241   1.037  0.2705 -0.1080  1.0867
10773TIP3    H232277   3.996   7.267   0.894 -0.2045  0.5040  1.0480
10774TIP3   OH232278   8.188   4.599   5.731 -0.1950  0.2809 -0.3085
10774TIP3    H132279   8.256   4.667   5.736  1.2944 -1.1795 -0.3154
10774TIP3    H232280   8.159   4.601   5.640  0.6220  0.1596 -0.5737
10775TIP3   OH232281   1.852   5.231   0.990 -0.3503  0.2402  0.4370
10775TIP3    H132282   1.885   5.146   0.962  0.4757  0.4435  0.7863
10775TIP3    H232283   1.872   5.236   1.083 -0.2759  0.8704  0.3941
10776TIP3   OH232284   7.924   3.624   6.185 -0.4019  0.4736  0.6759
10776TIP3    H132285   7.849   3.652   6.131  0.2386  1.1402  0.1262
10776TIP3    H232286   7.894   3.635   6.275 -0.4340  2.2308  0.4696
10777TIP3   OH232287   6.786   4.276   6.051  0.0072 -0.4471 -0.1612
10777TIP3    H132288   6.754   4.209   5.990 -0.3933  0.8409 -1.3656
10777TIP3    H232289   6.714   4.339   6.058  0.4268 -0.0768  0.8919
10778TIP3   OH232290   6.780   2.099   6.068 -0.2394 -0.7210  0.1133
10778TIP3    H132291   6.844   2.097   6.140  0.2967 -0.2088 -0.3403
10778TIP3    H232292   6.776   2.009   6.037  1.4351 -0.4774 -0.8628
10779TIP3   OH232293   8.100   5.964   6.514 -0.0696 -0.1273  0.5385
10779TIP3    H132294   8.121   5.938   6.604  1.2744 -0.1578  0.2353
10779TIP3    H232295   8.076   6.056   6.520  0.2595 -0.0644  0.8954
10780TIP3   OH232296   0.879   2.317   5.895 -0.1664  0.2411  0.1180
10780TIP3    H132297   0.821   2.241   5.906  0.1854 -0.0586 -0.0617
10780TIP3    H232298   0.823   2.393   5.908 -0.7478 -0.0391 -0.6988
10781TIP3   OH232299   6.800   1.209   5.702  0.0360  0.4317  0.2792
10781TIP3    H132300   6.781   1.300   5.725 -1.5231  0.1898  0.0160
10781TIP3    H232301   6.730   1.184   5.642  1.6718 -0.2705 -1.4139
10782TIP3   OH232302   7.271   6.817   6.290  0.5357  0.0717  0.9596
10782TIP3    H132303   7.358   6.805   6.253  0.0491 -0.3026 -0.0647
10782TIP3    H232304   7.258   6.912   6.290  0.6117  0.0811  0.3507
10783TIP3   OH232305   8.077   1.782   6.236  0.5002 -0.1896  0.6618
10783TIP3    H132306   8.123   1.825   6.308  1.6929  0.5821 -0.5577
10783TIP3    H232307   8.145   1.755   6.175 -0.6467  1.3448 -1.3754
10784TIP3   OH232308   0.449   3.440   5.053  0.2183 -0.3653 -0.0264
10784TIP3    H132309   0.489   3.518   5.093  1.3443 -1.2093  0.5383
10784TIP3    H232310   0.403   3.397   5.125  0.9458 -1.0592  0.0395
10785TIP3   OH232311   7.347   3.766   6.878 -0.7185  0.3490 -0.1491
10785TIP3    H132312   7.359   3.702   6.948 -0.9748 -0.6168 -0.9704
10785TIP3    H232313   7.422   3.825   6.885  0.9394 -1.6009 -1.0252
10786TIP3   OH232314   8.050   0.513   3.633  0.1216 -0.6312  0.0700
10786TIP3    H132315   8.015   0.601   3.631 -0.6201 -0.9049  0.7433
10786TIP3    H232316   8.105   0.507   3.555 -0.8427 -0.0015 -0.6720
10787TIP3   OH232317   8.293   3.654   6.386  0.3191  0.4339 -0.4198
10787TIP3    H132318   8.357   3.688   6.323  1.2264 -0.2597  0.1087
10787TIP3    H232319   8.312   3.701   6.467  0.0566  0.3267 -0.2964
10788TIP3   OH232320   8.355   1.718   6.770 -0.2874 -0.2389  0.3341
10788TIP3    H132321   8.345   1.752   6.859  0.1322 -0.0750  0.3204
10788TIP3    H232322   8.404   1.636   6.781  0.4482  0.1760  0.1856
10789TIP3   OH232323   1.956   7.106  -0.005 -0.2929  0.5739  0.8259
10789TIP3    H132324   1.950   7.189   0.042 -0.7755 -0.6593  2.9754
10789TIP3    H232325   1.871   7.064   0.007  1.6289 -2.6473  4.4463
10790TIP3   OH232326   8.188   5.873   0.149  0.1233  0.1712 -0.1301
10790TIP3    H132327   8.242   5.823   0.088 -0.3685 -0.5513  0.0207
10790TIP3    H232328   8.194   5.824   0.231  2.1226  2.0414  0.8715
10791TIP3   OH232329   5.590   3.613   5.081  0.3809 -0.0724  0.1031
10791TIP3    H132330   5.683   3.622   5.060  0.7260  0.6238  1.7865
10791TIP3    H232331   5.588   3.617   5.177 -1.1771 -2.2470  0.1705
10792TIP3   OH232332   7.053   1.831   5.652  0.0374  0.2025  0.2423
10792TIP3    H132333   7.028   1.911   5.698 -0.2317  0.1479  0.1895
10792TIP3    H232334   7.146   1.819   5.673 -0.1525  0.0288  0.9860
10793TIP3   OH232335   5.382   4.072   4.515 -0.0329  0.1288 -0.0920
10793TIP3    H132336   5.369   4.165   4.535  0.9612  0.1746  0.3713
10793TIP3    H232337   5.435   4.040   4.588 -0.7504 -0.9046 -0.0252
10794TIP3   OH232338   3.284   2.464   4.293 -0.2656 -0.2974  1.0236
10794TIP3    H132339   3.208   2.520   4.303  0.8854  1.3818  0.4849
10794TIP3    H232340   3.265   2.411   4.215  1.0181  3.3298 -1.9303
10795TIP3   OH232341   8.275   3.938   4.140  0.4446  0.4818 -0.1033
10795TIP3    H132342   8.225   3.998   4.195 -0.5356 -0.4112  0.0005
10795TIP3    H232343   8.345   3.992   4.103 -0.2398  1.6119  0.2195
10796TIP3   OH232344   7.760   1.252   4.755  0.4592 -0.6380 -0.1742
10796TIP3    H132345   7.822   1.324   4.761 -1.0194  0.6477 -0.0787
10796TIP3    H232346   7.814   1.175   4.736  1.9945  0.5801 -0.8109
10797TIP3   OH232347   6.855   1.972   2.292 -0.2252 -0.0416 -0.2339
10797TIP3    H132348   6.779   1.930   2.252 -0.3328  0.4213 -0.5122
10797TIP3    H232349   6.906   2.006   2.218 -0.6060  1.1317  0.0382
10798TIP3   OH232350   7.127   3.813   4.444 -0.0625 -0.1670  0.2700
10798TIP3    H132351   7.144   3.792   4.536  0.3517  0.6329  0.3791
10798TIP3    H232352   7.032   3.802   4.435 -0.1404 -0.0233  0.8571
10799TIP3   OH232353   0.742   6.303   0.660  0.3210 -0.1044 -0.2347
10799TIP3    H132354   0.837   6.293   0.664  0.5358  1.6172 -0.2909
10799TIP3    H232355   0.713   6.299   0.751  0.4500 -0.6882 -0.2235
10800TIP3   OH232356   5.989   4.488   5.407  0.4688  0.1927 -0.6895
10800TIP3    H132357   6.071   4.440   5.393 -0.3662 -1.2620 -0.6900
10800TIP3    H232358   5.922   4.435   5.364 -0.5474  1.1482 -0.3141
10801TIP3   OH232359   6.666   2.481   3.847  0.0989 -0.4693 -0.2935
10801TIP3    H132360   6.610   2.484   3.924 -2.0488 -0.2860 -1.8136
10801TIP3    H232361   6.735   2.419   3.870 -0.6373 -0.5836  1.6863
10802TIP3   OH232362   7.354   3.825   6.082  0.0067  0.0496 -0.3092
10802TIP3    H132363   7.310   3.859   6.003 -3.4327 -1.9632  0.6017
10802TIP3    H232364   7.400   3.747   6.051  1.3543  1.0757 -0.9192
10803TIP3   OH232365   6.153   6.231   5.927  0.1453  0.1686  0.1346
10803TIP3    H132366   6.173   6.221   5.833 -0.3535  0.3020  0.0161
10803TIP3    H232367   6.166   6.324   5.944 -1.3741  0.4399 -0.1716
10804TIP3   OH232368   0.694   7.028   0.522  0.0425 -0.0106 -0.3494
10804TIP3    H132369   0.693   6.950   0.466 -0.6850 -0.0245 -0.3170
10804TIP3    H232370   0.673   6.995   0.609  1.7100 -0.0691  0.0505
10805TIP3   OH232371   4.299   4.130   5.224  0.3247 -0.2487  0.2415
10805TIP3    H132372   4.282   4.149   5.316  1.4162 -0.3175  0.4664
10805TIP3    H232373   4.345   4.207   5.192 -1.9913  0.7207 -0.8312
10806TIP3   OH232374   5.341   4.824   5.663 -0.5156 -0.0675  0.8761
10806TIP3    H132375   5.274   4.757   5.649  1.5574 -2.3811  1.7870
10806TIP3    H232376   5.418   4.776   5.691  1.3808  2.6172  0.4634
10807TIP3   OH232377   5.838   3.274   6.066 -0.7831  0.7187 -0.0672
10807TIP3    H132378   5.920   3.322   6.078 -0.9057  0.6628  1.0561
10807TIP3    H232379   5.783   3.302   6.139 -1.0713 -0.6990  0.2779
10808TIP3   OH232380   3.272   1.835   1.191  0.0144 -0.1073 -0.8899
10808TIP3    H132381   3.255   1.776   1.117  0.6211 -0.7049 -0.5614
10808TIP3    H232382   3.353   1.879   1.167 -0.4045  0.5488 -1.1033
10809TIP3   OH232383   4.246   5.428   5.569 -0.6603 -0.2067  0.0701
10809TIP3    H132384   4.192   5.507   5.579  0.1141  0.3289  0.0915
10809TIP3    H232385   4.325   5.446   5.620 -0.0894 -0.6334 -0.6449
10810TIP3   OH232386   5.765   2.756   5.361  0.1948  0.3509 -0.0006
10810TIP3    H132387   5.793   2.811   5.434  2.4909  0.8060 -1.1632
10810TIP3    H232388   5.685   2.798   5.329 -0.3915  0.5942  1.7321
10811TIP3   OH232389   4.479   2.550   6.067  0.5344  0.0108 -0.3270
10811TIP3    H132390   4.454   2.498   6.144 -0.2486  0.3176 -0.3709
10811TIP3    H232391   4.439   2.505   5.993  0.2981  0.3851 -0.4249
10812TIP3   OH232392   6.757   3.482   5.454 -0.2408 -0.0128 -0.4822
10812TIP3    H132393   6.665   3.506   5.458 -0.4145 -0.5510 -1.1972
10812TIP3    H232394   6.765   3.409   5.515 -0.7138 -1.2928 -1.9221
10813TIP3   OH232395   6.317   2.625   3.823 -1.2604 -0.4300 -0.1600
10813TIP3    H132396   6.296   2.577   3.743  0.0329 -1.1144 -0.1100
10813TIP3    H232397   6.312   2.560   3.893  0.8886 -0.6197 -0.1469
10814TIP3   OH232398   7.397   1.354   5.019  0.3702  0.0089 -0.2126
10814TIP3    H132399   7.393   1.450   5.014 -0.4851  0.0958  1.7144
10814TIP3    H232400   7.310   1.326   4.991 -0.1347 -0.0783  1.3852
10815TIP3   OH232401   7.247   1.623   5.947  0.1815 -0.1707  0.5082
10815TIP3    H132402   7.338   1.655   5.945 -0.3763  1.5392  1.2439
10815TIP3    H232403   7.229   1.597   5.857  1.3834 -0.4854  0.3403
10816TIP3   OH232404   5.846   2.154   5.987  0.4490 -0.5852  0.0883
10816TIP3    H132405   5.891   2.118   5.911  1.7920 -1.1557  1.1126
10816TIP3    H232406   5.893   2.117   6.062 -0.2299  0.7211  1.1921
10817TIP3   OH232407   6.551   2.347   6.527 -0.6312 -0.4148 -0.6151
10817TIP3    H132408   6.530   2.298   6.606 -1.6577 -1.0383 -1.2669
10817TIP3    H232409   6.543   2.283   6.456  0.3412  0.1200 -1.2269
10818TIP3   OH232410   5.887   1.487   3.561  0.3763 -0.3213 -0.3580
10818TIP3    H132411   5.943   1.436   3.502 -0.9607 -0.7634 -1.2727
10818TIP3    H232412   5.823   1.528   3.503 -0.8684 -0.6378  0.7644
10819TIP3   OH232413   8.104   2.108   5.702 -0.1453 -0.2926 -0.4738
10819TIP3    H132414   8.129   2.115   5.610  0.7162 -1.3254 -0.3371
10819TIP3    H232415   8.177   2.061   5.743 -0.1607  0.8211  0.8880
10820TIP3   OH232416   8.452   4.500   3.694  0.6118 -0.1797 -0.6217
10820TIP3    H132417   8.379   4.439   3.684  1.5235 -1.3604 -0.2486
10820TIP3    H232418   8.422   4.581   3.653 -0.3163 -1.1309 -1.8462
10821TIP3   OH232419   7.348   3.878   2.562  0.5011  0.0355 -0.9009
10821TIP3    H132420   7.372   3.787   2.580  1.4453  0.5695  0.6569
10821TIP3    H232421   7.386   3.928   2.634 -1.2052  1.5096 -0.9699
10822TIP3   OH232422   6.394   4.191   4.812 -0.4075 -0.0432 -0.3420
10822TIP3    H132423   6.484   4.218   4.832 -0.8600  1.2881  0.0095
10822TIP3    H232424   6.367   4.249   4.741  0.0207 -2.4899 -2.5705
10823TIP3   OH232425   8.339   2.195   6.396 -1.1037  0.0951  0.4535
10823TIP3    H132426   8.260   2.202   6.343 -0.9799 -0.4553  0.1915
10823TIP3    H232427   8.309   2.208   6.486 -1.5140 -0.2333  0.3667
10824TIP3   OH232428   5.844   3.348   5.241 -0.5693 -0.4006 -0.0180
10824TIP3    H132429   5.873   3.327   5.330  0.9034  1.3461 -0.0626
10824TIP3    H232430   5.749   3.353   5.247 -0.5640 -1.5534  1.1798
10825TIP3   OH232431   7.346   5.630   4.600 -0.1645 -0.9457  0.5179
10825TIP3    H132432   7.387   5.622   4.686  0.9004 -2.4728 -0.0991
10825TIP3    H232433   7.269   5.574   4.604 -0.2358 -0.8443  0.5501
10826TIP3   OH232434   0.343   5.714   1.134  0.1146 -0.1887 -0.4444
10826TIP3    H132435   0.289   5.647   1.092  1.3050 -1.7193  0.4114
10826TIP3    H232436   0.402   5.744   1.066 -1.1640  0.7988 -1.1275
10827TIP3   OH232437   1.474   6.821   2.379  0.4567  0.6236 -0.1361
10827TIP3    H132438   1.526   6.890   2.337  0.1267  2.4088  2.2226
10827TIP3    H232439   1.521   6.801   2.460 -0.2929 -0.8110 -0.0349
10828TIP3   OH232440   5.997   4.924   4.729  0.0531  1.0038  0.3394
10828TIP3    H132441   5.997   4.828   4.720 -1.1083  1.0124  0.1256
10828TIP3    H232442   5.996   4.956   4.639 -0.7493  1.1959  0.4072
10829TIP3   OH232443   2.550   6.263   0.610  0.1433  0.3882 -0.4930
10829TIP3    H132444   2.490   6.315   0.664 -1.1780 -0.5397 -1.0568
10829TIP3    H232445   2.495   6.225   0.542  1.4454 -0.1476 -1.2685
10830TIP3   OH232446   0.396   3.262   6.401 -0.4200 -0.1934  0.2938
10830TIP3    H132447   0.355   3.238   6.485 -2.7661  0.8376 -0.5259
10830TIP3    H232448   0.402   3.358   6.404  0.3424 -0.2212 -0.3287
10831TIP3   OH232449   2.924   5.713   0.296  0.8213  0.4306  0.1292
10831TIP3    H132450   2.879   5.682   0.374  0.7605  1.7595  0.6266
10831TIP3    H232451   3.016   5.716   0.321  0.5898  2.6487  0.7537
10832TIP3   OH232452   6.898   4.467   6.878  0.2638 -0.0507  0.0954
10832TIP3    H132453   6.917   4.523   6.953 -1.0774 -0.1337  0.5056
10832TIP3    H232454   6.826   4.510   6.832  1.9569  0.7171 -1.9403
10833TIP3   OH232455   5.140   2.951   5.051  0.7662 -0.0071 -0.2900
10833TIP3    H132456   5.059   2.903   5.068  0.9678  0.0002  0.7078
10833TIP3    H232457   5.114   3.043   5.054  0.7103 -0.0158 -0.4972
10834TIP3   OH232458   7.900   2.680   4.713 -0.7199 -0.8240 -0.1368
10834TIP3    H132459   7.895   2.680   4.808  0.7178 -0.0771 -0.0468
10834TIP3    H232460   7.930   2.592   4.690 -0.6344 -0.8651  0.1318
10835TIP3   OH232461   7.648   4.438   6.376 -0.0823  0.4438 -0.6148
10835TIP3    H132462   7.602   4.355   6.392 -0.8390  1.0706  0.5014
10835TIP3    H232463   7.578   4.501   6.362  0.4907  0.9705 -1.1047
10836TIP3   OH232464   7.963   3.395   5.058 -0.4369 -0.3674  0.1269
10836TIP3    H132465   8.056   3.400   5.037 -0.5481 -0.0115 -0.2994
10836TIP3    H232466   7.931   3.318   5.009 -0.1566 -1.1311  1.1156
10837TIP3   OH232467   7.224   1.722   4.853  0.2893  0.2455  0.3367
10837TIP3    H132468   7.244   1.722   4.946  0.2169 -0.9877  0.3555
10837TIP3    H232469   7.173   1.802   4.839  1.4050  1.0995  1.1000
10838TIP3   OH232470   8.351   4.519   6.907 -0.2793  0.7508  0.4089
10838TIP3    H132471   8.351   4.444   6.967  1.0434  0.1031 -0.3740
10838TIP3    H232472   8.432   4.566   6.927 -0.6805  1.4904  0.3031
10839TIP3   OH232473   7.667   2.637   5.585 -0.1730 -0.0064 -0.0778
10839TIP3    H132474   7.594   2.660   5.643 -0.9815 -0.0052 -1.0696
10839TIP3    H232475   7.745   2.662   5.634 -0.8940  1.6968  0.2631
10840TIP3   OH232476   3.530   5.835   0.449  0.9630  0.2408 -0.0804
10840TIP3    H132477   3.513   5.851   0.357 -2.2917 -1.2449  0.2140
10840TIP3    H232478   3.529   5.740   0.458  0.5042  0.3906  1.6089
10841TIP3   OH232479   8.428   6.508   5.814  0.2103 -0.1642 -0.5860
10841TIP3    H132480   8.377   6.576   5.770 -0.1792  0.2035  0.4226
10841TIP3    H232481   8.441   6.441   5.746 -1.1580 -0.0206 -1.0137
10842TIP3   OH232482   7.822   3.270   6.518 -0.3041  0.7762  0.0757
10842TIP3    H132483   7.811   3.203   6.585  1.3567  1.2198  0.8266
10842TIP3    H232484   7.808   3.224   6.435  1.7877 -0.7559  0.5220
10843TIP3   OH232485   6.935   6.281   6.383 -0.0446  0.0460 -0.1257
10843TIP3    H132486   7.011   6.251   6.433 -1.1916 -1.1406  0.9321
10843TIP3    H232487   6.867   6.216   6.400 -1.1734  0.8411 -1.4235
10844TIP3   OH232488   7.553   4.453   5.778  0.3948 -0.5858 -1.3893
10844TIP3    H132489   7.583   4.480   5.865  0.3214  0.7919 -1.7685
10844TIP3    H232490   7.608   4.378   5.756  0.3973 -0.9630 -0.1529
10845TIP3   OH232491   7.409   3.591   4.750 -0.3759  0.0628  0.0755
10845TIP3    H132492   7.442   3.502   4.745  1.4747  0.7544 -0.6654
10845TIP3    H232493   7.354   3.601   4.672  1.1142  0.1892 -0.9977
10846TIP3   OH232494   7.781   4.831   4.887  0.5749  0.2540  0.4615
10846TIP3    H132495   7.720   4.799   4.954 -0.2196  0.6178 -0.0818
10846TIP3    H232496   7.732   4.899   4.840  2.1018  1.9953  1.3250
10847TIP3   OH232497   4.553   0.124   0.693 -0.4265 -0.0557 -0.2132
10847TIP3    H132498   4.629   0.068   0.674 -1.1805 -0.9952 -0.4840
10847TIP3    H232499   4.504   0.076   0.760 -0.3363  0.9559  0.5949
10848TIP3   OH232500   7.943   3.614   5.704  0.6726 -0.4413 -0.6807
10848TIP3    H132501   7.934   3.643   5.795 -0.8022 -0.2987 -0.8706
10848TIP3    H232502   7.897   3.531   5.700 -1.1562  0.5800 -1.7838
10849TIP3   OH232503   0.856   5.931   2.381  0.4150  0.4576 -0.2020
10849TIP3    H132504   0.835   5.847   2.341  1.9842  1.0013 -2.2764
10849TIP3    H232505   0.887   5.909   2.469  0.4019 -1.0865 -0.5697
10850TIP3   OH232506   0.918   4.922   5.196 -0.1608 -0.9999  0.1911
10850TIP3    H132507   0.842   4.891   5.147 -1.4756 -1.3585  2.3858
10850TIP3    H232508   0.938   4.851   5.257  1.1366 -0.3669  0.5311
10851TIP3   OH232509   7.577   2.215   6.246  0.2095  0.0152  0.0004
10851TIP3    H132510   7.533   2.295   6.275 -0.6792 -0.7233  0.7258
10851TIP3    H232511   7.656   2.210   6.300 -0.0002  0.1286  0.3193
10852TIP3   OH232512   6.428   3.482   5.423  0.1679  0.2093 -0.5656
10852TIP3    H132513   6.445   3.448   5.335 -0.2122 -1.7758  0.1179
10852TIP3    H232514   6.423   3.577   5.410 -1.0157 -0.1133 -2.8874
10853TIP3   OH232515   6.633   0.432   1.452  0.9261  0.3825  0.3988
10853TIP3    H132516   6.583   0.421   1.533 -0.9462 -0.8484 -0.9015
10853TIP3    H232517   6.724   0.437   1.481  0.0314  4.3894  2.9632
10854TIP3   OH232518   4.834   6.692   0.501  0.7223  0.1840  0.3642
10854TIP3    H132519   4.892   6.737   0.440  0.7463  0.5754  0.6718
10854TIP3    H232520   4.750   6.738   0.493  0.4114 -0.4643 -0.1783
10855TIP3   OH232521   1.020   3.894   4.372 -0.5824 -0.7676  0.1281
10855TIP3    H132522   1.052   3.857   4.290  0.5486 -1.0293  0.6841
10855TIP3    H232523   1.093   3.946   4.406 -1.7080  0.9384  0.0064
10856TIP3   OH232524   0.075   6.899   6.793 -0.2296 -0.3114 -0.2808
10856TIP3    H132525   0.078   6.811   6.757 -1.1811  0.6120 -2.7423
10856TIP3    H232526  -0.014   6.930   6.775 -0.0486  0.9907  0.9458
10857TIP3   OH232527   7.566   4.164   6.467  0.2078 -0.6397  0.2554
10857TIP3    H132528   7.499   4.119   6.518  0.2193  0.1416  0.9572
10857TIP3    H232529   7.550   4.135   6.377 -2.8610  1.6608 -0.0391
10858TIP3   OH232530   0.378   3.211   6.685 -0.1119  0.2765 -0.3378
10858TIP3    H132531   0.425   3.255   6.756  0.4654  0.1195 -0.6201
10858TIP3    H232532   0.290   3.247   6.689  0.4343  1.7013 -0.7703
10859TIP3   OH232533   3.901   1.319   0.314  0.5706  0.0255  0.4021
10859TIP3    H132534   3.888   1.318   0.219 -0.1844 -1.4890  0.5150
10859TIP3    H232535   3.907   1.412   0.335 -0.8609  0.4453 -0.9262
10860TIP3   OH232536   0.346   3.745   4.826  0.1296  0.1566 -0.4263
10860TIP3    H132537   0.349   3.654   4.855 -0.6643 -0.1907 -1.3842
10860TIP3    H232538   0.255   3.758   4.798  0.5347  0.8675 -1.4388
10861TIP3   OH232539   0.587   4.996   6.362  0.8247 -0.5353 -0.2453
10861TIP3    H132540   0.622   4.983   6.274  0.5102  1.0333 -0.6241
10861TIP3    H232541   0.520   5.064   6.351  0.6449 -0.4700  1.1703
10862TIP3   OH232542   7.670   4.709   3.892  0.0012  0.3461 -0.1292
10862TIP3    H132543   7.697   4.625   3.928 -0.5119  0.7178  1.1816
10862TIP3    H232544   7.711   4.713   3.806  1.2458 -0.5980  0.3976
10863TIP3   OH232545   1.046   4.448   6.806 -0.9469 -0.6903 -0.2247
10863TIP3    H132546   1.052   4.535   6.769 -1.6697 -0.8533 -0.7252
10863TIP3    H232547   1.023   4.391   6.733  1.7604 -1.6653 -0.3764
10864TIP3   OH232548   8.138   4.280   5.336  0.0379  0.2054 -0.4040
10864TIP3    H132549   8.199   4.313   5.269 -0.6005  0.1539 -1.0140
10864TIP3    H232550   8.109   4.195   5.303  0.9522 -0.5629  0.7161
10865TIP3   OH232551   0.272   2.783   4.888 -0.3990 -0.0545  0.1760
10865TIP3    H132552   0.334   2.710   4.900 -1.2901 -0.7997  0.3094
10865TIP3    H232553   0.240   2.771   4.798 -1.2217 -0.3490  0.5141
10866TIP3   OH232554   7.458   3.086   5.775 -0.0914 -0.2783  0.0271
10866TIP3    H132555   7.489   2.998   5.756  0.0720 -0.3076  0.4367
10866TIP3    H232556   7.526   3.144   5.740 -0.8451 -0.2739 -1.4846
10867TIP3   OH232557   8.470   3.187   4.445 -0.3638  0.0581  0.6386
10867TIP3    H132558   8.403   3.226   4.500 -1.0720 -1.4302  0.8670
10867TIP3    H232559   8.424   3.121   4.393  0.6269  0.1351 -0.3705
10868TIP3   OH232560   7.230   4.886   4.663  0.4792 -0.2059  0.2150
10868TIP3    H132561   7.227   4.861   4.755  0.3030 -2.0012 -0.2691
10868TIP3    H232562   7.324   4.885   4.641  0.4645 -0.5316  0.1689
10869TIP3   OH232563   8.353   2.449   3.202 -0.0936  0.3248  0.4384
10869TIP3    H132564   8.437   2.445   3.248  0.0321 -0.6023  0.1521
10869TIP3    H232565   8.348   2.365   3.155 -1.0783  0.4691  0.2781
10870TIP3   OH232566   2.963   7.745   1.619  0.6516  0.3461  0.5652
10870TIP3    H132567   2.891   7.770   1.562  1.1054 -1.3176 -0.7776
10870TIP3    H232568   3.030   7.710   1.560  1.8333  0.2182  1.9521
10871TIP3   OH232569   7.768   1.636   5.817  0.0455 -0.1791  0.6569
10871TIP3    H132570   7.817   1.584   5.753 -0.4000  0.3262 -0.0991
10871TIP3    H232571   7.735   1.711   5.768  0.1252  0.4921  1.5902
10872TIP3   OH232572   8.233   3.668   6.096  0.6794  0.7709 -0.7404
10872TIP3    H132573   8.171   3.623   6.154  0.3238 -0.4669 -2.0233
10872TIP3    H232574   8.183   3.742   6.060 -0.6176 -1.0746 -2.9211
10873TIP3   OH232575   0.288   1.379   6.669 -0.3115 -0.1249 -0.4438
10873TIP3    H132576   0.316   1.310   6.729  1.1293  0.7293 -0.1032
10873TIP3    H232577   0.335   1.362   6.588 -0.2095  0.2566 -0.4669
10874TIP3   OH232578   8.479   5.042   6.031 -0.2281  0.1057 -0.0926
10874TIP3    H132579   8.505   4.978   5.965 -1.2637  0.2961 -0.6896
10874TIP3    H232580   8.506   5.126   5.993 -0.2054  0.1535  0.0305
10875TIP3   OH232581   8.168   6.024   5.150  0.6782  0.4379  0.0885
10875TIP3    H132582   8.255   6.048   5.183  0.6753  1.8646 -0.9162
10875TIP3    H232583   8.111   6.095   5.179  0.4320  1.0553 -1.8641
10876TIP3   OH232584   8.056   2.891   4.150  0.1877  0.0668  0.2404
10876TIP3    H132585   8.146   2.874   4.121  0.6073  0.2258  1.4300
10876TIP3    H232586   8.006   2.815   4.119  1.3827 -1.6688  2.4671
10877TIP3   OH232587   4.845   1.986   0.843 -0.6793 -0.1086 -0.2741
10877TIP3    H132588   4.764   2.033   0.822 -0.6011  0.9351  1.6263
10877TIP3    H232589   4.877   2.029   0.922  0.3062 -2.2618  0.5255
10878TIP3   OH232590   7.408   4.669   5.958  0.0007  0.6431 -0.1005
10878TIP3    H132591   7.375   4.583   5.931 -2.5045  1.3144  0.6368
10878TIP3    H232592   7.330   4.724   5.962  1.1093  2.1232  2.5884
10879TIP3   OH232593   2.377   5.878   0.263  0.3060  0.8156  0.1869
10879TIP3    H132594   2.467   5.850   0.246  0.2307 -0.1210  1.2540
10879TIP3    H232595   2.333   5.870   0.179  1.1740  1.0835 -0.2963
10880TIP3   OH232596   7.859   5.092   3.695 -0.5351  0.7273 -0.0086
10880TIP3    H132597   7.941   5.139   3.679 -1.3085  2.2066  0.2857
10880TIP3    H232598   7.849   5.093   3.790 -1.6862  1.9496 -0.1330
10881TIP3   OH232599   8.220   5.118   6.161  0.2968  0.2527 -0.0173
10881TIP3    H132600   8.248   5.037   6.204  0.2544  0.6758  0.8206
10881TIP3    H232601   8.256   5.113   6.072  1.2941 -0.1380  0.4102
10882TIP3   OH232602   7.628   6.070   5.487  0.5460  0.4484 -0.4351
10882TIP3    H132603   7.595   6.058   5.398 -1.2774  0.5517  0.2177
10882TIP3    H232604   7.588   6.000   5.537 -0.1148  1.6439  0.7374
10883TIP3   OH232605   6.878   4.163   6.299  0.2161  0.2329  0.4822
10883TIP3    H132606   6.847   4.197   6.215  0.8927 -0.1503  0.0749
10883TIP3    H232607   6.852   4.071   6.298  0.9892  0.0114  0.3134
10884TIP3   OH232608   4.751   1.266   0.402  0.3302  0.6322  0.4157
10884TIP3    H132609   4.816   1.231   0.341  1.3299  0.6755  1.4302
10884TIP3    H232610   4.764   1.361   0.400  0.9522  0.5709  1.3312
10885TIP3   OH232611   4.321   6.156   1.218  0.0466  0.0143 -0.2788
10885TIP3    H132612   4.227   6.143   1.235  0.2191  0.0776  0.7872
10885TIP3    H232613   4.361   6.149   1.305  1.1242 -0.8160 -0.8372
10886TIP3   OH232614   8.074   4.306   4.794  0.4989  0.0153  0.2027
10886TIP3    H132615   8.141   4.315   4.726 -2.7283 -2.0638 -3.4286
10886TIP3    H232616   8.091   4.220   4.832  0.5774 -0.0213  0.0856
10887TIP3   OH232617   6.993   5.947   4.662 -0.3665  0.3399 -0.3600
10887TIP3    H132618   6.927   5.990   4.608 -0.6577  1.6632  1.0066
10887TIP3    H232619   6.955   5.945   4.750  0.5570 -0.7677  0.0335
10888TIP3   OH232620   7.807   4.863   4.487 -0.0048  0.2899 -0.2441
10888TIP3    H132621   7.859   4.929   4.441 -1.0155  1.1561 -0.1574
10888TIP3    H232622   7.744   4.913   4.538 -0.5829 -0.7438  0.0711
10889TIP3   OH232623   2.354   6.873   0.100  0.8461 -0.1258 -0.4920
10889TIP3    H132624   2.393   6.853   0.185 -0.7597 -0.2163  0.2417
10889TIP3    H232625   2.382   6.800   0.044 -0.5075 -1.6521  0.7492
10890TIP3   OH232626   6.955   2.311   4.950  0.0934 -0.0627 -0.6493
10890TIP3    H132627   6.897   2.259   5.005  1.5768 -1.8369 -0.7255
10890TIP3    H232628   6.967   2.393   4.999  0.7524 -1.2963  1.3264
10891TIP3   OH232629   1.212   2.661   5.773 -0.2892 -0.6026  0.3049
10891TIP3    H132630   1.277   2.729   5.757 -0.8263  0.0386  0.8206
10891TIP3    H232631   1.173   2.645   5.687  2.1400 -2.6771 -0.4938
10892TIP3   OH232632   6.842   3.487   4.947 -0.6388 -0.4853  0.0665
10892TIP3    H132633   6.822   3.560   4.888  0.4449 -0.1006  0.1449
10892TIP3    H232634   6.758   3.463   4.986 -1.5371 -1.3189 -2.2569
10893TIP3   OH232635   8.080   1.893   4.902 -0.8110 -0.7976 -0.1501
10893TIP3    H132636   8.077   1.906   4.997  0.1857 -0.9301 -0.1041
10893TIP3    H232637   8.168   1.919   4.876 -1.3872  0.1710 -1.1835
10894TIP3   OH232638   0.163   2.935   4.073 -0.5124 -0.1119 -0.5785
10894TIP3    H132639   0.256   2.918   4.066 -0.2739  0.7973  0.1952
10894TIP3    H232640   0.122   2.878   4.008  0.3450 -2.5026  0.9067
10895TIP3   OH232641   5.539   2.100   4.793  0.2936 -0.4350 -0.3152
10895TIP3    H132642   5.634   2.091   4.801  0.4179  0.9148 -0.2188
10895TIP3    H232643   5.510   2.129   4.880 -0.2385 -1.0532 -0.2811
10896TIP3   OH232644   7.485   4.624   6.290  0.1081 -0.0270  0.0072
10896TIP3    H132645   7.446   4.704   6.327  0.0787  0.3272 -0.7661
10896TIP3    H232646   7.423   4.597   6.222  1.2600  0.6230 -1.3368
10897TIP3   OH232647   0.765   4.953   6.575  0.3492 -0.8641 -0.3579
10897TIP3    H132648   0.750   4.859   6.591  0.7468 -1.0580 -1.0861
10897TIP3    H232649   0.717   4.972   6.495  0.9637 -0.6507 -0.6846
10898TIP3   OH232650   0.219   1.583   5.072  0.0939  0.0379  0.2943
10898TIP3    H132651   0.249   1.636   4.998 -3.1649  1.2207 -0.2593
10898TIP3    H232652   0.205   1.496   5.035  0.3722  0.1246 -0.0171
10899TIP3   OH232653   4.309   0.791   1.459  0.6490 -0.5498  0.2060
10899TIP3    H132654   4.246   0.794   1.532 -0.7220 -0.0750 -0.9845
10899TIP3    H232655   4.341   0.881   1.451  0.2719 -0.4568 -0.2409
10900TIP3   OH232656   7.011   3.954   3.015 -0.4265  0.5752 -0.1882
10900TIP3    H132657   6.972   3.868   3.000 -0.2285  0.6133 -0.9443
10900TIP3    H232658   6.935   4.013   3.023 -0.5540  0.5239 -0.9011
10901TIP3   OH232659   3.380   4.346   1.243  0.0465 -0.1333 -0.1342
10901TIP3    H132660   3.400   4.351   1.149  0.0444  0.0136 -0.1259
10901TIP3    H232661   3.289   4.318   1.247 -0.1264  0.4279 -0.1784
10902TIP3   OH232662   7.262   3.843   4.716  0.1044 -0.0072 -0.3468
10902TIP3    H132663   7.311   3.778   4.766  0.1711 -1.0016 -1.6738
10902TIP3    H232664   7.287   3.927   4.755  0.4295 -0.7273  1.0386
10903TIP3   OH232665   0.780   7.857   0.223 -0.5150  0.1887  0.0412
10903TIP3    H132666   0.700   7.836   0.175 -0.1545  0.8035 -0.8358
10903TIP3    H232667   0.851   7.838   0.161 -0.1303  3.1761 -0.5009
10904TIP3   OH232668   7.885   2.342   6.337  0.2164  0.1977 -0.2662
10904TIP3    H132669   7.840   2.414   6.293 -0.0344  0.3291  0.2073
10904TIP3    H232670   7.867   2.355   6.430  0.7233 -0.0984 -0.1248
10905TIP3   OH232671   3.375   7.916   0.829  0.2405 -0.4018 -0.1939
10905TIP3    H132672   3.375   7.996   0.882 -1.1632 -1.2196  1.0866
10905TIP3    H232673   3.455   7.870   0.855  1.0759  0.5931 -0.9689
10906TIP3   OH232674   1.675   2.549   3.908  0.1351 -0.1838  0.0866
10906TIP3    H132675   1.620   2.617   3.869 -1.8130 -1.6143  0.2168
10906TIP3    H232676   1.626   2.521   3.986  1.3795 -1.0543  0.5710
10907TIP3   OH232677   1.106   2.727   4.072 -0.0486  0.3851 -0.6241
10907TIP3    H132678   1.122   2.636   4.046 -1.1449 -0.0286  0.0810
10907TIP3    H232679   1.011   2.738   4.063 -0.1143  0.9985  0.7133
10908TIP3   OH232680   8.459   3.125   6.791 -0.0546 -0.4776 -0.0781
10908TIP3    H132681   8.506   3.195   6.837  2.3873 -1.1329 -1.4949
10908TIP3    H232682   8.418   3.169   6.717  0.0365 -0.2564  0.0028
10909TIP3   OH232683   0.103   3.000   5.113 -0.2128  0.5168 -0.0243
10909TIP3    H132684   0.032   2.953   5.069  0.1493 -1.3044  1.2687
10909TIP3    H232685   0.121   2.948   5.191  1.2904  1.9781  0.6302
10910TIP3   OH232686   1.857   3.587   6.242 -0.0585 -0.0614  0.2735
10910TIP3    H132687   1.919   3.556   6.175  0.0123  0.5609  0.0467
10910TIP3    H232688   1.913   3.619   6.313 -0.1413 -1.8207  1.1422
10911TIP3   OH232689   1.688   2.588   5.438 -0.2307  0.0157 -0.4650
10911TIP3    H132690   1.733   2.507   5.460  1.4910  0.7966 -1.0122
10911TIP3    H232691   1.654   2.620   5.521  1.5480  0.1830  0.2169
10912TIP3   OH232692   7.368   5.058   5.919 -0.1689 -0.8718  0.4644
10912TIP3    H132693   7.429   5.080   5.848  1.2189 -0.3396  1.8154
10912TIP3    H232694   7.287   5.103   5.894  1.0809  1.4963  0.5229
10913TIP3   OH232695   6.159   3.365   4.359 -0.3823  0.2897  0.2058
10913TIP3    H132696   6.188   3.449   4.324  0.4091 -0.2337 -0.3997
10913TIP3    H232697   6.078   3.346   4.312 -0.0801  0.2708 -0.3043
10914TIP3   OH232698   5.758   4.536   4.374 -0.4532  0.5678  0.6044
10914TIP3    H132699   5.814   4.540   4.296  1.3579  2.3064  1.9408
10914TIP3    H232700   5.793   4.464   4.426 -0.1608  0.9316  0.9147
10915TIP3   OH232701   8.160   6.581   0.877 -0.3490  0.5965  0.4088
10915TIP3    H132702   8.071   6.590   0.841  0.1906  1.1599 -0.8219
10915TIP3    H232703   8.191   6.498   0.841 -0.7185 -0.0745  1.6147
10916TIP3   OH232704   6.118   5.312   5.514 -0.0514  0.3497 -0.0928
10916TIP3    H132705   6.154   5.223   5.514  1.1352  0.8119  1.3127
10916TIP3    H232706   6.194   5.369   5.499 -0.7411  1.1646 -0.5697
10917TIP3   OH232707   7.149   3.985   6.775 -0.7504  0.1359  0.5485
10917TIP3    H132708   7.098   4.060   6.808  1.6581  0.9596  2.6418
10917TIP3    H232709   7.149   3.923   6.848  1.3124  0.2113  0.6253
10918TIP3   OH232710   0.095   3.402   6.936  0.4837 -0.0433  0.5131
10918TIP3    H132711   0.104   3.417   6.842  0.1750 -2.4047  0.0742
10918TIP3    H232712   0.002   3.417   6.953  0.2581 -0.9662  0.1561
10919TIP3   OH232713   8.243   3.455   5.042  0.1572 -0.2410 -0.4384
10919TIP3    H132714   8.307   3.388   5.018 -0.9841 -0.6683 -2.3645
10919TIP3    H232715   8.225   3.502   4.961 -1.8984 -0.0772  0.0712
10920TIP3   OH232716   0.103   2.711   4.304 -0.8625 -0.1209 -0.5297
10920TIP3    H132717   0.043   2.681   4.236  0.6134 -1.5136 -1.2409
10920TIP3    H232718   0.174   2.647   4.303  0.7423  1.6219  0.1557
10921TIP3   OH232719   8.248   2.076   6.632  0.0119  0.0176  0.1622
10921TIP3    H132720   8.157   2.050   6.643 -0.5348  1.9203  0.3917
10921TIP3    H232721   8.283   2.016   6.567 -1.5250 -0.4474 -0.2452
10922TIP3   OH232722   6.868   2.575   5.292  0.4314  0.5190 -0.9230
10922TIP3    H132723   6.788   2.550   5.245  0.9916  0.5800 -1.9320
10922TIP3    H232724   6.939   2.552   5.232  1.1696  0.5949 -0.0910
10923TIP3   OH232725   7.769   4.896   4.066  0.2648  0.0885 -0.1309
10923TIP3    H132726   7.719   4.904   4.148  1.0039 -1.0286  0.4485
10923TIP3    H232727   7.723   4.829   4.017  1.3120 -1.1174  0.5081
10924TIP3   OH232728   0.954   5.486   6.412  0.3488  0.0236  0.0989
10924TIP3    H132729   0.944   5.452   6.501  2.5344 -0.1994  0.3012
10924TIP3    H232730   0.883   5.446   6.362 -0.9923  0.2827  1.7781
10925TIP3   OH232731   8.028   5.085   4.341  0.3738  0.7503 -0.7919
10925TIP3    H132732   8.084   5.149   4.298 -0.2623  0.8484 -1.4698
10925TIP3    H232733   7.939   5.105   4.311  0.3284 -1.3238 -2.1317
10926TIP3   OH232734   7.907   4.928   5.546  0.5417  0.2405 -0.1147
10926TIP3    H132735   7.918   4.918   5.451 -2.1986 -0.4977 -0.3866
10926TIP3    H232736   7.855   5.008   5.556 -1.1561 -0.9417  0.6310
10927TIP3   OH232737   8.202   4.537   4.603  0.0331 -0.1539  0.0131
10927TIP3    H132738   8.291   4.561   4.629  0.0112  1.0762 -0.9708
10927TIP3    H232739   8.148   4.611   4.631 -0.8093 -1.2247  1.2824
10928TIP3   OH232740   6.505   2.434   0.309  0.3012  0.3379  0.5838
10928TIP3    H132741   6.599   2.421   0.312  0.6406  2.0751 -1.4266
10928TIP3    H232742   6.490   2.509   0.367  0.4095  1.2126 -0.4970
10929TIP3   OH232743   8.389   7.385   6.447 -0.1889 -0.1261 -0.2701
10929TIP3    H132744   8.471   7.334   6.444  0.6505  1.2279 -0.8496
10929TIP3    H232745   8.359   7.375   6.537  1.6383  0.9189  0.4796
10930TIP3   OH232746   6.211   5.328   6.041 -0.8370 -0.4252  0.0335
10930TIP3    H132747   6.151   5.260   6.011 -1.4267 -0.5868  1.5099
10930TIP3    H232748   6.224   5.309   6.134  1.7380 -0.5534 -0.3053
10931TIP3   OH232749   3.548   5.585   0.273 -0.1139  0.7267 -0.4468
10931TIP3    H132750   3.585   5.522   0.335  1.3960  2.0723  0.0820
10931TIP3    H232751   3.612   5.588   0.201 -0.6748  0.9135 -0.9383
10932TIP3   OH232752   0.636   4.382   6.270 -0.3767  0.3322  0.2472
10932TIP3    H132753   0.623   4.304   6.323 -1.5184  0.9271  0.8859
10932TIP3    H232754   0.551   4.426   6.272  0.2277  1.5451 -0.1715
10933TIP3   OH232755   6.618   0.933   3.132  0.0134 -0.4420 -0.0862
10933TIP3    H132756   6.613   0.983   3.214  1.4970  0.7063 -0.6818
10933TIP3    H232757   6.700   0.885   3.139  0.4644  0.1676 -1.1887
10934TIP3   OH232758   7.982   1.963   4.079 -0.6246  0.1719  0.0909
10934TIP3    H132759   7.975   2.054   4.051  0.4218  0.3208  0.2720
10934TIP3    H232760   8.019   1.918   4.003  1.0455  0.3442  0.7774
10935TIP3   OH232761   7.880   5.778   4.049 -0.0880  0.5396 -0.4049
10935TIP3    H132762   7.872   5.683   4.060  4.2894  0.1544  0.2167
10935TIP3    H232763   7.867   5.813   4.137 -0.9496  0.4979 -0.5058
10936TIP3   OH232764   7.428   0.974   5.913  0.0381  0.0480 -0.3294
10936TIP3    H132765   7.347   0.963   5.863  0.6231 -1.5929 -0.9830
10936TIP3    H232766   7.498   0.961   5.848  0.8213  0.6157  0.3867
10937TIP3   OH232767   0.095   5.424   5.335  0.3739  0.0728 -0.1822
10937TIP3    H132768   0.000   5.415   5.327  0.2925  0.2519  0.5833
10937TIP3    H232769   0.120   5.481   5.262 -0.1252  0.1454 -0.2957
10938TIP3   OH232770   5.866   7.215   5.844 -0.2890  0.4014 -1.0125
10938TIP3    H132771   5.848   7.209   5.751 -2.9834 -0.5068 -0.4727
10938TIP3    H232772   5.869   7.124   5.874  1.9537  0.6308 -0.4384
10939TIP3   OH232773   8.295   5.067   5.203 -0.6569 -0.4069  0.3843
10939TIP3    H132774   8.237   5.034   5.134 -1.5232  0.1665  0.8290
10939TIP3    H232775   8.327   5.150   5.169  0.1189 -0.8522  0.0242
10940TIP3   OH232776   5.012   5.957   0.329  0.4015 -0.2303 -0.4049
10940TIP3    H132777   5.074   5.951   0.402 -0.6045 -1.1293  0.3852
10940TIP3    H232778   5.033   5.882   0.273  0.5018 -0.1153 -0.5240
10941TIP3   OH232779   4.069   7.583   4.057  0.3256 -0.1353  0.0899
10941TIP3    H132780   3.987   7.631   4.068 -0.0752 -0.2570 -2.1942
10941TIP3    H232781   4.123   7.611   4.131 -1.1362  1.2701  0.6524
10942TIP3   OH232782   1.733   6.034   1.131  0.3733  0.3443 -0.1967
10942TIP3    H132783   1.678   5.964   1.097  0.7246 -0.6667  1.2997
10942TIP3    H232784   1.694   6.114   1.097 -1.1445 -0.4661 -0.3631
10943TIP3   OH232785   0.886   2.789   5.977 -0.7792  0.0027 -0.3878
10943TIP3    H132786   0.967   2.840   5.975 -1.0690  0.4989  0.2751
10943TIP3    H232787   0.819   2.852   6.003 -1.3727 -0.4123 -0.8984
10944TIP3   OH232788   4.489   7.769   2.027  0.4847 -0.6083  0.5779
10944TIP3    H132789   4.575   7.802   2.054  1.0714 -0.6000 -1.2251
10944TIP3    H232790   4.437   7.847   2.011  1.2669 -0.4978 -1.7605
10945TIP3   OH232791   0.541   2.769   6.344 -0.0147 -0.0886  0.1741
10945TIP3    H132792   0.507   2.682   6.366  1.5697 -0.3850  1.5464
10945TIP3    H232793   0.626   2.753   6.303  0.3199  0.8181  0.4954
10946TIP3   OH232794   4.867   7.890   1.022  0.4380 -0.1093 -0.0831
10946TIP3    H132795   4.832   7.834   0.953 -0.8284 -0.3093  0.6950
10946TIP3    H232796   4.962   7.883   1.014  0.2902 -1.2129 -0.9232
10947TIP3   OH232797   1.250   4.056   5.450 -0.4079 -0.5747  1.0040
10947TIP3    H132798   1.258   4.145   5.483  0.6039 -0.7523  1.2687
10947TIP3    H232799   1.338   4.020   5.458 -0.6864 -1.4089  0.3560
10948TIP3   OH232800   1.860   4.604   6.204 -0.6288 -0.4714  0.0531
10948TIP3    H132801   1.855   4.531   6.265 -0.5593  0.1391  0.7964
10948TIP3    H232802   1.940   4.588   6.154 -1.3499 -1.6462 -0.7595
10949TIP3   OH232803   3.855   6.843   2.341  0.6576  0.9347  0.2605
10949TIP3    H132804   3.786   6.878   2.397 -1.3171 -1.3884 -0.6505
10949TIP3    H232805   3.813   6.828   2.256  1.6605 -2.5606  0.2955
10950TIP3   OH232806   7.384   3.069   6.516 -0.4092  0.4319  0.0366
10950TIP3    H132807   7.389   3.074   6.421 -1.3998  2.1089  0.0501
10950TIP3    H232808   7.302   3.113   6.538 -2.1568 -3.3058  1.4378
10951TIP3   OH232809   0.135   4.961   6.904  0.6816 -0.6132 -0.1576
10951TIP3    H132810   0.092   5.006   6.831  0.2568  0.0148  0.4764
10951TIP3    H232811   0.220   4.934   6.869  0.7489  0.2728 -0.6862
10952TIP3   OH232812   7.039   0.199   1.593 -0.4558  0.3380  0.2456
10952TIP3    H132813   7.046   0.283   1.547 -1.7820 -0.7592 -2.0681
10952TIP3    H232814   7.011   0.222   1.681  1.3893  2.4634  0.3105
10953TIP3   OH232815   1.286   3.636   6.591 -0.0472  0.3267 -0.4636
10953TIP3    H132816   1.278   3.546   6.625 -0.6805 -0.0967 -1.6985
10953TIP3    H232817   1.202   3.677   6.613 -1.2023 -0.5061 -3.0306
10954TIP3   OH232818   1.885   3.245   5.542  0.3657  0.2951 -0.4120
10954TIP3    H132819   1.860   3.157   5.572 -1.3900  0.7778 -0.3938
10954TIP3    H232820   1.975   3.256   5.572  0.4162 -1.2992  0.0561
10955TIP3   OH232821   4.396   7.915   0.427  0.1681  0.0813 -0.5986
10955TIP3    H132822   4.352   7.841   0.469 -0.8989  2.1144  2.0593
10955TIP3    H232823   4.335   7.944   0.359 -0.0804 -0.5952 -0.6642
10956TIP3   OH232824   7.387   5.174   6.626 -0.2389 -0.2704  0.2076
10956TIP3    H132825   7.318   5.163   6.560  0.6021 -0.3976 -0.6476
10956TIP3    H232826   7.377   5.264   6.656 -0.4670 -0.1377 -0.2601
10957TIP3   OH232827   1.796   4.043   5.246  0.2452 -0.3730 -0.2525
10957TIP3    H132828   1.788   4.036   5.342 -1.6547 -0.7544 -0.4099
10957TIP3    H232829   1.822   3.955   5.218  0.3645 -0.3807 -0.1183
10958TIP3   OH232830   2.228   7.218   5.578 -0.5837  0.1830 -0.4420
10958TIP3    H132831   2.205   7.204   5.486 -0.0882 -1.5545 -0.3168
10958TIP3    H232832   2.163   7.280   5.610 -1.2102  0.2246 -1.7697
10959TIP3   OH232833   1.062   3.212   6.162  0.1416 -0.4724 -0.4757
10959TIP3    H132834   0.973   3.247   6.169  0.5033  0.3870 -0.1584
10959TIP3    H232835   1.060   3.159   6.082 -1.2369 -2.2149  0.6754
10960TIP3   OH232836   6.288   0.494   0.623  0.4105 -0.6296  0.5403
10960TIP3    H132837   6.304   0.582   0.590  0.1520 -0.7877 -0.0154
10960TIP3    H232838   6.269   0.506   0.716  0.0173 -0.0612  0.3913
10961TIP3   OH232839   1.625   4.185   5.924 -0.2249 -0.2278  0.0355
10961TIP3    H132840   1.604   4.193   5.831 -0.1771  0.6153  0.0966
10961TIP3    H232841   1.641   4.091   5.937 -0.1390 -0.3324 -0.8210
10962TIP3   OH232842   2.053   2.409   5.075  0.2862  0.5584 -0.0596
10962TIP3    H132843   1.964   2.380   5.052  0.2578  1.6854 -1.4568
10962TIP3    H232844   2.110   2.341   5.038  0.0323  0.0741  0.4299
10963TIP3   OH232845   3.725   5.162   1.229  0.5141 -0.3379  0.3999
10963TIP3    H132846   3.790   5.100   1.263  1.6617 -0.0911 -1.3255
10963TIP3    H232847   3.761   5.248   1.250  1.0378 -0.1891 -1.0679
10964TIP3   OH232848   1.449   4.716   4.851 -0.2364  0.1530  0.2225
10964TIP3    H132849   1.401   4.641   4.817 -1.5794  1.0443  0.0879
10964TIP3    H232850   1.404   4.792   4.813  0.2208  1.0609  1.4681
10965TIP3   OH232851   3.346   3.054   5.602  0.3270 -0.1792 -0.1761
10965TIP3    H132852   3.269   3.107   5.582  1.5506  0.7821 -2.5783
10965TIP3    H232853   3.324   2.967   5.568  0.5698  0.2997 -1.6291
10966TIP3   OH232854   1.560   5.151   5.889  0.1789  0.5247  0.2112
10966TIP3    H132855   1.521   5.084   5.833 -0.5440  1.4519 -0.4201
10966TIP3    H232856   1.654   5.133   5.887  0.0921  0.1734 -0.7879
10967TIP3   OH232857   0.747   4.611   6.394 -0.0023  0.1922  0.0108
10967TIP3    H132858   0.833   4.653   6.395 -0.6534  1.7134 -3.3664
10967TIP3    H232859   0.752   4.546   6.324 -1.1128 -0.8335  0.8492
10968TIP3   OH232860   7.867   5.810   6.699 -0.4612 -0.1815 -0.2174
10968TIP3    H132861   7.956   5.817   6.665 -0.1018  0.4210  0.8589
10968TIP3    H232862   7.816   5.868   6.643 -0.1695 -0.4461 -0.7670
10969TIP3   OH232863   2.668   3.691   6.308 -0.7776 -0.1677 -0.3911
10969TIP3    H132864   2.619   3.619   6.268  0.6053 -1.5282  0.2934
10969TIP3    H232865   2.662   3.674   6.402 -1.6752  1.4537 -0.1425
10970TIP3   OH232866   1.444   3.718   5.701  0.5242  0.0074 -0.0759
10970TIP3    H132867   1.354   3.688   5.713  1.3061 -1.5742  2.1567
10970TIP3    H232868   1.453   3.731   5.606 -2.4556  1.6025 -0.1953
10971TIP3   OH232869   5.794   0.163   0.708  0.2313  0.2543  0.0330
10971TIP3    H132870   5.830   0.075   0.701  0.0716  0.0654  1.4109
10971TIP3    H232871   5.766   0.170   0.799 -0.7032  1.3672 -0.3253
10972TIP3   OH232872   3.261   7.530   0.093 -0.2976 -0.0639 -0.0961
10972TIP3    H132873   3.205   7.598   0.130 -1.8944 -1.6936  0.6036
10972TIP3    H232874   3.217   7.504   0.012 -0.1484 -0.7789  0.0422
10973TIP3   OH232875   4.538   1.679   0.816 -0.0759  0.4163 -0.1058
10973TIP3    H132876   4.497   1.646   0.896 -0.4649 -1.7308 -1.1233
10973TIP3    H232877   4.464   1.689   0.755  0.3766  0.7350 -0.6006
10974TIP3   OH232878   1.602   2.058   5.852  0.1482  0.2703 -0.0246
10974TIP3    H132879   1.510   2.076   5.831  0.1769  0.7326  0.2264
10974TIP3    H232880   1.640   2.030   5.769 -0.2310  0.0320 -0.1200
10975TIP3   OH232881   0.543   1.840   6.413  0.0343  0.2544  0.2799
10975TIP3    H132882   0.574   1.755   6.384  1.2773  0.9297 -0.4437
10975TIP3    H232883   0.601   1.863   6.486 -0.5698  0.2854  0.7492
10976TIP3   OH232884   3.325   7.738   0.385  0.0417  0.5373  0.3723
10976TIP3    H132885   3.404   7.717   0.335 -0.1198  4.2567 -1.6063
10976TIP3    H232886   3.346   7.712   0.475  2.0757 -2.0030 -0.7661
10977TIP3   OH232887   4.412   6.456   0.613  0.4230 -0.7553 -0.0730
10977TIP3    H132888   4.386   6.427   0.700  1.3331  1.1204  0.8511
10977TIP3    H232889   4.368   6.396   0.553 -1.0122 -1.4393  1.6405
10978TIP3   OH232890   6.128   0.623   0.411  0.3956  0.2941  0.3998
10978TIP3    H132891   6.158   0.558   0.475 -1.2675  1.0493  1.9869
10978TIP3    H232892   6.185   0.611   0.336  1.4548 -1.6037  1.4810
10979TIP3   OH232893   0.091   6.188   5.418  0.0246 -0.1554  0.4408
10979TIP3    H132894   0.175   6.147   5.396  0.2389 -0.1155  1.1847
10979TIP3    H232895   0.109   6.281   5.421 -0.0057 -0.1595  0.7778
10980TIP3   OH232896   5.269   7.676   1.262  0.5341 -0.2254 -0.9259
10980TIP3    H132897   5.213   7.611   1.219 -2.8534  3.3244 -2.2263
10980TIP3    H232898   5.220   7.701   1.341  0.8888  1.9555 -1.3665
10981TIP3   OH232899   4.227   5.873   1.381 -0.0169  0.0382 -0.1773
10981TIP3    H132900   4.267   5.847   1.464 -0.9155 -1.8664 -0.3219
10981TIP3    H232901   4.204   5.965   1.394  0.0337 -0.1719  1.6220
10982TIP3   OH232902   3.115   6.781   0.476 -0.2561 -0.0114 -0.1005
10982TIP3    H132903   3.070   6.711   0.522 -0.4069  1.0050  1.3114
10982TIP3    H232904   3.169   6.736   0.411  0.3034 -1.4969  1.3618
10983TIP3   OH232905   7.975   4.376   6.715  0.6837  0.7085 -0.2965
10983TIP3    H132906   7.981   4.450   6.775  1.2963 -0.7822  1.5301
10983TIP3    H232907   7.886   4.343   6.727  0.8527  0.3215 -0.0880
10984TIP3   OH232908   8.260   0.744   0.622  0.2537  0.2488 -0.3576
10984TIP3    H132909   8.218   0.664   0.591  2.2115 -1.3487  1.0107
10984TIP3    H232910   8.220   0.814   0.569 -0.6736 -1.7313 -2.3656
10985TIP3   OH232911   3.662   6.554   1.038 -0.0142 -0.3494  0.3687
10985TIP3    H132912   3.708   6.622   1.088 -0.3884 -0.5206  0.9510
10985TIP3    H232913   3.577   6.545   1.081 -0.0908 -0.9661  0.1035
10986TIP3   OH232914   7.310   6.339   5.847  0.3860  0.5726  0.6020
10986TIP3    H132915   7.220   6.319   5.822  0.5247  0.7407 -0.0420
10986TIP3    H232916   7.364   6.296   5.781  0.8808 -1.6995  2.4505
10987TIP3   OH232917   7.817   5.542   6.710  0.3973 -0.0026  0.3022
10987TIP3    H132918   7.874   5.503   6.776  0.9528  0.5508  0.1557
10987TIP3    H232919   7.850   5.632   6.699  0.2105 -0.0324 -0.5972
10988TIP3   OH232920   0.835   5.417   6.094 -0.0334  0.9626  0.3030
10988TIP3    H132921   0.921   5.419   6.053 -1.6042 -0.5532 -3.2693
10988TIP3    H232922   0.814   5.509   6.110  1.2145  1.5093 -1.1250
10989TIP3   OH232923   2.607   7.496   0.869  0.3168  0.6487  0.8143
10989TIP3    H132924   2.595   7.591   0.869  1.0932  0.7617 -0.9128
10989TIP3    H232925   2.538   7.464   0.810  0.2039  0.1687  1.2147
10990TIP3   OH232926   8.231   2.797   5.913  0.2210  0.2663  0.0136
10990TIP3    H132927   8.181   2.715   5.914  0.4682  0.0691 -1.5706
10990TIP3    H232928   8.313   2.776   5.958  0.1608 -0.2866 -0.1253
10991TIP3   OH232929   7.271   0.313   1.859 -0.0429 -0.4213  0.2714
10991TIP3    H132930   7.261   0.358   1.942  0.3262 -0.5616  0.3901
10991TIP3    H232931   7.308   0.228   1.881 -0.5267 -0.6996  0.0257
10992TIP3   OH232932   4.132   7.987   0.302 -0.3150  0.5152 -0.1721
10992TIP3    H132933   4.108   7.921   0.237 -2.2324 -0.2850  1.2869
10992TIP3    H232934   4.147   8.066   0.251 -0.2009 -0.4917 -1.7407
10993TIP3   OH232935   8.087   3.839   6.484  0.7154  0.2587 -0.5084
10993TIP3    H132936   8.107   3.931   6.466 -1.0701  0.2869 -2.4398
10993TIP3    H232937   8.110   3.793   6.404  0.0854 -0.7617 -0.1105
10994TIP3   OH232938   3.519   7.110   0.705  0.2947 -0.2597 -0.1707
10994TIP3    H132939   3.475   7.193   0.683 -0.9336 -0.8752 -0.0926
10994TIP3    H232940   3.452   7.043   0.689  0.6270 -1.0668  1.7473
10995TIP3   OH232941   8.307   0.251   1.780 -0.0180  0.2194 -0.3433
10995TIP3    H132942   8.301   0.279   1.872 -1.7516 -1.7748  0.1828
10995TIP3    H232943   8.243   0.181   1.772  1.6625 -1.1376 -2.5327
10996TIP3   OH232944   1.283   1.909   6.708  0.2048 -0.0992 -0.6440
10996TIP3    H132945   1.211   1.869   6.659 -0.3109  0.0197  0.0159
10996TIP3    H232946   1.246   1.928   6.794  1.0678 -0.1674 -0.2541
10997TIP3   OH232947   8.381   4.782   5.597  0.2735  0.0902 -0.1656
10997TIP3    H132948   8.448   4.843   5.628 -0.1777  0.8123 -0.6153
10997TIP3    H232949   8.375   4.797   5.503 -0.6390  0.1503 -0.1069
10998TIP3   OH232950   7.550   1.956   3.225 -0.0803  0.7711  0.1510
10998TIP3    H132951   7.466   1.934   3.184 -1.2541 -0.9631  3.2882
10998TIP3    H232952   7.598   2.004   3.158 -3.5099  1.6450 -1.7869
10999TIP3   OH232953   4.440   7.522   1.896 -0.3564 -0.4081  0.5157
10999TIP3    H132954   4.497   7.471   1.953  0.6174  0.5872  0.4630
10999TIP3    H232955   4.458   7.613   1.919  1.2464  0.0813 -2.4258
11000TIP3   OH232956   6.533   0.374   0.253  0.8793  0.2796  0.2827
11000TIP3    H132957   6.617   0.345   0.289 -0.0720 -1.2973  1.2647
11000TIP3    H232958   6.556   0.450   0.199  2.8874  0.0970  0.8203
11001TIP3   OH232959   0.617   5.340   6.240 -0.8289 -0.2177 -0.7176
11001TIP3    H132960   0.692   5.382   6.197  0.9662 -2.8089 -0.2451
11001TIP3    H232961   0.546   5.404   6.232  1.1017  1.8332 -2.2037
11002TIP3   OH232962   1.059   5.132   5.945 -0.1661 -0.6996 -0.3361
11002TIP3    H132963   0.980   5.179   5.972 -0.3295  0.4192 -2.6161
11002TIP3    H232964   1.030   5.041   5.934 -0.2975 -1.0045  2.2120
11003TIP3   OH232965   4.396   7.796   1.625 -0.1045  0.3781  0.5562
11003TIP3    H132966   4.363   7.762   1.542  0.0438 -1.1693  1.1161
11003TIP3    H232967   4.340   7.757   1.691 -0.9174  2.4772  1.1365
11004TIP3   OH232968   6.911   1.304   2.018  0.0273 -0.5630 -0.2748
11004TIP3    H132969   6.978   1.249   2.060  0.5532  0.3501  0.0979
11004TIP3    H232970   6.832   1.289   2.069  0.2839 -0.6223  0.1048
11005TIP3   OH232971   1.659   3.661   5.827  0.0885 -0.3229 -0.5320
11005TIP3    H132972   1.668   3.575   5.786 -0.6433 -0.2154 -0.9217
11005TIP3    H232973   1.572   3.691   5.802 -0.5547 -0.4481  1.5114
11006TIP3   OH232974   8.380   3.613   5.870 -0.4373 -0.2684  0.9048
11006TIP3    H132975   8.334   3.609   5.953 -0.2764  0.0024  1.0099
11006TIP3    H232976   8.312   3.631   5.805 -0.5457 -0.3620  0.9924
11007TIP3   OH232977   5.138   6.771   0.114  0.1224  0.3586  0.1118
11007TIP3    H132978   5.157   6.687   0.157  0.7968  0.7593  0.6160
11007TIP3    H232979   5.222   6.816   0.110  0.1464  0.1699 -2.0329
11008TIP3   OH232980   2.805   6.844   0.828 -0.7479  0.4331 -0.9247
11008TIP3    H132981   2.849   6.917   0.784 -2.7329  1.6308 -0.9726
11008TIP3    H232982   2.805   6.774   0.763  0.4466  0.6603 -1.1783
11009TIP3   OH232983   0.561   4.637   5.527  0.1755  0.3817  0.3014
11009TIP3    H132984   0.590   4.576   5.594  0.2414 -0.2250 -0.2736
11009TIP3    H232985   0.490   4.687   5.568 -0.4349 -0.6426  0.4999
11010TIP3   OH232986   7.854   0.909   0.454  0.5321 -0.1702  0.0716
11010TIP3    H132987   7.948   0.920   0.471  1.0364  0.9062 -3.1051
11010TIP3    H232988   7.823   0.855   0.527  3.6717 -0.7625  1.0540
11011TIP3   OH232989   6.285   0.292   0.920  0.2918 -0.7128 -0.0588
11011TIP3    H132990   6.286   0.216   0.978 -0.5483 -0.2203  0.6295
11011TIP3    H232991   6.203   0.284   0.871  0.9123 -1.0318 -1.0665
11012TIP3   OH232992   4.669   7.898   0.318  0.3461  0.0341  0.2607
11012TIP3    H132993   4.670   7.829   0.252  1.3250 -0.5683  0.8956
11012TIP3    H232994   4.577   7.906   0.342 -0.1295  0.7824 -1.6992
11013TIP3   OH232995   4.491   7.543   0.477 -0.6518  0.3564  0.2916
11013TIP3    H132996   4.557   7.604   0.442 -1.0795  0.4997 -0.2755
11013TIP3    H232997   4.542   7.474   0.519 -0.1728  1.6216  1.8318
11014TIP3   OH232998   3.095   7.933   0.397 -0.3498  0.0545  0.0132
11014TIP3    H132999   3.146   7.852   0.403 -1.0627 -0.4455 -0.5806
11014TIP3    H233000   3.149   7.990   0.342 -0.2563 -0.3371 -0.3075
11015TIP3   OH233001   6.604   0.727   0.844  0.1828 -0.0339 -0.0781
11015TIP3    H133002   6.539   0.704   0.910  1.3273  0.0317  1.0855
11015TIP3    H233003   6.682   0.676   0.867  0.7715  0.3994 -1.0552
11016TIP3   OH233004   7.573   0.594   0.103  0.5485  0.1219 -0.3342
11016TIP3    H133005   7.657   0.549   0.087 -1.2091 -2.6967 -2.2042
11016TIP3    H233006   7.549   0.568   0.192  1.6680  0.9854  0.2333
11017TIP3   OH233007   3.065   2.449   6.790  0.2724  0.3755 -0.2648
11017TIP3    H133008   3.146   2.467   6.838 -0.4197 -1.5347  1.6905
11017TIP3    H233009   3.045   2.358   6.811 -0.9526  0.0208 -2.8931
11018TIP3   OH233010   6.734   1.325   0.744  0.0276  0.1797  0.1174
11018TIP3    H133011   6.746   1.233   0.768 -0.6608 -0.1231 -0.6808
11018TIP3    H233012   6.642   1.342   0.760 -0.1433  0.3475 -1.0084
11019TIP3   OH233013   5.207   7.219   0.680  0.0687  0.7152 -0.1182
11019TIP3    H133014   5.178   7.133   0.649  0.7580  0.7424 -0.8422
11019TIP3    H233015   5.151   7.237   0.756  0.7074 -0.9016  0.7498
11020TIP3   OH233016   6.881   2.373   0.594 -0.4681 -0.0512  0.1490
11020TIP3    H133017   6.890   2.278   0.597 -1.2215 -0.1163  0.2095
11020TIP3    H233018   6.949   2.401   0.532  1.2299 -0.4369  1.7989
11021TIP3   OH233019   0.395   4.465   6.373 -0.1518 -0.6526  0.3464
11021TIP3    H133020   0.316   4.414   6.390 -1.4909  1.4521  0.6957
11021TIP3    H233021   0.363   4.545   6.331  1.6658  0.7523  1.5417
11022TIP3   OH233022   1.084   2.984   5.924  0.2027 -0.7538 -0.3074
11022TIP3    H133023   1.177   2.963   5.924  0.9413  2.3315 -0.5069
11022TIP3    H233024   1.075   3.053   5.859 -1.9101  0.3558  1.1227
11023TIP3   OH233025   4.532   7.863   0.880  0.1484  0.4828  0.3927
11023TIP3    H133026   4.584   7.783   0.890  1.1857  1.2960  1.7128
11023TIP3    H233027   4.449   7.834   0.842  0.6770 -1.1580  0.4752
11024TIP3   OH233028   1.042   4.894   6.553 -0.2241 -0.6312 -0.1548
11024TIP3    H133029   0.952   4.911   6.579  0.5021  2.8327  0.3738
11024TIP3    H233030   1.095   4.936   6.621  1.7889 -2.3997 -0.5730
11025TIP3   OH233031   2.983   4.282   5.928  0.1137  0.3574 -0.4125
11025TIP3    H133032   3.068   4.321   5.905 -0.3904  0.7236 -1.7172
11025TIP3    H233033   2.958   4.232   5.851 -0.1072 -1.0835  0.5833
11026TIP3   OH233034   2.653   4.045   5.604 -1.0095 -0.3455  0.0057
11026TIP3    H133035   2.654   3.949   5.610 -0.5777 -0.3093  0.5643
11026TIP3    H233036   2.723   4.066   5.542  0.1275 -0.3015  1.2945
11027TIP3   OH233037   5.347   6.882   1.325 -0.3910  0.4180 -0.3982
11027TIP3    H133038   5.393   6.802   1.351 -0.4507 -0.0128 -1.5953
11027TIP3    H233039   5.381   6.949   1.385  0.5255 -0.2509 -0.1469
11028TIP3   OH233040   1.791   2.673   6.175 -0.2266  0.1192  0.5538
11028TIP3    H133041   1.706   2.696   6.212 -0.3696 -1.5547  1.3203
11028TIP3    H233042   1.828   2.611   6.238  0.4952 -1.0501 -1.0107
11029TIP3   OH233043   3.286   7.254   0.037 -0.2157 -0.5593 -0.2998
11029TIP3    H133044   3.378   7.232   0.051  0.0070  0.3298 -0.3354
11029TIP3    H233045   3.277   7.343   0.069 -1.1645 -0.7823  0.0762
11030TIP3   OH233046   7.375   5.317   5.622  0.5069  0.2468  0.0769
11030TIP3    H133047   7.316   5.292   5.693  1.3454  0.3021  0.8030
11030TIP3    H233048   7.393   5.235   5.575 -0.6079  0.3322 -0.5065
11031TIP3   OH233049   0.652   5.224   6.688 -0.1137  0.0250  0.0153
11031TIP3    H133050   0.562   5.205   6.662 -0.1323  0.9192 -0.5813
11031TIP3    H233051   0.700   5.143   6.672 -1.0788 -0.8866  1.5911
11032TIP3   OH233052   1.356   4.815   6.392 -0.2831 -0.0632 -0.0548
11032TIP3    H133053   1.432   4.762   6.369  0.3666  0.6391  0.4703
11032TIP3    H233054   1.288   4.786   6.330  0.8331  0.3347 -1.5027
11033TIP3   OH233055   0.673   3.276   4.954 -0.3716  0.4637 -0.1911
11033TIP3    H133056   0.746   3.326   4.991 -0.6815  0.4021  0.5013
11033TIP3    H233057   0.599   3.337   4.955 -0.7054  0.0532  0.4947
11034TIP3   OH233058   1.443   3.830   4.714  0.4932 -0.0529  0.1858
11034TIP3    H133059   1.443   3.915   4.671  0.8840 -0.3796 -0.4718
11034TIP3    H233060   1.356   3.823   4.754 -0.7043 -0.6618 -2.4358
11035TIP3   OH233061   2.385   5.496   6.235  0.2828 -0.3986 -0.1372
11035TIP3    H133062   2.476   5.481   6.208  0.4884 -0.6723  0.7160
11035TIP3    H233063   2.339   5.511   6.152  0.7564 -2.0914 -0.7490
11036TIP3   OH233064   1.643   7.108   6.270  0.0289 -0.0656  0.1827
11036TIP3    H133065   1.658   7.203   6.280  0.4958 -0.1991  0.7760
11036TIP3    H233066   1.719   7.068   6.312  0.8861 -0.6801 -1.8770
11037TIP3   OH233067   1.264   4.303   6.850 -0.3853  0.7417 -0.5432
11037TIP3    H133068   1.195   4.367   6.833 -1.1896  0.1841  0.5690
11037TIP3    H233069   1.326   4.348   6.906 -1.4147  0.2682  0.9961
11038TIP3   OH233070   0.538   7.204   6.049  0.2468  0.7605 -0.6243
11038TIP3    H133071   0.551   7.269   6.118  0.5972  0.5245 -0.4667
11038TIP3    H233072   0.443   7.188   6.049  0.2999  0.3883  0.1553
11039TIP3   OH233073   1.027   4.641   6.417  0.1625 -0.4885 -0.4409
11039TIP3    H133074   1.098   4.579   6.431  0.3462 -0.6675 -2.0543
11039TIP3    H233075   1.057   4.721   6.462  1.5872 -0.4268 -1.4542
11040TIP3   OH233076   7.070   0.968   0.498  0.1337  0.5676  0.0349
11040TIP3    H133077   7.128   0.955   0.423 -0.8858 -0.8214 -0.5389
11040TIP3    H233078   7.017   1.044   0.474 -0.1934  0.1240 -0.6836
11041TIP3   OH233079   1.666   5.031   6.385 -0.3480 -0.1969 -0.4833
11041TIP3    H133080   1.673   4.972   6.311 -1.8012 -1.4507  0.3450
11041TIP3    H233081   1.646   4.974   6.459  0.2593  1.1239  0.7169
11042TIP3   OH233082   6.090   0.085   0.253  0.3450 -0.1241 -0.3219
11042TIP3    H133083   6.180   0.083   0.285  0.1756  0.2318  0.1926
11042TIP3    H233084   6.094   0.136   0.172  0.3921  1.0668  0.4168
11043TIP3   OH233085   1.263   3.649   5.166  0.2854  0.3690  0.1994
11043TIP3    H133086   1.297   3.561   5.184  0.1593  0.3146  0.1696
11043TIP3    H233087   1.341   3.700   5.142  0.4349  0.4061  0.7499
11044TIP3   OH233088   1.449   2.169   3.630 -0.5791  0.7072  0.6968
11044TIP3    H133089   1.423   2.123   3.710  0.2085 -1.0899 -0.0379
11044TIP3    H233090   1.540   2.194   3.644 -0.6421  0.9862  0.6203
11045TIP3   OH233091   7.523   2.158   2.100  0.1527 -0.1859  0.3272
11045TIP3    H133092   7.472   2.103   2.041  1.3917 -1.2930  0.2527
11045TIP3    H233093   7.614   2.136   2.080  0.6550  1.6823  0.5248
11046TIP3   OH233094   0.692   2.114   5.979 -0.1516 -0.1850  0.0018
11046TIP3    H133095   0.700   2.019   5.973  0.8662 -0.1615  0.8702
11046TIP3    H233096   0.656   2.130   6.067  0.8638  0.2888  0.3375
11047TIP3   OH233097   7.579   5.969   3.685  0.0009  0.9569 -0.7044
11047TIP3    H133098   7.605   5.953   3.776 -2.7504 -0.5601 -0.1305
11047TIP3    H233099   7.630   6.045   3.658  1.0571  1.2557  2.0328
11048TIP3   OH233100   2.897   2.868   6.118 -0.0554 -0.2438 -0.2063
11048TIP3    H133101   2.897   2.913   6.203  0.3898  0.9708 -0.8318
11048TIP3    H233102   2.807   2.879   6.085 -0.7974 -2.4709  0.9960
11049TIP3   OH233103   5.690   0.256   1.584  0.2310  0.5608  0.3840
11049TIP3    H133104   5.735   0.224   1.506 -0.5371 -1.8135  0.8539
11049TIP3    H233105   5.597   0.240   1.566 -0.0511  1.2185  1.2365
11050TIP3   OH233106   8.098   0.418   0.420 -0.0040  0.3395  0.3134
11050TIP3    H133107   8.137   0.430   0.333  2.6839 -1.5908  1.1613
11050TIP3    H233108   8.023   0.361   0.406 -0.8718  1.7886 -1.0114
11051TIP3   OH233109   0.428   2.224   6.470  0.1181 -0.0650  0.0727
11051TIP3    H133110   0.437   2.208   6.376 -0.4051 -0.6566  0.1202
11051TIP3    H233111   0.516   2.244   6.500  0.5365 -1.3293 -0.2793
11052TIP3   OH233112   1.874   7.481   1.557  0.2591  0.5184  0.3171
11052TIP3    H133113   1.901   7.570   1.581 -1.5378  1.2227 -0.1759
11052TIP3    H233114   1.891   7.429   1.635  1.1165  1.3439  0.6871
11053TIP3   OH233115   0.797   4.692   5.990 -0.2274  0.5397  0.2652
11053TIP3    H133116   0.715   4.644   5.994  1.4913 -2.4899  1.2289
11053TIP3    H233117   0.783   4.769   6.046 -2.1815 -0.2648  0.9138
11054TIP3   OH233118   3.227   7.562   0.802 -0.4167 -0.0636  0.1428
11054TIP3    H133119   3.205   7.597   0.889 -1.7427 -0.7655  0.0920
11054TIP3    H233120   3.153   7.507   0.779  1.2276 -2.1647 -0.2019
11055TIP3   OH233121   0.067   6.720   5.089 -0.0997 -0.1365  0.3313
11055TIP3    H133122   0.153   6.754   5.113 -0.4176  2.3891 -1.7916
11055TIP3    H233123   0.085   6.639   5.041  1.3320  1.6369 -2.2692
11056TIP3   OH233124   1.601   4.492   5.648  0.1796  0.0959 -0.3660
11056TIP3    H133125   1.587   4.398   5.655  0.0360  0.1163 -0.3667
11056TIP3    H233126   1.595   4.524   5.738  1.6968 -0.0905 -0.1971
11057TIP3   OH233127   7.246   2.146   0.367  0.0839 -0.4961  0.0125
11057TIP3    H133128   7.178   2.210   0.344  0.0859 -0.1081  1.0658
11057TIP3    H233129   7.328   2.186   0.339 -0.0120 -0.4911 -0.2654
11058TIP3   OH233130   1.016   5.781   5.965  0.0237 -0.3979  0.2663
11058TIP3    H133131   0.927   5.807   5.986  0.0201  0.6979 -1.0443
11058TIP3    H233132   1.020   5.689   5.988 -1.1624 -0.2316  1.2120
11059TIP3   OH233133   0.781   3.299   6.174 -0.2283 -0.1748 -0.3168
11059TIP3    H133134   0.765   3.365   6.242 -1.4587  1.6683 -2.2904
11059TIP3    H233135   0.699   3.297   6.124  1.7220  1.0056 -3.7666
11060TIP3   OH233136   0.853   4.568   5.130 -0.4043  0.4704 -0.7434
11060TIP3    H133137   0.877   4.487   5.085  0.5721  0.4171 -0.1416
11060TIP3    H233138   0.929   4.589   5.184 -1.5399  0.5845  0.8261
11061TIP3   OH233139   7.495   4.165   5.597  0.1971  0.4630 -0.3411
11061TIP3    H133140   7.557   4.176   5.669 -0.7434  1.9711  0.2648
11061TIP3    H233141   7.549   4.138   5.523  1.2245 -0.7113  0.8125
11062TIP3   OH233142   2.177   5.847   6.747  0.3870  0.3903  0.2379
11062TIP3    H133143   2.181   5.773   6.808 -0.9450 -0.2709 -0.4413
11062TIP3    H233144   2.268   5.865   6.725  0.9014  0.6238  2.3868
11063TIP3   OH233145   1.093   4.148   5.877 -0.3004 -0.1467 -0.0076
11063TIP3    H133146   1.180   4.182   5.900  0.5101 -1.5862 -0.8456
11063TIP3    H233147   1.066   4.098   5.954 -1.0248  1.4936  0.8116
11064TIP3   OH233148   6.517   1.753   2.174  0.6094 -0.8141 -0.2865
11064TIP3    H133149   6.494   1.836   2.216 -0.9326 -1.2908 -0.1655
11064TIP3    H233150   6.509   1.770   2.081 -2.4962 -1.5694 -0.2149
11065TIP3   OH233151   0.462   3.397   4.782 -0.4200  0.9183  0.3489
11065TIP3    H133152   0.409   3.410   4.861 -0.9340  0.8336  0.0252
11065TIP3    H233153   0.410   3.439   4.712 -0.1136  0.7283  0.0084
11066TIP3   OH233154   0.290   1.921   0.484  0.4347  0.6072  0.6828
11066TIP3    H133155   0.259   1.830   0.484 -0.2760  0.8436  0.2020
11066TIP3    H233156   0.375   1.917   0.527  0.7399 -0.4003  0.0081
11067TIP3   OH233157   0.525   5.209   5.579 -1.3914 -0.1645 -1.1918
11067TIP3    H133158   0.520   5.146   5.507 -0.7776  1.0218 -2.3058
11067TIP3    H233159   0.617   5.210   5.604 -1.5187 -0.2140 -0.7129
11068TIP3   OH233160   7.377   1.985   0.531  0.0057 -0.5058 -0.4980
11068TIP3    H133161   7.318   2.036   0.476 -0.6577 -0.4775  0.2458
11068TIP3    H233162   7.465   2.011   0.502 -0.3127  1.5410  0.3162
11069TIP3   OH233163   6.314   0.624   2.178 -0.3417  0.0146 -0.1650
11069TIP3    H133164   6.399   0.669   2.173 -0.6790  0.5452 -1.2884
11069TIP3    H233165   6.303   0.583   2.092 -0.4502 -1.4858  0.5507
11070TIP3   OH233166   7.662   3.123   1.146  0.1474  0.5091  0.1865
11070TIP3    H133167   7.639   3.115   1.054 -0.5488  0.5249  0.3576
11070TIP3    H233168   7.735   3.062   1.158  0.4408  0.7359 -0.4433
11071TIP3   OH233169   3.804   7.452   2.021 -0.4021 -0.2882 -0.0185
11071TIP3    H133170   3.718   7.438   2.059 -1.1615  0.4604 -1.4496
11071TIP3    H233171   3.832   7.537   2.056  0.1585 -0.9609  1.1797
11072TIP3   OH233172   8.105   0.946   1.056  0.8397  0.1287  0.3168
11072TIP3    H133173   8.037   0.976   0.995  0.2667 -0.7883  0.5062
11072TIP3    H233174   8.165   0.894   1.002  0.3394 -0.6727  0.5434
11073TIP3   OH233175   1.763   3.503   6.521  0.4659  0.8070  0.1132
11073TIP3    H133176   1.786   3.417   6.487  0.0992  0.3960  0.8869
11073TIP3    H233177   1.696   3.486   6.587 -0.8817  1.8452 -0.9568
11074TIP3   OH233178   4.543   6.669   1.690  0.6144  0.1794  0.0152
11074TIP3    H133179   4.507   6.591   1.733  0.6667 -0.1231 -0.4926
11074TIP3    H233180   4.634   6.674   1.720  0.8834 -0.4827 -0.6858
11075TIP3   OH233181   2.657   5.703   4.699 -0.0095 -0.5764 -0.1570
11075TIP3    H133182   2.694   5.759   4.630  1.6137  0.1263  1.2460
11075TIP3    H233183   2.670   5.614   4.667  0.7794 -0.2610 -0.7334
11076TIP3   OH233184   7.881   1.647  -0.007 -0.7723  0.0623  0.4019
11076TIP3    H133185   7.887   1.613   0.083  0.9828  2.3497  1.2276
11076TIP3    H233186   7.965   1.623  -0.047 -0.0079  2.2357  0.6171
11077TIP3   OH233187   3.561   7.732   0.949  0.2159 -0.4841  0.4611
11077TIP3    H133188   3.612   7.736   0.868  1.4079  2.5245  1.3359
11077TIP3    H233189   3.625   7.729   1.019 -0.7929  0.3816  1.4475
11078TIP3   OH233190   7.972   6.595   5.300 -0.3032  0.8360  0.3463
11078TIP3    H133191   8.018   6.624   5.221 -0.3692  0.4383  0.1586
11078TIP3    H233192   7.940   6.675   5.341  0.3546  1.0999  0.3473
11079TIP3   OH233193   2.287   4.472   4.769  0.2926 -0.3666 -0.1474
11079TIP3    H133194   2.205   4.440   4.805 -0.4203  0.1792 -1.2639
11079TIP3    H233195   2.355   4.433   4.825 -0.7545 -0.0336  1.3644
11080TIP3   OH233196   7.967   0.289   1.065  0.1087  0.7990 -0.1301
11080TIP3    H133197   7.958   0.370   1.015  2.0043  0.9011 -0.3367
11080TIP3    H233198   7.986   0.318   1.155  1.6401  0.6104 -0.3727
11081TIP3   OH233199  -0.006   6.263   6.558  0.3723  0.0703 -0.4278
11081TIP3    H133200   0.068   6.203   6.546  0.0268 -0.5243  0.3754
11081TIP3    H233201   0.028   6.331   6.615  0.4396  0.0607 -0.4560
11082TIP3   OH233202   7.914   2.080   0.831 -0.1240 -0.6098 -0.9900
11082TIP3    H133203   7.856   2.140   0.785 -1.0677 -0.3701  0.4652
11082TIP3    H233204   8.001   2.117   0.819 -0.5468  0.3176 -1.2354
11083TIP3   OH233205   3.390   7.470   2.261  0.6133 -0.5593 -0.3357
11083TIP3    H133206   3.417   7.559   2.285  1.7001 -1.1943  0.8401
11083TIP3    H233207   3.326   7.483   2.191 -0.7598  1.2336  1.1775
11084TIP3   OH233208   0.793   2.456   6.786 -0.0612  0.1324 -0.0691
11084TIP3    H133209   0.883   2.478   6.765  0.2381 -1.6616 -0.7097
11084TIP3    H233210   0.759   2.534   6.830  1.9561  0.6178  0.6619
11085TIP3   OH233211   1.971   4.803   6.470 -0.4420 -0.2650  0.0604
11085TIP3    H133212   1.925   4.835   6.548  2.3692  2.2722  0.7535
11085TIP3    H233213   1.907   4.812   6.399 -1.9324  0.5170  1.4739
11086TIP3   OH233214   4.900   7.312   0.098  0.4765  0.2589  0.1517
11086TIP3    H133215   4.824   7.297   0.042  1.3318 -2.3088 -0.3957
11086TIP3    H233216   4.956   7.236   0.083  2.6665  1.5859  1.3479
11087TIP3   OH233217   0.754   3.536   4.624  0.3530 -0.0259  0.2320
11087TIP3    H133218   0.664   3.538   4.593  0.6916  0.1338 -0.7678
11087TIP3    H233219   0.775   3.443   4.632  0.6808 -0.0960 -1.2907
11088TIP3   OH233220   1.425   2.184   6.472 -0.3291  0.1435 -0.3681
11088TIP3    H133221   1.384   2.105   6.436 -0.9007  0.3652 -0.2229
11088TIP3    H233222   1.469   2.225   6.398  0.6703 -0.7455 -0.2730
11089TIP3   OH233223   3.476   3.762   6.736  0.1541 -0.7764  0.0094
11089TIP3    H133224   3.399   3.710   6.758  0.4410 -1.4424 -0.5346
11089TIP3    H233225   3.441   3.843   6.699 -0.3008 -0.4497  1.1102
11090TIP3   OH233226   7.634   1.181   0.262 -0.4090 -0.0161 -0.2044
11090TIP3    H133227   7.591   1.167   0.177  0.8160 -1.3568 -0.6198
11090TIP3    H233228   7.682   1.100   0.278 -1.7358 -0.3334  2.4414
11091TIP3   OH233229   1.451   1.455   6.219 -0.1626 -0.3360  0.1962
11091TIP3    H133230   1.437   1.409   6.136 -1.3875 -0.9212  0.7187
11091TIP3    H233231   1.363   1.469   6.254  0.3287  0.2585  1.2097
11092TIP3   OH233232   0.227   3.703   6.069  0.2204  0.4792  0.2354
11092TIP3    H133233   0.300   3.655   6.107  1.2642 -0.3706 -2.7357
11092TIP3    H233234   0.225   3.676   5.977 -3.3721  1.0478  0.0673
11093TIP3   OH233235   0.536   6.488   5.840 -0.3497 -0.5882  0.4246
11093TIP3    H133236   0.495   6.416   5.792 -1.2232 -1.0208  1.7737
11093TIP3    H233237   0.630   6.468   5.837 -0.5358 -1.4986  0.3349
11094TIP3   OH233238   7.734   0.742   2.430  0.3753  0.5381 -0.0600
11094TIP3    H133239   7.778   0.745   2.515 -0.6865 -0.3561  0.5258
11094TIP3    H233240   7.702   0.653   2.422 -1.0099  1.0671 -0.6443
11095TIP3   OH233241   3.540   6.668   2.474 -0.0119 -0.3394 -0.6453
11095TIP3    H133242   3.632   6.660   2.448  0.2191 -0.2006  0.1175
11095TIP3    H233243   3.538   6.745   2.530 -0.0111 -2.1707  1.9550
11096TIP3   OH233244   3.191   2.642   6.483  0.0651  0.0142  0.3835
11096TIP3    H133245   3.133   2.601   6.548  2.6860 -2.1148  1.4881
11096TIP3    H233246   3.254   2.692   6.536 -0.4771  1.9696 -0.7774
11097TIP3   OH233247   8.389   4.080   6.136 -0.1557 -0.0371  0.8954
11097TIP3    H133248   8.414   3.987   6.142 -0.2264 -0.1363 -0.1804
11097TIP3    H233249   8.297   4.078   6.110  0.6695  0.3124 -2.2007
11098TIP3   OH233250   5.777   7.173   0.539 -0.3228 -0.3311 -0.1548
11098TIP3    H133251   5.756   7.121   0.617  0.9107 -1.9023 -0.8425
11098TIP3    H233252   5.748   7.119   0.466 -0.8902  0.8633 -0.8076
11099TIP3   OH233253   7.675   4.781   6.552 -0.5196  0.2699  0.3406
11099TIP3    H133254   7.768   4.760   6.549 -0.7142 -0.8919  1.7150
11099TIP3    H233255   7.657   4.825   6.470  1.5391  1.7086  0.6466
11100TIP3   OH233256   2.545   6.675   1.500 -0.6049  0.2521  0.1698
11100TIP3    H133257   2.580   6.629   1.425  0.1241  1.7859 -0.4437
11100TIP3    H233258   2.493   6.747   1.463 -2.0423 -0.2717  1.0970
11101TIP3   OH233259   1.922   5.599   6.808  0.3942 -0.4820 -0.1042
11101TIP3    H133260   2.001   5.588   6.861  0.4677 -2.1113 -0.5171
11101TIP3    H233261   1.851   5.598   6.871  0.6052 -0.5854  0.1344
11102TIP3   OH233262   0.813   4.023   5.583  0.5096 -0.3762 -0.1436
11102TIP3    H133263   0.881   3.967   5.546  0.0934 -0.4638 -0.7949
11102TIP3    H233264   0.833   4.027   5.676  1.7639  0.1227 -0.4289
11103TIP3   OH233265   4.284   7.506   0.310  0.3117  0.1140 -0.2189
11103TIP3    H133266   4.352   7.517   0.376 -0.6451 -0.4032  0.8791
11103TIP3    H233267   4.221   7.446   0.350 -1.3600  1.4581 -0.7409
11104TIP3   OH233268   7.283   0.022   0.123  0.1917  0.2548 -0.0301
11104TIP3    H133269   7.212   0.070   0.080  0.1432 -0.3363 -0.6182
11104TIP3    H233270   7.249  -0.067   0.132  0.1153  0.4302  1.4475
11105TIP3   OH233271   2.338   4.138   6.057 -0.9303  0.1680 -0.2537
11105TIP3    H133272   2.297   4.224   6.068  0.0723  0.9707 -2.5196
11105TIP3    H233273   2.280   4.092   5.996 -1.5928 -0.8542  1.1431
11106TIP3   OH233274   7.055   1.368   3.210  0.2282  0.1526 -0.0763
11106TIP3    H133275   7.064   1.292   3.152 -1.7473  0.2204 -0.4777
11106TIP3    H233276   6.999   1.429   3.162 -0.9966  0.4375  1.6683
11107TIP3   OH233277   4.165   7.344   0.779 -0.7518 -0.2323 -0.7429
11107TIP3    H133278   4.113   7.288   0.721 -1.6113 -0.4160  0.1898
11107TIP3    H233279   4.176   7.292   0.859 -0.2868  0.3483 -0.4252
11108TIP3   OH233280   2.265   5.766   4.978  0.6857 -0.6308 -0.0865
11108TIP3    H133281   2.301   5.806   5.057 -1.1580  0.5857  0.1455
11108TIP3    H233282   2.330   5.700   4.954  1.3445 -0.9286  2.3530
11109TIP3   OH233283   5.443   2.406   0.777 -0.1634 -0.3747  0.1252
11109TIP3    H133284   5.367   2.457   0.805 -0.7754 -0.7884 -0.7518
11109TIP3    H233285   5.511   2.427   0.841 -1.0447 -0.0776  0.9729
11110TIP3   OH233286   1.075   4.372   6.153  0.4092 -0.3894 -0.1875
11110TIP3    H133287   1.141   4.431   6.191 -0.3617 -0.0692  0.6958
11110TIP3    H233288   1.068   4.400   6.062  1.9155 -0.8184 -0.4503
11111TIP3   OH233289   7.620   2.354   5.657  0.6883  0.8572 -0.5368
11111TIP3    H133290   7.683   2.294   5.618  0.9086  0.2750  0.6899
11111TIP3    H233291   7.626   2.433   5.604  2.4155  0.7872 -0.4786
11112TIP3   OH233292   0.288   2.861   6.459 -0.0494  0.7416  0.3789
11112TIP3    H133293   0.208   2.818   6.488 -0.0996  0.5045 -0.1145
11112TIP3    H233294   0.264   2.953   6.448 -0.3953  0.5726 -0.3020
11113TIP3   OH233295   3.136   3.323   5.923 -0.2143  0.0670 -0.1583
11113TIP3    H133296   3.047   3.340   5.892  0.5463  1.6695 -1.5639
11113TIP3    H233297   3.144   3.375   6.003 -0.3346  0.4556 -0.3960
11114TIP3   OH233298   5.404   7.536   1.514  0.2832 -0.5795 -0.4285
11114TIP3    H133299   5.486   7.491   1.494  0.7052  0.3230 -0.7674
11114TIP3    H233300   5.365   7.554   1.428  0.3194  0.0536 -0.3166
11115TIP3   OH233301   0.044   0.197   0.189 -0.0664  0.1835  0.2957
11115TIP3    H133302   0.075   0.138   0.256 -0.0691  0.0446  0.1747
11115TIP3    H233303   0.019   0.277   0.236 -0.0765  0.0831  0.4579
11116TIP3   OH233304   0.670   5.455   6.498 -0.3724 -0.3243 -0.7054
11116TIP3    H133305   0.647   5.394   6.427 -1.3157 -1.8029  0.8545
11116TIP3    H233306   0.639   5.412   6.578  3.0906  0.0411  0.9214
11117TIP3   OH233307   3.712   6.898   2.059  0.3733  0.3306 -0.0902
11117TIP3    H133308   3.778   6.922   1.994  0.8493 -1.2294 -0.1809
11117TIP3    H233309   3.705   6.803   2.054  1.3957  0.0114  3.0548
11118TIP3   OH233310   3.034   6.445   3.170  0.0265 -0.0977  0.2572
11118TIP3    H133311   2.964   6.381   3.160 -0.0007 -0.2498  1.3613
11118TIP3    H233312   2.989   6.529   3.183  0.0603  0.1179 -1.0323
11119TIP3   OH233313   2.933   5.299   0.405  0.5441  0.4373  0.4358
11119TIP3    H133314   2.912   5.207   0.389  0.3192  0.2538  1.6849
11119TIP3    H233315   2.921   5.341   0.320  0.3264 -0.6248 -0.0805
11120TIP3   OH233316   3.920   4.686   1.032 -0.0866 -0.4563 -0.2520
11120TIP3    H133317   3.862   4.757   1.059  1.4548  0.3935  0.8788
11120TIP3    H233318   3.983   4.678   1.104  1.2881 -1.2821 -1.5316
11121TIP3   OH233319   1.038   4.535   5.944 -0.0843 -0.2426 -0.1602
11121TIP3    H133320   0.950   4.571   5.956  0.0668  0.8516 -2.0601
11121TIP3    H233321   1.032   4.487   5.862  0.2051 -3.1094  1.4492
11122TIP3   OH233322   6.343   0.614   0.220 -0.0959  0.0749  0.3314
11122TIP3    H133323   6.314   0.544   0.162 -0.1347 -0.6375  1.2173
11122TIP3    H233324   6.341   0.693   0.165  1.2621 -0.8332 -1.0432
11123TIP3   OH233325   1.705   6.239   5.680  0.5025  0.8009  0.1982
11123TIP3    H133326   1.743   6.158   5.648 -2.6036 -0.4253 -0.6095
11123TIP3    H233327   1.705   6.231   5.775  1.6094  0.5383  0.1782
11124TIP3   OH233328   3.791   6.183   2.108  0.1361 -0.2214 -0.0979
11124TIP3    H133329   3.738   6.200   2.186 -0.0109 -0.4257 -0.1528
11124TIP3    H233330   3.840   6.103   2.129 -0.5727 -0.7844 -0.5559
11125TIP3   OH233331   6.652   2.198   0.756  0.2481  0.3079  0.1209
11125TIP3    H133332   6.587   2.136   0.725  0.9997 -0.5252  0.2150
11125TIP3    H233333   6.677   2.249   0.679  0.8636 -0.6224 -0.2905
11126TIP3   OH233334   4.481   4.631   6.768 -0.3045 -0.3845  0.5611
11126TIP3    H133335   4.428   4.579   6.708 -2.3911 -0.3190  2.2962
11126TIP3    H233336   4.469   4.590   6.854  2.6253 -0.4857  0.9772
11127TIP3   OH233337   1.611   0.166   0.073  0.2243 -0.1312 -0.0765
11127TIP3    H133338   1.559   0.117   0.136 -1.5297  0.5761 -0.9353
11127TIP3    H233339   1.701   0.135   0.086 -0.7468 -3.1597 -0.2274
11128TIP3   OH233340   2.637   7.503   1.453  0.0631 -0.3821  0.0282
11128TIP3    H133341   2.588   7.543   1.381  0.8824  1.2366  0.3704
11128TIP3    H233342   2.576   7.505   1.527 -0.9016 -2.3398 -0.6456
11129TIP3   OH233343   0.177   2.311   1.483  0.2087  0.4000  0.1392
11129TIP3    H133344   0.133   2.238   1.439 -0.7448  0.3347  1.1655
11129TIP3    H233345   0.166   2.385   1.423 -0.3645  0.1211 -0.1039
11130TIP3   OH233346   3.634   5.379   4.282  0.5698  0.0956  0.0406
11130TIP3    H133347   3.685   5.336   4.213 -0.0905 -0.6170 -0.0022
11130TIP3    H233348   3.694   5.383   4.357  0.5267 -1.1660  0.1399
11131TIP3   OH233349   1.393   2.592   6.797  0.1542 -0.5279 -0.1861
11131TIP3    H133350   1.468   2.630   6.751 -0.1815  1.6855  1.0250
11131TIP3    H233351   1.371   2.514   6.747  1.7881  0.0844 -1.9156
11132TIP3   OH233352   6.331   7.500   0.542  0.3695  0.2054 -0.5057
11132TIP3    H133353   6.382   7.534   0.469  2.8779  0.6054  1.3933
11132TIP3    H233354   6.350   7.406   0.544  0.3859  0.2114 -0.3013
11133TIP3   OH233355   7.787   1.737   1.084 -0.2790 -0.0448  0.1101
11133TIP3    H133356   7.741   1.653   1.078  0.1614 -0.4911  2.2850
11133TIP3    H233357   7.849   1.736   1.012 -0.8513 -1.2190 -0.3866
11134TIP3   OH233358   6.874   5.422   6.641  0.0452  0.3293 -0.3416
11134TIP3    H133359   6.902   5.345   6.591 -0.2227 -0.4038  0.6188
11134TIP3    H233360   6.818   5.387   6.710 -0.7405  1.4756 -0.3789
11135TIP3   OH233361   3.256   3.637   5.670 -0.3927  0.1444 -0.3804
11135TIP3    H133362   3.341   3.635   5.714 -0.1677 -2.4311 -0.8717
11135TIP3    H233363   3.258   3.562   5.611 -3.5667 -0.8913  0.7212
11136TIP3   OH233364   2.026   2.482   6.838  0.7893  0.3879 -0.0058
11136TIP3    H133365   2.086   2.423   6.883  0.3837 -0.2769 -0.3229
11136TIP3    H233366   2.020   2.558   6.896  0.5998 -0.2734  0.8656
11137TIP3   OH233367   3.281   3.355   6.449 -0.2743 -0.6476 -0.0109
11137TIP3    H133368   3.231   3.279   6.417 -0.9003 -0.5027  0.6327
11137TIP3    H233369   3.230   3.388   6.523  0.0700  0.3250 -0.2069
11138TIP3   OH233370   3.097   4.397   5.034 -0.2396 -0.0081  0.0138
11138TIP3    H133371   3.050   4.329   4.986 -1.0937  0.3542  0.3321
11138TIP3    H233372   3.180   4.355   5.059 -1.0800 -1.1981  0.8826
11139TIP3   OH233373   0.868   4.795   6.877  0.4020 -0.1754 -0.1697
11139TIP3    H133374   0.918   4.732   6.927  0.0748  0.3465  0.8187
11139TIP3    H233375   0.844   4.749   6.797  1.0887 -0.9426  0.0678
11140TIP3   OH233376   1.798   4.913   5.078 -0.4043 -0.9175  0.1653
11140TIP3    H133377   1.853   4.835   5.080  0.3951 -0.3168  2.3816
11140TIP3    H233378   1.853   4.982   5.115 -2.3882 -0.1450  1.7626
11141TIP3   OH233379   2.524   7.398   4.461  0.2461  0.1867  0.2757
11141TIP3    H133380   2.478   7.367   4.539 -2.0241  1.1883 -0.6194
11141TIP3    H233381   2.534   7.320   4.406 -0.7562  0.0209  0.3143
11142TIP3   OH233382   6.128   6.925   0.741 -0.1287  0.3134 -0.1483
11142TIP3    H133383   6.214   6.883   0.736 -0.1037  0.1114  1.7516
11142TIP3    H233384   6.084   6.896   0.661  1.2905 -0.1920 -0.7733
11143TIP3   OH233385   1.942   6.012   4.190 -0.1867 -0.5087  0.1419
11143TIP3    H133386   1.926   5.923   4.221  0.1311 -0.9576 -0.9443
11143TIP3    H233387   2.034   6.029   4.211  0.0932 -0.8980 -0.7291
11144TIP3   OH233388   2.267   4.511   6.830 -0.3284  0.1376  0.2822
11144TIP3    H133389   2.329   4.476   6.766  0.4390  1.4944  0.2604
11144TIP3    H233390   2.209   4.568   6.780 -0.5681  0.1449  0.5659
11145TIP3   OH233391   0.987   6.428   0.469 -0.9065 -0.6308 -0.5061
11145TIP3    H133392   0.962   6.520   0.475 -0.4606 -0.5584  0.2368
11145TIP3    H233393   0.970   6.392   0.556 -0.3784 -1.0708 -0.5807
11146TIP3   OH233394   2.423   3.390   5.942 -0.4551  0.1314  0.4499
11146TIP3    H133395   2.487   3.387   5.871 -1.0574 -0.9954 -0.0616
11146TIP3    H233396   2.380   3.475   5.933  0.5826  0.6614  0.4567
11147TIP3   OH233397   2.111   4.876   5.203 -0.1222 -0.3289  0.0574
11147TIP3    H133398   2.139   4.840   5.287 -1.6030 -0.2223  0.6103
11147TIP3    H233399   2.074   4.801   5.156  1.2115 -0.5092 -0.7463
11148TIP3   OH233400   1.617   6.608   4.315  0.0437  0.4374 -0.0180
11148TIP3    H133401   1.609   6.518   4.348  0.9196  0.4802  0.3031
11148TIP3    H233402   1.677   6.651   4.376 -0.4485  1.2712 -0.1209
11149TIP3   OH233403   4.087   6.436   6.353  0.7364  0.0848  0.3386
11149TIP3    H133404   4.097   6.397   6.440  1.4297  1.1004  0.7372
11149TIP3    H233405   4.176   6.436   6.317  0.6500  0.7491  0.1194
11150TIP3   OH233406   7.740   7.143   0.165 -0.7560  0.2956  0.0594
11150TIP3    H133407   7.756   7.113   0.255  2.6564 -1.9495 -1.2036
11150TIP3    H233408   7.793   7.222   0.156 -1.4546  0.7793  0.1324
11151TIP3   OH233409   7.538   1.242   1.310  0.0531 -0.5750  0.3108
11151TIP3    H133410   7.609   1.305   1.316 -0.3157 -0.0330 -0.9736
11151TIP3    H233411   7.578   1.166   1.267 -0.2729 -0.0534 -0.9425
11152TIP3   OH233412   4.508   4.645   6.316  0.0837  0.2379 -0.2867
11152TIP3    H133413   4.593   4.619   6.280  0.0324 -0.5059  0.1129
11152TIP3    H233414   4.529   4.695   6.395  0.1649  0.7468 -0.6276
11153TIP3   OH233415   3.589   4.626   5.597  0.2019 -0.6714  0.5400
11153TIP3    H133416   3.546   4.660   5.676 -0.6936 -1.4005  0.3784
11153TIP3    H233417   3.650   4.560   5.630  0.2491 -0.5630  0.6694
11154TIP3   OH233418   5.351   4.094   6.531  0.0252  0.6387  0.2920
11154TIP3    H133419   5.272   4.099   6.585  1.0930 -0.9152  2.0483
11154TIP3    H233420   5.383   4.184   6.526 -0.9802  1.0321  0.9083
11155TIP3   OH233421   3.853   4.419   5.345  0.1500  0.3672 -0.0117
11155TIP3    H133422   3.838   4.509   5.372  0.3016  0.6811 -0.9646
11155TIP3    H233423   3.948   4.411   5.337  0.0358  0.7776 -2.0982
11156TIP3   OH233424   2.412   3.474   5.173 -0.6138  0.0253 -0.2945
11156TIP3    H133425   2.467   3.409   5.130  0.3746  1.1423 -0.7626
11156TIP3    H233426   2.354   3.507   5.104  0.7263  1.5561 -0.7363
11157TIP3   OH233427   4.230   3.833   5.880  0.0958 -0.2837  0.5936
11157TIP3    H133428   4.196   3.759   5.828  0.6955  0.3870 -0.7758
11157TIP3    H233429   4.271   3.791   5.956  1.5429 -1.4611 -0.7913
11158TIP3   OH233430   4.858   3.296   5.133 -0.2815  0.6585  0.6382
11158TIP3    H133431   4.812   3.219   5.167 -0.7842  1.1904  1.1683
11158TIP3    H233432   4.915   3.261   5.064 -0.9534 -0.1094  0.4590
11159TIP3   OH233433   6.839   7.562   0.410 -0.8154  0.4104  0.8205
11159TIP3    H133434   6.809   7.640   0.364  0.9989  2.0917  2.3810
11159TIP3    H233435   6.810   7.574   0.500 -1.2321 -1.1150  0.9025
11160TIP3   OH233436   0.363   6.033   3.626  0.2045  0.1975  0.0945
11160TIP3    H133437   0.376   6.057   3.718 -0.2976  2.0237 -0.2857
11160TIP3    H233438   0.450   6.038   3.588  0.4912 -1.0186  0.5537
11161TIP3   OH233439   2.472   5.501   4.909 -0.3779  0.3893  0.6634
11161TIP3    H133440   2.435   5.413   4.903  1.0054 -0.1496 -0.1807
11161TIP3    H233441   2.479   5.530   4.818 -0.1515  1.0890  0.9019
11162TIP3   OH233442   2.040   5.799   5.480  0.5549 -0.0814  0.4288
11162TIP3    H133443   2.057   5.728   5.542  2.6118  1.1224  1.3055
11162TIP3    H233444   2.056   5.879   5.531 -2.1705  1.0474 -0.3997
11163TIP3   OH233445   0.241   6.319   1.030 -0.1186  0.5161 -0.4603
11163TIP3    H133446   0.280   6.245   0.983 -1.2522  0.6269 -1.5964
11163TIP3    H233447   0.178   6.280   1.090 -2.5043  0.6401 -2.7713
11164TIP3   OH233448   1.918   2.630   2.765 -0.1284  0.5783 -0.5554
11164TIP3    H133449   1.899   2.551   2.816  0.0397  0.2234 -1.0431
11164TIP3    H233450   1.832   2.663   2.741 -0.1845  0.1011 -1.0252
11165TIP3   OH233451   2.987   5.011   5.964 -0.5703  0.4791  0.6587
11165TIP3    H133452   3.007   5.001   6.057  0.0538  0.4009  0.5182
11165TIP3    H233453   3.069   5.040   5.925 -0.6738 -0.0745  0.0345
11166TIP3   OH233454   3.537   3.146   6.805 -0.5629  0.1417  0.0560
11166TIP3    H133455   3.452   3.103   6.803 -0.1136 -0.7396 -0.4826
11166TIP3    H233456   3.586   3.106   6.733  0.5061  0.2047  0.7343
11167TIP3   OH233457   2.703   3.768   5.693  0.5342  0.6444 -0.0346
11167TIP3    H133458   2.791   3.781   5.657  0.9643 -1.2974  0.2411
11167TIP3    H233459   2.711   3.790   5.786  0.7074  0.5859 -0.0355
11168TIP3   OH233460   2.013   3.901   6.084 -0.0230 -0.1672  0.1944
11168TIP3    H133461   1.974   3.816   6.064  0.8067 -0.4317 -0.3357
11168TIP3    H233462   2.093   3.880   6.134 -1.4058  0.4280  2.7843
11169TIP3   OH233463   2.481   5.431   5.847 -0.1142  0.7869  0.0758
11169TIP3    H133464   2.538   5.389   5.782  0.2930  0.5293  0.5917
11169TIP3    H233465   2.437   5.358   5.890 -1.2228  1.0046 -0.6577
11170TIP3   OH233466   7.214   4.846   5.628  0.5601 -0.2133  0.0342
11170TIP3    H133467   7.282   4.778   5.627 -1.0117 -1.8352 -1.4744
11170TIP3    H233468   7.239   4.905   5.557  2.7068  1.6327  2.2662
11171TIP3   OH233469   2.872   5.350   4.301 -0.1019 -0.2612 -0.4650
11171TIP3    H133470   2.908   5.437   4.321  1.2032 -0.9091  0.0309
11171TIP3    H233471   2.827   5.362   4.217 -1.2642  1.2563  0.3389
11172TIP3   OH233472   4.560   7.365   2.079 -0.2132  0.5582 -0.2113
11172TIP3    H133473   4.620   7.301   2.042 -0.4387  0.5235 -0.5200
11172TIP3    H233474   4.536   7.330   2.164  0.9238  1.0183  0.3130
11173TIP3   OH233475   2.180   4.754   4.868  0.2059 -0.0708  0.0779
11173TIP3    H133476   2.174   4.811   4.792 -1.6389 -0.5344 -0.1379
11173TIP3    H233477   2.196   4.667   4.832 -0.8427 -0.3195  0.1962
11174TIP3   OH233478   4.187   6.916   5.339 -0.4166  0.1276 -0.2878
11174TIP3    H133479   4.137   6.848   5.293  0.0138 -0.4250  0.0499
11174TIP3    H233480   4.165   6.997   5.293 -1.3226 -0.1638 -0.3936
11175TIP3   OH233481   2.845   4.972   5.200  0.1216  0.6290  0.3162
11175TIP3    H133482   2.909   4.992   5.131 -1.2564 -1.6167 -1.6994
11175TIP3    H233483   2.820   4.881   5.184 -2.0042  0.7978  2.3687
11176TIP3   OH233484   1.095   5.878   4.861 -0.1487 -0.1661 -0.0355
11176TIP3    H133485   1.139   5.959   4.888  1.0000 -0.3677 -1.2539
11176TIP3    H233486   1.137   5.809   4.912 -2.6285  0.1882  2.6711
11177TIP3   OH233487   3.481   5.524   5.642  0.1451 -0.0170  0.3345
11177TIP3    H133488   3.408   5.476   5.603  0.3126 -1.9821  2.3519
11177TIP3    H233489   3.510   5.583   5.572 -2.0072 -0.6977 -1.1982
11178TIP3   OH233490   5.316   2.225   5.369  0.7634  0.0310  0.5990
11178TIP3    H133491   5.325   2.302   5.313  0.8404  0.3663  1.0665
11178TIP3    H233492   5.283   2.157   5.311  1.3305  0.2356  0.0370
11179TIP3   OH233493   6.893   7.285   0.386  0.0893  0.6674 -0.6302
11179TIP3    H133494   6.959   7.289   0.317  0.7070  0.9060 -0.0341
11179TIP3    H233495   6.880   7.376   0.412  0.3729  0.5218  0.0424
11180TIP3   OH233496   6.541   6.938   0.084  0.0635 -0.3389 -0.6792
11180TIP3    H133497   6.604   6.871   0.110  0.2950 -0.5412 -1.7334
11180TIP3    H233498   6.467   6.925   0.142  1.2074  0.2579  0.9631
11181TIP3   OH233499   4.954   6.350   0.581  0.0439 -0.4881  0.0949
11181TIP3    H133500   4.915   6.400   0.653 -0.8939  1.3325 -1.6344
11181TIP3    H233501   5.048   6.366   0.589 -0.1718  0.7920  0.1118
11182TIP3   OH233502   7.560   0.518   1.361  0.1013  0.7549  0.5299
11182TIP3    H133503   7.630   0.517   1.296  0.5626  2.0080  0.9810
11182TIP3    H233504   7.551   0.427   1.388 -0.4704  0.1304 -1.6588
11183TIP3   OH233505   4.013   4.392   6.482 -0.4726  0.3482 -0.2679
11183TIP3    H133506   3.994   4.389   6.575 -0.1969  0.1292 -0.2159
11183TIP3    H233507   4.043   4.303   6.461 -1.9007 -0.0076 -0.8660
11184TIP3   OH233508   2.760   5.121   5.418  0.6758 -0.5067  0.1787
11184TIP3    H133509   2.783   5.064   5.345  2.0458 -0.2713  0.4211
11184TIP3    H233510   2.665   5.132   5.410  0.8370 -0.2889 -1.6992
11185TIP3   OH233511   2.320   3.691   5.658  0.5205 -0.0910  0.2894
11185TIP3    H133512   2.232   3.656   5.675  0.7279 -0.2246  1.1065
11185TIP3    H233513   2.348   3.647   5.578  0.9297 -2.1229  1.5072
11186TIP3   OH233514   3.108   4.032   5.148 -0.3145  0.3801 -0.1385
11186TIP3    H133515   3.167   3.957   5.152 -0.7374  0.1020  1.2898
11186TIP3    H233516   3.159   4.106   5.181 -0.3788  0.3950 -0.0697
11187TIP3   OH233517   0.694   4.979   4.544  0.1642 -0.4417  0.5161
11187TIP3    H133518   0.754   4.914   4.507 -0.0833 -1.6765  2.1870
11187TIP3    H233519   0.726   4.992   4.634 -1.2309 -0.0724  0.9739
11188TIP3   OH233520   3.623   4.637   4.715  0.3727  0.5482 -0.1298
11188TIP3    H133521   3.575   4.682   4.646 -0.6246 -0.0586  0.1616
11188TIP3    H233522   3.574   4.557   4.730  1.9810 -0.5304 -0.4570
11189TIP3   OH233523   3.215   3.688   5.383 -0.1577 -0.5862 -0.1210
11189TIP3    H133524   3.212   3.711   5.476 -0.1784 -0.6096 -0.1164
11189TIP3    H233525   3.238   3.596   5.382 -1.6136 -0.9619 -0.1005
11190TIP3   OH233526   3.301   2.893   5.133  0.5231  0.1032  0.1930
11190TIP3    H133527   3.305   2.797   5.137 -0.5397 -0.1691 -3.3627
11190TIP3    H233528   3.210   2.912   5.112  0.4557  1.9984  2.0902
11191TIP3   OH233529   5.468   6.515   0.027 -0.1605 -0.1171 -0.7253
11191TIP3    H133530   5.521   6.548  -0.046 -0.8940 -1.4625 -1.8886
11191TIP3    H233531   5.439   6.595   0.072 -1.2191  0.8502 -3.0038
11192TIP3   OH233532   1.995   3.144   6.469 -0.3585 -0.4974 -0.6442
11192TIP3    H133533   2.047   3.214   6.509  0.5308 -0.5531 -1.6996
11192TIP3    H233534   2.030   3.135   6.381 -3.4797  0.8952 -2.1234
11193TIP3   OH233535   2.815   0.411   6.621 -0.1917 -0.0846 -0.5153
11193TIP3    H133536   2.823   0.407   6.526  3.8003  2.2888 -0.3916
11193TIP3    H233537   2.904   0.401   6.654 -1.6199 -2.1060  3.1029
11194TIP3   OH233538   6.484   7.357  -0.002  0.2479 -0.1064  0.0103
11194TIP3    H133539   6.547   7.338   0.068  2.0840  1.5255 -1.1475
11194TIP3    H233540   6.458   7.271  -0.036  1.4418 -0.8091  0.8597
11195TIP3   OH233541   3.564   0.138   0.020 -0.3171 -0.5950  0.5470
11195TIP3    H133542   3.613   0.064   0.056  2.1443  1.4247  1.5007
11195TIP3    H233543   3.570   0.127  -0.075  2.9010  0.1179  0.6207
11196TIP3   OH233544   2.193   3.396   6.722 -0.0978 -0.8912 -0.0317
11196TIP3    H133545   2.101   3.422   6.719  0.4201  0.9378 -1.4061
11196TIP3    H233546   2.212   3.365   6.633  1.3769  1.7154 -0.7002
11197TIP3   OH233547   2.430   5.211   4.869  0.4292 -0.0157 -0.0837
11197TIP3    H133548   2.374   5.201   4.946  0.0669 -0.2737 -0.3735
11197TIP3    H233549   2.417   5.130   4.819 -0.0268  0.5149 -0.8515
11198TIP3   OH233550   2.111   3.702   5.151 -0.4913 -0.4739  0.2308
11198TIP3    H133551   2.150   3.727   5.067 -0.8265  0.1320  0.2502
11198TIP3    H233552   2.080   3.613   5.137  0.0491 -0.6189 -0.0801
11199TIP3   OH233553   3.563   3.379   5.912  0.1452 -0.5725  0.7661
11199TIP3    H133554   3.493   3.443   5.902  0.6222  0.0708  1.4599
11199TIP3    H233555   3.632   3.410   5.853 -0.1040 -1.1413  0.1689
11200TIP3   OH233556   0.536   4.679   5.915  0.2230 -0.0506  0.3996
11200TIP3    H133557   0.499   4.598   5.881  1.2598 -0.1844 -0.4437
11200TIP3    H233558   0.460   4.728   5.948 -0.3198 -1.6594  1.5961
11201TIP3   OH233559   1.682   5.314   6.466  0.3055  0.1321  0.3526
11201TIP3    H133560   1.768   5.321   6.424  0.8881  1.7036  1.7302
11201TIP3    H233561   1.700   5.331   6.559 -1.4981  0.4934  0.6565
11202TIP3   OH233562   2.695   4.229   6.744  0.4134 -0.3403  0.0806
11202TIP3    H133563   2.641   4.163   6.787  1.0121  0.6482  2.4850
11202TIP3    H233564   2.747   4.181   6.680  0.0578 -2.0232  1.0372
11203TIP3   OH233565   2.171   3.999   6.770  0.3032  0.1599  0.6485
11203TIP3    H133566   2.143   4.035   6.854  1.8897 -1.3126  1.8710
11203TIP3    H233567   2.173   4.073   6.710 -0.4893  1.2998  2.0185
11204TIP3   OH233568   3.021   4.368   6.521  0.3069 -0.3183  0.6085
11204TIP3    H133569   3.078   4.318   6.579 -1.2404 -0.0296  2.4176
11204TIP3    H233570   3.019   4.455   6.559 -1.0624 -0.2388  0.3641
11205TIP3   OH233571   2.716   4.320   3.997  0.4439  0.9220 -0.0170
11205TIP3    H133572   2.704   4.412   4.023 -2.1422 -0.0329  2.4670
11205TIP3    H233573   2.627   4.289   3.981  1.4084 -0.8231 -2.1678
11206TIP3   OH233574   3.237   0.905   6.526  0.7128  0.1712  0.6689
11206TIP3    H133575   3.279   0.944   6.603 -1.6269  1.5926  1.2793
11206TIP3    H233576   3.225   0.979   6.466  0.1223 -0.4354  0.0372
11207TIP3   OH233577   2.574   6.656   5.353  0.0738 -0.6610 -0.3144
11207TIP3    H133578   2.568   6.652   5.448 -0.8177  2.0848 -0.2021
11207TIP3    H233579   2.665   6.679   5.336  0.0663 -0.4740 -0.1006
11208TIP3   OH233580   2.423   6.264   4.938 -0.0767 -0.0038 -0.0379
11208TIP3    H133581   2.445   6.341   4.991 -0.2507 -0.2738  0.4255
11208TIP3    H233582   2.472   6.192   4.979  1.0448  0.0805 -1.2001
11209TIP3   OH233583   5.583   5.133   5.933 -0.2239  0.1213  0.5638
11209TIP3    H133584   5.557   5.064   5.994 -1.5672  1.2955  1.3267
11209TIP3    H233585   5.501   5.163   5.894  0.4781  0.4317 -0.7161
11210TIP3   OH233586   1.441   3.453   5.535 -0.3633 -0.3021 -0.3991
11210TIP3    H133587   1.502   3.429   5.605 -0.8444  1.5809  0.7070
11210TIP3    H233588   1.477   3.533   5.498 -0.7722 -0.6193 -1.4911
11211TIP3   OH233589   2.420   4.174   5.555  0.1446  0.0022  0.1655
11211TIP3    H133590   2.361   4.109   5.592  0.9267  0.2892  1.9736
11211TIP3    H233591   2.507   4.137   5.567  0.4191  0.0639 -1.5098
11212TIP3   OH233592   3.341   3.822   4.006  0.1866 -0.2067  0.1242
11212TIP3    H133593   3.290   3.887   4.055 -0.5330 -0.0473 -0.8237
11212TIP3    H233594   3.332   3.849   3.915  1.5308 -0.4991 -0.0951
11213TIP3   OH233595   2.241   2.744   6.365 -0.2553 -0.3057  0.4504
11213TIP3    H133596   2.156   2.756   6.407 -0.0723 -1.1481  1.0635
11213TIP3    H233597   2.251   2.821   6.309 -1.4589 -0.2491  0.3074
11214TIP3   OH233598   2.031   5.933   4.498  0.4992 -0.0295  0.7048
11214TIP3    H133599   2.036   5.851   4.450  0.4717 -0.0515  0.7400
11214TIP3    H233600   1.940   5.939   4.525  0.2886  0.4775 -0.1084
11215TIP3   OH233601   3.625   5.345   5.794 -0.4292  0.0536 -0.6248
11215TIP3    H133602   3.586   5.425   5.759  0.8503  1.0147  0.0692
11215TIP3    H233603   3.687   5.376   5.861  0.3782 -1.4963 -0.6179
11216TIP3   OH233604   5.163   3.398   4.326  0.0233 -0.1229 -0.8367
11216TIP3    H133605   5.107   3.322   4.314  0.1309 -0.5006  1.0320
11216TIP3    H233606   5.191   3.394   4.417  0.5473  1.7935 -0.8889
11217TIP3   OH233607   3.460   5.119   5.431  0.7665 -0.0525  0.2352
11217TIP3    H133608   3.467   5.032   5.469  2.2485 -0.1734 -0.2728
11217TIP3    H233609   3.538   5.165   5.461 -0.0542  1.1472  0.5902
11218TIP3   OH233610   2.694   1.541   2.549 -0.3094 -0.0591 -0.6090
11218TIP3    H133611   2.709   1.571   2.639 -0.7700 -1.9392  0.1128
11218TIP3    H233612   2.607   1.575   2.527 -1.0229 -1.2060  0.3655
11219TIP3   OH233613   2.113   4.036   4.264  0.1168 -0.1077 -0.3655
11219TIP3    H133614   2.109   3.977   4.188 -0.0347  0.6952 -0.9933
11219TIP3    H233615   2.162   3.987   4.330  1.3028 -0.3713 -1.4073
11220TIP3   OH233616   8.289   5.406   5.358 -0.0358  0.0788 -0.7586
11220TIP3    H133617   8.259   5.341   5.422  1.4190 -0.7117 -0.8400
11220TIP3    H233618   8.256   5.374   5.274 -0.3117  0.0784 -0.6510
11221TIP3   OH233619   0.307   6.908   6.268 -0.1489 -0.2597 -0.8380
11221TIP3    H133620   0.254   6.850   6.323  0.3338 -0.2827 -0.3945
11221TIP3    H233621   0.370   6.949   6.328  1.1279 -1.1398 -1.5344
11222TIP3   OH233622   2.251   7.141   4.225 -0.1949 -0.0812 -0.3401
11222TIP3    H133623   2.338   7.171   4.198 -0.5408  0.1025 -1.2568
11222TIP3    H233624   2.211   7.218   4.266  1.0830 -0.9012  2.6116
11223TIP3   OH233625   2.636   3.137   6.410  0.1377  0.4977  0.4461
11223TIP3    H133626   2.676   3.197   6.473 -0.3944  2.0036 -0.6471
11223TIP3    H233627   2.708   3.078   6.386  1.0403  1.5582  0.4719
11224TIP3   OH233628   2.160   4.329   6.143 -0.5201 -0.2068 -0.0838
11224TIP3    H133629   2.139   4.412   6.100  0.4079  0.7037  1.1513
11224TIP3    H233630   2.089   4.270   6.119 -0.4278  0.5151 -2.1707
11225TIP3   OH233631   8.403   5.090   5.710 -0.3154 -0.4134  0.1345
11225TIP3    H133632   8.332   5.067   5.770  0.0782 -1.3431  0.2602
11225TIP3    H233633   8.361   5.098   5.624 -0.8081  0.4815  0.4530
11226TIP3   OH233634   4.004   4.118   5.141 -0.2454 -0.1928  0.5640
11226TIP3    H133635   4.097   4.133   5.157 -0.0024 -1.3146  0.3151
11226TIP3    H233636   4.000   4.026   5.112 -1.2981  0.1726 -0.4731
11227TIP3   OH233637   0.934   5.764   5.417  0.1677 -0.2432  0.6939
11227TIP3    H133638   0.922   5.697   5.350 -2.0393 -0.1716  0.9923
11227TIP3    H233639   1.004   5.820   5.383  0.8120 -1.6618 -0.3622
11228TIP3   OH233640   5.968   7.841   0.175 -0.2218  0.1100  0.0591
11228TIP3    H133641   5.948   7.748   0.162  0.6830 -0.1303  0.3419
11228TIP3    H233642   6.009   7.845   0.261 -1.4323  0.9615  0.6003
11229TIP3   OH233643   3.739   4.888   4.951 -0.3065 -0.8555  0.1586
11229TIP3    H133644   3.738   4.931   5.036  1.9570 -0.5560  0.0698
11229TIP3    H233645   3.668   4.824   4.955 -0.1750 -0.8939  2.3001
11230TIP3   OH233646   1.613   4.645   6.906 -0.3172 -0.1621 -0.2352
11230TIP3    H133647   1.700   4.682   6.915 -0.6766  0.3709  1.1008
11230TIP3    H233648   1.628   4.550   6.900  0.3350 -0.0851  0.1511
11231TIP3   OH233649   2.467   5.929   4.139 -0.0608  0.1204 -0.1782
11231TIP3    H133650   2.515   5.971   4.067  0.3843 -0.8987 -0.4855
11231TIP3    H233651   2.535   5.903   4.201 -0.3821  0.3359  0.2639
11232TIP3   OH233652   3.149   3.099   5.296 -0.4321  0.6253 -0.4368
11232TIP3    H133653   3.137   3.184   5.255  0.8850  1.3989  0.7221
11232TIP3    H233654   3.218   3.057   5.245  1.4550  1.7296  1.1460
11233TIP3   OH233655   2.239   5.004   5.575 -0.3060  0.5957 -0.2599
11233TIP3    H133656   2.272   4.980   5.661 -2.4192  0.2737  0.4851
11233TIP3    H233657   2.180   4.932   5.551  0.1848  0.7207 -1.9404
11234TIP3   OH233658   5.775   3.828   6.817 -0.1245 -0.4996  0.2848
11234TIP3    H133659   5.751   3.753   6.762 -0.0023 -0.7840  0.6161
11234TIP3    H233660   5.865   3.849   6.791 -0.5350  0.2287 -0.5795
11235TIP3   OH233661   6.633   5.893   0.905  0.1867  0.5563  0.4995
11235TIP3    H133662   6.603   5.921   0.819 -0.7603  1.9405  1.2559
11235TIP3    H233663   6.596   5.805   0.916 -1.7979  1.3492  0.4989
11236TIP3   OH233664   3.018   6.404   4.574  0.0207  0.3476 -0.2472
11236TIP3    H133665   2.950   6.471   4.562 -0.7233 -0.1020  1.2669
11236TIP3    H233666   3.013   6.351   4.494  0.1245  1.6433 -1.1388
11237TIP3   OH233667   4.720   4.707   5.041 -0.1649  0.1455 -0.0008
11237TIP3    H133668   4.653   4.769   5.070 -0.8309 -0.7577  0.4112
11237TIP3    H233669   4.802   4.757   5.046 -0.7649  1.1854 -0.2866
11238TIP3   OH233670   7.345   0.380  -0.004  0.3689 -0.1584 -0.3488
11238TIP3    H133671   7.353   0.338   0.082  0.3970  0.5684  0.0090
11238TIP3    H233672   7.433   0.376  -0.042  0.1906 -1.1447 -0.6586
11239TIP3   OH233673   6.939   7.034   0.044  0.0403 -0.0955 -0.0048
11239TIP3    H133674   7.021   7.007   0.002  1.0563  0.2876  1.6902
11239TIP3    H233675   6.938   6.988   0.127 -1.1159  0.4848  0.3169
11240TIP3   OH233676   1.514   6.164   3.577 -0.4004 -0.4219 -0.4312
11240TIP3    H133677   1.572   6.158   3.502  3.3498  0.0936  2.2842
11240TIP3    H233678   1.485   6.074   3.593  0.2938 -0.8063 -1.3420
11241TIP3   OH233679   7.785   2.939   5.205  0.1213  0.1692  0.6997
11241TIP3    H133680   7.869   2.984   5.217 -0.6538  1.8865 -0.1156
11241TIP3    H233681   7.723   2.989   5.258 -0.2473 -1.5781  1.9364
11242TIP3   OH233682   8.013   7.230   0.840 -0.0821 -0.1601 -0.0784
11242TIP3    H133683   8.107   7.214   0.838 -0.0818 -0.4953  1.6794
11242TIP3    H233684   7.973   7.143   0.834 -0.2934  0.0161 -1.2886
11243TIP3   OH233685   1.530   5.347   5.408  0.3659  0.2084  1.0555
11243TIP3    H133686   1.502   5.275   5.465  0.5506 -0.7931 -0.0812
11243TIP3    H233687   1.449   5.391   5.384  0.1580 -0.1814  1.0263
11244TIP3   OH233688   6.756   0.319   0.400 -0.0979  0.4327  0.1149
11244TIP3    H133689   6.804   0.248   0.442 -0.6677  0.1881  0.3567
11244TIP3    H233690   6.777   0.397   0.452  1.1954  0.5998 -0.6559
11245TIP3   OH233691   3.197   2.692   5.902  0.0371 -0.0172  0.4568
11245TIP3    H133692   3.221   2.638   5.827 -3.4457 -1.3827  0.2476
11245TIP3    H233693   3.162   2.773   5.864 -0.2203 -0.0343  0.6588
11246TIP3   OH233694   4.179   5.260   4.084 -0.2639 -0.1095 -0.7357
11246TIP3    H133695   4.225   5.177   4.074  0.1948  0.0611 -0.0553
11246TIP3    H233696   4.232   5.323   4.036 -0.5237 -0.1699 -1.1107
11247TIP3   OH233697   5.216   7.079   2.008 -0.1007 -0.0054  0.3298
11247TIP3    H133698   5.303   7.100   2.042 -0.5282  1.2370  0.6921
11247TIP3    H233699   5.160   7.073   2.086 -0.4547 -0.2594  0.0591
11248TIP3   OH233700   1.975   4.095   6.384  0.3965 -0.1682 -0.4333
11248TIP3    H133701   1.984   4.041   6.462  0.3181 -0.2394 -0.4718
11248TIP3    H233702   2.062   4.131   6.368  0.1834  0.6757  0.2873
11249TIP3   OH233703   8.106   2.790   0.569  0.6055  0.0483  0.2334
11249TIP3    H133704   8.153   2.763   0.490  2.3384  0.7127  1.0220
11249TIP3    H233705   8.139   2.878   0.588 -1.1414  0.6310  0.6788
11250TIP3   OH233706   3.903   5.921   6.277  0.2287 -0.6417 -0.5535
11250TIP3    H133707   3.835   5.989   6.274  0.0941 -0.7013  0.8687
11250TIP3    H233708   3.922   5.903   6.185 -1.2958 -0.2341 -0.9709
11251TIP3   OH233709   4.062   4.429   3.832  0.2961 -0.1554 -0.2697
11251TIP3    H133710   3.970   4.449   3.848  0.2727  0.2995 -0.9740
11251TIP3    H233711   4.106   4.513   3.835  0.6555 -0.3465 -0.1809
11252TIP3   OH233712   2.712   4.190   5.832  0.2136 -0.5529  0.1513
11252TIP3    H133713   2.682   4.139   5.756 -0.7517 -1.6558  1.2404
11252TIP3    H233714   2.740   4.123   5.895 -0.1654  0.3063  1.2399
11253TIP3   OH233715   1.074   4.212   4.780 -0.0219 -0.0911  0.9146
11253TIP3    H133716   1.013   4.152   4.737 -0.1795  0.4210  0.4130
11253TIP3    H233717   1.136   4.235   4.711 -0.2832  0.7477  0.9588
11254TIP3   OH233718   3.022   3.237   6.367  0.1970 -0.4219  0.2899
11254TIP3    H133719   3.062   3.177   6.304 -1.5474 -0.7397 -0.5312
11254TIP3    H233720   3.037   3.196   6.452 -0.7406 -1.8909 -0.2394
11255TIP3   OH233721   0.791   3.370   5.443 -0.4376 -0.1705 -0.2628
11255TIP3    H133722   0.842   3.322   5.378 -0.6506 -1.9358  0.8651
11255TIP3    H233723   0.716   3.314   5.463 -0.2150  0.1999  1.7384
11256TIP3   OH233724   1.515   4.506   6.594  0.4228 -0.4174 -0.5618
11256TIP3    H133725   1.425   4.538   6.598  0.9753  1.0608  0.3947
11256TIP3    H233726   1.517   4.430   6.652  0.2389  0.6636  0.8664
11257TIP3   OH233727   1.100   3.895   6.382 -0.0975 -0.4397 -0.2689
11257TIP3    H133728   1.051   3.877   6.463 -0.7416  0.7688 -0.3716
11257TIP3    H233729   1.192   3.889   6.408 -0.3039 -0.2169  0.5314
11258TIP3   OH233730   0.366   5.755   4.513 -0.2356 -0.0961 -0.6451
11258TIP3    H133731   0.349   5.838   4.468  0.8442 -0.7875 -2.3618
11258TIP3    H233732   0.325   5.689   4.457 -2.5728 -0.6176  1.5651
11259TIP3   OH233733   7.602   0.837   0.349 -0.0083  0.2557  0.2019
11259TIP3    H133734   7.676   0.898   0.356  0.2352  0.4895 -3.5317
11259TIP3    H233735   7.636   0.754   0.382  1.1397  0.9652  0.8474
11260TIP3   OH233736   2.685   5.270   4.780 -0.6289  0.3942  0.5073
11260TIP3    H133737   2.596   5.264   4.813 -1.0659 -0.2257 -0.7463
11260TIP3    H233738   2.732   5.198   4.823 -1.3529 -0.8115 -0.6414
11261TIP3   OH233739   3.450   4.600   5.266  0.1496 -1.0494 -0.6455
11261TIP3    H133740   3.475   4.507   5.259  0.3027 -1.2899  2.7248
11261TIP3    H233741   3.357   4.598   5.288  0.3600 -0.4190  0.2926
11262TIP3   OH233742   1.542   3.375   4.796 -0.5256 -0.0153 -0.0234
11262TIP3    H133743   1.532   3.469   4.804 -0.6749  0.0570 -1.0044
11262TIP3    H233744   1.597   3.363   4.719 -1.2172 -0.7556 -0.4055
11263TIP3   OH233745   2.002   1.411   0.035 -0.0308  0.2050  0.2526
11263TIP3    H133746   2.064   1.340   0.052  1.7838  2.2215  2.4107
11263TIP3    H233747   1.935   1.402   0.103  0.4791  0.8495  0.8459
11264TIP3   OH233748   2.662   4.315   5.197 -0.1352  0.1837 -0.3760
11264TIP3    H133749   2.708   4.367   5.262  0.0519 -1.0193  0.4783
11264TIP3    H233750   2.730   4.282   5.139  0.1357 -1.6205  0.9049
11265TIP3   OH233751   8.142   1.346   0.307 -0.2075 -0.0061 -0.3022
11265TIP3    H133752   8.049   1.330   0.290 -0.2828  0.4159 -0.3056
11265TIP3    H233753   8.187   1.279   0.256 -0.4862  0.2782 -0.9321
11266TIP3   OH233754   6.593   7.067   0.451  0.2063  0.0350  0.1301
11266TIP3    H133755   6.577   6.973   0.453 -2.1757  0.3479 -1.6958
11266TIP3    H233756   6.659   7.082   0.519 -0.2391 -2.7715  1.2447
11267TIP3   OH233757   0.665   6.160   6.433 -0.0983 -0.1421  0.0442
11267TIP3    H133758   0.659   6.115   6.517  0.7589  0.2804  0.3412
11267TIP3    H233759   0.574   6.174   6.406 -0.3737 -1.7144  0.1151
11268TIP3   OH233760   8.216   1.589   0.718 -0.4945  0.1237 -0.8269
11268TIP3    H133761   8.186   1.513   0.768  2.2994 -1.0250 -0.8029
11268TIP3    H233762   8.259   1.645   0.783 -1.4898  1.1811 -1.0583
11269TIP3   OH233763   6.509   2.560   5.311  0.6458  0.3058  0.1358
11269TIP3    H133764   6.530   2.612   5.388  0.5434 -1.3761  1.3065
11269TIP3    H233765   6.414   2.565   5.304  0.7138  1.0719 -0.3335
11270TIP3   OH233766   1.923   5.011   5.975  0.5326  0.0248  0.1391
11270TIP3    H133767   2.000   4.973   6.016  0.2820  0.9294  1.4845
11270TIP3    H233768   1.887   5.069   6.042 -0.4082  0.8208 -1.0482
11271TIP3   OH233769   4.850   5.963   1.839  0.2026 -0.7262 -0.2475
11271TIP3    H133770   4.846   5.999   1.928  0.9711 -0.6798 -0.2308
11271TIP3    H233771   4.887   5.876   1.850  1.1644 -0.3698 -0.6209
11272TIP3   OH233772   4.813   2.262   5.719  0.0123  0.1994  0.2962
11272TIP3    H133773   4.837   2.227   5.634 -0.1173 -0.1466  0.4016
11272TIP3    H233774   4.723   2.233   5.732 -0.0627  0.4906  0.4249
11273TIP3   OH233775   5.581   2.668   6.743  0.1120 -0.6662  0.3097
11273TIP3    H133776   5.633   2.722   6.683 -2.8276 -0.7398 -2.4263
11273TIP3    H233777   5.624   2.583   6.742  2.1586  0.3081  1.1619
11274TIP3   OH233778   7.957   1.306   2.106  0.5048 -0.1184  0.3397
11274TIP3    H133779   8.013   1.334   2.180  1.0590 -0.8556  0.2055
11274TIP3    H233780   7.876   1.277   2.147  0.2108  0.9806  0.5392
11275TIP3   OH233781   5.944   7.540   1.321  0.5978  0.0098 -0.4083
11275TIP3    H133782   5.858   7.530   1.279 -0.1957  3.5223  0.1847
11275TIP3    H233783   6.004   7.557   1.248  0.1515  0.8741 -0.5939
11276TIP3   OH233784   7.245   2.103   0.872  0.4210  0.8723 -0.1938
11276TIP3    H133785   7.336   2.106   0.845  0.1113 -1.1372 -1.5870
11276TIP3    H233786   7.241   2.031   0.935 -0.2500  0.7510 -0.3638
11277TIP3   OH233787   5.304   5.755   0.234  0.1204 -0.1795  0.2624
11277TIP3    H133788   5.281   5.742   0.326  1.2977 -0.3587  0.5382
11277TIP3    H233789   5.395   5.784   0.235  0.3823 -0.8975 -0.8844
11278TIP3   OH233790   1.358   3.820   3.614  0.5969  0.7554 -0.2310
11278TIP3    H133791   1.411   3.805   3.535 -0.3838 -1.5788 -0.4751
11278TIP3    H233792   1.272   3.846   3.581  0.0314 -0.7503  0.0595
11279TIP3   OH233793   3.109   4.173   6.685  0.5574 -0.0595 -0.3245
11279TIP3    H133794   3.118   4.150   6.777 -0.1345  0.4250 -0.1383
11279TIP3    H233795   3.026   4.132   6.658  0.0890  0.9325 -0.3879
11280TIP3   OH233796   1.503   4.226   5.682  0.6633 -0.0786 -0.1343
11280TIP3    H133797   1.434   4.274   5.637  1.1486  0.6486 -0.1289
11280TIP3    H233798   1.458   4.163   5.737 -0.0026  0.6333  0.1370
11281TIP3   OH233799   7.745   5.223   5.622 -0.1706 -0.1114 -0.2286
11281TIP3    H133800   7.818   5.273   5.657 -0.0145  0.3080 -1.1353
11281TIP3    H233801   7.709   5.278   5.552  0.5855 -1.6657 -1.8795
11282TIP3   OH233802   2.311   5.051   4.182 -0.0522 -0.3946 -0.4385
11282TIP3    H133803   2.228   5.097   4.172  0.4107  0.8123  1.0865
11282TIP3    H233804   2.365   5.082   4.110 -0.2406  0.3553 -0.2580
11283TIP3   OH233805   2.533   4.603   5.189 -0.1519  0.1385 -0.3164
11283TIP3    H133806   2.545   4.529   5.249  0.1027 -0.5862 -1.2465
11283TIP3    H233807   2.468   4.658   5.232  0.9126  0.2521  1.2077
11284TIP3   OH233808   5.391   3.829   6.620  0.7602 -0.4768  0.2397
11284TIP3    H133809   5.338   3.906   6.643  2.0943  0.4725  0.2223
11284TIP3    H233810   5.374   3.766   6.689  1.1930  0.6105  1.3571
11285TIP3   OH233811   4.970   5.315   6.359  0.4370 -0.5851 -0.2824
11285TIP3    H133812   4.945   5.320   6.267 -0.7195  0.9979  0.0945
11285TIP3    H233813   5.037   5.383   6.369  0.3976 -0.5995  0.0983
11286TIP3   OH233814   4.527   3.135   6.096 -0.7939 -0.2374  0.3259
11286TIP3    H133815   4.492   3.132   6.007 -0.1826 -0.1022  0.0733
11286TIP3    H233816   4.453   3.115   6.152 -1.2392 -0.0809 -0.2038
11287TIP3   OH233817   2.945   6.582   5.862  0.2667  0.3164 -0.3184
11287TIP3    H133818   2.894   6.662   5.853 -0.7365 -0.3725 -0.9123
11287TIP3    H233819   3.036   6.611   5.864 -0.1291  1.5210  0.2518
11288TIP3   OH233820   3.043   5.334   6.220 -0.0237  0.2061  0.0777
11288TIP3    H133821   3.031   5.418   6.264 -0.4173  0.0295  0.3111
11288TIP3    H233822   3.078   5.358   6.133 -0.7175  0.6501 -0.0867
11289TIP3   OH233823   2.928   3.874   6.124 -0.1429  0.3860  0.1248
11289TIP3    H133824   2.990   3.815   6.165  0.3647  0.4519 -0.5351
11289TIP3    H233825   2.945   3.959   6.164 -0.6384  0.1592  0.8231
11290TIP3   OH233826   2.963   5.011   4.748 -0.5285  0.0141 -0.0970
11290TIP3    H133827   3.018   4.943   4.709 -0.1632  1.3868 -2.0991
11290TIP3    H233828   2.917   5.050   4.673  0.5875  3.0964  0.7519
11291TIP3   OH233829   4.118   2.674   6.113 -0.1589 -0.1391  0.9016
11291TIP3    H133830   4.143   2.619   6.188  1.1175  0.9734  1.3134
11291TIP3    H233831   4.107   2.612   6.041 -1.0349 -1.1841  1.9086
11292TIP3   OH233832   1.040   2.628   6.786 -0.2474 -0.3313  0.3130
11292TIP3    H133833   0.991   2.695   6.738 -0.3069  1.2940  2.5516
11292TIP3    H233834   1.103   2.678   6.838  0.8384 -2.1481  0.7936
11293TIP3   OH233835   5.615   4.009   6.585 -0.2923 -0.4251  0.0790
11293TIP3    H133836   5.681   4.078   6.590  1.7133 -2.2920 -0.1588
11293TIP3    H233837   5.639   3.948   6.655 -0.8063 -1.9400 -1.0431
11294TIP3   OH233838   2.083   4.560   6.021 -0.1159  0.3525 -0.0054
11294TIP3    H133839   2.129   4.638   5.989 -1.4246  0.3481 -2.0473
11294TIP3    H233840   2.061   4.512   5.941 -0.2927 -1.5590  1.1797
11295TIP3   OH233841   3.393   3.613   4.933 -0.6348 -0.0437 -0.4459
11295TIP3    H133842   3.339   3.686   4.963  0.0018 -0.5529  2.0384
11295TIP3    H233843   3.358   3.591   4.847 -2.3758  1.6272 -0.1946
11296TIP3   OH233844   7.919   0.346   0.695 -0.2029  0.6193 -0.0187
11296TIP3    H133845   7.869   0.351   0.776 -1.5450  2.1044 -0.9042
11296TIP3    H233846   7.938   0.253   0.684 -1.0975  0.2621  1.3292
11297TIP3   OH233847   3.172   3.098   6.185 -0.1722 -0.6000 -0.0557
11297TIP3    H133848   3.201   3.022   6.235 -0.5553 -0.5218  0.2919
11297TIP3    H233849   3.243   3.115   6.124  1.9887  1.5635  2.9261
11298TIP3   OH233850   4.295   4.209   5.474 -0.1269  0.6538  0.1026
11298TIP3    H133851   4.237   4.274   5.514  0.1869  0.2662  1.2154
11298TIP3    H233852   4.369   4.204   5.535  1.2219  1.3865 -1.4572
11299TIP3   OH233853   3.001   1.243   5.858 -0.1822 -0.0840  0.3028
11299TIP3    H133854   2.958   1.188   5.793  0.3014  0.1042 -0.1790
11299TIP3    H233855   3.022   1.184   5.930 -1.3020 -0.1650  0.5749
11300TIP3   OH233856   8.139   7.109   0.272 -0.0155 -0.2451  0.5425
11300TIP3    H133857   8.056   7.121   0.317 -0.1055 -0.1279  0.3447
11300TIP3    H233858   8.150   7.014   0.267 -0.1685 -0.2601  0.5103
11301TIP3   OH233859   6.284   7.220   0.996  0.6219 -0.0375  0.1336
11301TIP3    H133860   6.317   7.253   0.912  0.9023 -2.3360 -0.6775
11301TIP3    H233861   6.305   7.290   1.059  0.3189  1.7574 -1.6942
11302TIP3   OH233862   5.397   7.897   0.617 -0.0572 -0.5529 -0.2459
11302TIP3    H133863   5.337   7.944   0.675 -0.1162 -0.9418  0.0058
11302TIP3    H233864   5.484   7.923   0.645 -0.1051  0.1011 -0.6820
11303TIP3   OH233865   4.188   7.774   1.440 -0.1806 -0.1815  0.2845
11303TIP3    H133866   4.108   7.733   1.406 -1.8738  2.6294  0.7171
11303TIP3    H233867   4.163   7.806   1.527  1.9527 -0.7980  1.1553
11304TIP3   OH233868   5.525   1.056   6.868 -0.1455 -0.3772 -0.1691
11304TIP3    H133869   5.480   0.972   6.880  1.2538 -1.1323  0.0091
11304TIP3    H233870   5.618   1.034   6.879  0.2835  1.0761 -0.8323
11305TIP3   OH233871   3.739   4.659   6.013 -0.2305  0.3401  0.1009
11305TIP3    H133872   3.745   4.736   6.069 -2.0415 -0.0742  0.9028
11305TIP3    H233873   3.752   4.585   6.072  3.5363  0.0375 -0.9915
11306TIP3   OH233874   1.722   3.079   6.136 -0.1988 -0.3405  0.3734
11306TIP3    H133875   1.698   3.030   6.057  0.0520  0.8850 -0.4752
11306TIP3    H233876   1.802   3.037   6.167 -0.2359 -0.7512 -0.0828
11307TIP3   OH233877   3.076   6.045   6.406 -0.1385 -0.0169 -0.2988
11307TIP3    H133878   3.044   6.098   6.333 -0.1147 -0.8029 -0.8876
11307TIP3    H233879   3.136   5.982   6.365  2.0769  1.3474  0.7607
11308TIP3   OH233880   0.763   4.679   6.649  0.3892  0.3468 -0.1978
11308TIP3    H133881   0.674   4.672   6.684  0.0169  3.3891 -0.4222
11308TIP3    H233882   0.761   4.626   6.569 -1.2358  0.3664 -0.1946
11309TIP3   OH233883   7.926   1.586   0.317  0.0930  0.0171 -0.8767
11309TIP3    H133884   7.903   1.513   0.374 -1.5696 -0.2196 -1.7982
11309TIP3    H233885   7.906   1.664   0.369 -0.8549 -0.1978 -0.8942
11310TIP3   OH233886   2.892   3.790   5.040  0.3283 -0.5124 -0.6807
11310TIP3    H133887   2.880   3.882   5.015  0.1057 -0.0119  1.1766
11310TIP3    H233888   2.985   3.773   5.022  0.3363  0.0307 -1.1746
11311TIP3   OH233889   3.155   5.755   5.589  0.0483  0.1360 -0.6121
11311TIP3    H133890   3.193   5.676   5.626 -1.1488  0.6439  1.7755
11311TIP3    H233891   3.159   5.741   5.494 -1.2150 -3.3234 -0.2322
11312TIP3   OH233892   3.036   4.146   6.248  0.0843 -0.1392  0.2072
11312TIP3    H133893   2.987   4.183   6.174 -0.5622 -0.7539  0.3205
11312TIP3    H233894   3.118   4.195   6.249  0.4481 -0.6888 -1.4287
11313TIP3   OH233895   2.271   4.899   5.816 -0.3364 -0.0172 -0.5055
11313TIP3    H133896   2.192   4.876   5.865 -2.1338 -0.3408 -3.4135
11313TIP3    H233897   2.297   4.817   5.772 -0.7663  1.0096 -2.7587
11314TIP3   OH233898   1.694   5.854   5.569 -0.4263  0.0471 -0.3095
11314TIP3    H133899   1.659   5.769   5.540 -1.4854  0.5426 -0.4857
11314TIP3    H233900   1.620   5.898   5.609  0.7721 -0.2633  2.4256
11315TIP3   OH233901   1.928   6.285   5.226  0.2984  0.5626 -0.0504
11315TIP3    H133902   1.916   6.260   5.134 -0.2545 -1.6573  0.5713
11315TIP3    H233903   1.992   6.221   5.260 -0.5454  0.4789  1.4388
11316TIP3   OH233904   4.904   5.563   5.224  0.1615  0.3978 -0.4894
11316TIP3    H133905   4.931   5.560   5.316  0.7931 -0.8994 -0.7160
11316TIP3    H233906   4.849   5.642   5.219 -0.5295  0.0573  1.1714
11317TIP3   OH233907   1.921   0.196   0.351 -0.3692 -0.2226  0.0024
11317TIP3    H133908   1.843   0.244   0.326  0.6633  1.3899 -0.2013
11317TIP3    H233909   1.992   0.238   0.302  0.6642 -1.4928  0.3694
11318TIP3   OH233910   2.594   5.283   5.217 -0.3777  0.5123  0.3675
11318TIP3    H133911   2.591   5.328   5.301  0.7672 -0.0751  0.7370
11318TIP3    H233912   2.517   5.315   5.170 -0.9023  1.0281  1.5403
11319TIP3   OH233913   7.172   7.047   0.415 -0.8242  0.1613  0.4862
11319TIP3    H133914   7.242   7.071   0.476 -1.1670 -0.4360  1.1136
11319TIP3    H233915   7.217   7.041   0.330 -0.0400 -0.5258  0.9355
11320TIP3   OH233916   4.012   4.752   5.123  0.7415  0.4284 -0.1049
11320TIP3    H133917   3.943   4.689   5.099 -0.8597  1.7714  0.8566
11320TIP3    H233918   4.022   4.806   5.045  0.4336  0.4676 -0.1199
11321TIP3   OH233919   3.441   4.876   4.274 -0.4636  0.6282 -0.4888
11321TIP3    H133920   3.350   4.904   4.265 -0.6872  0.1042  0.0577
11321TIP3    H233921   3.474   4.869   4.185 -1.1064  0.3441 -0.7025
11322TIP3   OH233922   4.108   4.591   5.570  0.6629  0.7386 -0.2700
11322TIP3    H133923   4.203   4.582   5.570  0.5774 -0.2375 -1.4133
11322TIP3    H233924   4.075   4.501   5.572 -0.2636  1.0793  2.5470
11323TIP3   OH233925   3.681   3.814   5.946  0.0251 -0.8328  0.1805
11323TIP3    H133926   3.599   3.860   5.961 -1.1756 -1.8025 -2.8794
11323TIP3    H233927   3.741   3.881   5.913  0.3648 -0.1992  2.0606
11324TIP3   OH233928   1.444   1.327   0.044  0.0843 -0.0634 -0.5133
11324TIP3    H133929   1.497   1.266   0.095 -0.7744 -0.7461 -0.4216
11324TIP3    H233930   1.498   1.348  -0.032  0.0117 -1.7244 -1.0482
11325TIP3   OH233931   1.906   1.608   6.142  0.2308  0.0712 -0.1901
11325TIP3    H133932   1.832   1.564   6.183 -0.1506  1.4423  0.6477
11325TIP3    H233933   1.912   1.570   6.055 -2.0015  0.5272 -0.5739
11326TIP3   OH233934   8.261   0.187   0.917  0.1610  0.8404  0.2999
11326TIP3    H133935   8.277   0.147   1.002 -0.4426  0.4137  0.2201
11326TIP3    H233936   8.182   0.143   0.885  1.1829 -0.0211 -1.0974
11327TIP3   OH233937   3.885   4.590   4.593  0.1908 -0.5638  0.0238
11327TIP3    H133938   3.911   4.524   4.529  0.7081 -1.8189  1.4868
11327TIP3    H233939   3.794   4.570   4.614 -0.1559  0.1996 -0.7363
11328TIP3   OH233940   4.878   4.586   5.894  0.4986 -0.1828  0.4537
11328TIP3    H133941   4.879   4.512   5.834 -0.1869  1.6482 -1.9167
11328TIP3    H233942   4.797   4.577   5.944 -1.5357  0.9759 -2.5122
11329TIP3   OH233943   3.375   4.410   6.515  0.5558  0.0153  0.7763
11329TIP3    H133944   3.409   4.478   6.457  0.1220 -0.9165 -0.5949
11329TIP3    H233945   3.452   4.361   6.542  0.4004 -1.9880 -2.1880
11330TIP3   OH233946   7.168   0.868   0.050 -0.0782  0.4897 -0.0163
11330TIP3    H133947   7.189   0.786   0.007 -2.9251 -0.0243 -0.5196
11330TIP3    H233948   7.121   0.843   0.130 -0.3007  1.5867  0.2142
11331TIP3   OH233949   7.251   7.164   1.199  0.0617 -0.3583 -0.5422
11331TIP3    H133950   7.204   7.166   1.282 -0.8769  0.3313 -1.0726
11331TIP3    H233951   7.341   7.141   1.222  0.0942  1.0384  0.8097
11332TIP3   OH233952   2.530   3.754   6.842  0.3488 -0.0008 -0.4298
11332TIP3    H133953   2.523   3.659   6.851  0.7866  0.1228  1.3888
11332TIP3    H233954   2.534   3.786   6.932  0.1426  1.7482 -1.0305
11333TIP3   OH233955   0.740   4.582   4.628  0.2398  0.4690 -0.5987
11333TIP3    H133956   0.748   4.502   4.680 -0.8906 -0.7303 -2.1980
11333TIP3    H233957   0.749   4.654   4.691 -0.2848 -0.9289  1.0965
11334TIP3   OH233958   3.981   4.501   6.805 -0.7450  0.0845 -0.2709
11334TIP3    H133959   3.913   4.540   6.751 -1.4089  1.0966  1.2573
11334TIP3    H233960   3.975   4.547   6.889  0.4753 -1.2167  0.5651
11335TIP3   OH233961   6.985   5.518   0.821 -0.2582  0.4778  0.6721
11335TIP3    H133962   6.934   5.511   0.741 -1.2402 -0.9030  1.4024
11335TIP3    H233963   6.939   5.583   0.874  2.2202  3.9180 -1.1858
11336TIP3   OH233964   8.065   0.404   1.302 -0.4495  0.0168 -0.3552
11336TIP3    H133965   8.141   0.387   1.358 -0.3310 -0.0646 -0.5382
11336TIP3    H233966   7.996   0.432   1.362 -0.5401 -0.7760 -0.0867
11337TIP3   OH233967   7.947   1.378   0.687 -0.3971 -0.2599  0.8223
11337TIP3    H133968   7.903   1.310   0.737 -1.4849  0.0620  0.3038
11337TIP3    H233969   7.901   1.380   0.603  0.8548 -0.2026  0.1170
11338TIP3   OH233970   6.046   6.544   0.501 -0.1401  0.0371  0.1489
11338TIP3    H133971   6.048   6.500   0.416  0.4928 -0.9097  0.6413
11338TIP3    H233972   6.052   6.472   0.565  3.4165  0.9744  0.9496
11339TIP3   OH233973   3.758   4.595   4.211  0.0604  0.1496  0.0537
11339TIP3    H133974   3.829   4.560   4.264  1.1422  1.8784 -0.2172
11339TIP3    H233975   3.726   4.671   4.259 -2.0420 -0.9656  0.4752
11340TIP3   OH233976   4.766   5.532   6.584  0.1954 -0.1769  0.0970
11340TIP3    H133977   4.772   5.565   6.494 -1.2794  0.6023  0.2637
11340TIP3    H233978   4.701   5.588   6.626 -0.2765 -1.5241  1.2167
11341TIP3   OH233979   5.726   2.653   5.927 -0.1435  0.6824  0.5696
11341TIP3    H133980   5.714   2.667   5.833  0.4162 -3.1942 -0.1841
11341TIP3    H233981   5.798   2.590   5.933 -1.7229 -0.9950  3.4548
11342TIP3   OH233982   5.098   4.493   6.644  0.2979  0.1699  0.1629
11342TIP3    H133983   5.054   4.577   6.655  0.8068  0.0579  3.2988
11342TIP3    H233984   5.030   4.434   6.610 -0.4994  1.4057 -0.3890
11343TIP3   OH233985   3.644   6.546   5.183 -0.3277  0.2355  0.0451
11343TIP3    H133986   3.613   6.546   5.093  0.5094  0.8815 -0.2568
11343TIP3    H233987   3.678   6.458   5.198 -0.5390  0.1071 -0.2430
11344TIP3   OH233988   5.953   4.003   5.872  0.3480 -0.0994 -0.4973
11344TIP3    H133989   5.864   4.038   5.873  0.4731  0.2100  0.9722
11344TIP3    H233990   5.948   3.928   5.813 -1.2423 -1.0059  0.7548
11345TIP3   OH233991   2.670   5.281   5.714 -0.0599  0.1622 -0.3103
11345TIP3    H133992   2.646   5.289   5.622  0.7967  0.9722 -0.4821
11345TIP3    H233993   2.673   5.187   5.731 -1.0467  0.0255 -0.8798
11346TIP3   OH233994   1.111   6.320   0.076 -0.2077  0.1264  0.2676
11346TIP3    H133995   1.109   6.408   0.039  0.8522  0.4464  0.9472
11346TIP3    H233996   1.038   6.318   0.138 -0.2022  0.5422  0.2875
11347TIP3   OH233997   5.031   4.793   4.914 -0.2666 -0.3930  0.1654
11347TIP3    H133998   5.003   4.814   5.003  0.2347 -0.8330  0.4296
11347TIP3    H233999   5.081   4.712   4.923  1.6878  0.7483 -0.2020
11348TIP3   OH234000   4.657   6.054   5.299 -0.3179 -0.7428  0.5948
11348TIP3    H134001   4.705   6.116   5.245 -0.2323 -1.2805  0.0594
11348TIP3    H234002   4.620   6.108   5.370 -1.1836  0.1082 -0.4934
11349TIP3   OH234003   5.513   5.141   6.360  0.3264 -0.3326  0.7026
11349TIP3    H134004   5.524   5.046   6.351  1.1682 -0.1033 -0.8719
11349TIP3    H234005   5.597   5.178   6.332  0.0055  0.8894  1.2935
11350TIP3   OH234006   4.136   3.333   6.620 -0.4854 -0.7394 -0.0398
11350TIP3    H134007   4.061   3.287   6.582 -1.1277 -0.2011  0.5656
11350TIP3    H234008   4.135   3.419   6.577  0.4667 -1.1468 -0.8711
11351TIP3   OH234009   4.259   4.766   4.871  0.4916  0.1363 -0.0199
11351TIP3    H134010   4.168   4.794   4.886  0.9967  1.4405  0.6907
11351TIP3    H234011   4.289   4.822   4.799  0.9252  0.1276  0.1546
11352TIP3   OH234012   5.138   2.966   5.622  0.3507 -0.4645  0.2816
11352TIP3    H134013   5.172   2.949   5.710 -0.7101 -0.7307  0.6509
11352TIP3    H234014   5.162   2.888   5.572 -0.1335 -0.8645  0.6660
11353TIP3   OH234015   5.253   3.393   5.113 -0.0337 -0.0318 -0.3745
11353TIP3    H134016   5.321   3.442   5.067  0.0492 -0.8643 -1.1581
11353TIP3    H234017   5.229   3.449   5.188  2.3340 -0.2610  0.5908
11354TIP3   OH234018   4.591   4.496   4.912  0.7219 -0.0843  0.1371
11354TIP3    H134019   4.637   4.576   4.938 -0.2013  0.4084  0.2896
11354TIP3    H234020   4.572   4.452   4.995  2.8480 -1.3896 -0.0452
11355TIP3   OH234021   3.878   0.259   0.912 -0.6174 -0.2696 -0.2386
11355TIP3    H134022   3.852   0.328   0.972  0.1899 -0.9873  0.9706
11355TIP3    H234023   3.892   0.182   0.968 -1.0267 -1.2837 -1.4888
11356TIP3   OH234024   5.780   3.989   4.548 -0.1423  0.0227  0.5616
11356TIP3    H134025   5.784   4.084   4.558  0.5311 -0.0904  1.4007
11356TIP3    H234026   5.720   3.959   4.616 -0.3259 -0.1591  0.3216
11357TIP3   OH234027   5.830   5.486   5.527 -0.1884 -0.3792 -0.3031
11357TIP3    H134028   5.898   5.481   5.594  0.6369  0.8193 -1.0293
11357TIP3    H234029   5.750   5.459   5.571  0.9971 -3.2482  0.1989
11358TIP3   OH234030   4.402   5.348   6.745 -0.5549 -0.4096 -0.5101
11358TIP3    H134031   4.487   5.364   6.785 -1.0532 -2.7022  1.6349
11358TIP3    H234032   4.421   5.303   6.663  0.3056 -2.7244  0.9047
11359TIP3   OH234033   5.995   3.812   4.671  0.0662  0.0342  0.3993
11359TIP3    H134034   5.903   3.807   4.647  0.2220  1.5240 -0.5810
11359TIP3    H234035   6.040   3.827   4.588  1.2546 -1.1804  0.7953
11360TIP3   OH234036   2.848   4.090   6.576  0.5503 -0.0868  0.1363
11360TIP3    H134037   2.898   4.146   6.517 -0.8304  1.2521  0.2061
11360TIP3    H234038   2.816   4.019   6.521  1.6676 -0.4148 -0.1115
11361TIP3   OH234039   2.167   3.297   5.616  0.3362 -0.2370 -0.1708
11361TIP3    H134040   2.228   3.246   5.670 -1.6796 -2.8973 -0.3092
11361TIP3    H234041   2.187   3.270   5.526 -1.3902 -1.5616 -0.1724
11362TIP3   OH234042   3.857   5.607   6.346 -0.0066  0.8797 -0.3686
11362TIP3    H134043   3.771   5.600   6.387  0.0443  0.5765 -0.3085
11362TIP3    H234044   3.863   5.698   6.316 -0.5725  0.7503 -0.8716
11363TIP3   OH234045   5.545   5.455   5.687  0.0528  0.1918 -0.4026
11363TIP3    H134046   5.562   5.392   5.616 -0.4438 -0.2261 -0.1629
11363TIP3    H234047   5.503   5.402   5.755 -0.8564  0.8859 -0.4080
11364TIP3   OH234048   3.737   3.110   6.410 -0.0939 -0.1161  0.1584
11364TIP3    H134049   3.765   3.056   6.336 -0.5496 -0.1289 -0.0057
11364TIP3    H234050   3.711   3.193   6.371 -0.3224 -0.1183  0.3040
11365TIP3   OH234051   3.406   1.743   6.276  0.4006 -0.3177  0.8934
11365TIP3    H134052   3.378   1.791   6.198  0.8640 -1.6351 -0.0918
11365TIP3    H234053   3.487   1.699   6.250 -0.0709 -1.7108  1.7479
11366TIP3   OH234054   7.294   0.675   6.738 -0.0904  0.2344 -0.0446
11366TIP3    H134055   7.234   0.608   6.770  0.2287  0.1527  0.3844
11366TIP3    H234056   7.255   0.758   6.766  0.6216  0.1256  1.3006
11367TIP3   OH234057   5.012   6.503   4.933  0.9080 -0.3781 -0.2346
11367TIP3    H134058   5.071   6.429   4.918  2.2908  0.5889  0.3726
11367TIP3    H234059   5.045   6.545   5.013  0.0807  0.8345 -0.5093
11368TIP3   OH234060   3.105   2.319   0.966  0.4631  0.5234 -0.2015
11368TIP3    H134061   3.097   2.293   1.058  0.5170 -0.5472 -0.4980
11368TIP3    H234062   3.103   2.415   0.968  3.0075  0.5721  1.1391
11369TIP3   OH234063   5.028   5.154   5.921  0.3502 -0.2184  0.3374
11369TIP3    H134064   5.113   5.116   5.898  0.7065  0.3144  0.7548
11369TIP3    H234065   4.976   5.080   5.953  0.0018 -0.8924 -1.7404
11370TIP3   OH234066   5.308   6.557   6.420 -0.3578  0.1095 -0.2889
11370TIP3    H134067   5.214   6.569   6.406 -0.2861  0.5994 -0.3400
11370TIP3    H234068   5.315   6.522   6.508 -0.5311  0.8574  0.0233
11371TIP3   OH234069   7.743   0.112   6.533  0.3545 -0.4947  0.1780
11371TIP3    H134070   7.738   0.199   6.574  1.8660  0.3993 -1.4427
11371TIP3    H234071   7.699   0.123   6.448  0.5442 -1.3148 -0.0318
11372TIP3   OH234072   4.011   6.061   6.030  0.2286  0.5796  0.3170
11372TIP3    H134073   3.946   6.024   5.969  0.3862 -0.2200  0.6292
11372TIP3    H234074   4.083   5.998   6.028 -0.2269 -0.0330  2.1728
11373TIP3   OH234075   5.288   3.610   6.787 -0.0935 -0.1096 -0.1845
11373TIP3    H134076   5.204   3.587   6.748 -0.5566 -0.7156  1.1326
11373TIP3    H234077   5.340   3.529   6.784 -0.2892 -0.2880  0.8056
11374TIP3   OH234078   4.908   3.524   6.021  0.9313 -0.5789 -0.0913
11374TIP3    H134079   4.877   3.447   6.070 -0.3085  0.3261  0.5688
11374TIP3    H234080   4.878   3.510   5.932  0.1618 -0.5744  0.1626
11375TIP3   OH234081   6.470   6.157   4.697  0.7624 -0.5042  0.2654
11375TIP3    H134082   6.398   6.096   4.715 -1.0942  1.0202 -1.6574
11375TIP3    H234083   6.484   6.150   4.603  1.5325  0.9276  0.2634
11376TIP3   OH234084   4.572   2.867   6.451  0.3010 -0.1782  0.5598
11376TIP3    H134085   4.629   2.931   6.409 -0.4572  0.8263  1.0265
11376TIP3    H234086   4.631   2.812   6.503  1.2929 -1.7339 -2.1488
11377TIP3   OH234087   4.486   3.463   6.247  0.0284  0.2272 -0.2591
11377TIP3    H134088   4.476   3.460   6.152 -0.1062 -0.9145 -0.2082
11377TIP3    H234089   4.408   3.419   6.281 -1.1483  2.7678  0.4488
11378TIP3   OH234090   4.639   5.847   5.905  0.3630  0.1630  0.1233
11378TIP3    H134091   4.579   5.824   5.834  1.5212 -0.8806 -0.5402
11378TIP3    H234092   4.715   5.886   5.861  0.7093  0.3188  0.8495
11379TIP3   OH234093   5.736   7.653   4.736 -0.3665  0.4127  0.5957
11379TIP3    H134094   5.816   7.611   4.705 -1.6095 -0.8361 -1.0249
11379TIP3    H234095   5.665   7.608   4.689 -1.8864  2.8517  0.4576
11380TIP3   OH234096   3.777   4.716   6.765  0.6590 -0.0757  0.2596
11380TIP3    H134097   3.797   4.775   6.692  0.7775 -1.3910 -0.7831
11380TIP3    H234098   3.718   4.650   6.728 -0.5299  0.1084  1.7371
11381TIP3   OH234099   3.800   6.589   3.323 -0.0352  0.1911  0.6170
11381TIP3    H134100   3.786   6.568   3.231 -1.9160 -2.4337  1.4350
11381TIP3    H234101   3.858   6.520   3.355 -0.6668  0.1534  1.7333
11382TIP3   OH234102   2.543   2.022   0.122 -0.1815 -0.1521  0.1070
11382TIP3    H134103   2.466   2.024   0.178  0.0580 -0.6663  0.4619
11382TIP3    H234104   2.605   1.965   0.168 -0.1638 -0.9849 -0.9073
11383TIP3   OH234105   6.164   2.607   6.132  0.2974  0.1907  0.1497
11383TIP3    H134106   6.194   2.532   6.080  1.0893  1.8325 -1.8045
11383TIP3    H234107   6.072   2.588   6.151 -0.0541 -0.3414 -2.0188
11384TIP3   OH234108   5.990   2.560   4.734  0.3181 -0.0909  0.0244
11384TIP3    H134109   5.937   2.548   4.655 -0.5267  2.0893  0.2322
11384TIP3    H234110   6.069   2.508   4.718 -0.3454 -0.5972 -1.7509
11385TIP3   OH234111   6.290   4.698   3.417  0.3689 -0.0311 -0.4321
11385TIP3    H134112   6.205   4.742   3.424 -0.7399 -2.2692  0.7345
11385TIP3    H234113   6.278   4.635   3.346  0.9827 -0.5080 -0.1086
11386TIP3   OH234114   2.772   0.169   0.017 -0.0470 -0.3638 -0.2726
11386TIP3    H134115   2.723   0.225   0.077  2.1892  0.9481  0.3680
11386TIP3    H234116   2.825   0.113   0.073  0.5495 -0.5191 -0.9761
11387TIP3   OH234117   0.592   2.103   0.748 -0.0127 -0.1784 -0.2346
11387TIP3    H134118   0.657   2.152   0.798  1.5798  0.3158 -2.6812
11387TIP3    H234119   0.509   2.146   0.767  1.0981  2.3942 -0.9830
11388TIP3   OH234120   5.513   7.369   6.012  0.0118  0.4768 -0.0252
11388TIP3    H134121   5.510   7.370   6.108  1.7970 -0.3732  0.0717
11388TIP3    H234122   5.564   7.447   5.990  1.6217 -0.5815 -0.1466
11389TIP3   OH234123   1.849   0.571   0.166 -0.0122 -0.3048  0.0906
11389TIP3    H134124   1.919   0.551   0.103 -0.5886 -1.0587 -0.3179
11389TIP3    H234125   1.889   0.557   0.252  0.5213 -0.1181 -0.1233
11390TIP3   OH234126   0.750   0.643   0.013  0.3471 -0.0079  0.3620
11390TIP3    H134127   0.783   0.559   0.045  0.7921 -0.2992 -0.8208
11390TIP3    H234128   0.823   0.680  -0.037  0.0619  0.9644  0.6433
11391TIP3   OH234129   2.433   7.111   5.127  0.0644 -0.5379  0.5096
11391TIP3    H134130   2.454   7.036   5.184  0.1508 -0.0583  1.1172
11391TIP3    H234131   2.506   7.171   5.139 -0.0087 -0.3500  0.0230
11392TIP3   OH234132   5.491   5.211   4.278 -0.0994 -0.0531  0.0075
11392TIP3    H134133   5.470   5.304   4.287  3.0257  0.6041  0.9025
11392TIP3    H234134   5.551   5.207   4.203 -1.7055 -1.6256 -1.2425
11393TIP3   OH234135   4.359   6.618   4.989 -0.0402 -0.7843  0.2423
11393TIP3    H134136   4.329   6.707   5.007 -4.2599 -1.6428 -1.9195
11393TIP3    H234137   4.332   6.567   5.065 -2.2221 -1.1064 -0.6979
11394TIP3   OH234138   7.758   6.324   5.963  0.2464 -0.0226 -0.0207
11394TIP3    H134139   7.771   6.275   6.045 -3.0025 -1.1442 -0.1131
11394TIP3    H234140   7.761   6.257   5.895  0.0620  0.5205 -0.5586
11395TIP3   OH234141   0.789   7.614   1.083  0.3687  0.3009 -0.2488
11395TIP3    H134142   0.719   7.613   1.148  0.1972 -3.0892 -0.4278
11395TIP3    H234143   0.745   7.624   0.999  0.3987  1.9589 -0.0800
11396TIP3   OH234144   4.356   3.856   5.293  0.0753 -0.2805  0.3174
11396TIP3    H134145   4.336   3.944   5.262 -0.7995 -0.8127 -0.6769
11396TIP3    H234146   4.285   3.802   5.258 -0.5676 -1.0344  2.6651
11397TIP3   OH234147   2.079   2.635   0.065  0.3873 -0.5599 -0.3079
11397TIP3    H134148   2.086   2.623   0.160  0.7295 -1.8028 -0.4920
11397TIP3    H234149   2.158   2.595   0.030 -0.5490 -1.6051 -1.2565
11398TIP3   OH234150   2.184   0.936   0.301 -0.4545 -0.3746 -0.1251
11398TIP3    H134151   2.156   0.869   0.363 -3.5390  1.1305  0.1709
11398TIP3    H234152   2.210   1.011   0.355 -0.6955  0.0304 -0.5580
11399TIP3   OH234153   5.945   5.365   3.479 -0.2027  0.1971  0.3848
11399TIP3    H134154   6.032   5.334   3.452  0.5554  1.3959  1.4113
11399TIP3    H234155   5.925   5.314   3.557 -0.6484 -0.4122 -0.1148
11400TIP3   OH234156   4.937   4.707   6.760  0.2616  0.4880  0.0256
11400TIP3    H134157   5.009   4.768   6.750  0.7001  0.2818  1.7885
11400TIP3    H234158   4.861   4.762   6.780 -0.3658  0.8040 -3.0331
11401TIP3   OH234159   4.846   3.439   6.542 -0.0672 -0.5116  0.2790
11401TIP3    H134160   4.809   3.359   6.505  1.5342 -1.2309  0.1868
11401TIP3    H234161   4.810   3.510   6.489 -1.5425 -1.1603  0.4025
11402TIP3   OH234162   6.017   4.751   5.493  0.6237 -0.4680 -0.4147
11402TIP3    H134163   5.936   4.802   5.489  0.8384  0.1573  2.2132
11402TIP3    H234164   5.992   4.664   5.461 -1.2148 -0.4020  0.7834
11403TIP3   OH234165   4.711   3.556   4.684 -0.5484  0.4108  0.5296
11403TIP3    H134166   4.730   3.462   4.675  0.8090  0.5401  1.9101
11403TIP3    H234167   4.739   3.578   4.772 -4.3070  1.3306  1.6096
11404TIP3   OH234168   5.228   1.976   5.268  0.6878 -0.3478  0.1099
11404TIP3    H134169   5.290   1.920   5.315  2.3549  0.4389 -1.0900
11404TIP3    H234170   5.189   1.918   5.203 -0.3486 -1.0063  1.2822
11405TIP3   OH234171   4.850   4.146   4.292 -0.0191  0.2863 -0.0106
11405TIP3    H134172   4.763   4.106   4.290 -0.5461  1.3542  0.9666
11405TIP3    H234173   4.839   4.229   4.245  0.3035  0.7342  0.7008
11406TIP3   OH234174   4.828   3.045   3.843 -0.2951  0.4385 -0.1762
11406TIP3    H134175   4.750   3.056   3.788 -0.9058  0.1215  0.5971
11406TIP3    H234176   4.828   3.122   3.900 -1.3024 -0.6336  1.3145
11407TIP3   OH234177   5.168   4.479   4.700  0.1772 -0.4495  0.7593
11407TIP3    H134178   5.248   4.528   4.680 -0.4486  0.7384  1.1114
11407TIP3    H234179   5.114   4.490   4.622 -0.0976 -0.2977  0.9716
11408TIP3   OH234180   5.525   3.290   6.304  0.0605 -0.2002  0.1083
11408TIP3    H134181   5.436   3.256   6.311 -0.7397  1.5507 -1.0915
11408TIP3    H234182   5.564   3.240   6.231 -0.8590  0.8771 -1.1529
11409TIP3   OH234183   3.990   3.694   6.265 -0.6245 -0.0427 -0.4355
11409TIP3    H134184   3.958   3.607   6.243 -1.2069  0.2788 -0.8753
11409TIP3    H234185   3.919   3.734   6.315 -0.0883 -0.0597  0.3549
11410TIP3   OH234186   5.455   4.548   5.652  0.4471 -0.0538  0.2001
11410TIP3    H134187   5.514   4.580   5.584  1.0330  0.2477  0.8460
11410TIP3    H234188   5.395   4.489   5.606 -1.1494  2.5657 -1.1695
11411TIP3   OH234189   3.299   6.112   4.367  0.1448 -0.1610  0.7124
11411TIP3    H134190   3.343   6.188   4.405 -0.0236 -0.4566  1.5118
11411TIP3    H234191   3.354   6.038   4.391  0.5685 -0.2480 -0.4798
11412TIP3   OH234192   2.452   3.668   5.890  0.4728 -0.5333 -0.4643
11412TIP3    H134193   2.531   3.713   5.858  0.4047  0.4146  0.6516
11412TIP3    H234194   2.389   3.677   5.818  0.4103  1.3317 -0.2063
11413TIP3   OH234195   5.146   5.126   6.566  0.1075 -0.4195  0.4584
11413TIP3    H134196   5.092   5.201   6.592  2.8390  2.4478 -1.9313
11413TIP3    H234197   5.236   5.157   6.573  1.3192 -3.5304 -0.5477
11414TIP3   OH234198   4.604   5.642   5.352 -0.3464  0.1230  0.4672
11414TIP3    H134199   4.640   5.694   5.280 -1.0080  0.7400  0.5785
11414TIP3    H234200   4.620   5.694   5.430 -0.6771 -0.0137  0.6264
11415TIP3   OH234201   4.493   2.278   5.130  0.3799  0.3039  0.4851
11415TIP3    H134202   4.582   2.311   5.144  0.5994  0.8869 -1.9772
11415TIP3    H234203   4.498   2.185   5.150  1.4971  0.3794  0.5878
11416TIP3   OH234204   6.460   5.527   4.536 -0.1653 -0.0572  0.1988
11416TIP3    H134205   6.436   5.619   4.523 -0.6918  0.1664  2.5309
11416TIP3    H234206   6.379   5.485   4.565  0.0967 -1.2662 -0.7684
11417TIP3   OH234207   3.649   6.383   6.648  0.6698  0.0250 -0.6187
11417TIP3    H134208   3.679   6.474   6.651  0.6707 -0.0306  0.9770
11417TIP3    H234209   3.577   6.379   6.711  0.3416 -0.9730 -1.0428
11418TIP3   OH234210   4.648   5.408   5.208  0.3135  0.2916 -0.0221
11418TIP3    H134211   4.603   5.451   5.281  1.2358 -2.7085  2.4120
11418TIP3    H234212   4.736   5.445   5.210  1.2881 -2.0236  2.4430
11419TIP3   OH234213   3.809   2.245   5.991  0.2056 -0.0564  0.2454
11419TIP3    H134214   3.901   2.266   6.006  0.9086 -3.1980  0.5823
11419TIP3    H234215   3.805   2.213   5.900 -0.7361  0.9457 -0.0848
11420TIP3   OH234216   5.578   6.200   5.429 -0.5272  0.1463 -0.1930
11420TIP3    H134217   5.566   6.170   5.519  1.5796  0.6973  0.3057
11420TIP3    H234218   5.671   6.184   5.411 -0.7303  0.8719 -1.9545
11421TIP3   OH234219   5.448   3.701   3.569  0.0984 -0.0576  0.3071
11421TIP3    H134220   5.485   3.653   3.494  1.4962 -0.5977  1.3064
11421TIP3    H234221   5.398   3.772   3.529  0.9524 -0.2337 -1.1460
11422TIP3   OH234222   5.180   6.597   5.171  0.3391 -0.5180 -0.3689
11422TIP3    H134223   5.187   6.530   5.240  0.0449  1.0070  1.1721
11422TIP3    H234224   5.250   6.575   5.109  0.8916 -1.6571  0.6391
11423TIP3   OH234225   8.162   2.708   3.659 -0.0030  0.1205 -0.2221
11423TIP3    H134226   8.228   2.661   3.609  0.1538 -0.2054  0.2799
11423TIP3    H234227   8.151   2.792   3.614 -0.6426 -0.5836 -1.4151
11424TIP3   OH234228   4.260   5.039   6.313  0.3168  0.4512  0.3005
11424TIP3    H134229   4.334   5.048   6.373  0.6839  0.2626 -0.1168
11424TIP3    H234230   4.294   5.069   6.228  0.3463 -0.9577 -0.2027
11425TIP3   OH234231   3.977   5.306   5.681  0.4435 -0.0575  0.8645
11425TIP3    H134232   4.072   5.314   5.672  0.2845  1.0680  0.0354
11425TIP3    H234233   3.959   5.213   5.671  1.2369 -0.0033 -1.3870
11426TIP3   OH234234   4.531   5.859   4.471 -0.1155 -0.4472 -0.5895
11426TIP3    H134235   4.546   5.773   4.432  0.9941 -0.7031  0.3552
11426TIP3    H234236   4.486   5.840   4.554 -0.3973 -0.0755 -0.6557
11427TIP3   OH234237   6.997   4.598   6.244  0.2871 -0.4370 -0.4354
11427TIP3    H134238   7.045   4.679   6.226 -0.1780 -0.6563 -2.7794
11427TIP3    H234239   6.970   4.606   6.336  1.4890  1.4057 -0.2226
11428TIP3   OH234240   3.231   5.275   5.341  0.0448  0.1120  0.0745
11428TIP3    H134241   3.323   5.250   5.352 -0.2959 -1.0446  0.2773
11428TIP3    H234242   3.185   5.193   5.323 -1.0487  0.5868  0.6344
11429TIP3   OH234243   7.191   6.856   1.284  0.2786  0.0973 -0.6120
11429TIP3    H134244   7.141   6.935   1.305 -0.0120 -0.3560  0.4603
11429TIP3    H234245   7.282   6.879   1.304  0.4786  0.8512 -2.3524
11430TIP3   OH234246   5.992   4.969   6.365 -0.1416 -0.4035 -0.1630
11430TIP3    H134247   5.972   4.963   6.271 -1.2928 -0.7885  0.0976
11430TIP3    H234248   5.919   4.925   6.407 -0.6354  1.5206  1.0219
11431TIP3   OH234249   0.096   7.171   0.601 -0.2405 -0.1006  0.3911
11431TIP3    H134250   0.160   7.118   0.552 -1.5668 -3.0839  1.7202
11431TIP3    H234251   0.017   7.170   0.547 -0.0187  1.2829  0.0262
11432TIP3   OH234252   3.310   2.737   1.787  0.0224  0.1933 -0.0642
11432TIP3    H134253   3.369   2.702   1.720  0.9825  0.8904  0.4031
11432TIP3    H234254   3.227   2.751   1.741  0.4320 -0.1017 -0.9067
11433TIP3   OH234255   4.336   5.092   5.450 -0.2435 -0.1209 -0.0018
11433TIP3    H134256   4.297   5.129   5.529 -1.2937 -0.4790 -0.3524
11433TIP3    H234257   4.402   5.156   5.424 -0.5706  0.4687  0.6078
11434TIP3   OH234258   4.925   5.943   5.840  0.4229 -0.5308  0.0856
11434TIP3    H134259   4.938   5.988   5.923  0.6024 -0.6274  0.1104
11434TIP3    H234260   4.893   6.010   5.780 -0.7215 -0.6813  0.5099
11435TIP3   OH234261   5.000   4.580   5.380  0.2851 -0.4680 -0.0994
11435TIP3    H134262   4.906   4.565   5.383  0.3852 -0.9211  1.0951
11435TIP3    H234263   5.032   4.517   5.315 -0.1045 -1.0417  0.2584
11436TIP3   OH234264   6.661   6.582   1.153 -0.4638  0.5617  0.7227
11436TIP3    H134265   6.643   6.668   1.116  1.3278  0.6028 -0.1079
11436TIP3    H234266   6.669   6.524   1.078 -3.2952 -0.6966  1.3394
11437TIP3   OH234267   5.715   4.768   4.638  0.1260  0.3406 -0.3640
11437TIP3    H134268   5.683   4.773   4.547  1.5016  0.6943 -0.8341
11437TIP3    H234269   5.700   4.855   4.674 -0.7770  0.0939 -0.1118
11438TIP3   OH234270   3.835   5.738   5.280 -0.2941  0.3594 -0.2948
11438TIP3    H134271   3.890   5.816   5.274 -0.0398  0.1751 -0.3732
11438TIP3    H234272   3.897   5.666   5.293 -0.6344  0.4034  1.8551
11439TIP3   OH234273   4.115   4.857   4.438  0.7826 -0.7164  0.5770
11439TIP3    H134274   4.155   4.798   4.374  0.7911 -0.5230  0.4035
11439TIP3    H234275   4.185   4.877   4.500  1.2635  0.5038 -0.3517
11440TIP3   OH234276   5.697   3.725   4.418  0.1632  0.3400 -0.0201
11440TIP3    H134277   5.604   3.716   4.396  0.1257 -0.7335  0.5409
11440TIP3    H234278   5.702   3.807   4.468 -0.1370  1.4930 -1.8237
11441TIP3   OH234279   4.950   5.323   4.773 -0.1187  0.3377 -0.3129
11441TIP3    H134280   5.031   5.286   4.739 -0.0592  0.3372 -0.1709
11441TIP3    H234281   4.968   5.339   4.866  0.3498  2.1278 -0.6965
11442TIP3   OH234282   5.408   5.605   5.449  0.1504 -0.5651  0.3622
11442TIP3    H134283   5.391   5.625   5.357  0.7920  0.2048  0.3993
11442TIP3    H234284   5.502   5.620   5.460  0.2586 -1.6326  0.9072
11443TIP3   OH234285   5.705   5.384   4.579  0.1206 -0.4350 -0.0734
11443TIP3    H134286   5.744   5.407   4.495  3.0160  0.8637  1.5329
11443TIP3    H234287   5.743   5.299   4.600 -0.6432 -0.7854 -0.1101
11444TIP3   OH234288   2.121   0.303   0.217 -0.0540  0.0263 -0.0427
11444TIP3    H134289   2.161   0.218   0.201  0.4271  0.1033  0.7367
11444TIP3    H234290   2.132   0.350   0.134  1.0495 -0.1280  0.0042
11445TIP3   OH234291   4.048   3.635   4.767 -0.1383 -0.1787 -0.1969
11445TIP3    H134292   4.090   3.596   4.844 -0.1470  0.8717  0.3461
11445TIP3    H234293   4.071   3.576   4.695  1.0225 -0.4245  0.3617
11446TIP3   OH234294   4.437   5.264   5.845  0.3204 -0.6037  0.6613
11446TIP3    H134295   4.466   5.232   5.930  0.7847 -0.9753  0.3642
11446TIP3    H234296   4.445   5.360   5.851  0.8832 -0.6592  0.8463
11447TIP3   OH234297   4.438   4.155   4.665  0.0892  0.1637 -0.2426
11447TIP3    H134298   4.382   4.225   4.699  0.8765  1.3526 -1.3450
11447TIP3    H234299   4.522   4.198   4.648  1.3454 -1.5631  1.3465
11448TIP3   OH234300   3.967   4.461   4.345  0.0023 -0.7690  0.1858
11448TIP3    H134301   3.952   4.372   4.377 -1.6521 -0.6497 -0.1801
11448TIP3    H234302   4.032   4.451   4.276  0.2915 -1.6209  0.5780
11449TIP3   OH234303   3.266   6.079   3.896 -0.9363 -0.0610 -0.2385
11449TIP3    H134304   3.330   6.150   3.895  0.2475 -1.1116  0.2136
11449TIP3    H234305   3.290   6.024   3.821 -0.1292 -1.4902  1.0489
11450TIP3   OH234306   6.854   1.704   5.488  0.1658 -0.4092  0.3351
11450TIP3    H134307   6.906   1.682   5.412  1.1047  0.5465  0.6803
11450TIP3    H234308   6.917   1.707   5.561 -0.6936 -1.2218  1.1268
11451TIP3   OH234309   5.972   4.398   6.511 -0.8374 -0.4422 -0.0336
11451TIP3    H134310   6.053   4.399   6.561 -1.2060  1.8759  0.5982
11451TIP3    H234311   5.948   4.491   6.502 -1.8305 -0.9035 -2.7912
11452TIP3   OH234312   5.773   6.701   6.180 -0.2018 -0.3559  0.3208
11452TIP3    H134313   5.740   6.718   6.092 -0.0449 -2.1918 -0.1202
11452TIP3    H234314   5.866   6.724   6.176 -0.1684 -0.5580 -0.0340
11453TIP3   OH234315   5.300   3.700   5.386 -0.6519  0.5887  0.0098
11453TIP3    H134316   5.357   3.747   5.324  0.8208  0.5822  1.3283
11453TIP3    H234317   5.214   3.740   5.374 -0.3749  0.6077 -2.0177
11454TIP3   OH234318   4.055   0.102   1.204 -0.4521 -0.2273  0.0471
11454TIP3    H134319   3.974   0.077   1.160 -0.1692 -0.8091 -0.1482
11454TIP3    H234320   4.064   0.196   1.188 -1.2998 -0.0772  0.4130
11455TIP3   OH234321   3.563   2.993   5.818 -0.1075 -0.2047  0.2223
11455TIP3    H134322   3.560   2.938   5.740 -0.1048 -1.9377  1.3953
11455TIP3    H234323   3.478   3.036   5.821  0.4070  0.9850 -1.4786
11456TIP3   OH234324   7.909   3.224   0.332  0.1621  0.0721 -0.7586
11456TIP3    H134325   7.996   3.192   0.354 -0.3164  0.1213  1.2490
11456TIP3    H234326   7.869   3.151   0.283  0.8060 -0.5187 -0.4138
11457TIP3   OH234327   5.399   3.037   4.867 -0.0802  0.7606  0.2980
11457TIP3    H134328   5.448   3.053   4.786  0.5891  1.7359  0.8725
11457TIP3    H234329   5.313   3.076   4.851 -0.3603 -0.1101 -0.3698
11458TIP3   OH234330   2.302   5.285   6.411  0.9551  0.4762  0.2668
11458TIP3    H134331   2.354   5.326   6.342  0.4954 -0.7709 -0.8447
11458TIP3    H234332   2.262   5.359   6.458 -0.5378  1.3121 -2.2276
11459TIP3   OH234333   4.794   5.637   4.701 -0.4996 -0.0828  0.1613
11459TIP3    H134334   4.816   5.582   4.626  0.7907  0.4440  0.1406
11459TIP3    H234335   4.725   5.590   4.747 -1.4132 -0.3265 -1.4514
11460TIP3   OH234336   3.651   6.189   5.675 -0.1129 -0.4067  0.8920
11460TIP3    H134337   3.569   6.210   5.720  0.1608  2.2163  0.2506
11460TIP3    H234338   3.625   6.132   5.603 -1.4441  0.5247  0.6093
11461TIP3   OH234339   3.720   4.717   5.355  0.4681 -0.2995 -0.8813
11461TIP3    H134340   3.687   4.682   5.438  0.7141 -0.3037 -0.7837
11461TIP3    H234341   3.651   4.697   5.292  0.0675  0.1335 -0.5850
11462TIP3   OH234342   5.261   4.178   4.856 -0.0264  0.0006  0.4912
11462TIP3    H134343   5.299   4.262   4.831 -0.2062 -0.3169 -0.8978
11462TIP3    H234344   5.170   4.198   4.877 -0.5594 -0.1181 -1.6172
11463TIP3   OH234345   5.167   2.637   4.399 -0.7746 -0.5158  0.1222
11463TIP3    H134346   5.209   2.601   4.321 -0.0393  0.4260  0.0690
11463TIP3    H234347   5.240   2.656   4.458 -1.1471  0.6933  0.2128
11464TIP3   OH234348   4.135   5.172   5.000  0.1913  0.0272  0.2453
11464TIP3    H134349   4.146   5.133   5.087  0.3721  0.8562  0.6017
11464TIP3    H234350   4.046   5.207   5.001 -0.6368 -1.9554 -0.7272
11465TIP3   OH234351   4.929   6.199   5.713 -0.2020  0.6998  0.1056
11465TIP3    H134352   5.008   6.198   5.659  0.0607  0.4488  0.4941
11465TIP3    H234353   4.925   6.288   5.748  0.9281  0.2013  1.5703
11466TIP3   OH234354   3.956   1.392   1.054 -1.0701  0.4854 -0.1177
11466TIP3    H134355   3.975   1.486   1.065 -0.5625  0.3954 -0.1810
11466TIP3    H234356   4.041   1.350   1.067 -1.1080  0.1132 -1.0727
11467TIP3   OH234357   3.808   3.577   6.584  0.2927  0.0363 -0.2189
11467TIP3    H134358   3.854   3.507   6.630  0.7065 -0.2185 -1.0086
11467TIP3    H234359   3.773   3.633   6.654  2.4554  0.6597  0.4034
11468TIP3   OH234360   5.605   5.022   4.737  0.7516 -0.1263  0.5740
11468TIP3    H134361   5.588   5.063   4.822 -1.2148  0.0861  0.1132
11468TIP3    H234362   5.638   5.093   4.683 -1.8397  0.7204  0.0239
11469TIP3   OH234363   2.642   6.891   4.491  0.6056 -0.5020 -0.8298
11469TIP3    H134364   2.708   6.936   4.542  1.2972 -3.7641  1.2375
11469TIP3    H234365   2.679   6.887   4.403  1.7875  0.3358 -0.3905
11470TIP3   OH234366   5.018   4.485   6.216  0.3534  0.0573  0.3875
11470TIP3    H134367   5.041   4.436   6.137  2.5344 -0.3051  1.2033
11470TIP3    H234368   5.013   4.419   6.285 -4.5721 -0.0812  0.0768
11471TIP3   OH234369   3.186   4.562   6.690 -0.3845 -0.1135  0.3377
11471TIP3    H134370   3.227   4.486   6.649 -0.6080 -0.7829  1.3613
11471TIP3    H234371   3.260   4.611   6.727 -0.3839 -0.6500  1.0531
11472TIP3   OH234372   4.675   4.012   4.884 -0.0209  0.3887 -0.7600
11472TIP3    H134373   4.674   3.926   4.842 -4.0065  0.2726 -0.6211
11472TIP3    H234374   4.657   4.074   4.812 -2.5069  0.5617 -0.0565
11473TIP3   OH234375   3.870   6.207   6.948 -0.1669  0.1731 -0.4844
11473TIP3    H134376   3.926   6.140   6.909  1.4007  1.7118 -0.9647
11473TIP3    H234377   3.898   6.288   6.906 -1.9168  1.1571  0.2065
11474TIP3   OH234378   4.974   1.415   6.766 -0.1438 -0.0904 -0.3497
11474TIP3    H134379   4.900   1.448   6.817  1.3806  0.0571  1.8734
11474TIP3    H234380   5.010   1.493   6.723  0.6144  0.4086  1.1398
11475TIP3   OH234381   4.431   6.655   5.828 -0.4575 -0.1899  0.1012
11475TIP3    H134382   4.497   6.589   5.806 -0.6101 -0.9365  1.8272
11475TIP3    H234383   4.481   6.728   5.864 -0.4354 -0.0252 -0.2544
11476TIP3   OH234384   5.866   3.268   5.510  0.3231  0.3838  0.1524
11476TIP3    H134385   5.777   3.234   5.503  0.6932 -0.4963 -0.3232
11476TIP3    H234386   5.908   3.213   5.576  0.1610  1.5723  1.2672
11477TIP3   OH234387   4.736   3.291   6.023  0.3740  0.0178  0.5022
11477TIP3    H134388   4.749   3.248   5.938 -0.0917 -1.0098  0.9492
11477TIP3    H234389   4.652   3.257   6.055  0.4864  0.4913  1.3223
11478TIP3   OH234390   6.107   5.339   6.782  0.2890  0.3748  0.1487
11478TIP3    H134391   6.062   5.414   6.822 -0.8831 -0.4139  0.3341
11478TIP3    H234392   6.169   5.379   6.721 -2.0559  1.4849 -1.6163
11479TIP3   OH234393   5.331   2.575   6.011  0.3094 -0.0561 -0.1206
11479TIP3    H134394   5.396   2.639   6.036 -0.0972  0.6661 -0.8794
11479TIP3    H234395   5.340   2.504   6.075 -0.6040  1.6449  1.9342
11480TIP3   OH234396   5.874   3.920   6.418  0.2776  0.0587  0.0361
11480TIP3    H134397   5.886   4.009   6.387 -0.3220 -0.0730 -0.5839
11480TIP3    H234398   5.781   3.914   6.440  0.2571 -0.4918 -0.1823
11481TIP3   OH234399   6.257   0.812   6.619 -0.2667  0.3847  0.0509
11481TIP3    H134400   6.317   0.818   6.544 -0.4270  0.9151 -0.0399
11481TIP3    H234401   6.278   0.728   6.660  0.0878  0.2661 -0.3632
11482TIP3   OH234402   6.051   5.038   5.641 -0.1913 -0.1342 -0.3354
11482TIP3    H134403   6.079   4.985   5.716 -1.1480 -0.5419 -0.2675
11482TIP3    H234404   5.956   5.040   5.647 -0.3460 -1.0659 -2.1486
11483TIP3   OH234405   6.430   6.859   4.891 -0.1758 -0.0016 -0.6156
11483TIP3    H134406   6.513   6.905   4.884 -0.9525  1.1968 -2.2414
11483TIP3    H234407   6.412   6.855   4.985  0.0830  2.6932 -0.4234
11484TIP3   OH234408   6.570   5.802   6.150 -0.2011  0.3694  0.2593
11484TIP3    H134409   6.496   5.743   6.161  0.4199 -0.1715  1.5787
11484TIP3    H234410   6.601   5.820   6.239  0.1242  2.0361 -0.1728
11485TIP3   OH234411   4.657   3.646   6.071  0.1845  0.6547 -0.0632
11485TIP3    H134412   4.635   3.567   6.022 -0.7088  1.1724 -0.5099
11485TIP3    H234413   4.752   3.643   6.080  0.0519 -1.0778  0.9864
11486TIP3   OH234414   5.973   2.539   6.810  0.1498 -0.1547  0.1497
11486TIP3    H134415   6.063   2.537   6.844 -0.5379  1.3298  2.1485
11486TIP3    H234416   5.979   2.592   6.731  1.2632 -1.2035 -0.4856
11487TIP3   OH234417   1.013   1.814   0.358  0.7275 -0.0291  0.3194
11487TIP3    H134418   1.078   1.821   0.288  1.9357  0.1429  1.4382
11487TIP3    H234419   0.935   1.778   0.315  0.6665  2.2762 -1.5802
11488TIP3   OH234420   3.171   1.387   0.750 -0.6522 -0.1992  0.1604
11488TIP3    H134421   3.129   1.432   0.824 -1.0827 -0.8838  0.3394
11488TIP3    H234422   3.109   1.398   0.678  0.1316  1.1602 -0.3318
11489TIP3   OH234423   4.717   3.455   5.774 -0.2669  0.3018  0.0519
11489TIP3    H134424   4.677   3.376   5.739  0.6374 -0.1391  0.0125
11489TIP3    H234425   4.755   3.499   5.697  1.0007 -0.2517  0.3513
11490TIP3   OH234426   1.014   7.205   0.041 -0.1065  0.0478 -0.0585
11490TIP3    H134427   1.094   7.258   0.046 -0.1920  0.4862 -2.7102
11490TIP3    H234428   0.958   7.251  -0.021  0.2602 -3.6509 -3.3637
11491TIP3   OH234429   7.334   6.277   0.341 -0.8825 -0.3971  0.2081
11491TIP3    H134430   7.367   6.354   0.295 -2.5234 -0.5296 -1.2571
11491TIP3    H234431   7.411   6.239   0.384  0.5420  0.1716 -1.8042
11492TIP3   OH234432   7.342   5.057   6.207  0.2093  0.5703 -0.1643
11492TIP3    H134433   7.360   5.068   6.113  0.7506  0.5025 -0.0728
11492TIP3    H234434   7.349   5.146   6.243 -0.1117  0.6120 -0.2119
11493TIP3   OH234435   3.610   5.650   6.467 -0.7126  0.0354  0.1780
11493TIP3    H134436   3.528   5.637   6.420  0.1576  2.4393 -2.1037
11493TIP3    H234437   3.616   5.744   6.480  2.3940  0.0774 -1.0745
11494TIP3   OH234438   3.585   6.262   5.131  0.5389  0.1458  0.2231
11494TIP3    H134439   3.652   6.198   5.153  1.1488  0.4329 -0.7843
11494TIP3    H234440   3.542   6.227   5.053  1.0467  1.0664 -0.4842
11495TIP3   OH234441   2.704   5.832   4.264  0.0656  0.0125 -0.1433
11495TIP3    H134442   2.734   5.909   4.217  0.1737  0.0842  0.0443
11495TIP3    H234443   2.755   5.831   4.345  1.0728 -1.0142 -0.7626
11496TIP3   OH234444   4.805   5.131   4.386 -0.6607 -0.5378 -0.0221
11496TIP3    H134445   4.869   5.189   4.345  0.0174 -1.1754  0.1253
11496TIP3    H234446   4.790   5.169   4.473 -2.3415  0.9981 -0.9434
11497TIP3   OH234447   5.194   5.717   5.294  0.0346  0.1146  0.1647
11497TIP3    H134448   5.127   5.785   5.298 -0.1256 -0.0887  1.1042
11497TIP3    H234449   5.146   5.635   5.302  0.1992 -0.1386 -1.2287
11498TIP3   OH234450   4.367   6.349   6.243 -0.1576 -0.0707  0.6164
11498TIP3    H134451   4.343   6.294   6.168 -0.5673 -0.8583  1.3158
11498TIP3    H234452   4.344   6.296   6.320 -0.2264  0.9413  1.2985
11499TIP3   OH234453   4.069   1.199   1.462  0.0601  0.2156  0.0306
11499TIP3    H134454   4.057   1.290   1.489 -1.2665  0.0791 -0.0744
11499TIP3    H234455   4.036   1.196   1.372  0.1159 -0.3678  0.0249
11500TIP3   OH234456   6.279   4.596   5.235  0.2308  0.4601  0.5766
11500TIP3    H134457   6.298   4.502   5.232  2.5383  0.8404  1.7078
11500TIP3    H234458   6.186   4.603   5.215 -0.2762 -2.1795  1.8558
11501TIP3   OH234459   4.568   6.129   6.064  0.2991 -0.7210  0.2746
11501TIP3    H134460   4.583   6.064   5.997 -0.9975 -0.5809 -0.1627
11501TIP3    H234461   4.479   6.160   6.048 -0.1614 -0.9515  2.2713
11502TIP3   OH234462   0.167   5.713   5.440 -0.3457 -0.4894  0.1235
11502TIP3    H134463   0.084   5.745   5.405  1.6370  0.8560 -3.7113
11502TIP3    H234464   0.190   5.639   5.384  1.9733  0.4427 -0.2364
11503TIP3   OH234465   3.712   5.327   6.395  0.3695 -0.4466  0.4544
11503TIP3    H134466   3.637   5.336   6.453 -0.3676 -2.0435 -0.2192
11503TIP3    H234467   3.785   5.306   6.453 -0.3857 -2.1670  0.8300
11504TIP3   OH234468   3.248   4.923   5.661 -0.1565  0.6528 -0.5806
11504TIP3    H134469   3.284   4.985   5.724 -0.2499  0.2961 -0.1774
11504TIP3    H234470   3.321   4.904   5.602 -0.4486  2.0500 -1.4250
11505TIP3   OH234471   6.928   3.551   5.229  0.0214 -0.1855  0.1136
11505TIP3    H134472   7.013   3.524   5.194  0.4805  1.1052  0.1983
11505TIP3    H234473   6.865   3.522   5.163  0.5909 -0.5317 -0.2910
11506TIP3   OH234474   4.601   5.087   5.739 -0.2128  0.9060 -0.5985
11506TIP3    H134475   4.548   5.011   5.764 -0.6692  0.7391 -2.0341
11506TIP3    H234476   4.551   5.162   5.771 -1.0098  0.7150 -1.3739
11507TIP3   OH234477   6.420   2.882   5.719 -0.7339 -0.4146  1.1126
11507TIP3    H134478   6.410   2.889   5.814 -0.3614 -1.3941  1.2220
11507TIP3    H234479   6.334   2.853   5.687 -0.7086 -0.5864  1.2025
11508TIP3   OH234480   2.692   3.614   3.211 -0.5825  0.4748  0.2848
11508TIP3    H134481   2.666   3.532   3.254 -0.9225  0.8558  0.8084
11508TIP3    H234482   2.613   3.668   3.213 -0.3035  0.8856  0.1097
11509TIP3   OH234483   2.818   3.438   0.141  0.3787  0.0066  0.1879
11509TIP3    H134484   2.820   3.355   0.189 -2.7078 -2.3067 -3.3888
11509TIP3    H234485   2.906   3.446   0.104  1.0643 -1.0545  1.5483
11510TIP3   OH234486   5.404   6.202   5.196  0.0502  0.6001  0.0350
11510TIP3    H134487   5.474   6.209   5.261 -0.3168  3.1979  0.1999
11510TIP3    H234488   5.405   6.111   5.169  3.5648  0.6150 -0.0258
11511TIP3   OH234489   7.057   3.586   3.558 -0.5556  0.5325  0.2192
11511TIP3    H134490   7.110   3.511   3.586  0.3911  1.2756  0.4333
11511TIP3    H234491   6.974   3.547   3.531 -0.1205 -0.5866  0.4478
11512TIP3   OH234492   5.396   4.644   5.968  0.0293 -0.0598  0.2969
11512TIP3    H134493   5.413   4.623   5.877 -1.0098 -0.6937  0.2407
11512TIP3    H234494   5.301   4.656   5.973 -0.0642 -1.2002  1.5293
11513TIP3   OH234495   4.135   5.652   3.998 -0.2216 -0.8337 -0.0709
11513TIP3    H134496   4.121   5.744   3.978 -0.2574 -0.3027  2.1948
11513TIP3    H234497   4.050   5.611   3.982  0.2211 -0.8200 -2.6753
11514TIP3   OH234498   1.849   0.033   0.100 -0.0282  0.0284 -0.4627
11514TIP3    H134499   1.900   0.053   0.179 -0.7917 -1.9579  0.5794
11514TIP3    H234500   1.849  -0.063   0.096  0.2050  0.0960 -3.0439
11515TIP3   OH234501   5.632   4.170   4.916 -0.3572 -0.5801 -0.1590
11515TIP3    H134502   5.575   4.161   4.992 -1.6082 -0.4205 -1.0745
11515TIP3    H234503   5.635   4.264   4.898  0.3491 -0.5707  0.0116
11516TIP3   OH234504   6.593   3.760   5.037 -0.0143 -0.1789  0.6351
11516TIP3    H134505   6.666   3.731   4.982  0.6153  0.2591  1.2336
11516TIP3    H234506   6.554   3.833   4.989  0.3377 -0.0008  0.6205
11517TIP3   OH234507   3.622   2.770   6.800 -0.0934  0.2224 -0.1762
11517TIP3    H134508   3.632   2.803   6.889 -0.4630  0.4251 -0.2093
11517TIP3    H234509   3.643   2.845   6.744  2.4214 -0.5090 -0.3026
11518TIP3   OH234510   1.158   3.384   5.897  0.3808  0.4960 -0.3027
11518TIP3    H134511   1.169   3.478   5.887  0.4898  0.5635  0.4248
11518TIP3    H234512   1.065   3.373   5.920  1.1753  0.7628  3.3752
11519TIP3   OH234513   4.323   3.027   6.273  0.4506  0.3793  0.1905
11519TIP3    H134514   4.311   3.111   6.318 -0.2862  1.5542 -2.1295
11519TIP3    H234515   4.286   2.962   6.333 -0.9555  1.9648  1.0762
11520TIP3   OH234516   6.488   3.702   6.669 -0.3038  0.0759  0.1227
11520TIP3    H134517   6.397   3.680   6.653 -0.1524 -0.7932  0.4230
11520TIP3    H234518   6.531   3.618   6.685  0.5431  0.4757  0.0146
11521TIP3   OH234519   2.533   4.639   5.825  0.6202  0.1623 -0.3131
11521TIP3    H134520   2.528   4.543   5.827  0.9355  0.1440 -0.4014
11521TIP3    H234521   2.627   4.658   5.817  0.4720  0.4594 -1.4182
11522TIP3   OH234522   5.443   7.515   3.944 -0.2256  0.1952 -0.5306
11522TIP3    H134523   5.372   7.562   3.988 -0.6643 -1.6405  0.7395
11522TIP3    H234524   5.471   7.575   3.874 -1.1422  2.1019  0.7065
11523TIP3   OH234525   4.342   4.866   6.670 -0.2619  0.1329  0.2902
11523TIP3    H134526   4.266   4.861   6.729 -0.5671 -0.3226 -0.1361
11523TIP3    H234527   4.408   4.810   6.712 -0.6420 -0.5698 -0.0358
11524TIP3   OH234528   4.199   3.846   6.163 -0.2894 -0.0540  0.0907
11524TIP3    H134529   4.285   3.805   6.154 -0.4182 -0.8357  2.1101
11524TIP3    H234530   4.137   3.776   6.145 -0.5343  0.6536 -1.9478
11525TIP3   OH234531   5.583   4.562   6.852 -0.0418  0.7298 -0.5445
11525TIP3    H134532   5.517   4.615   6.807 -0.7964 -0.6767 -1.1237
11525TIP3    H234533   5.582   4.479   6.806  0.1301 -0.2828  1.2411
11526TIP3   OH234534   3.267   6.140   5.339  0.3392  0.1086  0.0690
11526TIP3    H134535   3.300   6.071   5.282 -1.3151 -0.3207 -0.4116
11526TIP3    H234536   3.263   6.217   5.284 -2.1660 -0.5319 -0.7157
11527TIP3   OH234537   6.392   5.165   5.651  0.0750  0.0845 -0.1486
11527TIP3    H134538   6.343   5.154   5.570 -1.3712 -0.8150  0.8250
11527TIP3    H234539   6.336   5.127   5.719  2.1981 -1.1530  0.9706
11528TIP3   OH234540   3.954   3.318   5.832  0.6450 -0.6029 -0.6110
11528TIP3    H134541   3.907   3.361   5.761  0.7184 -0.1603 -0.3943
11528TIP3    H234542   3.914   3.231   5.838  1.0822 -0.8771 -1.6183
11529TIP3   OH234543   4.368   6.441   4.772  0.1935 -0.1466 -0.1461
11529TIP3    H134544   4.354   6.489   4.854 -0.1473  0.3045 -0.4662
11529TIP3    H234545   4.463   6.440   4.760  0.2837 -0.8039  0.6054
11530TIP3   OH234546   1.310   2.745   1.770 -0.3176 -0.2496 -0.5979
11530TIP3    H134547   1.369   2.820   1.780 -1.0612  0.2998 -0.2621
11530TIP3    H234548   1.367   2.669   1.779  0.5924  0.2655 -1.7859
11531TIP3   OH234549   4.421   4.551   4.712  0.3587  0.4470  0.3073
11531TIP3    H134550   4.496   4.547   4.771  0.8351  1.4337 -0.2175
11531TIP3    H234551   4.350   4.585   4.765 -0.1440 -1.8762  1.2059
11532TIP3   OH234552   7.259   6.745   6.973  0.3508  0.1137 -0.3729
11532TIP3    H134553   7.212   6.672   6.932 -2.7920  1.7478  0.1411
11532TIP3    H234554   7.300   6.792   6.900  0.1869 -0.6533 -0.9673
11533TIP3   OH234555   4.910   4.473   6.928  0.5531  0.0549  0.1102
11533TIP3    H134556   4.850   4.411   6.888  2.7382 -2.1193  0.1140
11533TIP3    H234557   4.926   4.538   6.860 -0.5019 -0.2426 -0.4425
11534TIP3   OH234558   7.422   7.797   0.446  0.3509  0.2591 -0.0791
11534TIP3    H134559   7.351   7.769   0.504  1.3210 -1.2059  0.4293
11534TIP3    H234560   7.485   7.726   0.449  0.8327  0.5501 -2.2637
11535TIP3   OH234561   5.418   5.672   5.759  0.0267 -0.2229  0.1944
11535TIP3    H134562   5.377   5.709   5.681 -0.3577 -0.1784  0.4149
11535TIP3    H234563   5.469   5.598   5.727 -0.2123 -0.2661 -0.0842
11536TIP3   OH234564   6.107   2.963   6.088  0.3754 -0.5049  0.6716
11536TIP3    H134565   6.062   2.969   6.004 -1.7875  1.9000  1.9628
11536TIP3    H234566   6.199   2.981   6.067 -0.1255 -0.0291 -1.1764
11537TIP3   OH234567   4.698   3.878   5.671 -0.1117 -0.3549  0.1305
11537TIP3    H134568   4.755   3.952   5.653  1.3217 -0.9562  2.0700
11537TIP3    H234569   4.752   3.817   5.721 -2.3310 -1.1220  1.6961
11538TIP3   OH234570   2.644   7.091   4.850 -0.3586  0.0171 -0.1824
11538TIP3    H134571   2.569   7.131   4.893 -1.1509 -1.9081  0.2993
11538TIP3    H234572   2.683   7.035   4.917 -0.3512 -1.3784 -1.3083
11539TIP3   OH234573   5.227   5.700   4.947  0.4090  0.1892 -0.5491
11539TIP3    H134574   5.171   5.674   4.874 -0.7179 -1.4137  0.8560
11539TIP3    H234575   5.300   5.638   4.945  0.7177  0.5506 -0.6879
11540TIP3   OH234576   3.248   4.312   5.990 -0.3314 -0.5576 -0.1366
11540TIP3    H134577   3.284   4.242   5.937  2.3591  0.9401 -0.3936
11540TIP3    H234578   3.279   4.294   6.079  1.2126  0.7750 -0.3695
11541TIP3   OH234579   3.774   4.968   6.592  0.6896  0.0760  0.3520
11541TIP3    H134580   3.720   5.045   6.611 -0.4827 -0.8370  0.7568
11541TIP3    H234581   3.863   5.002   6.589  0.2781  1.2959  1.4643
11542TIP3   OH234582   6.814   8.008   0.084  0.6280 -0.2643 -0.2459
11542TIP3    H134583   6.870   8.040   0.013  0.5283  2.2004  0.7454
11542TIP3    H234584   6.835   7.915   0.091  4.0562  0.4470 -0.3909
11543TIP3   OH234585   5.149   4.031   5.323  0.1557  0.4145  0.0914
11543TIP3    H134586   5.143   4.125   5.307 -0.7456  0.6694  1.7637
11543TIP3    H234587   5.198   3.997   5.249 -2.0671  1.7759 -2.0970
11544TIP3   OH234588   4.267   2.556   4.270 -0.5436 -0.2498 -0.0228
11544TIP3    H134589   4.258   2.526   4.360  0.1677 -0.8125 -0.1369
11544TIP3    H234590   4.202   2.505   4.221  0.1741 -1.1265 -0.0941
11545TIP3   OH234591   3.634   6.582   6.034 -0.3110  0.3476  0.4757
11545TIP3    H134592   3.695   6.529   5.983 -2.5159 -1.9027  0.0712
11545TIP3    H234593   3.661   6.568   6.125  0.9166  0.8650  0.2006
11546TIP3   OH234594   8.274   7.890   0.608 -0.4489 -0.2464  0.4086
11546TIP3    H134595   8.241   7.806   0.578  0.3853 -0.6038  0.4897
11546TIP3    H234596   8.321   7.870   0.689 -0.0606  0.2623  0.3116
11547TIP3   OH234597   5.499   6.668   5.697  0.6427 -0.1958  0.2713
11547TIP3    H134598   5.504   6.615   5.618  0.5683  0.4408 -0.1672
11547TIP3    H234599   5.414   6.712   5.691  0.5488 -0.2991  0.8041
11548TIP3   OH234600   2.857   4.332   5.625  0.4785 -0.0439 -0.2722
11548TIP3    H134601   2.917   4.258   5.632 -0.3775 -0.6150  1.3579
11548TIP3    H234602   2.805   4.328   5.705  0.6042  2.4937 -0.0439
11549TIP3   OH234603   5.165   4.508   4.970  0.3220  0.2223  0.0471
11549TIP3    H134604   5.147   4.501   4.877  0.1953  0.2968  0.0668
11549TIP3    H234605   5.259   4.525   4.975  0.2730  0.5251 -0.0781
11550TIP3   OH234606   7.738   6.151   5.738  0.0964  0.1445 -0.1210
11550TIP3    H134607   7.726   6.136   5.644  0.3471  1.2671 -0.3399
11550TIP3    H234608   7.681   6.087   5.780  1.1900 -1.4533 -1.0104
11551TIP3   OH234609   7.179   3.192   5.186 -0.6248 -0.6510  0.0444
11551TIP3    H134610   7.113   3.220   5.248 -0.2412 -1.4679  0.8304
11551TIP3    H234611   7.242   3.142   5.238  2.7430  3.3377  0.0841
11552TIP3   OH234612   3.964   6.071   4.476  0.5001  0.9311  0.6164
11552TIP3    H134613   3.998   6.055   4.388 -1.8793 -2.7182  0.2176
11552TIP3    H234614   4.027   6.030   4.535 -1.0925 -2.3638  0.1289
11553TIP3   OH234615   7.721   7.744   0.360  0.3357  0.4198 -0.1469
11553TIP3    H134616   7.793   7.687   0.332  0.7562  1.4216 -1.1324
11553TIP3    H234617   7.764   7.825   0.386 -0.0660 -0.4048  3.2651
11554TIP3   OH234618   5.078   4.962   6.771 -1.0061 -0.0373 -0.2397
11554TIP3    H134619   4.997   5.010   6.788 -0.1900  1.2110  0.1574
11554TIP3    H234620   5.118   5.008   6.698  0.7590  1.1125  1.4173
11555TIP3   OH234621   7.441   6.094   4.251 -0.8273 -0.2300 -0.0392
11555TIP3    H134622   7.465   6.083   4.159 -3.0173 -0.2718 -0.6535
11555TIP3    H234623   7.346   6.078   4.252 -0.7836 -0.4863  2.2698
11556TIP3   OH234624   7.196   6.051   5.223  0.4673 -0.4561 -0.0011
11556TIP3    H134625   7.195   5.963   5.262  1.3027 -0.5381 -0.1415
11556TIP3    H234626   7.257   6.043   5.150  0.3250  0.1719 -0.1854
11557TIP3   OH234627   3.994   3.010   4.848 -0.3520  0.2989  0.2433
11557TIP3    H134628   3.992   2.941   4.782  1.6703 -0.5194  1.0039
11557TIP3    H234629   3.930   2.982   4.913 -0.1639 -0.4139  0.1215
11558TIP3   OH234630   6.290   7.412   3.815 -0.3272  0.0143  0.0777
11558TIP3    H134631   6.277   7.488   3.757 -0.9536  0.3278  0.6278
11558TIP3    H234632   6.228   7.347   3.783  0.7981 -0.5884 -0.9307
11559TIP3   OH234633   7.452   6.561   5.754  0.1945 -0.4266 -0.2938
11559TIP3    H134634   7.441   6.598   5.666 -1.2762  0.0838  0.0854
11559TIP3    H234635   7.387   6.491   5.759 -1.1829  0.9194  1.1074
11560TIP3   OH234636   2.218   2.904   0.310 -0.0691 -0.1282 -0.3328
11560TIP3    H134637   2.168   2.824   0.325 -1.3770  0.7898  0.2876
11560TIP3    H234638   2.227   2.909   0.214  2.8502 -2.6968 -0.2406
11561TIP3   OH234639   4.464   5.891   5.175  0.4124 -0.2848  0.0301
11561TIP3    H134640   4.514   5.888   5.093 -0.3420 -1.2732 -0.3921
11561TIP3    H234641   4.506   5.962   5.225 -0.8160  2.1738 -2.2962
11562TIP3   OH234642   8.298   6.675   5.601  0.3816 -0.1095 -0.5020
11562TIP3    H134643   8.224   6.734   5.614  1.2302  0.8742 -0.0644
11562TIP3    H234644   8.259   6.595   5.566 -0.7987  0.6451 -0.9464
11563TIP3   OH234645   6.603   3.651   2.899 -0.1573  0.5826 -0.5856
11563TIP3    H134646   6.615   3.556   2.905 -3.2173  0.2174  0.8895
11563TIP3    H234647   6.532   3.663   2.836  0.4320  1.9460 -1.0285
11564TIP3   OH234648   5.222   5.089   5.692  0.0385  0.1771  0.3142
11564TIP3    H134649   5.264   5.004   5.680  1.2127  0.8242 -0.2680
11564TIP3    H234650   5.177   5.106   5.610  0.3061  0.3853  0.2086
11565TIP3   OH234651   8.423   5.045   6.716 -0.0862  0.1214  0.2772
11565TIP3    H134652   8.390   5.001   6.637 -0.8076 -0.1836  0.7428
11565TIP3    H234653   8.369   5.010   6.787  1.3755 -0.5269  1.0894
11566TIP3   OH234654   7.091   3.951   6.496 -0.6433  0.3415  0.3913
11566TIP3    H134655   7.097   4.044   6.471  0.5828  0.4184  0.9480
11566TIP3    H234656   7.107   3.951   6.590  1.6739 -0.6731  0.0176
11567TIP3   OH234657   0.218   4.916   5.402 -0.0862 -0.1816 -1.3651
11567TIP3    H134658   0.207   4.949   5.491 -0.0512 -1.9783 -0.6744
11567TIP3    H234659   0.129   4.905   5.369 -0.1077  0.0115 -1.3703
11568TIP3   OH234660   6.064   2.797   0.019  0.0579  0.4202 -0.1578
11568TIP3    H134661   6.052   2.788   0.113  0.1546 -0.9739 -0.2750
11568TIP3    H234662   5.998   2.861  -0.007  0.1082  0.8980  0.8658
11569TIP3   OH234663   6.751   6.994   6.249 -0.0884  0.2157  0.1479
11569TIP3    H134664   6.828   6.938   6.256 -0.0033  0.3897  0.6104
11569TIP3    H234665   6.680   6.941   6.285  0.0455  0.5149  0.8449
11570TIP3   OH234666   6.812   4.812   5.655 -0.0390 -0.2127 -0.4901
11570TIP3    H134667   6.776   4.886   5.704 -0.6808  0.1131 -1.4616
11570TIP3    H234668   6.777   4.735   5.700 -0.6085  0.0836 -0.4259
11571TIP3   OH234669   7.890   6.905   0.083  0.5177  0.0845  0.4535
11571TIP3    H134670   7.960   6.952   0.036 -1.5544  1.2998 -1.5030
11571TIP3    H234671   7.822   6.971   0.097 -0.8369 -1.4161  1.0842
11572TIP3   OH234672   6.885   7.265   6.605 -0.0334 -0.2637 -0.1995
11572TIP3    H134673   6.808   7.294   6.557  0.3628 -0.9771 -1.3027
11572TIP3    H234674   6.881   7.169   6.601  0.1318 -0.3311  1.0004
11573TIP3   OH234675   5.337   5.248   6.079  0.0433 -0.2011 -0.2044
11573TIP3    H134676   5.300   5.291   6.156 -0.4983 -1.4308  0.2409
11573TIP3    H234677   5.327   5.154   6.097  1.2367 -0.5234 -1.1251
11574TIP3   OH234678   6.709   4.054   5.885  0.2429 -0.7347 -0.4520
11574TIP3    H134679   6.773   3.992   5.848  0.8911  0.0617 -0.6627
11574TIP3    H234680   6.691   4.020   5.972 -0.3723 -1.9485 -1.0350
11575TIP3   OH234681   5.915   5.535   6.844 -0.1061  0.1219 -0.1964
11575TIP3    H134682   5.917   5.630   6.854  1.0436  0.2809 -1.6888
11575TIP3    H234683   5.871   5.503   6.922  0.7886  1.7869  1.0050
11576TIP3   OH234684   7.435   5.053   5.477 -0.1483  0.1466  0.3159
11576TIP3    H134685   7.482   4.971   5.493 -0.9904 -0.3506  0.2294
11576TIP3    H234686   7.351   5.027   5.442 -0.8029  1.0231  1.1964
11577TIP3   OH234687   3.975   4.884   5.971 -0.2105 -0.3785 -0.6838
11577TIP3    H134688   3.966   4.794   5.938  0.0354 -0.0037 -1.8049
11577TIP3    H234689   3.975   4.938   5.892 -0.8561  0.6564  0.0106
11578TIP3   OH234690   6.623   5.648   4.948  0.1959  0.6656  0.3292
11578TIP3    H134691   6.707   5.612   4.977  0.4239 -0.2057 -1.3910
11578TIP3    H234692   6.641   5.686   4.862 -0.3784  3.6528  1.4621
11579TIP3   OH234693   6.559   4.034   6.126  0.2050  0.4478  0.1105
11579TIP3    H134694   6.470   4.065   6.106  1.3535  2.5414 -1.9842
11579TIP3    H234695   6.602   4.108   6.168  1.5573  0.1131 -0.6537
11580TIP3   OH234696   7.036   3.022   5.674  0.2207  0.4863  0.2855
11580TIP3    H134697   6.946   3.026   5.708 -0.0154 -0.9454 -0.1643
11580TIP3    H234698   7.061   3.114   5.666 -0.9672  0.9017  1.0283
11581TIP3   OH234699   6.072   5.066   4.501 -0.6254 -0.0039  0.5508
11581TIP3    H134700   6.074   5.089   4.408  1.7019 -2.2084  0.0022
11581TIP3    H234701   6.143   5.117   4.540  0.1694 -1.1080  0.5798
11582TIP3   OH234702   7.360   5.570   3.633 -0.2246 -0.0937  0.2275
11582TIP3    H134703   7.271   5.548   3.605 -0.1035 -0.3659  0.0529
11582TIP3    H234704   7.381   5.505   3.700 -0.0104 -0.2728 -0.0122
11583TIP3   OH234705   0.632   5.877   2.642  0.4754 -0.0866 -0.1884
11583TIP3    H134706   0.599   5.956   2.599  1.1179 -0.0009 -0.5317
11583TIP3    H234707   0.561   5.814   2.633 -0.5897  0.8889  1.3369
11584TIP3   OH234708   6.414   5.947   3.906  0.0497 -0.0360  0.8299
11584TIP3    H134709   6.363   5.901   3.974 -0.6013 -0.5983 -0.0299
11584TIP3    H234710   6.421   5.884   3.835  0.9422  0.4735  0.4605
11585TIP3   OH234711   7.487   5.138   5.196  0.1250 -0.4022  0.3514
11585TIP3    H134712   7.459   5.134   5.287 -0.2799 -0.2878  0.2312
11585TIP3    H234713   7.575   5.099   5.196 -0.7923 -2.5169  0.3951
11586TIP3   OH234714   4.841   1.598   0.270 -0.3712 -0.2596 -0.1005
11586TIP3    H134715   4.867   1.683   0.234  0.2477 -0.1581  0.5827
11586TIP3    H234716   4.912   1.539   0.247 -1.6750 -1.0412 -2.2282
11587TIP3   OH234717   0.421   5.540   6.227 -0.8478 -0.1722 -0.0046
11587TIP3    H134718   0.421   5.559   6.321 -0.9374 -0.4893  0.0609
11587TIP3    H234719   0.399   5.623   6.186  0.0679  0.1842  0.2118
11588TIP3   OH234720   6.202   7.118   3.756  0.5089  0.6649 -0.1916
11588TIP3    H134721   6.278   7.098   3.701 -1.0752  0.7792 -2.5081
11588TIP3    H234722   6.175   7.033   3.790  0.9887  0.4763 -0.2725
11589TIP3   OH234723   6.900   3.640   6.290 -0.0550 -0.0184  0.6714
11589TIP3    H134724   6.812   3.602   6.296  0.3578 -0.9657  0.8761
11589TIP3    H234725   6.943   3.614   6.371  1.2537 -1.7616 -0.5530
11590TIP3   OH234726   6.579   5.364   5.644 -0.0248 -0.0880  0.1278
11590TIP3    H134727   6.498   5.324   5.674 -0.3818  0.1965 -0.4571
11590TIP3    H234728   6.636   5.364   5.721 -0.8462  0.4039  0.7407
11591TIP3   OH234729   7.354   3.564   5.957 -0.3886  0.2293  0.1484
11591TIP3    H134730   7.263   3.555   5.985 -0.1130  0.7795  1.2221
11591TIP3    H234731   7.405   3.519   6.024  0.1757  0.3362 -0.2031
11592TIP3   OH234732   7.019   7.296   5.957 -0.1066 -0.3425 -0.0511
11592TIP3    H134733   7.009   7.260   6.046  1.4417  0.6151  0.5333
11592TIP3    H234734   6.991   7.388   5.965  2.6723  0.5465  0.1326
11593TIP3   OH234735   6.970   5.288   5.412  0.1203 -0.1575 -0.3431
11593TIP3    H134736   7.059   5.320   5.395  1.3095 -2.9419  0.3705
11593TIP3    H234737   6.950   5.319   5.500 -0.1547  1.5645 -0.9863
11594TIP3   OH234738   7.172   5.372   6.228 -0.1987  0.1995  0.7649
11594TIP3    H134739   7.152   5.454   6.274 -1.3256  0.6709 -0.5067
11594TIP3    H234740   7.267   5.370   6.223  0.0667 -0.6962  4.5585
11595TIP3   OH234741   3.189   2.909   1.413  0.0360  0.2715  0.4126
11595TIP3    H134742   3.233   2.992   1.393  1.3453 -0.5075  0.0176
11595TIP3    H234743   3.142   2.887   1.333 -0.4268  0.7068  0.5653
11596TIP3   OH234744   0.417   5.603   5.135 -0.1047 -0.1386 -0.4441
11596TIP3    H134745   0.394   5.510   5.126  0.2763 -0.2445 -0.3220
11596TIP3    H234746   0.447   5.611   5.226  2.0859 -0.3792 -1.1172
11597TIP3   OH234747   5.028   3.289   0.649  0.0100  0.2255  0.9821
11597TIP3    H134748   5.076   3.363   0.686  0.7777 -0.5666  1.5958
11597TIP3    H234749   5.025   3.224   0.720  0.3163 -0.7636  0.1020
11598TIP3   OH234750   7.632   3.735   5.384  0.4547  0.0767  0.3803
11598TIP3    H134751   7.618   3.652   5.429  1.0243  0.0005  0.4105
11598TIP3    H234752   7.602   3.718   5.294  1.3836 -0.4258  0.1551
11599TIP3   OH234753   0.290   4.193   6.685 -0.0923 -0.3406  0.3921
11599TIP3    H134754   0.315   4.106   6.714  1.9290 -0.2355 -0.9121
11599TIP3    H234755   0.275   4.242   6.765  0.2360 -1.4799  1.1582
11600TIP3   OH234756   5.039   3.457   4.025 -0.3689 -0.0376  0.1781
11600TIP3    H134757   5.013   3.539   4.067  2.0039  0.7775  0.1266
11600TIP3    H234758   4.995   3.389   4.076 -0.1731  1.1027  1.9223
11601TIP3   OH234759   5.273   7.177   6.077 -0.1696 -0.2279  0.0375
11601TIP3    H134760   5.190   7.132   6.061  0.1654 -0.4291 -1.1730
11601TIP3    H234761   5.334   7.107   6.101 -0.6540  0.0648  2.2673
11602TIP3   OH234762   6.607   5.994   6.907 -0.5073  0.0482  0.4256
11602TIP3    H134763   6.652   5.988   6.823 -0.1915 -0.0588  0.5985
11602TIP3    H234764   6.650   6.067   6.952  0.2876 -0.7931  1.0585
11603TIP3   OH234765   2.029   0.552   5.678  0.3969  0.6136  0.1490
11603TIP3    H134766   1.949   0.595   5.707 -0.6376 -0.2256 -1.3767
11603TIP3    H234767   2.000   0.490   5.612  2.0843 -1.1489  1.0266
11604TIP3   OH234768   6.621   6.974   5.630 -0.3080 -0.4107  0.2156
11604TIP3    H134769   6.710   7.000   5.606 -0.0337 -2.2026 -0.7832
11604TIP3    H234770   6.632   6.914   5.704 -0.6332 -1.2516 -0.4145
11605TIP3   OH234771   4.697   6.106   2.795 -0.3771 -0.3176 -0.2591
11605TIP3    H134772   4.649   6.065   2.866  0.5904 -0.0222  0.5727
11605TIP3    H234773   4.785   6.118   2.829 -0.1598  0.7271 -1.1636
11606TIP3   OH234774   6.234   7.101   4.673 -0.4838 -0.3670  0.4388
11606TIP3    H134775   6.157   7.118   4.727 -0.3085 -1.3462  1.0040
11606TIP3    H234776   6.298   7.166   4.702 -1.7507  1.7861 -1.4338
11607TIP3   OH234777   6.836   4.063   5.414 -0.2518  0.3056  0.3422
11607TIP3    H134778   6.785   4.005   5.357 -0.0543  1.1989 -0.7641
11607TIP3    H234779   6.784   4.144   5.419 -0.1256  0.3379  1.1875
11608TIP3   OH234780   6.502   7.766   5.118  0.5447 -0.9045  0.4635
11608TIP3    H134781   6.565   7.749   5.189  1.3838  1.9041  0.4668
11608TIP3    H234782   6.448   7.837   5.151  0.9120  0.4130 -1.6635
11609TIP3   OH234783   8.496   5.623   6.867 -0.4666 -0.2648 -0.1037
11609TIP3    H134784   8.474   5.617   6.960 -2.4122 -0.0913 -0.5176
11609TIP3    H234785   8.507   5.533   6.838  0.4308 -0.3045  0.3526
11610TIP3   OH234786   7.766   6.131   6.265  0.1942  0.5857  0.5779
11610TIP3    H134787   7.778   6.224   6.243 -1.1776 -0.0271 -3.0491
11610TIP3    H234788   7.853   6.093   6.252  0.2789  0.9767 -0.0354
11611TIP3   OH234789   6.960   6.387   5.574  0.1292  0.2206  0.2468
11611TIP3    H134790   7.015   6.324   5.527 -0.6849 -0.8549  0.7218
11611TIP3    H234791   6.870   6.361   5.554 -0.2344 -0.2774  2.3788
11612TIP3   OH234792   5.035   6.082   5.159 -0.6944 -0.0826 -0.6979
11612TIP3    H134793   5.045   6.177   5.168 -0.5565 -0.0722 -0.9795
11612TIP3    H234794   5.047   6.065   5.066 -0.3654 -0.4206 -0.5936
11613TIP3   OH234795   1.136   4.033   6.789  0.0378  0.2361  0.0410
11613TIP3    H134796   1.178   4.118   6.772  1.0337 -0.5605 -1.5519
11613TIP3    H234797   1.156   3.980   6.712 -0.7657 -1.3864  0.9209
11614TIP3   OH234798   5.880   4.884   3.550 -0.2833  0.2723  0.2401
11614TIP3    H134799   5.924   4.862   3.468  0.4924  0.6423  0.5515
11614TIP3    H234800   5.900   4.811   3.609 -0.6654  0.1067  0.1678
11615TIP3   OH234801   7.037   4.383   2.710 -0.2677  0.5215 -0.9329
11615TIP3    H134802   6.956   4.428   2.737  0.7866  2.0281 -0.2204
11615TIP3    H234803   7.007   4.309   2.658 -2.2435 -0.3450  1.3315
11616TIP3   OH234804   6.050   5.243   4.787  0.2626  0.2450  0.2007
11616TIP3    H134805   6.031   5.335   4.774  1.0073  0.2116 -1.2216
11616TIP3    H234806   5.968   5.198   4.766 -0.0629  0.5684  0.7749
11617TIP3   OH234807   3.148   2.470   0.693  0.2306 -0.5350  0.1739
11617TIP3    H134808   3.073   2.412   0.705 -0.4381  0.6176  1.7992
11617TIP3    H234809   3.174   2.494   0.782  1.0598  0.9143 -0.4411
11618TIP3   OH234810   6.170   5.816   4.948 -0.1085 -0.0113  0.4704
11618TIP3    H134811   6.202   5.813   5.039 -0.0674  0.3340  0.4665
11618TIP3    H234812   6.091   5.870   4.952  0.6339  1.1276  0.0793
11619TIP3   OH234813   4.881   1.870   0.585 -0.0216  0.0079 -0.0070
11619TIP3    H134814   4.942   1.943   0.581  1.2647 -0.9325  1.6736
11619TIP3    H234815   4.877   1.847   0.678 -2.1667 -0.5937 -0.2220
11620TIP3   OH234816   6.389   5.216   2.904  0.2303  0.7545  0.0243
11620TIP3    H134817   6.379   5.307   2.932  3.1025  1.1178 -0.0587
11620TIP3    H234818   6.398   5.166   2.986  1.9417  0.9768 -0.0155
11621TIP3   OH234819   6.916   4.526   5.028  0.3432  0.1822  0.2731
11621TIP3    H134820   6.911   4.616   4.996 -1.3125  0.0508  0.1098
11621TIP3    H234821   6.987   4.527   5.092  1.6813  1.1325 -1.1986
11622TIP3   OH234822   6.167   3.339   3.469  0.6425 -0.2927 -0.1640
11622TIP3    H134823   6.099   3.285   3.429  0.6766 -0.9513  0.6429
11622TIP3    H234824   6.241   3.279   3.482  0.6391 -0.0934  0.8366
11623TIP3   OH234825   5.047   3.391   5.311 -0.1070 -0.6063 -0.4772
11623TIP3    H134826   5.086   3.313   5.349  1.3964 -0.1391 -1.0120
11623TIP3    H234827   4.982   3.358   5.250  0.3865 -1.4355 -0.5640
11624TIP3   OH234828   3.935   4.810   5.576  0.0895 -0.2646 -0.2163
11624TIP3    H134829   3.873   4.793   5.505  0.7789  0.9278 -1.1188
11624TIP3    H234830   3.989   4.731   5.580 -0.7579 -0.8439 -0.1759
11625TIP3   OH234831   6.572   6.499   6.071 -0.0060  0.5063 -0.4979
11625TIP3    H134832   6.576   6.436   6.143 -0.5252  0.2763 -0.6706
11625TIP3    H234833   6.657   6.543   6.073  0.1847  0.1214 -0.0883
11626TIP3   OH234834   7.096   2.636   5.806  0.7157 -0.4752 -0.3646
11626TIP3    H134835   7.112   2.599   5.720 -1.6614 -2.9482  0.1963
11626TIP3    H234836   7.001   2.647   5.811  0.8375 -0.0994  1.8291
11627TIP3   OH234837   6.436   2.119   3.798 -0.2423 -0.2150  0.1571
11627TIP3    H134838   6.433   2.091   3.890  1.0263 -3.2360 -0.6716
11627TIP3    H234839   6.529   2.127   3.779 -0.4130 -1.9397 -1.5238
11628TIP3   OH234840   6.812   2.927   6.072 -0.3579 -0.5439 -0.2559
11628TIP3    H134841   6.838   2.837   6.053 -1.0332 -0.4083 -1.8361
11628TIP3    H234842   6.878   2.981   6.028 -0.5458 -0.2514 -0.1805
11629TIP3   OH234843   6.510   2.584   5.003 -0.1011  0.3197 -0.3959
11629TIP3    H134844   6.440   2.650   4.998  0.1738  0.5261 -1.7341
11629TIP3    H234845   6.569   2.616   5.071 -1.5815 -0.1287  1.1381
11630TIP3   OH234846   5.897   1.659   6.774 -0.2036 -0.5906  0.6260
11630TIP3    H134847   5.946   1.583   6.804  0.2157 -0.3282  0.6101
11630TIP3    H234848   5.818   1.622   6.734  1.2402 -1.1688 -1.7750
11631TIP3   OH234849   7.096   6.172   5.792 -0.0533  0.0972 -0.1496
11631TIP3    H134850   7.022   6.153   5.850  1.2491  1.8569  2.1982
11631TIP3    H234851   7.056   6.208   5.713 -1.7488  0.2262  0.7395
11632TIP3   OH234852   4.601   3.860   6.588 -0.1009 -0.2496  1.0371
11632TIP3    H134853   4.536   3.876   6.657 -2.1741 -0.5094 -0.8069
11632TIP3    H234854   4.629   3.769   6.602 -0.4378 -0.2774  1.5711
11633TIP3   OH234855   6.745   5.205   5.031 -0.1741  0.5902 -0.1823
11633TIP3    H134856   6.673   5.241   4.979 -0.9483  0.0346  0.4832
11633TIP3    H234857   6.702   5.161   5.104  0.7539 -1.2572 -0.6995
11634TIP3   OH234858   5.671   2.303   6.681 -0.0893  0.3119 -0.5456
11634TIP3    H134859   5.583   2.269   6.662 -0.3742  0.0680  1.1472
11634TIP3    H234860   5.728   2.227   6.670 -0.5494 -0.4209  1.8347
11635TIP3   OH234861   7.023   3.343   1.202  0.0531  0.4681  0.2776
11635TIP3    H134862   6.936   3.303   1.201  0.5665 -0.6789 -2.7309
11635TIP3    H234863   7.084   3.270   1.210  0.8352  1.0510 -0.2585
11636TIP3   OH234864   5.848   6.416   5.628  0.4409  0.1312  0.6422
11636TIP3    H134865   5.888   6.502   5.640 -0.3073  0.6388 -0.3393
11636TIP3    H234866   5.799   6.401   5.709 -0.6267  1.3066  0.2313
11637TIP3   OH234867   0.097   5.911   5.150 -0.1456 -0.8195  0.4506
11637TIP3    H134868   0.059   5.848   5.211  0.3448 -1.2729  0.2968
11637TIP3    H234869   0.175   5.943   5.195 -0.8379  0.2934  0.8717
11638TIP3   OH234870   5.700   4.719   6.187 -0.4435 -0.1534  0.0809
11638TIP3    H134871   5.754   4.662   6.241 -0.8958 -1.7779 -1.1544
11638TIP3    H234872   5.610   4.704   6.217 -0.7313 -1.2795 -1.2708
11639TIP3   OH234873   4.537   6.722   4.803 -0.2533 -0.0345  0.7207
11639TIP3    H134874   4.622   6.746   4.841  0.1970  0.0459 -0.3137
11639TIP3    H234875   4.488   6.683   4.875  0.7121 -0.1922  1.2907
11640TIP3   OH234876   5.655   4.317   6.303 -0.2298  0.2553  0.0853
11640TIP3    H134877   5.730   4.349   6.253  0.3160 -1.1298 -0.0258
11640TIP3    H234878   5.579   4.358   6.262  0.2091 -0.8330 -1.8802
11641TIP3   OH234879   4.527   6.533   3.512 -0.2748 -0.4825 -0.3513
11641TIP3    H134880   4.559   6.618   3.542 -0.0620 -0.4073 -0.7905
11641TIP3    H234881   4.433   6.535   3.529 -0.6390  0.6975 -2.3572
11642TIP3   OH234882   6.879   6.807   5.997  0.3142 -0.4049  0.0098
11642TIP3    H134883   6.854   6.761   6.077 -1.8331  0.1218 -0.3258
11642TIP3    H234884   6.967   6.840   6.015  0.2931 -1.2231  1.7368
11643TIP3   OH234885  -0.019   2.151   1.869  0.1252 -0.0299  0.4884
11643TIP3    H134886  -0.055   2.193   1.791 -1.0928  0.8088  1.4806
11643TIP3    H234887   0.076   2.149   1.853 -0.1358 -0.2092 -1.1597
11644TIP3   OH234888   5.466   4.695   6.345 -0.1511 -0.1159  0.0870
11644TIP3    H134889   5.372   4.700   6.328 -0.9182 -0.6253  3.7927
11644TIP3    H234890   5.487   4.602   6.336  0.0409  0.0126 -0.8427
11645TIP3   OH234891   6.296   6.081   3.185 -0.1615 -0.1747  0.0863
11645TIP3    H134892   6.331   6.052   3.101  1.2042  0.7431  0.3208
11645TIP3    H234893   6.201   6.086   3.171  0.0415 -0.1407 -1.3594
11646TIP3   OH234894   6.419   4.686   3.097  0.2773 -0.1973 -0.0070
11646TIP3    H134895   6.328   4.715   3.094  0.7088  1.0585 -1.1735
11646TIP3    H234896   6.423   4.611   3.038 -0.3400 -1.3066  1.3106
11647TIP3   OH234897   8.213   5.750   4.227 -0.7392 -0.1975  0.6169
11647TIP3    H134898   8.297   5.788   4.253 -0.8920  0.9719 -0.5323
11647TIP3    H234899   8.226   5.720   4.137 -1.8228  0.8932  0.0769
11648TIP3   OH234900   7.189   4.165   5.284 -0.2527 -0.4654  0.4323
11648TIP3    H134901   7.216   4.257   5.285 -0.8109 -0.3062  2.0728
11648TIP3    H234902   7.114   4.161   5.344 -1.1546 -1.7157 -0.7547
11649TIP3   OH234903   6.665   7.752   3.365  0.0620  0.0555  0.5389
11649TIP3    H134904   6.668   7.842   3.398 -0.4078  0.2078  0.1873
11649TIP3    H234905   6.659   7.762   3.270  1.0948 -0.3706  0.4280
11650TIP3   OH234906   6.894   5.483   4.691 -0.0339  0.1856 -0.3447
11650TIP3    H134907   6.867   5.408   4.639  0.7471 -0.7219  0.5324
11650TIP3    H234908   6.838   5.479   4.769 -1.4446  1.7418 -1.2477
11651TIP3   OH234909   6.624   6.195   5.261 -0.0763 -0.0415  0.2457
11651TIP3    H134910   6.631   6.101   5.277  0.5481 -0.3587 -1.7609
11651TIP3    H234911   6.541   6.205   5.214  1.1409  0.0394 -1.9550
11652TIP3   OH234912   5.530   6.859   4.778  0.4391  0.1520  0.4286
11652TIP3    H134913   5.612   6.876   4.731 -0.9170  2.3207 -1.2669
11652TIP3    H234914   5.552   6.869   4.870  2.1570  0.3590  0.0187
11653TIP3   OH234915   6.456   6.440   6.408  0.3927  0.3530  0.0938
11653TIP3    H134916   6.435   6.393   6.489  1.8310 -0.3732  0.0554
11653TIP3    H234917   6.527   6.390   6.369  0.8068  1.6306 -0.8084
11654TIP3   OH234918   5.241   7.264   5.810 -0.5499  0.1334  0.3867
11654TIP3    H134919   5.248   7.272   5.905  1.3379 -1.0716  0.3770
11654TIP3    H234920   5.331   7.253   5.781 -1.1804 -0.2108 -1.4878
11655TIP3   OH234921   7.901   6.137   4.550 -0.2728 -0.4486  0.0368
11655TIP3    H134922   7.984   6.169   4.587 -0.6544 -1.1950  1.5870
11655TIP3    H234923   7.898   6.174   4.462  2.0345 -0.9667 -0.2837
11656TIP3   OH234924   6.993   6.719   5.571 -0.3856 -0.3439  0.0676
11656TIP3    H134925   6.997   6.812   5.590 -1.4954 -0.8801  3.1535
11656TIP3    H234926   6.929   6.712   5.500 -0.2912  1.2154 -0.1875
11657TIP3   OH234927   6.073   6.185   3.860 -0.1503  0.1083  0.0709
11657TIP3    H134928   6.012   6.155   3.926  0.1011  1.3217  0.8673
11657TIP3    H234929   6.136   6.239   3.908 -1.1873  2.7589 -1.4488
11658TIP3   OH234930   6.316   4.709   6.291  0.1358 -0.3703  0.3381
11658TIP3    H134931   6.357   4.794   6.275 -0.9991  0.3070  0.9896
11658TIP3    H234932   6.297   4.675   6.203 -2.5321  1.6039  0.0836
11659TIP3   OH234933   5.896   5.866   6.913 -0.0202 -0.6797  0.3074
11659TIP3    H134934   5.843   5.857   6.834  1.0861  1.2871 -0.6970
11659TIP3    H234935   5.968   5.923   6.887 -0.0129  0.5736  2.9420
11660TIP3   OH234936   6.092   5.410   3.933 -0.6077  0.0034 -0.3105
11660TIP3    H134937   6.021   5.473   3.920  0.4681  1.4885  0.9295
11660TIP3    H234938   6.153   5.428   3.861  0.3176  1.2669  0.7639
11661TIP3   OH234939   6.504   7.110   6.616  0.2511 -0.3937 -0.2445
11661TIP3    H134940   6.506   7.180   6.550  0.1581 -1.2882 -1.2197
11661TIP3    H234941   6.459   7.037   6.572 -0.2471 -0.8401  0.9813
11662TIP3   OH234942   5.135   5.961   4.890  0.7191  0.4708 -0.2471
11662TIP3    H134943   5.204   5.997   4.835 -0.5446  0.4682 -1.8576
11662TIP3    H234944   5.164   5.873   4.911  0.7599  0.1175 -1.7356
11663TIP3   OH234945   4.533   5.246   5.386  0.2816  0.9281 -0.2030
11663TIP3    H134946   4.589   5.298   5.328  2.1630 -0.3717  0.3964
11663TIP3    H234947   4.571   5.259   5.474 -1.6173  1.6721  0.5372
11664TIP3   OH234948   6.590   3.771   6.933  0.5457  0.0181 -0.0566
11664TIP3    H134949   6.603   3.681   6.963  1.4851 -0.1181 -0.8524
11664TIP3    H234950   6.569   3.763   6.840  3.3434  0.7425 -0.8145
11665TIP3   OH234951   6.566   4.251   6.293 -0.3323  0.2492  0.6630
11665TIP3    H134952   6.505   4.196   6.343 -3.0828  2.8839  0.3855
11665TIP3    H234953   6.513   4.327   6.268  2.1097  0.8824 -2.8197
11666TIP3   OH234954   5.819   7.610   5.711  0.1005 -0.3475  0.0727
11666TIP3    H134955   5.737   7.561   5.715 -0.5894  0.8734  1.2804
11666TIP3    H234956   5.805   7.675   5.642 -0.2023  0.2775  0.7104
11667TIP3   OH234957   7.077   6.128   5.503  0.1548 -0.6833  0.3753
11667TIP3    H134958   7.102   6.130   5.410  0.6825  1.5200  0.5341
11667TIP3    H234959   7.159   6.108   5.548  0.2974  0.1112  0.4768
11668TIP3   OH234960   6.788   4.405   6.440 -0.3742 -0.1184  0.3548
11668TIP3    H134961   6.779   4.353   6.360 -1.1077 -0.9909  0.9955
11668TIP3    H234962   6.713   4.380   6.494 -0.8147  1.6937  0.6370
11669TIP3   OH234963   7.222   4.672   4.433 -0.5413  0.6538 -0.8505
11669TIP3    H134964   7.243   4.719   4.514 -0.1002  1.3489 -1.3603
11669TIP3    H234965   7.144   4.622   4.454  1.6169 -2.0333  1.1101
11670TIP3   OH234966   6.048   5.890   6.518  0.0428  0.5653 -0.0288
11670TIP3    H134967   5.990   5.963   6.541  0.3525  0.1426  2.2570
11670TIP3    H234968   6.046   5.833   6.595  0.2894 -1.5395 -1.5461
11671TIP3   OH234969   6.742   2.756   5.077  0.1401 -0.3391  0.2781
11671TIP3    H134970   6.717   2.848   5.065 -0.2874 -0.9768 -4.3006
11671TIP3    H234971   6.836   2.760   5.096 -0.2989  1.1161  2.3937
11672TIP3   OH234972   4.936   0.312   0.020 -0.1141 -0.2877  0.0588
11672TIP3    H134973   4.950   0.405   0.042  0.5390 -0.2327 -0.5705
11672TIP3    H234974   4.860   0.313  -0.038 -0.5883 -0.2283  0.6700
11673TIP3   OH234975   7.946   5.341   5.877  0.1131 -0.4650 -0.0153
11673TIP3    H134976   7.994   5.407   5.828  0.8034  0.4450  1.8393
11673TIP3    H234977   7.856   5.375   5.882 -0.4625 -1.5617 -2.4004
11674TIP3   OH234978   6.149   7.670   6.835 -0.4053  0.1983  0.1405
11674TIP3    H134979   6.199   7.716   6.767 -0.2364  0.5824  0.5204
11674TIP3    H234980   6.216   7.637   6.895 -0.6171  0.9263  0.7866
11675TIP3   OH234981   4.268   5.941   6.009 -0.3968 -0.1404 -0.3413
11675TIP3    H134982   4.275   5.861   5.958 -1.3301  0.1499 -0.9441
11675TIP3    H234983   4.284   5.913   6.099 -1.2368 -1.1014 -0.4765
11676TIP3   OH234984   0.854   0.334   3.928  0.3599  0.3324 -0.5028
11676TIP3    H134985   0.849   0.409   3.869  2.7770  1.6019  0.8153
11676TIP3    H234986   0.805   0.361   4.005 -1.5225 -0.7328 -1.3195
11677TIP3   OH234987   6.605   1.877   5.374  0.3446 -0.5382  0.1787
11677TIP3    H134988   6.637   1.955   5.419 -0.8306 -0.9541  1.8055
11677TIP3    H234989   6.656   1.805   5.412 -0.4916 -0.8652  0.7051
11678TIP3   OH234990   3.119   3.369   0.833 -0.4195 -0.3669  0.9326
11678TIP3    H134991   3.026   3.348   0.840 -0.7379  0.9334  0.7993
11678TIP3    H234992   3.124   3.462   0.855  0.4585  0.3289 -1.9911
11679TIP3   OH234993   2.658   1.775   0.031 -0.3102 -0.1943 -0.3705
11679TIP3    H134994   2.563   1.785   0.031 -0.2854  0.0395 -0.3194
11679TIP3    H234995   2.680   1.747  -0.058 -0.3421  0.5384 -0.6065
11680TIP3   OH234996   0.082   6.488   6.033  0.3072  0.1131  0.3725
11680TIP3    H134997   0.010   6.520   5.979 -0.6651 -0.5785  1.2537
11680TIP3    H234998   0.043   6.473   6.119  1.0851 -1.9901  0.3863
11681TIP3   OH234999   5.675   5.964   6.432  0.1468  0.2242 -0.1027
11681TIP3    H135000   5.644   5.984   6.344  1.2114  1.5902 -0.1979
11681TIP3    H235001   5.761   6.005   6.436 -0.4874  1.4335  2.0332
11682TIP3   OH235002   7.231   6.185   6.812  0.1659  0.2534 -0.3009
11682TIP3    H135003   7.214   6.145   6.897  0.4174  0.3490 -0.2038
11682TIP3    H235004   7.318   6.153   6.787 -0.8398 -1.5396 -1.5460
11683TIP3   OH235005   6.254   4.985   4.819  0.6288  0.2993 -0.2257
11683TIP3    H135006   6.160   4.969   4.832  0.5166  0.6932 -0.5712
11683TIP3    H235007   6.259   5.038   4.740  1.1136  0.6910  0.0674
11684TIP3   OH235008   7.668   5.402   5.421  0.1580 -0.6450 -0.4337
11684TIP3    H135009   7.595   5.422   5.362  0.6409  1.0776 -0.4764
11684TIP3    H235010   7.746   5.421   5.370  0.6248 -1.2318  0.0544
11685TIP3   OH235011   5.752   7.226   3.083  0.4045 -0.1927 -0.0559
11685TIP3    H135012   5.820   7.291   3.066  0.4571 -0.2112  0.0898
11685TIP3    H235013   5.703   7.261   3.158 -0.5269  0.4411 -0.9398
11686TIP3   OH235014   2.027   3.157   1.077  0.2415  0.3182  0.4134
11686TIP3    H135015   1.968   3.213   1.127 -0.0079  1.0763 -0.6955
11686TIP3    H235016   2.107   3.153   1.129 -0.0209  1.0788  0.8823
11687TIP3   OH235017   7.593   4.059   4.005  0.5716 -0.2036 -0.1921
11687TIP3    H135018   7.679   4.028   3.977  1.6606  2.3798  0.1713
11687TIP3    H235019   7.574   4.133   3.947  0.4179  1.7793  2.3556
11688TIP3   OH235020   4.337   2.346   1.012  0.3364 -0.2821  0.3068
11688TIP3    H135021   4.268   2.336   0.946 -0.7730 -1.2755  1.5708
11688TIP3    H235022   4.417   2.360   0.962 -0.5177 -0.7839 -1.2315
11689TIP3   OH235023   0.725   7.943   0.715 -0.2292  0.8612  0.6058
11689TIP3    H135024   0.670   7.940   0.794 -1.3535  3.0324 -0.0861
11689TIP3    H235025   0.748   8.035   0.704 -1.2847  0.8136 -2.4433
11690TIP3   OH235026   5.513   4.980   5.479  0.5477 -0.5582  0.4915
11690TIP3    H135027   5.461   4.912   5.523  0.1724  0.6807  2.0291
11690TIP3    H235028   5.449   5.029   5.428  0.4229  0.1218  1.2962
11691TIP3   OH235029   6.922   5.816   5.161  0.0136  0.3197 -0.2444
11691TIP3    H135030   6.933   5.724   5.136 -0.2751  0.5410 -1.1705
11691TIP3    H235031   7.010   5.845   5.184  0.0299 -0.3327  0.5477
11692TIP3   OH235032   5.478   3.996   3.977  0.1905  0.1213  0.0045
11692TIP3    H135033   5.525   4.027   4.055  2.7132 -0.0767 -1.4024
11692TIP3    H235034   5.398   3.957   4.012 -0.2798  2.9526  2.2528
11693TIP3   OH235035   4.953   6.301   5.314 -0.1388  0.0558 -0.2765
11693TIP3    H135036   5.018   6.303   5.384 -0.7268  1.0380  0.2483
11693TIP3    H235037   4.879   6.351   5.349  0.2872  2.1888 -2.3358
11694TIP3   OH235038   5.833   6.511   4.341  0.4565  0.3894 -0.3012
11694TIP3    H135039   5.801   6.590   4.385  1.0170 -0.8770  2.5302
11694TIP3    H235040   5.759   6.450   4.347  0.9266 -0.1613 -0.1575
11695TIP3   OH235041   7.142   4.829   6.290 -1.0212  0.1513 -0.1359
11695TIP3    H135042   7.076   4.863   6.350 -1.9564  0.6750 -1.4446
11695TIP3    H235043   7.225   4.839   6.337 -1.9321 -1.2446  1.8447
11696TIP3   OH235044   6.449   3.352   5.938  0.0899  0.7151 -0.5618
11696TIP3    H135045   6.522   3.411   5.959  0.6595  0.0047 -0.5437
11696TIP3    H235046   6.372   3.396   5.975  0.4760  1.5637 -0.7529
11697TIP3   OH235047   6.900   5.980   6.686  0.0805  0.1102  0.2695
11697TIP3    H135048   6.959   5.950   6.617 -1.9438 -1.8047 -0.6986
11697TIP3    H235049   6.910   5.915   6.756  0.4293  0.7760  0.8429
11698TIP3   OH235050   0.437   4.512   5.251  0.1724 -0.0068  0.0072
11698TIP3    H135051   0.405   4.422   5.260 -3.1554  1.1586  0.5889
11698TIP3    H235052   0.487   4.528   5.331  1.1811 -1.4784 -0.3211
11699TIP3   OH235053   6.314   3.401   5.676  0.3188  0.7277  0.0161
11699TIP3    H135054   6.397   3.379   5.719  0.0204 -0.4692 -0.0018
11699TIP3    H235055   6.340   3.429   5.588  0.7964  1.6038  0.4215
11700TIP3   OH235056   7.756   4.706   6.158 -0.0004  0.1959  0.4166
11700TIP3    H135057   7.670   4.720   6.196 -0.2431 -0.2514  0.0355
11700TIP3    H235058   7.805   4.786   6.179 -0.7765  0.8190 -0.1046
11701TIP3   OH235059   6.373   3.365   6.602 -0.8861  0.0022  0.4219
11701TIP3    H135060   6.333   3.292   6.554  2.2165 -1.2679 -0.3992
11701TIP3    H235061   6.316   3.379   6.677 -2.7444 -1.8004 -0.5999
11702TIP3   OH235062   6.464   4.086   5.447 -0.2807  0.6917 -0.2964
11702TIP3    H135063   6.531   4.139   5.491  0.4072 -1.5301  1.4033
11702TIP3    H235064   6.505   4.060   5.364  1.2732 -1.2338  1.0391
11703TIP3   OH235065   6.948   4.879   6.501  0.0602 -0.1524  0.1277
11703TIP3    H135066   6.978   4.927   6.579 -1.9058  1.7180 -0.2214
11703TIP3    H235067   6.962   4.787   6.522  1.8993  0.4478  1.6931
11704TIP3   OH235068   6.133   5.077   6.838 -0.2308 -0.4446 -0.4794
11704TIP3    H135069   6.128   5.171   6.825 -0.9822 -0.3844  0.2470
11704TIP3    H235070   6.108   5.040   6.753  0.5402  0.0047 -0.9092
11705TIP3   OH235071   0.634   7.054   0.143 -0.1541  0.1039  0.1508
11705TIP3    H135072   0.610   7.039   0.051 -0.1121 -1.2037  0.3564
11705TIP3    H235073   0.628   6.968   0.184  1.3387  0.4089  1.0374
11706TIP3   OH235074   8.292   7.420   0.733 -0.3292 -0.1426 -0.6265
11706TIP3    H135075   8.372   7.442   0.686  0.2930  0.4539  0.6808
11706TIP3    H235076   8.309   7.332   0.768 -1.0013 -0.8127 -1.9301
11707TIP3   OH235077   7.205   6.507   0.040 -0.0121  0.6409 -0.9088
11707TIP3    H135078   7.177   6.560  -0.035 -1.6294 -0.8332 -1.3872
11707TIP3    H235079   7.162   6.423   0.027 -1.4038  0.7701  2.3503
11708TIP3   OH235080   4.808   6.850   5.324  0.3255 -0.5369  0.0501
11708TIP3    H135081   4.869   6.813   5.387  1.0236  0.3033 -0.1194
11708TIP3    H235082   4.857   6.851   5.242 -0.3235 -0.9398 -0.3418
11709TIP3   OH235083   4.803   2.111   0.136  0.5020 -0.2557 -0.2467
11709TIP3    H135084   4.736   2.164   0.180  1.3197  0.5787 -0.0128
11709TIP3    H235085   4.874   2.172   0.116  0.6774 -0.8874 -1.6090
11710TIP3   OH235086   5.249   5.462   5.614 -0.3914  0.0346 -0.3700
11710TIP3    H135087   5.304   5.398   5.660 -0.9424 -0.1942 -0.0222
11710TIP3    H235088   5.309   5.507   5.555  0.8351  2.0832  2.3649
11711TIP3   OH235089   7.821   3.719   6.436 -0.0111 -0.1530  0.4694
11711TIP3    H135090   7.730   3.747   6.424 -0.3409 -0.4123  2.2201
11711TIP3    H235091   7.864   3.793   6.478  0.3556 -0.4018  0.5324
11712TIP3   OH235092   6.005   5.941   5.628  0.0196  0.0900  0.0461
11712TIP3    H135093   6.072   5.881   5.661  0.4891 -0.4756 -1.9111
11712TIP3    H235094   5.984   5.909   5.541 -0.1188  2.4175 -0.8266
11713TIP3   OH235095   4.603   2.686   0.347  0.2187  0.3218 -0.1025
11713TIP3    H135096   4.574   2.605   0.390 -0.5732  0.3473 -0.5816
11713TIP3    H235097   4.633   2.742   0.419  0.1624 -0.1526  0.2911
11714TIP3   OH235098   6.762   5.373   6.245 -0.6092  0.5561 -1.0429
11714TIP3    H135099   6.823   5.433   6.201 -0.0279  0.6525 -0.1269
11714TIP3    H235100   6.724   5.426   6.315 -0.3583 -0.0343 -0.4550
11715TIP3   OH235101   7.989   5.858   5.333 -0.6022  0.4578  0.1786
11715TIP3    H135102   8.061   5.877   5.272 -0.5143 -2.6850 -0.7877
11715TIP3    H235103   7.935   5.937   5.331  0.8330  1.4536 -1.9366
11716TIP3   OH235104   8.131   6.347   5.086 -0.3997 -0.0003  0.2085
11716TIP3    H135105   8.178   6.289   5.026  0.7576 -1.1740  2.2147
11716TIP3    H235106   8.196   6.410   5.115 -0.6357 -0.2382  1.2556
11717TIP3   OH235107   5.880   6.038   5.857 -0.5186 -0.2415 -1.2545
11717TIP3    H135108   5.942   5.965   5.861  0.9980  1.0887 -0.2570
11717TIP3    H235109   5.919   6.100   5.796 -0.8773  0.5797 -0.6646
11718TIP3   OH235110   0.543   5.297   5.968 -0.3364 -0.2079 -0.1254
11718TIP3    H135111   0.574   5.336   6.050 -0.3854 -0.0926 -0.1611
11718TIP3    H235112   0.448   5.311   5.969  0.0170  2.7519 -1.7345
11719TIP3   OH235113   6.182   5.568   5.853 -0.3831 -0.3287 -0.0810
11719TIP3    H135114   6.132   5.496   5.815 -0.5534 -0.5398  0.5438
11719TIP3    H235115   6.227   5.530   5.928  0.1704  0.0234 -0.2341
11720TIP3   OH235116   6.623   7.034   5.048 -0.0153 -0.0370 -0.2326
11720TIP3    H135117   6.603   7.108   5.105  2.5345 -0.5798  1.4789
11720TIP3    H235118   6.582   6.959   5.091 -0.8842  0.0677 -0.8802
11721TIP3   OH235119   7.379   6.441   5.139 -0.0719 -0.0967  0.0644
11721TIP3    H135120   7.290   6.406   5.144 -0.0759  0.1015  1.4130
11721TIP3    H235121   7.395   6.480   5.225  2.3811 -2.6577  0.8254
11722TIP3   OH235122   7.179   5.198   5.787 -0.2381 -0.1508  0.1372
11722TIP3    H135123   7.129   5.266   5.834 -1.1839 -0.0051 -1.0604
11722TIP3    H235124   7.115   5.131   5.767 -0.2738  0.6318 -2.5813
11723TIP3   OH235125   5.689   4.568   4.844 -0.3737 -0.2048 -0.2042
11723TIP3    H135126   5.702   4.642   4.784 -0.4032  0.8508  1.0647
11723TIP3    H235127   5.770   4.564   4.895 -1.1871  0.2788  1.1479
11724TIP3   OH235128   0.119   6.495   4.386 -0.3613  0.4681  0.3762
11724TIP3    H135129   0.045   6.554   4.402 -0.4059 -0.3861  3.5315
11724TIP3    H235130   0.187   6.524   4.445  0.1490 -1.6944  0.8886
11725TIP3   OH235131   7.834   5.471   5.210 -0.0734  0.0379  0.1492
11725TIP3    H135132   7.845   5.551   5.159 -1.2365 -0.4320 -0.8496
11725TIP3    H235133   7.837   5.400   5.146  1.7515 -0.7907  1.1273
11726TIP3   OH235134   6.375   4.544   5.809 -0.4668  0.1026 -0.3113
11726TIP3    H135135   6.305   4.575   5.752  0.8532  1.4097 -1.2716
11726TIP3    H235136   6.446   4.520   5.750  0.8564  1.2868  0.7501
11727TIP3   OH235137   5.615   5.284   5.475 -0.3727 -0.1363  0.2126
11727TIP3    H135138   5.704   5.255   5.455 -0.0619 -0.0850  1.5227
11727TIP3    H235139   5.559   5.225   5.425  0.3648 -0.6650  0.0014
11728TIP3   OH235140   0.143   5.615   5.158  0.5236  0.5112  0.0163
11728TIP3    H135141   0.124   5.640   5.068 -0.4816 -0.3439 -0.0236
11728TIP3    H235142   0.238   5.610   5.162  0.5282 -1.4946 -1.5952
11729TIP3   OH235143   7.658   5.449   6.467 -0.2861 -0.3373 -0.6125
11729TIP3    H135144   7.651   5.534   6.423 -0.4257 -0.5774 -1.0566
11729TIP3    H235145   7.687   5.471   6.556 -3.0638  0.4033  0.1707
11730TIP3   OH235146   0.510   6.290   1.127 -0.0554  0.2401  1.0246
11730TIP3    H135147   0.468   6.270   1.210  1.1543  0.2866  1.6528
11730TIP3    H235148   0.438   6.317   1.069 -1.1103 -1.4331  1.5392
11731TIP3   OH235149   5.934   4.628   6.299 -0.1141 -0.1279 -0.0850
11731TIP3    H135150   5.960   4.691   6.231 -0.7249  0.7657  0.4987
11731TIP3    H235151   5.960   4.543   6.264  2.3892  0.5952 -0.1157
11732TIP3   OH235152   2.986   0.292   0.493  0.1025 -0.1614  0.2720
11732TIP3    H135153   2.924   0.228   0.528  0.5248 -0.6937  0.0469
11732TIP3    H235154   3.017   0.253   0.411 -0.4506  0.8187 -0.4225
11733TIP3   OH235155   5.771   3.930   5.059 -0.5381 -0.1323 -0.4055
11733TIP3    H135156   5.859   3.949   5.028 -0.5347  1.0614  0.2770
11733TIP3    H235157   5.730   4.016   5.066 -1.3632 -0.5884  0.4205
11734TIP3   OH235158   5.590   3.155   3.534 -0.2582  0.3214  0.2426
11734TIP3    H135159   5.631   3.219   3.475 -1.7747 -1.4685 -2.9355
11734TIP3    H235160   5.639   3.074   3.520 -2.2145 -0.7765 -0.5389
11735TIP3   OH235161   6.632   4.593   5.380 -1.1509  0.0530 -0.0273
11735TIP3    H135162   6.600   4.562   5.465  1.1998  1.6407  1.4921
11735TIP3    H235163   6.573   4.664   5.357 -1.9805 -0.5748  0.1226
11736TIP3   OH235164   4.702   3.274   6.364  0.2630  0.2105  0.5106
11736TIP3    H135165   4.660   3.349   6.322 -0.1059  0.7585  1.8187
11736TIP3    H235166   4.715   3.211   6.294  0.3241  1.3909 -0.5644
11737TIP3   OH235167   7.483   6.749   5.548 -0.2312  0.2825 -0.5483
11737TIP3    H135168   7.414   6.814   5.563 -0.2784  0.7259 -2.5257
11737TIP3    H235169   7.552   6.797   5.503  0.6447 -0.5567 -0.1091
11738TIP3   OH235170   5.316   4.215   6.154  0.7248 -0.1795 -0.7485
11738TIP3    H135171   5.258   4.203   6.229  1.0377  0.6676 -0.3615
11738TIP3    H235172   5.327   4.127   6.117 -0.5539 -0.3892 -0.6473
11739TIP3   OH235173   2.692   2.431   1.401  0.7060 -0.1732 -0.4269
11739TIP3    H135174   2.746   2.361   1.437 -0.8741 -1.8070 -1.1933
11739TIP3    H235175   2.649   2.392   1.325  0.0478  1.7195 -1.0547
11740TIP3   OH235176   7.290   6.811   3.542 -0.4052 -0.3350 -0.2844
11740TIP3    H135177   7.353   6.824   3.471 -0.1636 -0.2378 -0.0493
11740TIP3    H235178   7.205   6.805   3.497 -0.2142 -0.6322 -0.6130
11741TIP3   OH235179  -0.017   2.756   6.024  0.2673  0.3683 -0.1517
11741TIP3    H135180   0.014   2.828   6.079  0.4202  0.0477  0.1845
11741TIP3    H235181   0.048   2.687   6.035 -0.4991 -0.2738  0.4738
11742TIP3   OH235182   1.085   0.026   3.826  0.0588  0.4002 -0.1972
11742TIP3    H135183   0.996  -0.010   3.827 -0.2655  1.2003  0.1441
11742TIP3    H235184   1.092   0.068   3.740  0.2024  0.0925 -0.3349
11743TIP3   OH235185   6.226   3.174   5.345  0.1298 -0.1750 -0.3692
11743TIP3    H135186   6.167   3.231   5.295  0.5136  0.2843 -0.2985
11743TIP3    H235187   6.294   3.149   5.283 -0.4545 -1.1900 -0.6162
11744TIP3   OH235188   6.574   7.735   6.129  0.0650  0.2986  0.0108
11744TIP3    H135189   6.625   7.720   6.209 -0.0949 -0.6582 -0.0623
11744TIP3    H235190   6.504   7.670   6.132  1.4736 -1.3557 -2.1018
11745TIP3   OH235191   4.071   6.175   5.041  0.0666 -0.4151 -0.2620
11745TIP3    H135192   4.071   6.206   4.951  0.8439 -0.8716 -0.4189
11745TIP3    H235193   4.150   6.213   5.080 -0.8037  0.6256  0.5214
11746TIP3   OH235194   3.670   3.822   0.590  0.4279 -0.9274 -0.5808
11746TIP3    H135195   3.707   3.740   0.623 -0.6038 -0.8133  0.9662
11746TIP3    H235196   3.722   3.891   0.632 -0.0666 -0.7925 -0.1701
11747TIP3   OH235197   5.379   5.827   6.307 -0.0802 -0.4250 -0.4797
11747TIP3    H135198   5.445   5.885   6.269 -0.2061 -1.2532 -1.9936
11747TIP3    H235199   5.296   5.856   6.270 -0.4703  0.0497  0.7427
11748TIP3   OH235200   3.958   2.038   0.373  0.3519  0.0584 -0.6925
11748TIP3    H135201   3.938   2.075   0.287  0.0793 -1.6565 -1.3831
11748TIP3    H235202   4.038   1.987   0.359 -0.9222 -2.0672 -0.4744
11749TIP3   OH235203   5.695   5.996   5.087 -0.7172  0.0088  0.2704
11749TIP3    H135204   5.604   5.968   5.073 -0.7071  0.7318 -1.3309
11749TIP3    H235205   5.695   6.089   5.066 -0.0379  0.4961  2.3371
11750TIP3   OH235206   7.322   2.567   5.954 -0.4064  0.2260  0.7563
11750TIP3    H135207   7.239   2.599   5.918  1.6712  2.8392 -1.9212
11750TIP3    H235208   7.366   2.646   5.985  1.3655 -1.0612  1.5611
11751TIP3   OH235209   6.227   3.858   4.501 -0.3189 -0.0368 -0.0227
11751TIP3    H135210   6.168   3.785   4.482  0.8318 -1.0653  0.3028
11751TIP3    H235211   6.304   3.842   4.447 -0.1105  1.0188 -0.0515
11752TIP3   OH235212   3.972   0.629   0.554  0.5922  0.2983  0.0619
11752TIP3    H135213   3.950   0.599   0.643 -0.4650  2.1301  0.4341
11752TIP3    H235214   3.908   0.585   0.498 -1.1537  2.0526  0.6403
11753TIP3   OH235215   5.660   2.357   5.293 -0.0215  0.3086  0.3734
11753TIP3    H135216   5.668   2.321   5.204 -0.5156 -0.0440  0.4710
11753TIP3    H235217   5.671   2.281   5.350 -1.3218  0.2686  0.5781
11754TIP3   OH235218   4.967   2.323   2.936 -0.0808 -0.0166  0.7557
11754TIP3    H135219   5.042   2.383   2.924  1.9998 -2.6620  0.0812
11754TIP3    H235220   4.975   2.293   3.026 -0.0169 -0.6884  0.5290
11755TIP3   OH235221   4.549   4.877   5.379  0.0735 -0.1932 -0.4397
11755TIP3    H135222   4.600   4.915   5.450  1.2985 -1.1628 -0.7935
11755TIP3    H235223   4.464   4.921   5.384  0.5120  0.5013  0.9486
11756TIP3   OH235224   5.918   2.454   5.913  0.5943  0.3266  0.1264
11756TIP3    H135225   5.858   2.396   5.960  0.5702 -1.0315 -1.5172
11756TIP3    H235226   5.964   2.396   5.851 -1.3257  2.4539 -3.4468
11757TIP3   OH235227   5.077   3.975   3.812  0.1679 -0.2229  0.4584
11757TIP3    H135228   5.127   3.905   3.852 -0.4678 -0.3539  1.0344
11757TIP3    H235229   5.143   4.031   3.770  0.7584 -0.5877  0.8930
11758TIP3   OH235230   2.484   2.938   0.324 -0.4638 -0.1601 -0.6595
11758TIP3    H135231   2.523   2.894   0.400  0.3669  1.3459 -0.2052
11758TIP3    H235232   2.394   2.906   0.322 -1.0048  1.1450  2.0197
11759TIP3   OH235233   5.976   3.255   6.854  0.3476  0.2547  0.0396
11759TIP3    H135234   5.926   3.248   6.936 -0.3938  1.1285 -0.3378
11759TIP3    H235235   5.987   3.164   6.825 -3.1408  0.1549 -1.1557
11760TIP3   OH235236   6.025   3.394   4.603 -0.4980  0.9595  0.0776
11760TIP3    H135237   5.970   3.316   4.603 -0.4847  0.9478  0.6882
11760TIP3    H235238   6.077   3.387   4.523 -1.4555  1.0206 -0.5586
11761TIP3   OH235239   7.462   5.962   5.096 -0.1286  0.3298 -0.3289
11761TIP3    H135240   7.556   5.945   5.090  0.0303  0.6798  1.0162
11761TIP3    H235241   7.435   5.976   5.005  1.0651 -0.0300 -0.7579
11762TIP3   OH235242   5.950   5.224   3.743 -0.0348 -0.0287  0.1766
11762TIP3    H135243   6.017   5.156   3.734 -0.4859 -0.4204 -0.2571
11762TIP3    H235244   5.980   5.278   3.816  0.7307 -0.2301  0.0147
11763TIP3   OH235245   6.233   2.502   5.696  0.1559  0.6859  0.7525
11763TIP3    H135246   6.229   2.482   5.789 -0.3205 -0.5065  0.4857
11763TIP3    H235247   6.171   2.441   5.655  0.1374  1.3989 -0.3086
11764TIP3   OH235248   6.975   3.837   5.388 -0.1172 -0.6009 -0.0711
11764TIP3    H135249   7.042   3.863   5.324 -2.1282  0.3309 -1.8711
11764TIP3    H235250   6.943   3.920   5.423 -1.5113 -0.9699 -0.4652
11765TIP3   OH235251   6.503   4.854   4.369 -0.1796  0.1836  0.1581
11765TIP3    H135252   6.525   4.814   4.453  1.0573  0.9234  0.1936
11765TIP3    H235253   6.430   4.912   4.389 -0.5660 -0.4187  0.5174
11766TIP3   OH235254   6.134   4.614   5.701  0.2108 -0.6635  0.3340
11766TIP3    H135255   6.080   4.614   5.780  0.4054 -0.4804  0.4667
11766TIP3    H235256   6.091   4.677   5.643 -0.6640 -1.7511 -0.2051
11767TIP3   OH235257   4.449   3.563   1.026 -0.2029  0.3449  0.0912
11767TIP3    H135258   4.541   3.587   1.040  1.1857 -4.8299  1.0577
11767TIP3    H235259   4.408   3.571   1.112 -0.8846  3.2825 -0.4704
11768TIP3   OH235260   1.839   4.766   1.445 -0.2482  0.2005 -0.3540
11768TIP3    H135261   1.808   4.685   1.406  2.3630 -1.0944  0.1260
11768TIP3    H235262   1.808   4.835   1.386  0.8246 -1.4346 -2.9086
11769TIP3   OH235263   6.670   4.635   5.861 -0.9148  0.1181  0.0934
11769TIP3    H135264   6.724   4.691   5.917  1.5218 -2.4302  0.3866
11769TIP3    H235265   6.619   4.582   5.922 -2.4666  1.2768 -0.1765
11770TIP3   OH235266   6.657   4.197   4.825 -0.2761 -0.6923  0.3475
11770TIP3    H135267   6.698   4.155   4.901 -0.0327  0.1722  0.7035
11770TIP3    H235268   6.721   4.186   4.754  0.0403 -0.4197  0.5871
11771TIP3   OH235269   8.215   5.234   4.780  0.7243 -0.1488  0.2804
11771TIP3    H135270   8.251   5.311   4.823 -1.9504  1.0521  0.4838
11771TIP3    H235271   8.202   5.171   4.850 -1.5407  0.9940  0.9321
11772TIP3   OH235272   6.723   4.938   4.909  0.6008  0.1065 -0.3795
11772TIP3    H135273   6.726   4.848   4.877 -0.3982  0.9576 -2.9793
11772TIP3    H235274   6.671   4.933   4.990  1.1199 -1.7279 -0.1473
11773TIP3   OH235275   6.999   4.348   3.165 -0.5764  0.7392  0.8664
11773TIP3    H135276   7.078   4.349   3.219  0.1830  1.1094 -0.2220
11773TIP3    H235277   6.962   4.261   3.178  0.0429  0.5437  1.3484
11774TIP3   OH235278   4.305   3.497   6.781 -0.0041  0.1282  0.0076
11774TIP3    H135279   4.366   3.540   6.721 -2.3472  1.4258 -1.5145
11774TIP3    H235280   4.232   3.470   6.726 -1.7893  0.4968  2.1198
11775TIP3   OH235281   0.567   7.274   3.635 -0.2793 -0.2579 -0.0144
11775TIP3    H135282   0.477   7.285   3.664  0.0485  0.4574  0.7582
11775TIP3    H235283   0.585   7.352   3.582 -0.4041 -0.8502 -0.9480
11776TIP3   OH235284   7.959   7.438   5.961  0.6203  0.3237  0.7433
11776TIP3    H135285   7.967   7.478   5.874  1.0553  0.5147  0.8668
11776TIP3    H235286   7.965   7.344   5.944 -0.9886  0.2754  0.3909
11777TIP3   OH235287   7.602   5.706   5.831  0.4162 -0.0990  0.0161
11777TIP3    H135288   7.570   5.650   5.902 -1.5333  0.7545 -0.1606
11777TIP3    H235289   7.602   5.650   5.754  2.2670 -0.9471  0.5983
11778TIP3   OH235290   8.059   4.705   4.284 -0.2530  0.1883 -0.4523
11778TIP3    H135291   8.032   4.778   4.229 -0.1203  0.8148  0.2984
11778TIP3    H235292   7.978   4.675   4.325 -0.2789  0.0335 -0.6142
11779TIP3   OH235293   7.439   6.111   4.538  0.1700 -0.3012 -0.2711
11779TIP3    H135294   7.483   6.152   4.613 -0.4219  0.4350 -0.3096
11779TIP3    H235295   7.350   6.147   4.540 -0.3730 -1.6324 -0.2981
11780TIP3   OH235296   7.862   6.245   4.282 -0.4307  0.0509  0.4363
11780TIP3    H135297   7.853   6.339   4.263 -0.0819  0.1078  0.5353
11780TIP3    H235298   7.834   6.201   4.202 -0.6276  0.2418  0.4014
11781TIP3   OH235299   7.676   5.101   3.443 -0.2642 -0.2314 -0.1688
11781TIP3    H135300   7.584   5.087   3.468  0.0697 -0.9220  0.6851
11781TIP3    H235301   7.725   5.087   3.524  0.6142 -0.0294 -0.6660
11782TIP3   OH235302   7.480   3.487   5.720 -0.6580  0.0371 -0.4963
11782TIP3    H135303   7.561   3.443   5.746 -0.1759  0.6609 -0.9317
11782TIP3    H235304   7.446   3.523   5.802 -0.8132 -0.7342 -0.2126
11783TIP3   OH235305   7.854   7.668   4.043 -0.4313 -0.1544 -0.3243
11783TIP3    H135306   7.901   7.730   4.099 -0.4587  1.0734 -1.6257
11783TIP3    H235307   7.780   7.639   4.096  0.3358 -0.0989  0.7932
11784TIP3   OH235308   6.993   6.350   4.730  0.6285 -0.1137  0.4907
11784TIP3    H135309   6.904   6.368   4.699  1.2785  0.4553 -1.0816
11784TIP3    H235310   7.033   6.436   4.743  1.8054 -0.3498 -1.3728
11785TIP3   OH235311   7.855   4.349   5.118 -0.4379  1.0424  0.3973
11785TIP3    H135312   7.888   4.364   5.030 -2.2969  1.8254 -0.1839
11785TIP3    H235313   7.849   4.254   5.125  2.1619  0.8470  0.6367
11786TIP3   OH235314   7.851   5.271   4.714  0.4064  0.4274  0.4699
11786TIP3    H135315   7.922   5.307   4.661  0.4603  0.6368  0.6856
11786TIP3    H235316   7.893   5.242   4.794  0.4490 -0.6184  0.0774
11787TIP3   OH235317   7.194   7.898   2.725  0.1416 -0.8161 -0.6749
11787TIP3    H135318   7.164   7.814   2.760 -1.6146  0.0145 -0.1169
11787TIP3    H235319   7.155   7.963   2.783 -0.2574  0.4735 -2.3611
11788TIP3   OH235320   5.513   1.855   0.069  0.0984 -0.0055 -0.7153
11788TIP3    H135321   5.423   1.824   0.078 -0.2091  0.8454 -0.7894
11788TIP3    H235322   5.567   1.782   0.100 -0.5978 -0.6805 -1.0746
11789TIP3   OH235323   7.676   2.478   5.000  0.2783  0.5378 -0.1489
11789TIP3    H135324   7.592   2.522   4.985 -0.1148 -0.0045  0.3774
11789TIP3    H235325   7.730   2.543   5.044 -0.2178  0.5818  0.4113
11790TIP3   OH235326   1.234   4.777   2.505  0.4694  0.3078 -0.4352
11790TIP3    H135327   1.140   4.760   2.503  0.2820  1.1399  0.7292
11790TIP3    H235328   1.256   4.804   2.416 -0.4285  0.3055 -0.6640
11791TIP3   OH235329   7.420   7.710   4.215  0.1005  0.2218  0.1865
11791TIP3    H135330   7.361   7.764   4.267 -0.8319 -0.0283 -0.5914
11791TIP3    H235331   7.375   7.700   4.131  0.2929 -1.6823  0.2834
11792TIP3   OH235332   8.293   7.289   4.291  0.4717 -0.2019 -0.4035
11792TIP3    H135333   8.245   7.244   4.360 -0.1026  1.6876  0.4538
11792TIP3    H235334   8.249   7.374   4.282  0.7254 -0.2874 -2.8773
11793TIP3   OH235335   7.912   7.870   4.872  0.4605 -0.2785  0.0058
11793TIP3    H135336   7.937   7.918   4.951 -0.5679 -0.7998  0.6676
11793TIP3    H235337   7.817   7.858   4.880  0.2393  0.2179 -1.6274
11794TIP3   OH235338   7.614   5.123   4.943 -0.0822 -0.1050  0.4486
11794TIP3    H135339   7.693   5.171   4.919 -0.7134  1.0896  0.7645
11794TIP3    H235340   7.600   5.144   5.036 -0.5236 -0.6622  0.5112
11795TIP3   OH235341   1.751   0.062   4.730 -0.0798  0.6035 -0.4606
11795TIP3    H135342   1.752   0.019   4.644  0.6750 -0.8136  0.2454
11795TIP3    H235343   1.675   0.025   4.774  1.5824 -1.3928  0.8175
11796TIP3   OH235344   5.458   3.591   0.035 -0.6055  0.0146  0.0833
11796TIP3    H135345   5.425   3.549   0.115 -1.1209  0.6853  0.2281
11796TIP3    H235346   5.475   3.518  -0.025 -0.7678 -0.4526  0.5982
11797TIP3   OH235347   7.197   5.108   6.456  0.2414  0.0614 -0.1039
11797TIP3    H135348   7.117   5.132   6.410  0.2150 -1.8735 -1.0865
11797TIP3    H235349   7.243   5.048   6.398  0.9945 -1.1666  1.6877
11798TIP3   OH235350   0.852   6.464   5.724  0.2007 -0.0923  0.0806
11798TIP3    H135351   0.947   6.458   5.709 -0.0186 -0.5248 -1.2164
11798TIP3    H235352   0.815   6.401   5.662 -1.0560  1.5250 -0.8357
11799TIP3   OH235353   8.334   4.846   6.274  0.0943  0.1784 -0.0840
11799TIP3    H135354   8.286   4.764   6.262  2.2222 -1.2324  0.8161
11799TIP3    H235355   8.348   4.852   6.369  2.3687  0.1451 -0.3873
11800TIP3   OH235356   7.778   6.551   4.920  0.4959 -0.4184 -0.1399
11800TIP3    H135357   7.690   6.565   4.955  1.5429  0.7112  2.1132
11800TIP3    H235358   7.803   6.464   4.953 -0.3616 -1.4328 -2.0938
11801TIP3   OH235359   8.120   7.492   4.218  0.0418  0.1807  0.1284
11801TIP3    H135360   8.118   7.578   4.177  0.5827  0.7310  1.2350
11801TIP3    H235361   8.062   7.501   4.294  1.8124  0.2209  1.4915
11802TIP3   OH235362   0.647   6.949   3.137 -0.7427  0.2964  0.5374
11802TIP3    H135363   0.589   7.022   3.113 -0.3830  0.5833  0.5254
11802TIP3    H235364   0.719   6.991   3.184 -0.2026  0.0296 -0.0389
11803TIP3   OH235365   0.190   4.571   5.628  0.0057  0.5882 -0.0883
11803TIP3    H135366   0.140   4.523   5.561 -1.5046 -0.0899  1.4898
11803TIP3    H235367   0.165   4.662   5.616 -0.4339  0.4407 -0.3141
11804TIP3   OH235368   0.900   6.233   3.202 -0.1991  0.3264  0.3755
11804TIP3    H135369   0.845   6.204   3.275 -1.1315  1.0949 -0.0144
11804TIP3    H235370   0.841   6.281   3.144  0.7640  0.6817 -0.3350
11805TIP3   OH235371   8.030   7.148   5.298 -0.1290 -0.2675  0.1103
11805TIP3    H135372   8.004   7.192   5.379  1.7310  1.1547 -0.0262
11805TIP3    H235373   8.125   7.140   5.305  0.1344  0.4621 -2.2128
11806TIP3   OH235374   0.217   6.468   5.419 -0.0172 -0.4172  0.4036
11806TIP3    H135375   0.214   6.553   5.463  1.7610  0.6115 -1.3595
11806TIP3    H235376   0.285   6.420   5.467 -0.0584 -0.3377  0.5434
11807TIP3   OH235377   7.550   7.295   4.858  0.1804 -0.0519  0.1697
11807TIP3    H135378   7.592   7.269   4.940 -1.8796  0.8572  1.5595
11807TIP3    H235379   7.564   7.390   4.853  1.1448 -0.2436 -1.0475
11808TIP3   OH235380   0.375   4.290   4.763 -0.0228  0.3428 -0.0666
11808TIP3    H135381   0.431   4.333   4.828  0.9049 -0.6078 -0.2130
11808TIP3    H235382   0.368   4.199   4.793 -1.4624  0.4346 -0.0819
11809TIP3   OH235383   6.909   5.429   2.048  0.3625  0.0358 -0.1286
11809TIP3    H135384   6.970   5.442   1.975 -0.3357  0.3132 -0.6649
11809TIP3    H235385   6.893   5.517   2.082 -0.3876  0.0555 -0.5208
11810TIP3   OH235386   6.188   4.326   4.975  0.0782  0.2156  0.0042
11810TIP3    H135387   6.201   4.394   4.909 -2.5068  0.6645 -0.0880
11810TIP3    H235388   6.171   4.246   4.924  1.7996 -0.2614  0.1290
11811TIP3   OH235389   7.827   6.799   4.123  0.5613  0.1249  0.6525
11811TIP3    H135390   7.809   6.720   4.174  1.2295  0.7435  1.8756
11811TIP3    H235391   7.771   6.866   4.163 -0.1022  0.2516 -0.4616
11812TIP3   OH235392   6.432   5.665   5.461  0.1144  0.1799 -0.0904
11812TIP3    H135393   6.405   5.573   5.463  1.8074 -0.3455 -0.2583
11812TIP3    H235394   6.496   5.669   5.390  2.6750  0.7109  2.1557
11813TIP3   OH235395   6.436   5.814   4.515 -0.3719 -0.9256  0.0203
11813TIP3    H135396   6.405   5.851   4.597  1.2190  0.5974 -0.0400
11813TIP3    H235397   6.404   5.874   4.447 -0.5183 -1.4207 -0.3498
11814TIP3   OH235398   8.266   6.580   4.583 -0.3277  0.1397 -0.5350
11814TIP3    H135399   8.312   6.626   4.654  0.1082  0.6569 -1.1515
11814TIP3    H235400   8.174   6.580   4.611 -0.6477  3.0264 -1.3666
11815TIP3   OH235401   8.255   7.003   6.221 -0.4475 -0.4427 -0.2118
11815TIP3    H135402   8.327   7.054   6.258  0.0596 -0.1498 -1.5703
11815TIP3    H235403   8.178   7.031   6.270  0.1447  0.1982  0.3679
11816TIP3   OH235404   6.483   1.488   5.516  0.4611 -0.0968  0.1889
11816TIP3    H135405   6.492   1.524   5.428  0.3661  2.1680  1.0768
11816TIP3    H235406   6.537   1.409   5.515 -0.4850 -0.7747 -2.2456
11817TIP3   OH235407   0.340   5.442   6.537  0.3745 -0.2850  0.4987
11817TIP3    H135408   0.342   5.360   6.586 -0.0195 -1.2953 -1.1451
11817TIP3    H235409   0.273   5.429   6.470  0.8183  1.1156 -0.2491
11818TIP3   OH235410   0.564   5.498   5.602 -0.0113 -0.3136 -0.4711
11818TIP3    H135411   0.536   5.407   5.600  1.2063 -0.7591  1.5241
11818TIP3    H235412   0.538   5.529   5.689 -0.1654  1.1623 -1.0336
11819TIP3   OH235413   1.036   5.083   5.520  0.0020 -0.3637  0.5439
11819TIP3    H135414   1.121   5.125   5.535 -0.0662 -0.8685  2.5230
11819TIP3    H235415   1.024   5.086   5.425  0.9121  2.2881  0.4629
11820TIP3   OH235416   7.410   2.517   4.561 -0.0749 -0.6029 -0.0496
11820TIP3    H135417   7.427   2.458   4.488 -0.1588 -1.7134  0.8118
11820TIP3    H235418   7.492   2.567   4.571 -0.1068 -0.3504 -0.9648
11821TIP3   OH235419   7.016   4.830   5.146 -0.3961  0.4141 -0.2673
11821TIP3    H135420   7.002   4.759   5.208 -1.3121  1.5877  0.8938
11821TIP3    H235421   6.961   4.902   5.178  0.0349  1.4475 -1.7597
11822TIP3   OH235422   5.654   5.621   4.018 -0.5596  0.0980 -0.4231
11822TIP3    H135423   5.687   5.540   3.977 -0.0516  0.0861 -0.0032
11822TIP3    H235424   5.598   5.661   3.952 -1.1951 -0.8413 -0.4641
11823TIP3   OH235425   0.358   4.736   3.934 -0.1327 -0.2939  0.3991
11823TIP3    H135426   0.301   4.686   3.993 -2.1334  0.8339 -0.5203
11823TIP3    H235427   0.299   4.797   3.890  1.3794 -0.8283 -2.4769
11824TIP3   OH235428   8.343   4.104   5.780  0.0149 -0.2699  0.0986
11824TIP3    H135429   8.317   4.064   5.863 -2.8412 -1.8344 -1.4737
11824TIP3    H235430   8.306   4.192   5.783 -1.8969 -1.0323 -0.3397
11825TIP3   OH235431   6.977   6.748   2.898 -0.1033 -0.0993 -0.0600
11825TIP3    H135432   6.899   6.703   2.867  0.4408 -2.0707  1.3508
11825TIP3    H235433   7.048   6.684   2.888  0.8697  0.7777  1.0302
11826TIP3   OH235434   6.141   4.918   5.867  0.4654  0.3162  0.0185
11826TIP3    H135435   6.231   4.895   5.891  0.3467  3.0741  3.4708
11826TIP3    H235436   6.087   4.849   5.907  0.8539  0.0997  0.1674
11827TIP3   OH235437   7.190   6.810   5.251  0.5583  0.2149  0.4727
11827TIP3    H135438   7.119   6.867   5.223  1.7034  0.8099 -1.3368
11827TIP3    H235439   7.150   6.750   5.315 -1.8096 -0.1942 -1.3343
11828TIP3   OH235440   7.596   3.832   6.330  0.1121  0.7138  0.1774
11828TIP3    H135441   7.572   3.924   6.321 -1.0733  0.2552 -1.6720
11828TIP3    H235442   7.512   3.786   6.337  0.5803 -0.4859 -1.7595
11829TIP3   OH235443   7.321   5.642   5.677  0.0120 -0.0224 -0.4207
11829TIP3    H135444   7.406   5.626   5.635 -0.9605 -2.1780 -1.6431
11829TIP3    H235445   7.340   5.708   5.743  2.4418  0.3214 -1.3812
11830TIP3   OH235446   8.435   5.625   5.619 -0.2270  0.4281  0.1024
11830TIP3    H135447   8.449   5.696   5.682  0.6326  0.1460  0.2409
11830TIP3    H235448   8.379   5.663   5.551  0.1566  1.2086  0.2213
11831TIP3   OH235449   2.213   5.589   5.329 -0.9617  0.6510  0.4221
11831TIP3    H135450   2.134   5.535   5.322 -1.0041  0.7988 -0.2573
11831TIP3    H235451   2.181   5.679   5.328 -0.6973  0.7264 -0.9606
11832TIP3   OH235452   5.436   6.520   6.059 -0.3864 -0.2153 -0.0450
11832TIP3    H135453   5.466   6.476   6.139 -2.8317  0.6990  1.4419
11832TIP3    H235454   5.395   6.450   6.008  0.4466 -0.6509 -0.1270
11833TIP3   OH235455   6.764   4.825   6.045  0.1220  0.0775  0.5772
11833TIP3    H135456   6.775   4.919   6.035 -0.4026  0.1220  0.4342
11833TIP3    H235457   6.848   4.788   6.017  0.3937  0.5109  0.8271
11834TIP3   OH235458   0.849   5.166   6.305  0.1914 -0.0494 -0.4800
11834TIP3    H135459   0.768   5.179   6.354  0.7110  1.6425 -0.0536
11834TIP3    H235460   0.846   5.230   6.234  1.3723  0.3727 -0.1594
11835TIP3   OH235461   7.517   6.748   6.160  0.6601  0.4863  0.4381
11835TIP3    H135462   7.566   6.689   6.103 -1.8522  1.4320 -2.8064
11835TIP3    H235463   7.555   6.834   6.146  0.3994  0.6379  0.6444
11836TIP3   OH235464   0.293   6.636   5.927 -0.3181 -0.6914 -0.0023
11836TIP3    H135465   0.356   6.576   5.888 -0.6420 -0.4008 -0.9959
11836TIP3    H235466   0.213   6.584   5.936  0.1072 -1.1153  1.4354
11837TIP3   OH235467   8.465   7.432   4.551  0.5485  0.5443 -0.6866
11837TIP3    H135468   8.484   7.339   4.562 -1.1673  0.3378  0.6780
11837TIP3    H235469   8.380   7.434   4.506 -1.2633  1.3834  2.5967
11838TIP3   OH235470   5.421   3.350   6.779  0.4002  0.0841  0.7595
11838TIP3    H135471   5.516   3.350   6.785  0.5676  0.3457 -1.3802
11838TIP3    H235472   5.393   3.271   6.824  1.6636 -0.2597  0.9404
11839TIP3   OH235473   7.610   5.682   4.009 -0.0611 -0.3030  0.5320
11839TIP3    H135474   7.609   5.605   4.066  1.3173  0.1342  1.1780
11839TIP3    H235475   7.681   5.664   3.946  0.3684  0.5057  0.7830
11840TIP3   OH235476   0.608   4.154   4.654  0.2341  0.2306  0.4258
11840TIP3    H135477   0.557   4.142   4.734 -0.9126 -0.1516 -0.3437
11840TIP3    H235478   0.545   4.142   4.583  1.1621  0.8774 -0.5384
11841TIP3   OH235479   7.491   6.701   6.460 -0.4167  0.0113 -0.1607
11841TIP3    H135480   7.517   6.785   6.422  1.9102 -0.6144 -0.0768
11841TIP3    H235481   7.458   6.650   6.386  3.0112 -0.7915 -1.2462
11842TIP3   OH235482   8.253   5.878   5.482  0.4314 -0.4862 -0.0745
11842TIP3    H135483   8.164   5.911   5.465  1.0248  1.6776  0.8318
11842TIP3    H235484   8.267   5.894   5.575  1.4619 -1.6257 -0.0249
11843TIP3   OH235485   2.012   6.072   6.727  0.2647 -0.3099 -0.0202
11843TIP3    H135486   2.045   6.096   6.640 -1.6951  0.3006 -0.6108
11843TIP3    H235487   2.068   5.999   6.755  3.3539  1.9455 -0.1555
11844TIP3   OH235488   8.537   4.667   4.318 -0.4466 -0.0059 -0.7232
11844TIP3    H135489   8.489   4.585   4.330 -1.1504  0.4749 -0.2028
11844TIP3    H235490   8.469   4.733   4.310  0.1420  0.7767  0.6845
11845TIP3   OH235491   1.226   5.414   3.095  0.1030  0.6506 -0.2361
11845TIP3    H135492   1.206   5.500   3.133  0.0949 -0.6745  2.9115
11845TIP3    H235493   1.295   5.379   3.152  1.9892 -0.3559 -3.0709
11846TIP3   OH235494   7.321   5.201   4.264 -0.4634 -0.6156  0.7105
11846TIP3    H135495   7.309   5.296   4.265 -0.0488 -0.5309 -0.8454
11846TIP3    H235496   7.240   5.167   4.227 -1.0781 -0.9680  2.3321
11847TIP3   OH235497   7.859   6.362   5.142 -0.0316 -0.2343  0.1266
11847TIP3    H135498   7.951   6.360   5.116 -0.1943  1.7905 -0.6692
11847TIP3    H235499   7.853   6.434   5.204 -1.7007  1.8211 -2.3478
11848TIP3   OH235500   1.374   6.646   5.206 -0.1587  0.5197  0.0118
11848TIP3    H135501   1.447   6.595   5.241 -1.0701 -0.1056  1.0159
11848TIP3    H235502   1.301   6.585   5.202 -0.6212  1.1312 -1.0456
11849TIP3   OH235503   7.913   6.820   4.938 -0.7552 -0.0339  0.4824
11849TIP3    H135504   7.832   6.869   4.947 -0.4671  0.3696  0.9330
11849TIP3    H235505   7.965   6.845   5.015 -0.9071 -1.6407  1.1355
11850TIP3   OH235506   8.155   5.559   4.752 -0.1753  0.0227  0.4013
11850TIP3    H135507   8.229   5.586   4.806  0.5421 -0.4902 -0.3019
11850TIP3    H235508   8.159   5.616   4.675  0.0555 -0.6381 -0.0808
11851TIP3   OH235509   7.920   6.834   3.857 -0.1901  0.4851  0.0907
11851TIP3    H135510   7.905   6.925   3.830  0.6288  1.2082  2.0012
11851TIP3    H235511   7.878   6.827   3.943  1.1048 -0.4995  0.6543
11852TIP3   OH235512   7.999   6.338   3.978  0.2939 -0.0052 -0.2130
11852TIP3    H135513   8.035   6.365   3.893 -0.6168  0.0376 -0.5876
11852TIP3    H235514   7.913   6.379   3.983  0.8473  1.0120  1.2958
11853TIP3   OH235515   7.012   3.300   5.817  0.2944  0.3038 -0.4279
11853TIP3    H135516   7.066   3.253   5.880  0.9446  0.7773 -0.6242
11853TIP3    H235517   6.943   3.340   5.869  0.0334 -0.4541 -0.1978
11854TIP3   OH235518   7.130   4.422   5.427 -0.3536 -0.2514  0.0105
11854TIP3    H135519   7.223   4.434   5.446 -0.3815 -0.3147  0.1874
11854TIP3    H235520   7.085   4.469   5.497 -0.4587 -0.5643  0.1514
11855TIP3   OH235521   0.391   7.863   6.669  0.1160  0.2231 -0.2281
11855TIP3    H135522   0.437   7.799   6.615 -2.7135 -0.1471 -2.3031
11855TIP3    H235523   0.366   7.814   6.748 -2.5612 -1.5157 -2.0551
11856TIP3   OH235524   6.727   6.696   4.131 -0.0020  0.0456  0.1041
11856TIP3    H135525   6.721   6.601   4.142  0.3547 -0.0462 -0.4888
11856TIP3    H235526   6.772   6.708   4.047 -2.7505  0.7236 -1.3334
11857TIP3   OH235527   0.388   6.456   5.040 -0.1919  0.2138  0.3010
11857TIP3    H135528   0.357   6.543   5.016 -2.2587 -0.2380  1.2183
11857TIP3    H235529   0.434   6.468   5.123  2.4922  0.9413 -1.2277
11858TIP3   OH235530   0.538   4.925   5.745 -0.4337 -0.0545  0.6483
11858TIP3    H135531   0.562   4.876   5.823  0.5400  1.2279  1.1780
11858TIP3    H235532   0.622   4.947   5.704 -0.8566  1.0421  0.3584
11859TIP3   OH235533   4.146   3.209   0.458 -0.3634 -0.5953 -0.3141
11859TIP3    H135534   4.181   3.222   0.546 -2.7540 -0.5070  0.6397
11859TIP3    H235535   4.214   3.158   0.414  0.3342 -1.7135  1.9518
11860TIP3   OH235536   7.793   6.081   4.082 -0.2910  0.0129 -0.2093
11860TIP3    H135537   7.728   6.056   4.016 -0.5761 -0.4305  0.2349
11860TIP3    H235538   7.865   6.020   4.070 -1.5016 -1.8706  1.6790
11861TIP3   OH235539   1.030   4.723   5.328  0.0859 -0.0909 -0.6402
11861TIP3    H135540   1.100   4.703   5.266  0.3348 -1.9333  0.1916
11861TIP3    H235541   1.074   4.768   5.400  0.2088 -0.0848 -0.7188
11862TIP3   OH235542   8.119   4.884   3.829 -0.5909  0.2051 -0.4941
11862TIP3    H135543   8.076   4.844   3.754 -0.7919  2.5449 -1.6713
11862TIP3    H235544   8.139   4.973   3.801  0.2187  0.8239  1.8910
11863TIP3   OH235545   7.012   5.929   3.149  0.6563  0.4395  0.7739
11863TIP3    H135546   7.077   5.873   3.106 -0.5487  0.0293 -0.5360
11863TIP3    H235547   6.971   5.872   3.214 -1.9028 -0.8029 -1.8609
11864TIP3   OH235548   7.124   6.578   4.160 -0.1654 -0.9411 -0.0348
11864TIP3    H135549   7.140   6.560   4.068 -1.2868 -2.8219  0.1094
11864TIP3    H235550   7.152   6.669   4.172  2.0332 -1.3540 -1.7044
11865TIP3   OH235551   7.361   6.411   6.535  0.0599  0.2116  0.1005
11865TIP3    H135552   7.321   6.488   6.496  0.8267  0.4911 -0.1284
11865TIP3    H235553   7.309   6.338   6.501  0.7874  0.4394 -1.5378
11866TIP3   OH235554   0.440   7.667   4.783  0.2430 -0.1308 -0.1636
11866TIP3    H135555   0.360   7.644   4.736 -1.7117  2.8692  1.5543
11866TIP3    H235556   0.483   7.731   4.726  0.3259 -0.0886 -0.0522
11867TIP3   OH235557   8.189   7.379   3.943  0.0818  0.0707  1.0134
11867TIP3    H135558   8.181   7.287   3.919  0.3025  0.2785  0.1399
11867TIP3    H235559   8.164   7.382   4.036  1.0698 -1.0171  1.3252
11868TIP3   OH235560   2.375   7.444   0.088  0.7650 -0.1264  0.4549
11868TIP3    H135561   2.375   7.352   0.060  0.2722  0.0731 -0.2115
11868TIP3    H235562   2.354   7.493   0.009  0.2451  0.5093  0.9845
11869TIP3   OH235563   0.724   6.194   5.653 -0.4347  0.3407  0.2563
11869TIP3    H135564   0.764   6.108   5.641  0.3348  0.7302 -0.0700
11869TIP3    H235565   0.675   6.210   5.573  0.1249  0.5669 -0.0441
11870TIP3   OH235566   0.342   5.914   5.571  0.0620  0.2963 -0.1929
11870TIP3    H135567   0.276   5.874   5.513 -1.0204 -1.3597  2.0971
11870TIP3    H235568   0.298   5.991   5.607  0.4055  0.8099 -0.8738
11871TIP3   OH235569   6.881   6.649   3.882 -0.3546  0.5716 -0.7796
11871TIP3    H135570   6.875   6.590   3.808 -0.8963  1.0462 -1.1217
11871TIP3    H235571   6.907   6.733   3.844 -1.6765  1.0925 -0.5955
11872TIP3   OH235572   3.185   5.267   0.515  0.1100 -0.0353 -0.2737
11872TIP3    H135573   3.185   5.362   0.517 -2.4846 -0.0273  0.0103
11872TIP3    H235574   3.107   5.243   0.465  0.3082 -2.0161  0.3108
11873TIP3   OH235575   0.007   4.488   5.991 -0.1832  0.8614  0.2206
11873TIP3    H135576   0.025   4.431   6.066 -3.0837 -0.9544 -0.4208
11873TIP3    H235577   0.084   4.477   5.935  0.3585 -0.6267  1.2077
11874TIP3   OH235578   0.139   6.016   4.613  0.4294  0.1069  0.0009
11874TIP3    H135579   0.189   5.975   4.684  0.8130  1.3951  0.4873
11874TIP3    H235580   0.205   6.044   4.550  0.1953  0.1854 -0.2096
11875TIP3   OH235581   8.478   4.463   3.976 -0.4649  0.0067 -0.2080
11875TIP3    H135582   8.480   4.443   3.882  0.5203  0.0825 -0.2064
11875TIP3    H235583   8.418   4.537   3.984  1.3505  1.6086 -1.0879
11876TIP3   OH235584   1.267   7.534   6.113  0.4316 -0.7054 -0.2800
11876TIP3    H135585   1.201   7.545   6.043 -1.1951  2.2636  1.5779
11876TIP3    H235586   1.216   7.537   6.194  2.7435  0.7302  1.1779
11877TIP3   OH235587   7.909   3.830   4.793  0.0455  0.1959  0.0679
11877TIP3    H135588   7.831   3.849   4.742  1.0468  0.8692 -1.2366
11877TIP3    H235589   7.978   3.883   4.753  1.1920 -0.4508  1.1389
11878TIP3   OH235590   7.773   5.958   4.715  0.3245  0.3211  0.2382
11878TIP3    H135591   7.814   5.872   4.724 -0.4117  0.0857  1.5905
11878TIP3    H235592   7.815   5.998   4.639  1.8685 -0.5599  0.6191
11879TIP3   OH235593   3.279   2.395   0.184  0.2173  0.1605 -0.0226
11879TIP3    H135594   3.304   2.469   0.238  0.9137  0.3463 -0.5951
11879TIP3    H235595   3.348   2.388   0.119 -1.0632  0.4977 -1.4421
11880TIP3   OH235596   7.650   6.961   4.960 -0.1926  0.3322  0.3318
11880TIP3    H135597   7.597   6.981   4.883 -1.4852  0.2181  1.1741
11880TIP3    H235598   7.587   6.928   5.025  1.2948 -2.5521  0.3767
11881TIP3   OH235599   7.911   7.713   3.634 -0.3935  0.2880  0.0152
11881TIP3    H135600   7.910   7.716   3.538 -0.4353  1.7741  0.0510
11881TIP3    H235601   7.929   7.621   3.654  1.0414  0.2141 -1.4250
11882TIP3   OH235602   6.387   7.298   3.288  0.4835 -0.1222  0.1919
11882TIP3    H135603   6.375   7.344   3.205  0.6142 -0.9801 -0.3088
11882TIP3    H235604   6.364   7.363   3.355 -1.5262  0.0008 -0.5701
11883TIP3   OH235605   7.103   7.636   6.223  0.0376 -0.5111 -0.0596
11883TIP3    H135606   7.156   7.715   6.221 -0.6618 -0.0615 -1.9297
11883TIP3    H235607   7.167   7.564   6.216  0.4686  0.0053 -1.8047
11884TIP3   OH235608   5.667   5.134   4.099  0.3139 -0.0876 -0.4926
11884TIP3    H135609   5.695   5.053   4.056  0.7369  0.4040 -1.1586
11884TIP3    H235610   5.731   5.199   4.070  1.3165 -0.0046  1.8326
11885TIP3   OH235611   5.658   2.110   0.779  0.4973  0.2203 -0.1169
11885TIP3    H135612   5.578   2.060   0.794  1.2413 -0.4664  1.7206
11885TIP3    H235613   5.628   2.199   0.761 -0.6546  0.1556  1.4005
11886TIP3   OH235614   6.370   5.137   4.619  0.1603  0.2088 -0.4375
11886TIP3    H135615   6.336   5.219   4.654 -0.5771 -0.1805 -0.2433
11886TIP3    H235616   6.454   5.125   4.664 -1.0140 -0.5427  1.5911
11887TIP3   OH235617   6.548   4.500   6.082  0.1651 -0.3493  0.2722
11887TIP3    H135618   6.583   4.576   6.128  0.8446 -0.6480  0.2640
11887TIP3    H235619   6.454   4.503   6.097  0.2422  0.2591  0.6221
11888TIP3   OH235620   7.140   6.908   5.990 -0.1927 -0.1630  0.1478
11888TIP3    H135621   7.225   6.943   6.016 -0.4876  0.2192  0.6005
11888TIP3    H235622   7.135   6.925   5.896  0.4416 -0.6294  0.0277
11889TIP3   OH235623   0.794   4.992   4.807 -0.4402  0.6774 -0.2120
11889TIP3    H135624   0.761   5.025   4.891  0.5310  0.9324  0.0808
11889TIP3    H235625   0.816   4.901   4.825 -0.2547  0.7254 -0.1898
11890TIP3   OH235626   8.430   6.440   6.260 -0.3261  0.1510 -0.7160
11890TIP3    H135627   8.432   6.358   6.309 -0.2115 -0.4007 -1.6521
11890TIP3    H235628   8.400   6.505   6.325  2.3941 -0.0567  0.8206
11891TIP3   OH235629   0.929   7.673   0.354 -0.8700 -0.4601  0.1388
11891TIP3    H135630   0.943   7.608   0.285 -0.0020  0.5336 -0.6561
11891TIP3    H235631   0.856   7.727   0.322 -0.1870  0.2654 -0.2122
11892TIP3   OH235632   0.015   7.075   4.259 -0.2618  0.0108 -0.3239
11892TIP3    H135633   0.047   7.071   4.349 -1.1390 -1.3501 -0.0569
11892TIP3    H235634  -0.046   7.149   4.259  1.0280  1.0888 -0.2388
11893TIP3   OH235635   0.848   4.057   6.336  0.1392 -0.8378  0.3526
11893TIP3    H135636   0.943   4.049   6.350  0.4201 -0.4319 -1.2487
11893TIP3    H235637   0.840   4.107   6.255 -1.4600  0.5166  1.3062
11894TIP3   OH235638   8.362   4.645   5.186  0.4884  0.2749 -0.1012
11894TIP3    H135639   8.402   4.558   5.182 -0.7863 -0.2834 -0.9057
11894TIP3    H235640   8.343   4.666   5.095 -3.0491 -0.4219  0.4006
11895TIP3   OH235641   0.823   6.561   5.312  0.7833  0.3624  0.5817
11895TIP3    H135642   0.824   6.657   5.305  2.2055  0.3078 -0.0737
11895TIP3    H235643   0.899   6.540   5.365  2.2342 -0.5919 -1.8192
11896TIP3   OH235644   2.143   4.861   6.077 -0.5116  0.1107  0.1932
11896TIP3    H135645   2.104   4.818   6.152  3.0979 -1.1797  1.4473
11896TIP3    H235646   2.217   4.911   6.113  0.4186  0.6434 -2.2971
11897TIP3   OH235647   6.510   6.639   5.568  0.1144 -0.1118 -0.0702
11897TIP3    H135648   6.571   6.619   5.497 -1.2855 -0.9025 -1.0819
11897TIP3    H235649   6.527   6.572   5.634  2.6543  1.6913  1.1544
11898TIP3   OH235650   6.526   4.378   6.596 -0.1211  0.0619 -0.3980
11898TIP3    H135651   6.468   4.417   6.530 -0.0291 -0.1436 -0.5994
11898TIP3    H235652   6.551   4.451   6.652 -1.3362 -0.0023  0.2587
11899TIP3   OH235653   1.349   5.606   5.659 -0.1533 -0.0374  0.8026
11899TIP3    H135654   1.349   5.671   5.729 -0.5375  0.0288  0.7405
11899TIP3    H235655   1.330   5.523   5.703 -0.7500  0.0574  0.7294
11900TIP3   OH235656   6.739   4.689   6.752 -0.9763  0.8506 -0.7105
11900TIP3    H135657   6.657   4.717   6.712 -1.8044  0.2208  0.5231
11900TIP3    H235658   6.799   4.679   6.678 -2.0668  1.0987 -1.6478
11901TIP3   OH235659   0.430   6.907   5.270  0.1228  0.6055  0.0963
11901TIP3    H135660   0.450   6.996   5.299 -0.9108  0.5372  1.0192
11901TIP3    H235661   0.485   6.851   5.324  0.4396  0.6413 -0.1791
11902TIP3   OH235662   7.060   5.942   6.446 -0.6351  0.3014 -0.4308
11902TIP3    H135663   7.035   5.959   6.355 -1.5561  1.8691  0.0849
11902TIP3    H235664   7.155   5.952   6.447 -0.6748  0.7914 -1.1290
11903TIP3   OH235665   8.035   3.804   5.959 -0.3189  0.3011 -0.0501
11903TIP3    H135666   7.981   3.828   6.034  0.2740  0.1172  0.4429
11903TIP3    H235667   8.009   3.865   5.890 -0.7480  0.5807  0.3552
11904TIP3   OH235668   4.503   0.741   0.207 -0.1332 -0.3627  0.0421
11904TIP3    H135669   4.508   0.647   0.225  0.5061 -0.3540 -0.0982
11904TIP3    H235670   4.587   0.776   0.238 -0.5713  0.2420  0.5652
11905TIP3   OH235671   7.157   6.073   4.269 -0.2743  0.0569  0.1802
11905TIP3    H135672   7.096   6.145   4.285 -0.3241  0.2462 -0.8603
11905TIP3    H235673   7.103   5.994   4.273 -0.5861  0.2249 -0.7608
11906TIP3   OH235674   6.531   6.189   4.394 -0.1638  0.6371  0.4470
11906TIP3    H135675   6.497   6.275   4.418 -1.1481  0.4371 -0.1981
11906TIP3    H235676   6.573   6.203   4.309 -2.1703  0.0719 -0.6799
11907TIP3   OH235677   5.359   5.344   3.196  0.2074  0.0611 -1.0504
11907TIP3    H135678   5.372   5.347   3.290 -0.1647 -1.0984 -0.9497
11907TIP3    H235679   5.419   5.275   3.166  0.7522  0.8299 -1.7299
11908TIP3   OH235680   7.412   7.437   6.413  0.8715 -0.3447 -0.1712
11908TIP3    H135681   7.406   7.522   6.456 -1.1781 -0.7836  0.4673
11908TIP3    H235682   7.334   7.432   6.357  0.7097 -1.9754  0.1582
11909TIP3   OH235683   6.034   6.414   5.151  0.2779 -0.4668 -0.3855
11909TIP3    H135684   6.044   6.430   5.244  1.4557  1.2680 -0.7925
11909TIP3    H235685   5.962   6.471   5.124  0.4958 -0.3406 -0.6988
11910TIP3   OH235686   0.434   5.585   5.832 -0.0582 -0.1966 -0.9709
11910TIP3    H135687   0.415   5.538   5.913  0.7479  0.7053 -0.2351
11910TIP3    H235688   0.351   5.625   5.807  0.1311  1.2544  0.5852
11911TIP3   OH235689   0.523   4.932   3.233  0.2414 -0.4303  0.3530
11911TIP3    H135690   0.525   4.854   3.288  1.5610 -0.2494  0.5713
11911TIP3    H235691   0.462   4.991   3.278 -1.2628 -1.5690 -0.1590
11912TIP3   OH235692   7.156   3.549   5.043  1.1248 -0.3050 -0.2912
11912TIP3    H135693   7.249   3.532   5.027  0.1812 -4.6432 -1.8077
11912TIP3    H235694   7.114   3.532   4.958 -1.1286  1.1497  0.4999
11913TIP3   OH235695   5.127   0.534  -0.016  0.3434 -0.4962  0.2771
11913TIP3    H135696   5.132   0.629  -0.008 -0.0308 -0.1954 -2.6759
11913TIP3    H235697   5.190   0.501   0.048  3.1079  1.8613 -1.1247
11914TIP3   OH235698   3.432   7.895  -0.007 -0.1756  0.1109 -0.0134
11914TIP3    H135699   3.526   7.910   0.002 -0.0471 -1.3085  1.2434
11914TIP3    H235700   3.393   7.981   0.010  0.7670  0.1592  2.1520
11915TIP3   OH235701   8.164   5.063   4.973  0.1739  0.5033 -0.0446
11915TIP3    H135702   8.095   5.128   4.987  0.0508  0.6425 -1.2228
11915TIP3    H235703   8.124   4.979   4.996  0.0782  0.7582  0.7006
11916TIP3   OH235704   5.991   2.982   4.852 -0.4653 -0.1979 -0.0943
11916TIP3    H135705   5.952   2.900   4.884  1.9934 -0.6852  1.8407
11916TIP3    H235706   5.947   3.050   4.902 -0.5152 -0.5520  0.3498
11917TIP3   OH235707   7.281   7.858   2.451 -0.7531  0.1887 -0.1254
11917TIP3    H135708   7.272   7.943   2.407 -0.4045  0.1407 -0.2929
11917TIP3    H235709   7.248   7.873   2.539 -0.1121  0.6681  0.0403
11918TIP3   OH235710   0.948   4.320   5.000  0.4724 -0.2422  0.1900
11918TIP3    H135711   0.978   4.284   5.083  0.5320  2.2313  1.3013
11918TIP3    H235712   0.985   4.262   4.933  1.3246 -1.6355  1.8392
11919TIP3   OH235713   0.035   7.037   5.255 -0.0423  0.1029  0.8309
11919TIP3    H135714  -0.052   7.025   5.292  0.5194 -0.1881  2.1077
11919TIP3    H235715   0.089   6.970   5.298  1.1140  1.1934  1.1265
11920TIP3   OH235716   1.334   4.604   5.210 -0.0794  0.2252  0.2662
11920TIP3    H135717   1.371   4.540   5.271 -3.0027 -1.8168 -0.0058
11920TIP3    H235718   1.295   4.552   5.140 -2.1146  2.2862 -0.2274
11921TIP3   OH235719   7.218   6.345   6.133 -0.3137  0.2106  0.6399
11921TIP3    H135720   7.193   6.437   6.138 -0.9302  0.1846 -1.3593
11921TIP3    H235721   7.280   6.342   6.060 -0.2822 -0.9520  0.7087
11922TIP3   OH235722   6.118   3.279   5.868 -0.3507  0.1707  0.9219
11922TIP3    H135723   6.163   3.292   5.785  0.8626 -3.4352  0.9233
11922TIP3    H235724   6.166   3.333   5.930  0.2000  1.0385 -0.2435
11923TIP3   OH235725   0.122   7.563   4.045 -0.1989 -0.0492 -0.5046
11923TIP3    H135726   0.116   7.583   4.138  0.3093 -1.1929 -0.2140
11923TIP3    H235727   0.095   7.472   4.038  0.3936 -0.1645 -1.3928
11924TIP3   OH235728   7.743   6.952   6.522 -0.0653  0.1073  0.0984
11924TIP3    H135729   7.795   6.922   6.447 -0.3622  0.5282 -0.2796
11924TIP3    H235730   7.748   6.880   6.585  1.2447  0.2787  0.2070
11925TIP3   OH235731   0.025   5.956   5.536 -0.4348  0.0836  0.4523
11925TIP3    H135732  -0.067   5.941   5.515 -1.0047  1.1396  2.1262
11925TIP3    H235733   0.045   6.039   5.492 -0.7693  0.7325  1.5196
11926TIP3   OH235734   8.400   6.136   5.247  0.2734 -0.2243 -0.3464
11926TIP3    H135735   8.442   6.159   5.330 -1.0233 -1.1799  0.5932
11926TIP3    H235736   8.473   6.112   5.189  1.1834  0.3389  0.5494
11927TIP3   OH235737   7.348   2.923   5.102 -0.1369 -0.3746  0.2335
11927TIP3    H135738   7.337   2.956   5.191 -0.7811 -2.1555  0.8421
11927TIP3    H235739   7.262   2.930   5.062  0.1466  0.4048 -0.2572
11928TIP3   OH235740   3.788   0.091   0.508  0.5892  0.6591  0.0727
11928TIP3    H135741   3.699   0.081   0.473  0.8681 -2.2777  0.0450
11928TIP3    H235742   3.807   0.184   0.500 -2.1185  1.1763 -0.8413
11929TIP3   OH235743   7.744   4.219   5.741  0.7639  0.2158 -0.4161
11929TIP3    H135744   7.776   4.222   5.651  0.3401  3.7604 -0.5312
11929TIP3    H235745   7.820   4.244   5.794  0.9073 -1.4758  0.2046
11930TIP3   OH235746   7.719   5.080   5.864  0.5052  0.1819  0.0334
11930TIP3    H135747   7.715   5.131   5.783  0.8953 -0.5671 -0.4573
11930TIP3    H235748   7.684   4.994   5.841  0.1718  0.1117  0.7792
11931TIP3   OH235749   8.225   1.633   5.389  0.0064  0.5485 -0.4174
11931TIP3    H135750   8.139   1.590   5.399  1.0767 -1.8060 -0.9282
11931TIP3    H235751   8.240   1.634   5.295  0.1130  1.8711 -0.3912
11932TIP3   OH235752   1.290   5.801   4.410 -0.1545 -0.4233 -0.0598
11932TIP3    H135753   1.368   5.787   4.463  0.0397  1.4781  0.2230
11932TIP3    H235754   1.313   5.769   4.323 -0.2115 -2.8729  0.7912
11933TIP3   OH235755   6.700   3.755   5.416 -0.1054 -0.1257  0.3910
11933TIP3    H135756   6.638   3.739   5.345  0.5116 -1.3353  0.1216
11933TIP3    H235757   6.648   3.800   5.483 -1.0149 -0.1968 -0.2547
11934TIP3   OH235758   0.296   4.015   6.285 -0.8607  0.0269  0.4564
11934TIP3    H135759   0.371   3.989   6.230 -0.1310 -0.5445  1.7095
11934TIP3    H235760   0.237   4.060   6.224  0.8458  1.1841 -0.3878
11935TIP3   OH235761   8.055   5.374   6.395  0.7144  0.2750 -0.3081
11935TIP3    H135762   8.091   5.417   6.318 -1.0673  0.4699 -1.0490
11935TIP3    H235763   8.005   5.442   6.440 -0.5931 -0.5467 -0.4990
11936TIP3   OH235764   7.394   6.170   3.460  0.2142 -0.3979 -0.2823
11936TIP3    H135765   7.351   6.114   3.525 -1.2292  1.0652  0.0451
11936TIP3    H235766   7.361   6.138   3.376 -0.5737 -0.0905 -0.0977
11937TIP3   OH235767   0.223   5.095   3.691  0.7870 -0.2141  0.0401
11937TIP3    H135768   0.202   5.002   3.698 -0.8590  0.2145  1.1437
11937TIP3    H235769   0.307   5.105   3.736  0.1654 -0.8999  1.3749
11938TIP3   OH235770   5.183   0.785   0.487 -0.0669  0.0301 -0.1051
11938TIP3    H135771   5.123   0.839   0.540 -1.2706 -2.0951  0.7360
11938TIP3    H235772   5.240   0.742   0.550  1.3910  0.8467 -0.8267
11939TIP3   OH235773   3.394   3.562   0.333 -0.3945 -0.0743 -0.3203
11939TIP3    H135774   3.455   3.534   0.402  0.5129  0.7525 -0.7859
11939TIP3    H235775   3.335   3.487   0.322  0.4462 -0.8296  0.2359
11940TIP3   OH235776   6.683   6.231   4.166 -0.1802  0.1537 -0.5676
11940TIP3    H135777   6.732   6.312   4.154 -1.5180  1.0526 -0.1448
11940TIP3    H235778   6.718   6.171   4.100  0.5925  1.1764 -1.1053
11941TIP3   OH235779   2.165   7.465   5.890  0.2893 -0.4023  0.4480
11941TIP3    H135780   2.099   7.422   5.836 -0.8522  0.5389  1.0918
11941TIP3    H235781   2.237   7.401   5.894 -0.4379 -1.2983 -0.5135
11942TIP3   OH235782   0.471   7.126   4.304 -0.3375 -0.2641 -0.1255
11942TIP3    H135783   0.494   7.166   4.388 -2.5531 -0.1420  0.4383
11942TIP3    H235784   0.470   7.032   4.322 -0.7546 -0.2416 -0.0418
11943TIP3   OH235785   6.815  -0.003   3.912  0.3225  0.3083  0.0997
11943TIP3    H135786   6.869   0.073   3.891  0.2239  0.2721 -0.2918
11943TIP3    H235787   6.733   0.011   3.864  0.9490 -0.8836 -1.3860
11944TIP3   OH235788   2.624   4.998   6.583  0.0984 -0.1814  0.4583
11944TIP3    H135789   2.679   4.939   6.530  1.7860  0.0596  1.8955
11944TIP3    H235790   2.670   5.082   6.580 -2.6259  1.2974 -2.0997
11945TIP3   OH235791   6.524   3.296   0.388  0.2900  0.4795 -0.1531
11945TIP3    H135792   6.550   3.284   0.297 -0.3431  0.9584 -0.3938
11945TIP3    H235793   6.607   3.309   0.435  0.6862 -0.6321 -0.5230
11946TIP3   OH235794   5.921   6.231   4.355  0.7296 -0.1547 -0.7712
11946TIP3    H135795   5.919   6.321   4.321  2.5429  0.2601  0.1062
11946TIP3    H235796   5.998   6.192   4.314  0.8192 -0.8124  0.0173
11947TIP3   OH235797   2.070   5.234   5.662 -0.1466 -0.1621  0.3089
11947TIP3    H135798   2.091   5.266   5.750  0.9576 -2.0367  0.7542
11947TIP3    H235799   2.155   5.210   5.625 -0.6992 -0.1368 -0.9771
11948TIP3   OH235800   2.037   4.402   4.339 -0.5429  0.0803  0.4213
11948TIP3    H135801   1.983   4.325   4.356 -1.9092  0.4962 -1.8115
11948TIP3    H235802   1.995   4.445   4.264  0.5746  2.6247  1.1901
11949TIP3   OH235803   1.083   3.924   5.687 -0.2817  0.3380 -0.0010
11949TIP3    H135804   1.087   4.003   5.741  1.6824  1.3761 -1.6051
11949TIP3    H235805   1.132   3.946   5.608  1.6692 -3.0181  0.1860
11950TIP3   OH235806   8.342   5.922   5.742 -0.3286 -0.8054  0.5616
11950TIP3    H135807   8.370   6.006   5.778 -2.2955  0.3419 -0.4819
11950TIP3    H235808   8.284   5.886   5.809  0.1392 -1.1116  0.8032
11951TIP3   OH235809   2.893   5.275   5.158 -0.0567 -0.4440 -0.2661
11951TIP3    H135810   2.915   5.183   5.170 -1.7451 -0.9423 -0.7536
11951TIP3    H235811   2.797   5.278   5.166 -0.0694  1.1834 -0.7734
11952TIP3   OH235812   0.643   3.644   6.477 -0.4014  0.0669  0.0730
11952TIP3    H135813   0.655   3.664   6.569 -0.5549  0.9492 -0.0926
11952TIP3    H235814   0.718   3.588   6.454 -0.2200  0.0671  0.6591
11953TIP3   OH235815   8.209   2.677   2.740  0.3449  0.2032 -0.0712
11953TIP3    H135816   8.138   2.662   2.678 -0.0973 -1.3735  0.7875
11953TIP3    H235817   8.193   2.764   2.775  0.0024  0.6745 -1.3876
11954TIP3   OH235818   3.969   6.805   0.065 -0.2828  0.5138  0.4220
11954TIP3    H135819   4.063   6.817   0.077  0.3002  0.0155 -3.0785
11954TIP3    H235820   3.949   6.724   0.112  0.9895  0.7532  1.3943
11955TIP3   OH235821   0.007   6.069   6.151  0.0551 -0.2476 -0.1933
11955TIP3    H135822   0.064   6.014   6.204  0.2650 -2.4108 -2.5628
11955TIP3    H235823   0.066   6.119   6.095 -0.2720 -0.0074 -0.3324
11956TIP3   OH235824   2.266   5.573   5.996 -0.5203  0.4962 -0.0708
11956TIP3    H135825   2.337   5.598   5.937  1.0533 -1.1660  1.0367
11956TIP3    H235826   2.253   5.649   6.053  0.1282  0.9407 -0.5162
11957TIP3   OH235827   8.085   3.667   0.193 -0.1262 -0.2383 -0.3827
11957TIP3    H135828   8.024   3.610   0.146  0.3195  0.7551 -2.1669
11957TIP3    H235829   8.149   3.694   0.128  1.0405  0.4037  1.0015
11958TIP3   OH235830   7.882   6.638   6.437 -0.8258  0.1113  0.0916
11958TIP3    H135831   7.970   6.675   6.434 -0.3038 -1.0965  0.0168
11958TIP3    H235832   7.824   6.712   6.420  0.1279  1.0744  0.9165
11959TIP3   OH235833   0.048   7.689   6.928 -0.1869 -0.3772  0.2241
11959TIP3    H135834  -0.041   7.690   6.964  0.3743 -0.1624  1.6383
11959TIP3    H235835   0.064   7.780   6.902 -0.7029 -0.5907 -0.8570
11960TIP3   OH235836   2.585   5.573   4.167 -0.0730  0.0891 -0.1999
11960TIP3    H135837   2.671   5.543   4.138  1.3103  1.2207  2.6321
11960TIP3    H235838   2.601   5.657   4.209 -2.4507 -0.0568  1.0999
11961TIP3   OH235839   1.920   6.386   6.024 -1.0206  0.1776  0.0912
11961TIP3    H135840   1.866   6.457   6.059 -0.4212  0.8577 -0.3491
11961TIP3    H235841   2.001   6.428   5.998 -0.6695 -0.6707 -0.2168
11962TIP3   OH235842   2.484   4.374   6.667 -0.0432  0.2149 -0.3981
11962TIP3    H135843   2.509   4.316   6.596 -0.8857  0.0289 -0.5482
11962TIP3    H235844   2.548   4.357   6.736 -0.2862 -0.8918 -0.4418
11963TIP3   OH235845   8.026   1.795   0.931  0.0202 -0.1467 -0.5787
11963TIP3    H135846   8.068   1.808   0.846  0.9117  0.0309 -0.1184
11963TIP3    H235847   8.077   1.850   0.991  0.5037 -1.6483  0.4028
11964TIP3   OH235848   7.553   6.424   6.906 -0.1724 -0.1175  0.2387
11964TIP3    H135849   7.603   6.488   6.956  1.6519 -0.0902 -1.5162
11964TIP3    H235850   7.464   6.429   6.941  0.5630  1.4336  1.9472
11965TIP3   OH235851   4.059   7.807   0.071  0.1525 -0.5171  0.3816
11965TIP3    H135852   3.995   7.864   0.028 -0.6051  0.0341  2.2130
11965TIP3    H235853   4.034   7.719   0.043 -0.2616 -0.1647 -0.3927
11966TIP3   OH235854   1.316   6.935   6.434  0.3147 -0.3989 -0.6340
11966TIP3    H135855   1.341   7.022   6.465  0.0873 -0.6783  0.3355
11966TIP3    H235856   1.379   6.916   6.364  2.0311 -0.5277  0.8930
11967TIP3   OH235857   3.102   5.461   5.960  0.4482  0.0277 -0.1976
11967TIP3    H135858   3.054   5.541   5.940  0.6805  0.0226 -0.7910
11967TIP3    H235859   3.043   5.391   5.931  0.6337  0.0108 -0.5359
11968TIP3   OH235860   2.700   7.799   5.649 -0.1358 -0.3132 -0.5768
11968TIP3    H135861   2.795   7.797   5.663  0.0537 -0.4998 -1.7727
11968TIP3    H235862   2.690   7.791   5.554 -1.3043  1.0253 -0.5831
11969TIP3   OH235863   0.632   6.110   5.921 -0.2608 -0.1152  0.5529
11969TIP3    H135864   0.660   6.153   6.002  0.0939 -1.6707  1.2820
11969TIP3    H235865   0.656   6.171   5.852  0.6048  0.6745  1.5374
11970TIP3   OH235866   8.015   2.855   0.277  0.0051 -0.0653  0.0572
11970TIP3    H135867   7.928   2.827   0.307 -0.3525  1.3418  0.3596
11970TIP3    H235868   8.070   2.778   0.290 -0.8711 -0.5152  1.2666
11971TIP3   OH235869   7.378   0.912   0.490  0.4322 -0.6677  0.2284
11971TIP3    H135870   7.337   0.856   0.424  1.1954  0.1430 -0.9596
11971TIP3    H235871   7.469   0.882   0.494  0.8438  0.4659 -0.4143
11972TIP3   OH235872   0.301   4.177   0.274 -0.1541  0.1964  0.2805
11972TIP3    H135873   0.261   4.114   0.334 -0.0334 -1.1339 -0.9994
11972TIP3    H235874   0.230   4.237   0.251  0.1230  1.5525  2.7725
11973TIP3   OH235875   6.268   0.444   3.634 -0.3317 -0.5408  0.1717
11973TIP3    H135876   6.289   0.392   3.712 -0.6846 -0.0860  0.5733
11973TIP3    H235877   6.188   0.490   3.657  0.2564  0.5784  0.0019
11974TIP3   OH235878   5.300   1.732   0.336  0.8262  0.3202 -0.1369
11974TIP3    H135879   5.287   1.731   0.241 -0.5487  0.8679  0.0410
11974TIP3    H235880   5.314   1.824   0.357  1.1290  0.1994  0.2063
11975TIP3   OH235881   6.994   2.201   0.939  0.1766 -0.0960  0.0441
11975TIP3    H135882   6.946   2.140   0.882 -0.4611 -0.3770  0.8513
11975TIP3    H235883   7.086   2.178   0.927 -0.0178 -0.8100 -0.1455
11976TIP3   OH235884   0.661   7.757   6.772  0.1824  0.4717  0.2586
11976TIP3    H135885   0.744   7.765   6.819  1.4654 -0.6853 -1.7941
11976TIP3    H235886   0.636   7.666   6.783  0.0712  0.3966 -0.6441
11977TIP3   OH235887   0.397   6.042   6.852  0.4084  0.6376  0.0666
11977TIP3    H135888   0.417   6.127   6.892  0.5973  0.3912  0.4987
11977TIP3    H235889   0.371   5.987   6.925  0.2479  0.3324 -0.2208
11978TIP3   OH235890   1.732   6.120   6.652 -0.1189  0.4123 -0.3525
11978TIP3    H135891   1.819   6.104   6.689 -1.1942 -2.5163  1.0478
11978TIP3    H235892   1.704   6.035   6.617 -1.0667  2.0676 -3.8488
11979TIP3   OH235893   8.221   5.218   5.896 -0.0143 -0.0169  0.3226
11979TIP3    H135894   8.247   5.268   5.818  1.2891 -1.5112 -0.2159
11979TIP3    H235895   8.126   5.227   5.900  0.0204  0.9516 -0.8226
11980TIP3   OH235896   8.431   2.973   1.493 -0.0072 -0.5837 -0.3188
11980TIP3    H135897   8.383   2.898   1.458 -0.6666  0.2949 -1.3276
11980TIP3    H235898   8.417   3.043   1.429  0.0407  0.5987  0.9358
11981TIP3   OH235899   2.727   5.674   6.700  0.1585 -0.0747  0.3663
11981TIP3    H135900   2.712   5.648   6.609  0.7165  1.6281 -0.2183
11981TIP3    H235901   2.801   5.620   6.729  1.4244  0.9849 -0.8896
11982TIP3   OH235902   1.667   4.871   6.156  0.6570  0.3325 -0.0430
11982TIP3    H135903   1.730   4.800   6.171  1.6036  1.2866  0.5714
11982TIP3    H235904   1.616   4.842   6.081  1.5278 -0.6747 -0.2626
11983TIP3   OH235905   6.760   2.315   0.313 -0.1127 -0.1193 -0.3255
11983TIP3    H135906   6.811   2.388   0.347 -0.9982 -0.0031  0.7593
11983TIP3    H235907   6.826   2.248   0.292  0.7010  1.0029 -1.4097
11984TIP3   OH235908   1.475   5.068   6.802  0.1481 -0.2635 -0.3568
11984TIP3    H135909   1.521   5.017   6.735  1.4614  0.3367  0.0634
11984TIP3    H235910   1.483   5.016   6.882  1.1835  0.4098 -0.0076
11985TIP3   OH235911   7.524   1.771   1.525  0.6468  0.4030 -0.0855
11985TIP3    H135912   7.533   1.810   1.612 -2.0045 -1.3568  1.0432
11985TIP3    H235913   7.604   1.720   1.513  1.3984  1.3001  0.9711
11986TIP3   OH235914   1.249   6.212   6.276  0.0609  0.2733  0.2129
11986TIP3    H135915   1.217   6.148   6.213  0.6780  0.2054 -0.0400
11986TIP3    H235916   1.189   6.286   6.269  1.8991  1.5549 -2.6779
11987TIP3   OH235917   4.319   0.389   3.762  0.0607  0.1813  1.2691
11987TIP3    H135918   4.338   0.465   3.818 -1.6603  2.2175 -0.8157
11987TIP3    H235919   4.365   0.406   3.681 -1.2085 -0.4633  0.3931
11988TIP3   OH235920   7.337   1.119   1.080 -0.2310  0.4808  0.4328
11988TIP3    H135921   7.264   1.172   1.048  1.6052  3.0779  0.3927
11988TIP3    H235922   7.314   1.097   1.171 -1.0946  1.2011  0.3838
11989TIP3   OH235923   4.215   3.099   1.402  0.5013 -0.3593  0.1439
11989TIP3    H135924   4.256   3.030   1.349 -1.3410 -1.0879 -0.3500
11989TIP3    H235925   4.186   3.164   1.338  1.3514  0.4208  0.5366
11990TIP3   OH235926   1.874   7.768   5.166  0.5390  0.7878  0.3776
11990TIP3    H135927   1.812   7.729   5.228  1.4920 -0.0643  0.8009
11990TIP3    H235928   1.823   7.836   5.122 -1.3903 -1.3489 -0.8354
11991TIP3   OH235929   7.784   1.389   1.335  0.3448 -0.4168  0.6121
11991TIP3    H135930   7.801   1.470   1.384  0.5489 -0.6168  0.8761
11991TIP3    H235931   7.813   1.320   1.394 -0.3362 -0.7091  0.6006
11992TIP3   OH235932   3.582   6.557   4.925 -0.1270 -0.6765  0.5597
11992TIP3    H135933   3.517   6.609   4.877  1.4482 -0.2082 -1.1384
11992TIP3    H235934   3.583   6.473   4.880  0.8231 -0.4909  0.2164
11993TIP3   OH235935   7.763   3.464   0.289  0.2253  0.2139 -0.3540
11993TIP3    H135936   7.811   3.384   0.311  1.6998  1.4967  1.2547
11993TIP3    H235937   7.786   3.482   0.198  1.1658 -0.3184 -0.2285
11994TIP3   OH235938   4.275   0.627   6.342 -0.3110 -0.3417 -0.1289
11994TIP3    H135939   4.216   0.579   6.284 -1.3138 -0.0684  0.6469
11994TIP3    H235940   4.360   0.623   6.298 -0.4943 -2.3270 -0.3586
11995TIP3   OH235941   3.745   7.703   6.031 -0.3857 -0.4274  0.5918
11995TIP3    H135942   3.746   7.701   6.127 -2.6339  0.9327  0.6866
11995TIP3    H235943   3.656   7.730   6.009 -0.6383 -3.0499 -1.9515
11996TIP3   OH235944   6.908   2.832   0.906 -0.5988 -0.0603 -0.2962
11996TIP3    H135945   6.914   2.758   0.966 -2.5807  1.0835  1.3610
11996TIP3    H235946   6.827   2.816   0.857 -0.1465  0.1481 -1.1186
11997TIP3   OH235947   5.260   1.767   3.863 -0.8689  0.6950  0.5221
11997TIP3    H135948   5.327   1.801   3.922 -0.3583  0.0685  0.3070
11997TIP3    H235949   5.190   1.832   3.866  0.3037  2.0088 -0.2822
11998TIP3   OH235950   2.464   5.020   6.223  0.3438 -0.0515 -0.0960
11998TIP3    H135951   2.478   4.930   6.194 -0.5660 -0.2673  0.1202
11998TIP3    H235952   2.549   5.062   6.212  0.8529 -1.0145  0.0872
11999TIP3   OH235953   7.298   2.820   0.094 -0.3274 -0.1812  0.0073
11999TIP3    H135954   7.310   2.729   0.068  1.0683  0.5411 -1.9862
11999TIP3    H235955   7.206   2.826   0.119 -0.6923 -1.8771 -0.8690
12000TIP3   OH235956   0.110   4.915   5.691  0.2911 -0.0153  0.0174
12000TIP3    H135957   0.184   4.950   5.740 -0.7527  2.3359 -0.0441
12000TIP3    H235958   0.042   4.982   5.698 -1.0896 -1.1845 -1.7110
12001TIP3   OH235959   2.451   6.769   5.154 -0.3044 -0.5074  0.3248
12001TIP3    H135960   2.484   6.718   5.228 -0.4700 -0.4860  0.4141
12001TIP3    H235961   2.519   6.834   5.136  0.6625 -1.8278 -0.8687
12002TIP3   OH235962   1.771   4.280   6.620  0.0133  0.3658 -0.2497
12002TIP3    H135963   1.805   4.198   6.655  0.2958  1.1565  1.3858
12002TIP3    H235964   1.681   4.284   6.653  0.3161  1.1668  0.5122
12003TIP3   OH235965   0.736   6.035   6.692  0.0025  0.0817 -0.3837
12003TIP3    H135966   0.759   5.996   6.776 -0.9194  1.3307  0.4654
12003TIP3    H235967   0.761   6.127   6.701  0.3974  0.1058 -1.6769
12004TIP3   OH235968   2.776   5.625   6.431 -0.2103 -0.2649 -0.0471
12004TIP3    H135969   2.752   5.532   6.426 -1.4497  0.0010  0.6749
12004TIP3    H235970   2.721   5.667   6.365 -0.1505  0.0588  0.1116
12005TIP3   OH235971   0.351   5.337   5.210  0.2831  0.0259  0.4585
12005TIP3    H135972   0.346   5.275   5.138  0.8040 -0.4515  0.8276
12005TIP3    H235973   0.326   5.286   5.287  1.5695  0.0479  0.8971
12006TIP3   OH235974   0.756   7.395   5.858 -0.2183 -0.3259  0.1298
12006TIP3    H135975   0.784   7.310   5.825  1.0637 -0.5204  1.6955
12006TIP3    H235976   0.709   7.435   5.784  1.7902 -1.1238 -1.6198
12007TIP3   OH235977   1.236   6.234   5.388  0.3868 -0.3066  0.1640
12007TIP3    H135978   1.325   6.267   5.378 -0.0209  0.4260 -1.1487
12007TIP3    H235979   1.244   6.165   5.454  2.6172 -2.8215 -2.5672
12008TIP3   OH235980   0.259   7.342   4.630 -0.4181 -0.0003  0.0556
12008TIP3    H135981   0.241   7.431   4.660  0.6280  0.6053 -1.0845
12008TIP3    H235982   0.197   7.327   4.559 -1.5520 -0.7106  1.1788
12009TIP3   OH235983   7.048   5.814   5.896  0.2162 -0.3772  0.0570
12009TIP3    H135984   6.954   5.804   5.909  0.2686 -2.1919 -0.7426
12009TIP3    H235985   7.084   5.815   5.985 -0.6110  1.1212  0.3887
12010TIP3   OH235986   6.920   5.384   5.659 -0.2330  0.1396 -0.4911
12010TIP3    H135987   6.866   5.364   5.736  1.0315  0.7360  0.5651
12010TIP3    H235988   7.000   5.423   5.695  0.0200  1.2020 -2.1602
12011TIP3   OH235989   7.600   0.846   0.010 -0.4058  0.4587 -0.0125
12011TIP3    H135990   7.677   0.878   0.056 -0.8885  1.2080  0.2789
12011TIP3    H235991   7.591   0.755   0.041  0.6393  0.2051 -0.4265
12012TIP3   OH235992   7.755   5.628   4.740  0.4079 -0.2880  0.3903
12012TIP3    H135993   7.798   5.572   4.805  0.7441  0.0324  0.4456
12012TIP3    H235994   7.687   5.572   4.702  0.9466 -0.8432  0.2204
12013TIP3   OH235995   2.428   5.527   6.832 -1.2094  0.2589  0.0549
12013TIP3    H135996   2.518   5.540   6.803 -1.1814  2.4103  1.0498
12013TIP3    H235997   2.434   5.451   6.890 -0.3968 -0.8512 -1.4355
12014TIP3   OH235998   4.495   3.880   0.709 -0.5590 -0.3734 -0.5139
12014TIP3    H135999   4.410   3.911   0.740  0.4267  2.0005 -0.0510
12014TIP3    H236000   4.478   3.845   0.622 -1.7397  1.7109 -1.1587
12015TIP3   OH236001   1.135   5.677   5.099 -0.6635  0.4467 -0.2863
12015TIP3    H136002   1.120   5.625   5.021 -2.2180  0.8697 -0.2769
12015TIP3    H236003   1.126   5.616   5.172  0.5110  0.1122 -0.4092
12016TIP3   OH236004   1.077   5.238   6.905  0.2659 -0.2886  0.0166
12016TIP3    H136005   1.147   5.242   6.969  0.2866 -2.0054  0.1244
12016TIP3    H236006   1.106   5.173   6.842 -1.1619 -0.9136 -0.0127
12017TIP3   OH236007   4.224   7.340   1.855 -0.2830  0.3844  0.1292
12017TIP3    H136008   4.182   7.380   1.779 -1.6744  1.4803  1.4379
12017TIP3    H236009   4.311   7.381   1.858 -0.3171  0.5332 -0.6900
12018TIP3   OH236010   1.177   3.805   4.779 -0.0269 -0.1324 -0.1394
12018TIP3    H136011   1.094   3.851   4.790  0.0890  0.0010  0.1850
12018TIP3    H236012   1.152   3.714   4.765 -0.2096 -0.1908  0.5192
12019TIP3   OH236013   5.589   3.030   0.867 -0.2280 -0.3584 -0.2793
12019TIP3    H136014   5.595   2.975   0.789  0.7320 -1.1924  0.3778
12019TIP3    H236015   5.675   3.023   0.909 -0.9749 -0.5241  1.2591
12020TIP3   OH236016   3.880   7.960   1.911 -0.3188 -0.1603  0.3007
12020TIP3    H136017   3.848   7.899   1.977  0.5819 -1.4936 -0.4776
12020TIP3    H236018   3.879   7.911   1.829  1.7969  0.3811 -0.0848
12021TIP3   OH236019   6.799   5.822   6.022 -0.0354  0.5937 -0.2982
12021TIP3    H136020   6.711   5.807   6.056 -0.0381  3.6198  1.2129
12021TIP3    H236021   6.789   5.896   5.961  1.9146  3.2393  2.4390
12022TIP3   OH236022   0.978   3.594   5.211  0.1236  0.3893 -0.5675
12022TIP3    H136023   0.978   3.501   5.232  0.2137  0.2543 -1.1469
12022TIP3    H236024   1.062   3.609   5.167  0.5904  0.9751  0.5024
12023TIP3   OH236025   5.314   1.897   6.188 -0.1591  0.4476 -0.5201
12023TIP3    H136026   5.349   1.812   6.215 -1.4428  0.2718  0.6752
12023TIP3    H236027   5.387   1.942   6.146  0.7969 -0.8655 -0.2688
12024TIP3   OH236028   1.344   6.575   6.878 -0.0719 -0.0221 -0.1976
12024TIP3    H136029   1.278   6.520   6.920  0.1742 -2.0281 -2.3046
12024TIP3    H236030   1.295   6.627   6.814 -0.0980  1.2054  0.7992
12025TIP3   OH236031   0.842   6.382   6.487 -0.5421 -0.1242  0.3392
12025TIP3    H136032   0.899   6.306   6.503 -1.5260 -1.0763 -0.5624
12025TIP3    H236033   0.766   6.345   6.442 -1.1972  1.3586  0.2150
12026TIP3   OH236034   6.556   3.591   0.046 -0.2423  0.3272  0.7274
12026TIP3    H136035   6.478   3.551   0.009 -1.0497  0.6146  2.0738
12026TIP3    H236036   6.612   3.609  -0.029 -1.2485 -0.3553 -0.2005
12027TIP3   OH236037   1.490   5.215   6.200  0.0418 -0.6146 -0.0025
12027TIP3    H136038   1.424   5.247   6.138  1.1386  1.3699 -0.2048
12027TIP3    H236039   1.530   5.140   6.156  0.0756  0.1248 -1.2669
12028TIP3   OH236040   7.203   3.548   0.010 -0.0699 -0.0748 -0.1495
12028TIP3    H136041   7.281   3.563   0.063 -0.2689  1.5263 -0.2968
12028TIP3    H236042   7.190   3.453   0.013  1.7949 -0.3365 -0.0098
12029TIP3   OH236043   1.214   1.859   0.137 -0.3350 -0.0787 -0.2245
12029TIP3    H136044   1.195   1.905   0.055  0.1763  0.3215 -0.1253
12029TIP3    H236045   1.242   1.772   0.109  0.9553  0.4186 -0.5518
12030TIP3   OH236046   1.916   6.712   5.064 -0.3832 -0.0002 -0.2539
12030TIP3    H136047   1.939   6.787   5.120 -1.6223 -0.1295  0.4331
12030TIP3    H236048   1.898   6.641   5.125 -0.9398 -0.3701 -0.8481
12031TIP3   OH236049   1.219   5.549   6.749  0.2756  0.0880  0.0138
12031TIP3    H136050   1.273   5.471   6.736 -1.3813 -0.8799 -1.2640
12031TIP3    H236051   1.239   5.605   6.674 -1.0294 -0.5998 -0.8589
12032TIP3   OH236052   2.896   3.564   6.160  0.4285 -0.4233  0.3502
12032TIP3    H136053   2.830   3.620   6.200 -0.4793  0.4506 -2.2226
12032TIP3    H236054   2.854   3.478   6.155 -0.0841 -0.1507 -0.1721
12033TIP3   OH236055   1.421   3.549   0.303 -0.6058 -0.0459 -0.2016
12033TIP3    H136056   1.443   3.610   0.373  0.5270 -0.3457 -0.2860
12033TIP3    H236057   1.374   3.478   0.347  0.5064 -0.4582  0.3468
12034TIP3   OH236058   7.936   2.928   0.848 -0.1586  0.3928 -0.2166
12034TIP3    H136059   7.917   2.986   0.774 -0.0559 -1.3678 -1.6416
12034TIP3    H236060   8.026   2.899   0.833 -0.2495 -0.2189  0.4289
12035TIP3   OH236061   2.037   6.704   6.286  0.4633  0.7183 -0.2034
12035TIP3    H136062   2.125   6.722   6.319  0.1272  2.0854 -0.0008
12035TIP3    H236063   2.039   6.734   6.195  0.2038  0.7978 -0.1847
12036TIP3   OH236064   3.523   3.255   5.573  0.0579 -0.3193  0.2142
12036TIP3    H136065   3.538   3.267   5.479  0.0543 -1.5334  0.0584
12036TIP3    H236066   3.467   3.178   5.579 -1.5424  0.8909  1.1178
12037TIP3   OH236067   3.336   3.957   6.628 -0.1358  0.7249 -0.2761
12037TIP3    H136068   3.273   3.957   6.556  0.0930 -1.1519 -0.5127
12037TIP3    H236069   3.316   4.037   6.677 -2.7460  0.1514 -0.3047
12038TIP3   OH236070   6.994   2.597   0.230  0.7879  0.6334 -0.9353
12038TIP3    H136071   6.912   2.604   0.181 -0.0469  1.0044  0.4777
12038TIP3    H236072   7.016   2.688   0.253  0.6230  0.3867  0.2343
12039TIP3   OH236073   2.198   4.421   6.406  0.0460  0.0838 -0.0746
12039TIP3    H136074   2.220   4.371   6.328  2.2964 -0.1306  0.6638
12039TIP3    H236075   2.183   4.510   6.374  0.5406 -0.0888 -0.7963
12040TIP3   OH236076   0.555   5.957   5.290  0.0514 -0.5305  0.4139
12040TIP3    H136077   0.535   5.865   5.308 -0.4754 -0.3259  0.8791
12040TIP3    H236078   0.622   5.954   5.221 -0.6067 -1.2480 -0.2074
12041TIP3   OH236079   1.250   7.183   6.602 -0.6531 -0.0946  0.0547
12041TIP3    H136080   1.245   7.111   6.665 -1.4965 -1.7208 -1.8197
12041TIP3    H236081   1.344   7.204   6.598 -0.4811 -0.5900  1.1392
12042TIP3   OH236082   0.170   7.862   5.061  0.6966  0.8061  0.3238
12042TIP3    H136083   0.111   7.886   5.132 -0.0272 -0.4700  0.1804
12042TIP3    H236084   0.199   7.945   5.024 -0.2503  1.4598  1.0303
12043TIP3   OH236085   6.173   0.923   0.432  0.0503  0.2259  0.8691
12043TIP3    H136086   6.121   0.856   0.387 -0.3718 -0.0079  1.7102
12043TIP3    H236087   6.233   0.874   0.488  1.8866  0.4513 -0.8109
12044TIP3   OH236088   7.168   1.599   0.244  0.3339  0.0947  0.0924
12044TIP3    H136089   7.122   1.680   0.264  0.4116 -0.3391  2.0392
12044TIP3    H236090   7.234   1.591   0.313 -0.8018 -2.5174  0.9146
12045TIP3   OH236091   2.279   3.729   6.108  0.6629 -0.3934  0.1864
12045TIP3    H136092   2.325   3.721   6.025  3.1324  0.1892  1.4510
12045TIP3    H236093   2.347   3.749   6.172 -1.3588  0.6685  2.1144
12046TIP3   OH236094   6.750   2.920   0.184  0.1896 -0.7118  0.6278
12046TIP3    H136095   6.736   2.913   0.279  0.0771  0.5978  0.7179
12046TIP3    H236096   6.665   2.897   0.146 -0.7496  1.9019  0.9905
12047TIP3   OH236097   7.495   2.924   0.264 -0.3214 -0.2836  0.1990
12047TIP3    H136098   7.438   2.897   0.192  1.3374 -0.6085 -1.0129
12047TIP3    H236099   7.486   3.020   0.266  1.2656 -0.0423 -1.8930
12048TIP3   OH236100   0.089   7.480   5.577 -0.0188 -0.0384 -0.1550
12048TIP3    H136101   0.101   7.434   5.494  0.2499 -0.4393  0.1061
12048TIP3    H236102   0.129   7.424   5.642 -0.1840  0.3002  0.2452
12049TIP3   OH236103   0.065   5.510   6.227  0.5466 -0.1533  0.6371
12049TIP3    H136104   0.126   5.555   6.168  0.9063 -1.6068 -0.1137
12049TIP3    H236105  -0.003   5.475   6.170  0.6981 -1.2470  1.1167
12050TIP3   OH236106   2.784   2.358   4.848 -0.7628  0.4283  0.1079
12050TIP3    H136107   2.840   2.306   4.905 -0.7859  0.6015  0.2919
12050TIP3    H236108   2.844   2.415   4.800 -0.7954  0.7605  0.4564
12051TIP3   OH236109   4.901   0.769   0.088 -0.1739 -0.1195  0.0572
12051TIP3    H136110   4.839   0.777   0.016 -0.4671 -1.7742  0.1205
12051TIP3    H236111   4.986   0.792   0.049 -0.7805  2.0643 -0.0414
12052TIP3   OH236112   1.716   5.399   6.715  0.3731  0.0800  0.4272
12052TIP3    H136113   1.764   5.338   6.770  4.8978  0.7289 -2.5391
12052TIP3    H236114   1.743   5.486   6.746 -0.3544  0.4898 -0.0704
12053TIP3   OH236115   7.051   5.857   4.405 -0.4046 -0.2922  0.6273
12053TIP3    H136116   6.985   5.790   4.387  1.8421 -2.7539  1.1571
12053TIP3    H236117   7.055   5.861   4.501  1.2509 -1.2996  0.6224
12054TIP3   OH236118   7.216   5.160   1.168  0.0435  0.0231  0.7470
12054TIP3    H136119   7.240   5.249   1.143  0.2699 -0.1192  0.4517
12054TIP3    H236120   7.300   5.117   1.185 -0.0325 -0.3140  0.2758
12055TIP3   OH236121   1.827   1.104   6.118 -0.3415 -0.2256  0.5029
12055TIP3    H136122   1.736   1.100   6.148 -0.3288 -1.4331  0.3893
12055TIP3    H236123   1.870   1.031   6.162  0.9151  1.1770  1.6673
12056TIP3   OH236124   1.118   5.188   6.509  0.5048 -0.2301  0.0807
12056TIP3    H136125   1.103   5.093   6.508 -1.4525  0.0658 -0.2061
12056TIP3    H236126   1.043   5.223   6.557  1.5055  1.1328  0.6647
12057TIP3   OH236127   7.108   2.431   0.766  0.2380 -0.3698  0.0394
12057TIP3    H136128   7.099   2.493   0.693 -0.2541  0.0412  0.4430
12057TIP3    H236129   7.028   2.379   0.763  0.4924 -0.7503 -0.0850
12058TIP3   OH236130   4.084   7.400   6.108 -0.7337 -0.6496 -0.2228
12058TIP3    H136131   4.085   7.459   6.183 -0.8036 -0.4614 -0.3718
12058TIP3    H236132   3.997   7.359   6.110 -0.7354 -0.6455 -0.2030
12059TIP3   OH236133   2.606   4.084   6.109 -0.2550  0.0103  0.0471
12059TIP3    H136134   2.608   4.113   6.201  0.4166  1.8741 -0.5306
12059TIP3    H236135   2.515   4.097   6.082  0.0571  1.6941 -0.2266
12060TIP3   OH236136   1.190   7.616   4.676 -0.0834  0.3116 -0.5799
12060TIP3    H136137   1.153   7.612   4.764 -1.8246  0.6613 -1.2747
12060TIP3    H236138   1.194   7.525   4.647 -0.3268  0.2610 -0.4605
12061TIP3   OH236139   2.722   6.251   5.271  0.2851 -0.1981  0.0385
12061TIP3    H136140   2.752   6.317   5.334  1.0554 -0.3555 -0.1623
12061TIP3    H236141   2.799   6.231   5.218 -0.1403 -0.7073 -0.3940
12062TIP3   OH236142   1.595   5.267   4.895 -0.3782 -0.5099 -0.2683
12062TIP3    H136143   1.556   5.185   4.926 -0.7315 -0.2935 -0.1325
12062TIP3    H236144   1.687   5.246   4.882 -0.2843 -0.6898  0.6478
12063TIP3   OH236145   1.908   5.819   6.107 -0.2349 -0.4300  0.5448
12063TIP3    H136146   1.989   5.801   6.060 -1.1842  1.0026 -1.7070
12063TIP3    H236147   1.923   5.902   6.151  0.1551 -1.0838  1.6744
12064TIP3   OH236148   5.215   2.076   0.792  0.3487 -0.0534 -0.2420
12064TIP3    H136149   5.128   2.058   0.757  0.2796 -1.9014  0.8479
12064TIP3    H236150   5.263   2.116   0.719 -0.8460 -0.6867 -1.3801
12065TIP3   OH236151   2.634   6.576   6.569  0.3610  0.3978 -0.4652
12065TIP3    H136152   2.690   6.653   6.555 -0.0598  0.7448 -0.2507
12065TIP3    H236153   2.560   6.589   6.511  0.1774  0.2658 -0.2589
12066TIP3   OH236154   5.732   0.316   4.680 -0.4462 -0.0087  0.8354
12066TIP3    H136155   5.702   0.369   4.606 -0.1555 -1.3442 -0.2517
12066TIP3    H236156   5.715   0.371   4.757 -2.5128  0.6469 -0.0382
12067TIP3   OH236157   6.666   1.718   0.110  0.0886 -0.6228 -0.0414
12067TIP3    H136158   6.705   1.663   0.177  0.2033  0.5679  0.8702
12067TIP3    H236159   6.738   1.770   0.076  0.1080 -1.4744 -1.3661
12068TIP3   OH236160   2.036   3.086   5.885  0.4354  0.0686 -0.3524
12068TIP3    H136161   2.008   3.037   5.962  2.8366 -1.1057 -0.1692
12068TIP3    H236162   2.113   3.039   5.853  0.7952  1.8025 -2.1584
12069TIP3   OH236163   2.428   5.980   5.543 -0.2477 -0.7040  0.1232
12069TIP3    H136164   2.443   5.888   5.521  0.5323 -1.2412  2.7706
12069TIP3    H236165   2.333   5.990   5.538 -0.4196 -1.8994  0.6634
12070TIP3   OH236166   7.949   1.109   1.239  0.6202 -0.3225  0.4110
12070TIP3    H136167   7.994   1.179   1.287 -1.4975  0.5881  1.1216
12070TIP3    H236168   8.012   1.081   1.173  1.5060  2.2871  0.0983
12071TIP3   OH236169   1.505   4.255   6.696 -0.0061  0.1422 -0.0658
12071TIP3    H136170   1.453   4.255   6.776  0.3288 -2.5132  0.1679
12071TIP3    H236171   1.469   4.185   6.642  1.0821  0.5606 -1.3924
12072TIP3   OH236172   1.645   7.527   5.312  0.2120  0.2265  0.3019
12072TIP3    H136173   1.723   7.543   5.365 -0.3275  2.9720  0.3219
12072TIP3    H236174   1.646   7.432   5.297  4.2818  0.3205 -0.8049
12073TIP3   OH236175   2.873   7.042   4.619  0.0289  0.5049  0.3931
12073TIP3    H136176   2.924   7.070   4.542  1.8518  1.1013  1.7858
12073TIP3    H236177   2.841   7.123   4.657 -0.3419  0.2488  0.6223
12074TIP3   OH236178   2.089   6.272   6.896 -0.2580  0.0118  0.4666
12074TIP3    H136179   2.172   6.238   6.930 -0.2627 -0.1617  0.2997
12074TIP3    H236180   2.053   6.201   6.845  0.8543  1.0403 -1.8348
12075TIP3   OH236181   5.431   7.780   4.459  0.6200 -0.4914  0.1449
12075TIP3    H136182   5.458   7.698   4.417  0.1005 -0.5107 -0.1559
12075TIP3    H236183   5.358   7.754   4.516 -1.0134  0.1188 -1.6139
12076TIP3   OH236184   1.571   5.490   5.067  0.0668  0.1954 -0.1616
12076TIP3    H136185   1.475   5.497   5.069 -0.0031 -0.5680  4.2555
12076TIP3    H236186   1.588   5.401   5.037 -0.6179  0.4078 -1.1890
12077TIP3   OH236187   2.659   7.244   5.166 -0.7230 -0.6381  0.1110
12077TIP3    H136188   2.666   7.259   5.261 -3.3500  1.4147  0.0521
12077TIP3    H236189   2.732   7.294   5.129 -0.1802 -0.7571  0.9928
12078TIP3   OH236190   3.307   7.132   5.165 -0.1477  0.3368 -0.1639
12078TIP3    H136191   3.312   7.049   5.119  0.1069 -0.1927  0.7918
12078TIP3    H236192   3.375   7.186   5.124  0.0370 -0.1092 -0.4491
12079TIP3   OH236193   8.247   2.426   2.528 -0.8950 -0.3272 -0.4151
12079TIP3    H136194   8.265   2.454   2.438  0.0346 -1.8627 -0.7314
12079TIP3    H236195   8.154   2.444   2.541 -0.5475  2.0541 -0.8764
12080TIP3   OH236196   8.353   5.992   4.591 -0.1863  0.0877  0.4612
12080TIP3    H136197   8.372   5.981   4.684 -2.1403 -0.9518  0.7662
12080TIP3    H236198   8.434   6.025   4.554  0.2766  1.5923  2.7232
12081TIP3   OH236199   3.457   7.436   5.731  0.1979 -0.2527 -0.6349
12081TIP3    H136200   3.410   7.357   5.703 -1.0764 -0.0760  0.9228
12081TIP3    H236201   3.526   7.404   5.789 -1.9348 -0.1052  2.1135
12082TIP3   OH236202   6.282   8.032   0.231 -0.2364 -0.3330  0.0960
12082TIP3    H136203   6.262   7.984   0.311  0.4650 -1.0653 -0.1707
12082TIP3    H236204   6.359   7.989   0.195 -0.0555  0.5086 -0.5445
12083TIP3   OH236205   4.059   4.089   6.586  0.1100  0.5329 -0.4347
12083TIP3    H136206   4.100   4.163   6.631 -0.8807  1.3041 -0.7645
12083TIP3    H236207   4.120   4.017   6.597  0.3449  0.9771  1.2926
12084TIP3   OH236208   8.526   3.487   0.395  0.3788 -0.1470  0.1848
12084TIP3    H136209   8.521   3.440   0.479 -0.9403 -1.1588 -0.4461
12084TIP3    H236210   8.435   3.503   0.371  0.7696  0.8565 -0.6756
12085TIP3   OH236211   0.871   6.997   5.537  0.4146  0.9269 -0.3993
12085TIP3    H136212   0.950   6.996   5.483  1.2541  3.1281  0.7754
12085TIP3    H236213   0.861   6.906   5.566  3.3293  0.8989  0.6230
12086TIP3   OH236214   3.068   6.427   5.375  0.6615  0.0202  0.2564
12086TIP3    H136215   3.047   6.465   5.289 -0.1919 -0.0332  0.4383
12086TIP3    H236216   3.137   6.484   5.410  0.9037  0.1369 -0.3928
12087TIP3   OH236217   0.941   2.842   6.607 -0.0696 -0.2227 -0.2929
12087TIP3    H136218   0.976   2.904   6.671  0.5002  0.6277 -1.4201
12087TIP3    H236219   1.002   2.845   6.534 -0.9880 -0.8083 -1.1047
12088TIP3   OH236220   4.967   3.127   4.534 -0.1982 -0.2904  0.2006
12088TIP3    H136221   4.962   3.172   4.450  1.6106 -0.6621 -0.1444
12088TIP3    H236222   4.938   3.037   4.515 -2.4704  0.3248  0.5971
12089TIP3   OH236223   1.884   7.095   6.437 -0.2848 -0.4695 -0.2637
12089TIP3    H136224   1.915   7.154   6.506  0.6157 -0.6261 -0.5240
12089TIP3    H236225   1.915   7.009   6.465 -0.0286 -0.5511 -0.8061
12090TIP3   OH236226   3.987   5.131   3.823  0.4968 -0.0773 -0.1786
12090TIP3    H136227   4.082   5.130   3.817  0.5510  1.0276  0.2387
12090TIP3    H236228   3.964   5.049   3.867  1.0644 -1.5291 -2.5558
12091TIP3   OH236229   0.205   1.795   0.872 -0.0232 -0.5855  0.4537
12091TIP3    H136230   0.210   1.817   0.965  0.5463 -1.0503  0.5369
12091TIP3    H236231   0.180   1.877   0.829 -0.6532 -0.4636  1.0554
12092TIP3   OH236232   3.150   5.773   5.195 -0.1837 -0.2178 -0.4928
12092TIP3    H136233   3.122   5.681   5.198 -0.9254  0.0328  0.9698
12092TIP3    H236234   3.076   5.821   5.231  1.3140  0.6756  1.4581
12093TIP3   OH236235   1.985   5.122   5.180 -0.0078  0.1129 -0.3208
12093TIP3    H136236   2.019   5.188   5.240 -3.3931  0.3573  1.4991
12093TIP3    H236237   2.022   5.039   5.211 -2.2740  0.1397  2.6624
12094TIP3   OH236238   1.520   7.047   5.715 -0.4525 -0.4274 -0.0920
12094TIP3    H136239   1.557   7.018   5.799  0.9696 -1.7162 -1.1262
12094TIP3    H236240   1.428   7.024   5.720 -0.8085  1.2922  1.8806
12095TIP3   OH236241   5.784   0.242   6.569 -0.7971 -0.0902  0.7347
12095TIP3    H136242   5.829   0.190   6.637 -0.7061 -0.1065  0.6615
12095TIP3    H236243   5.724   0.299   6.618 -0.0550  0.5643  0.8839
12096TIP3   OH236244   1.775   6.800   6.319 -0.1393 -0.3034 -0.4450
12096TIP3    H136245   1.865   6.778   6.292 -0.3037  1.8791 -3.0314
12096TIP3    H236246   1.777   6.794   6.415  2.6187 -0.8476 -0.4785
12097TIP3   OH236247   4.672   6.353   5.397 -0.2341 -0.3250 -0.3290
12097TIP3    H136248   4.604   6.408   5.360  1.0336 -0.3799 -2.8280
12097TIP3    H236249   4.705   6.402   5.473 -0.7722  1.2162 -1.0893
12098TIP3   OH236250   2.038   6.347   3.494 -0.4096  0.4697  0.4811
12098TIP3    H136251   1.949   6.344   3.458  0.4989  1.6893 -1.9771
12098TIP3    H236252   2.043   6.432   3.538 -0.8088 -0.0853  1.6181
12099TIP3   OH236253   5.431   0.406   4.560  0.3091 -0.4511 -0.2010
12099TIP3    H136254   5.511   0.458   4.564 -0.0465  0.1174 -0.4422
12099TIP3    H236255   5.461   0.316   4.569  0.9099 -0.1930  0.4608
12100TIP3   OH236256   6.488   1.930  -0.000  0.6697 -0.5003 -0.3754
12100TIP3    H136257   6.501   1.995   0.069  0.3932  0.6009 -1.3511
12100TIP3    H236258   6.540   1.855   0.028  0.2780 -0.1962  1.2070
12101TIP3   OH236259   2.140   4.069   5.859 -0.0547  0.2525 -0.2450
12101TIP3    H136260   2.067   4.023   5.900  1.1600 -2.0226 -0.5186
12101TIP3    H236261   2.153   4.023   5.776  0.8115  1.4956 -0.8135
12102TIP3   OH236262   7.142   3.229   0.327  0.4337  0.0258  0.4237
12102TIP3    H136263   7.128   3.141   0.361 -1.9777  1.0471  2.1524
12102TIP3    H236264   7.190   3.274   0.396 -0.3261  0.7279  0.4955
12103TIP3   OH236265   2.873   6.103   4.872  0.3660 -0.3215 -0.1764
12103TIP3    H136266   2.804   6.041   4.896 -0.2194 -0.2600 -1.6166
12103TIP3    H236267   2.932   6.052   4.816  0.8633 -0.0669  0.1183
12104TIP3   OH236268   3.822   4.334   5.041  0.8326  0.1111  0.8292
12104TIP3    H136269   3.810   4.368   5.130  1.5323 -0.5231  1.1789
12104TIP3    H236270   3.878   4.257   5.053  4.2181  2.2318 -0.5261
12105TIP3   OH236271   2.741   7.134   6.210  0.0848  0.1272  0.1303
12105TIP3    H136272   2.677   7.178   6.154  1.1963  1.5025 -0.0970
12105TIP3    H236273   2.702   7.137   6.298 -1.9468 -2.5947 -0.6204
12106TIP3   OH236274   7.812   3.353   0.551  0.1019 -0.3250  0.0344
12106TIP3    H136275   7.864   3.309   0.484  0.6237  1.2217 -0.6015
12106TIP3    H236276   7.735   3.385   0.504 -0.6706 -1.2468  0.6552
12107TIP3   OH236277   3.317   5.440   6.096  0.1222 -0.0560 -0.8416
12107TIP3    H136278   3.388   5.487   6.051  0.0852 -0.0911 -0.9362
12107TIP3    H236279   3.242   5.449   6.038 -0.2610  0.9708 -0.1936
12108TIP3   OH236280   6.009   0.231   3.580 -0.1507 -0.4333  0.2514
12108TIP3    H136281   6.086   0.243   3.636 -0.1060  0.1262  0.0753
12108TIP3    H236282   6.044   0.221   3.492 -0.3241  0.8495  0.0276
12109TIP3   OH236283   3.646   0.186   6.435  0.4061 -0.7002 -0.4095
12109TIP3    H136284   3.627   0.147   6.349 -2.0951 -0.8556  0.1657
12109TIP3    H236285   3.649   0.111   6.495  1.5111 -0.5311 -0.2514
12110TIP3   OH236286   5.440   0.060   4.290 -0.5394  0.3494 -0.3298
12110TIP3    H136287   5.462   0.140   4.337  0.0613  1.8994 -3.1205
12110TIP3    H236288   5.363   0.026   4.335 -0.9814  2.6554  0.7230
12111TIP3   OH236289   2.089   5.291   3.032  0.3706  0.0225 -0.6212
12111TIP3    H136290   2.083   5.378   3.071 -1.6077 -0.9010  1.2381
12111TIP3    H236291   2.035   5.297   2.953 -0.7153  0.1538  0.1261
12112TIP3   OH236292   4.114   4.805   6.830  0.1085  0.2241  0.4676
12112TIP3    H136293   4.048   4.744   6.798  1.4045 -0.9065 -0.1169
12112TIP3    H236294   4.078   4.840   6.911 -2.0111  1.0388 -0.7777
12113TIP3   OH236295   1.223   7.605   6.416  0.0663 -0.3372  0.1176
12113TIP3    H136296   1.146   7.579   6.367  1.0788 -0.8947 -1.1905
12113TIP3    H236297   1.221   7.701   6.415  1.2630 -0.3078 -2.9412
12114TIP3   OH236298   2.009   4.621   6.708  0.0143 -0.7314 -0.3294
12114TIP3    H136299   2.079   4.673   6.668  0.0467  0.2120  0.9281
12114TIP3    H236300   1.929   4.671   6.691 -0.0606 -0.6710  0.2034
12115TIP3   OH236301   2.707   4.853   6.371  0.2300 -0.1856 -0.3071
12115TIP3    H136302   2.662   4.819   6.294  0.4890 -0.8525 -0.1698
12115TIP3    H236303   2.792   4.808   6.371  0.0127 -0.6045  0.6736
12116TIP3   OH236304   2.164   4.684   6.317  0.0854 -0.3158  0.5657
12116TIP3    H136305   2.246   4.719   6.352  0.3087 -1.5735  1.2910
12116TIP3    H236306   2.097   4.717   6.376  0.3139 -1.2687  1.3485
12117TIP3   OH236307   3.148   5.123   3.766 -0.4243 -0.0824 -0.6203
12117TIP3    H136308   3.132   5.216   3.748 -1.6179 -0.6470 -2.6241
12117TIP3    H236309   3.230   5.103   3.720 -1.5530 -0.6351 -2.4442
12118TIP3   OH236310   0.679   5.737   6.463 -0.0372 -0.2227 -0.6658
12118TIP3    H136311   0.587   5.762   6.461 -0.2578 -0.4259  2.9902
12118TIP3    H236312   0.678   5.644   6.485  1.0088 -0.1672 -0.3376
12119TIP3   OH236313   1.920   5.843   5.751 -0.1433  0.0342  0.3648
12119TIP3    H136314   1.900   5.912   5.814  0.6765 -1.5160  2.3917
12119TIP3    H236315   1.851   5.850   5.685 -1.7739  0.9112  2.1046
12120TIP3   OH236316   1.498   4.826   5.288  0.1344 -0.2207  0.1945
12120TIP3    H136317   1.579   4.785   5.320  0.4252 -0.5744 -0.9758
12120TIP3    H236318   1.441   4.752   5.267 -0.1694  0.0180  0.1754
12121TIP3   OH236319   1.826   5.121   5.756 -0.1705  0.0349 -0.3109
12121TIP3    H136320   1.858   5.071   5.831 -0.6327 -0.0583 -0.1714
12121TIP3    H236321   1.904   5.147   5.708  0.1634  0.5656  0.5098
12122TIP3   OH236322   2.122   7.664   5.507  0.2170  0.0375  0.4801
12122TIP3    H136323   2.147   7.684   5.416 -0.9254  0.3616  0.2291
12122TIP3    H236324   2.162   7.735   5.558  0.1504  0.3241  0.1355
12123TIP3   OH236325   1.902   6.860   5.531 -0.0526  0.1998 -0.4626
12123TIP3    H136326   1.808   6.876   5.533  0.0423  0.6568  0.9930
12123TIP3    H236327   1.927   6.877   5.441 -1.4506 -0.4830 -1.0092
12124TIP3   OH236328   2.735   5.354   6.451 -0.7581 -0.2212 -0.7077
12124TIP3    H136329   2.697   5.320   6.370  0.0759 -1.3423 -0.6367
12124TIP3    H236330   2.768   5.277   6.496  0.0225  0.5548  0.0597
12125TIP3   OH236331   1.898   3.371   2.423 -0.5647 -0.4719 -0.1930
12125TIP3    H136332   1.878   3.460   2.397  1.0352  0.4818  1.6974
12125TIP3    H236333   1.832   3.348   2.488  1.5334  0.9751  2.5639
12126TIP3   OH236334   1.410   5.175   5.577  0.3762 -0.3252 -0.7297
12126TIP3    H136335   1.386   5.097   5.628 -2.1638  0.9186  0.1022
12126TIP3    H236336   1.401   5.247   5.639  2.9201  0.6479 -1.4307
12127TIP3   OH236337   2.129   4.765   5.478 -0.7183  0.9303  0.7982
12127TIP3    H136338   2.068   4.693   5.464 -1.3489  1.3866  1.1930
12127TIP3    H236339   2.192   4.731   5.542  0.3409 -0.0649 -0.7468
12128TIP3   OH236340   6.280   0.886   1.206  0.3418  0.5600 -0.0110
12128TIP3    H136341   6.357   0.872   1.151 -0.6475  1.1641 -1.5850
12128TIP3    H236342   6.273   0.806   1.258  0.8218 -0.3999 -1.3805
12129TIP3   OH236343   0.802   5.673   4.517 -0.1573  0.8178 -0.0631
12129TIP3    H136344   0.767   5.629   4.594 -0.7600  1.8680  0.2806
12129TIP3    H236345   0.882   5.715   4.548  1.1244 -1.1054 -0.7098
12130TIP3   OH236346   2.712   5.016   5.985 -0.0212  0.1136 -0.1072
12130TIP3    H136347   2.805   5.027   5.964  0.4243 -1.6778  0.8021
12130TIP3    H236348   2.669   5.007   5.901  0.7644  0.0032 -0.5056
12131TIP3   OH236349   2.179   4.315   4.571 -0.3333 -0.2456  0.2168
12131TIP3    H136350   2.145   4.357   4.491 -0.9918  0.5701  0.9188
12131TIP3    H236351   2.231   4.384   4.613 -2.1486  0.1895  1.8377
12132TIP3   OH236352   4.080   5.659   5.582 -0.1190 -0.0857 -0.3910
12132TIP3    H136353   4.142   5.728   5.557 -1.0533  2.0111  2.8157
12132TIP3    H236354   4.008   5.706   5.625 -1.3020 -2.9645  0.8838
12133TIP3   OH236355   6.309   1.153   0.508 -0.6189  0.1021 -0.4233
12133TIP3    H136356   6.246   1.211   0.466 -0.4702  0.0881 -0.6705
12133TIP3    H236357   6.277   1.065   0.490  0.7774  0.0250 -2.6517
12134TIP3   OH236358   2.592   6.169   5.635  0.2237 -0.5523 -0.1603
12134TIP3    H136359   2.519   6.119   5.598  0.5333  0.3790 -2.1265
12134TIP3    H236360   2.670   6.128   5.599  0.5686 -0.0220 -0.0251
12135TIP3   OH236361   1.926   7.328   0.407 -0.0461 -0.1602  0.0191
12135TIP3    H136362   1.998   7.301   0.465  0.8396 -2.7798 -2.1753
12135TIP3    H236363   1.963   7.395   0.351 -0.5531  1.4878  1.6035
12136TIP3   OH236364   2.053   5.203   4.914 -0.6088  0.3594  0.6163
12136TIP3    H136365   1.996   5.205   4.991 -2.2260 -0.0781 -0.5536
12136TIP3    H236366   2.122   5.141   4.938 -0.9505  0.4217  1.8180
12137TIP3   OH236367   2.483   5.804   5.790  0.6238 -0.4772 -0.0241
12137TIP3    H136368   2.443   5.891   5.788  0.9083 -0.2969  1.8069
12137TIP3    H236369   2.510   5.788   5.699 -1.2974  0.4574 -0.7968
12138TIP3   OH236370   2.090   4.798   4.237 -0.1931 -0.4752 -0.3849
12138TIP3    H136371   2.185   4.804   4.231 -0.2440  0.6746 -0.0253
12138TIP3    H236372   2.073   4.752   4.319  0.0724 -1.8189 -1.0605
12139TIP3   OH236373   4.769   6.349   5.975  0.0923 -0.6574  0.3159
12139TIP3    H136374   4.853   6.372   6.015  1.1945 -2.6486 -0.7554
12139TIP3    H236375   4.719   6.309   6.045  0.2609 -0.0405  0.8005
12140TIP3   OH236376   8.288   7.806   1.594 -0.0915 -0.2747  0.0239
12140TIP3    H136377   8.356   7.864   1.559 -1.0530  0.9139  0.0867
12140TIP3    H236378   8.282   7.829   1.686  0.2289 -1.2058  0.2862
12141TIP3   OH236379   2.035   6.160   5.898  0.0751 -0.4263 -0.3462
12141TIP3    H136380   1.953   6.111   5.897  0.8328 -1.8295  1.7219
12141TIP3    H236381   2.011   6.246   5.934 -0.4982 -0.8515  0.3130
12142TIP3   OH236382   0.793   5.195   5.619  0.0197 -0.3814 -0.3791
12142TIP3    H136383   0.860   5.136   5.584  0.8933  0.3955 -0.0272
12142TIP3    H236384   0.824   5.283   5.598 -1.1059 -0.0249 -0.5943
12143TIP3   OH236385   3.113   5.842   4.443  0.5117 -0.3294 -0.3495
12143TIP3    H136386   3.146   5.930   4.422  1.1618 -0.2144  1.1127
12143TIP3    H236387   3.188   5.796   4.479 -0.1555 -1.0859  0.0947
12144TIP3   OH236388   2.171   6.406   6.400  0.2021 -0.1452  0.2411
12144TIP3    H136389   2.084   6.377   6.427 -0.5520  1.8444  0.0128
12144TIP3    H236390   2.156   6.451   6.317  1.4107  0.5318  0.3828
12145TIP3   OH236391   8.226   3.041   0.591 -0.1744 -0.0338 -0.3592
12145TIP3    H136392   8.305   3.088   0.615 -0.2903 -0.1429  0.2363
12145TIP3    H236393   8.164   3.059   0.661 -0.5724 -0.2071 -0.6606
12146TIP3   OH236394   1.656   7.905   3.340  0.2334  0.0456 -0.0768
12146TIP3    H136395   1.676   7.827   3.393  0.6116  0.4197  0.3290
12146TIP3    H236396   1.571   7.934   3.374 -0.9659 -1.4432 -1.6900
12147TIP3   OH236397   3.206   6.237   4.970 -0.1734 -0.5043 -0.1102
12147TIP3    H136398   3.273   6.282   5.023  0.6894 -0.7563 -0.9760
12147TIP3    H236399   3.225   6.144   4.981  1.1170 -0.5257 -2.2565
12148TIP3   OH236400   2.436   6.449   5.137  0.2298 -0.2712  0.0705
12148TIP3    H136401   2.477   6.535   5.147  0.5060 -0.4980  0.8954
12148TIP3    H236402   2.423   6.418   5.227  1.1645 -1.5918 -0.2452
12149TIP3   OH236403   3.658   7.205   5.571 -0.0339 -1.1064 -0.5891
12149TIP3    H136404   3.735   7.202   5.628 -0.1986 -1.5829 -0.3895
12149TIP3    H236405   3.638   7.113   5.552 -0.4830 -0.9818 -0.7320
12150TIP3   OH236406   3.771   6.130   6.615 -0.1982 -0.3921  0.4161
12150TIP3    H136407   3.850   6.108   6.665  0.9284  0.1349 -1.1001
12150TIP3    H236408   3.758   6.223   6.631  0.3282 -0.1613 -0.5023
12151TIP3   OH236409   6.114   0.687   5.231  0.1799 -0.1143 -0.2751
12151TIP3    H136410   6.068   0.673   5.314 -0.4609  0.0812 -0.5965
12151TIP3    H236411   6.048   0.723   5.173  0.8765  0.6750 -0.5795
12152TIP3   OH236412   0.736   6.465   6.205  0.0073  0.4621  0.4459
12152TIP3    H136413   0.797   6.491   6.136  0.6562 -0.8199  0.5128
12152TIP3    H236414   0.671   6.535   6.208  0.5025  0.9864 -0.8152
12153TIP3   OH236415   1.257   7.557   5.244 -0.2107  0.0995 -0.0860
12153TIP3    H136416   1.255   7.501   5.322 -0.8629 -1.3940 -1.1468
12153TIP3    H236417   1.282   7.498   5.173 -1.1023  1.1179 -1.2550
12154TIP3   OH236418   0.126   7.313   5.819  0.2258 -1.5902  0.0377
12154TIP3    H136419   0.141   7.365   5.899  0.5077  0.8332 -1.5242
12154TIP3    H236420   0.210   7.271   5.802  0.0147 -2.5695  1.2909
12155TIP3   OH236421   0.376   5.185   6.604  0.1157  0.5581  0.7328
12155TIP3    H136422   0.294   5.137   6.614  0.1344  0.2499 -0.5044
12155TIP3    H236423   0.388   5.192   6.509  1.2870  0.9967  0.9078
12156TIP3   OH236424   3.991   7.167   4.860 -0.0892 -0.4058 -0.1360
12156TIP3    H136425   3.913   7.208   4.822  0.5199  1.5994  0.6889
12156TIP3    H236426   3.978   7.073   4.846 -1.8375  0.0108 -1.5258
12157TIP3   OH236427   1.836   6.532   5.273 -0.3375 -0.3784 -0.0079
12157TIP3    H136428   1.866   6.441   5.272  1.6472  0.2368  1.2124
12157TIP3    H236429   1.821   6.552   5.366 -1.4433  0.3503 -0.3195
12158TIP3   OH236430   1.801   7.924   3.951 -0.3927 -0.4317 -0.6945
12158TIP3    H136431   1.710   7.943   3.926 -0.2491  0.1774 -0.7729
12158TIP3    H236432   1.846   7.913   3.867 -0.2173  0.1273 -0.6748
12159TIP3   OH236433   4.210   7.822   5.693  0.2669 -0.3371 -0.2642
12159TIP3    H136434   4.269   7.895   5.710 -2.6872  1.7923  1.3948
12159TIP3    H236435   4.181   7.794   5.780 -1.0255 -1.4314 -1.0322
12160TIP3   OH236436   7.905   0.792   1.662 -0.1184  0.1064 -0.0325
12160TIP3    H136437   7.917   0.700   1.636  0.5541 -0.0127  0.6829
12160TIP3    H236438   7.910   0.841   1.580  1.4259 -0.3223 -0.2124
12161TIP3   OH236439   3.202   4.747   5.325 -0.5509  0.1374 -0.0598
12161TIP3    H136440   3.249   4.787   5.252 -1.1539  2.0017  0.5539
12161TIP3    H236441   3.234   4.792   5.403 -0.2746 -1.4996  0.8048
12162TIP3   OH236442   7.672   0.096   0.403 -0.1466  0.1863  0.6496
12162TIP3    H136443   7.597   0.141   0.441  0.6834  0.5325  1.8847
12162TIP3    H236444   7.636   0.012   0.372 -1.2790  0.8554  0.1345
12163TIP3   OH236445   1.793   7.542   6.114 -0.0951 -0.4348 -0.1794
12163TIP3    H136446   1.722   7.604   6.096 -0.0165 -0.3355 -0.1521
12163TIP3    H236447   1.788   7.478   6.043 -2.4928 -2.4992  1.7861
12164TIP3   OH236448   0.823   5.447   5.501  0.6219  0.0005  0.3281
12164TIP3    H136449   0.856   5.533   5.527 -0.6227  0.7640 -0.5847
12164TIP3    H236450   0.728   5.458   5.498  0.3323 -1.8410  1.7307
12165TIP3   OH236451   2.679   6.895   5.106  0.2468  0.1309 -0.0682
12165TIP3    H136452   2.751   6.844   5.068  0.6376 -0.8135  1.9137
12165TIP3    H236453   2.721   6.957   5.165 -0.3601  1.6221 -1.1744
12166TIP3   OH236454   2.744   4.445   6.394  0.4022  0.0892  0.5827
12166TIP3    H136455   2.744   4.398   6.311  2.8923 -0.3343  0.7853
12166TIP3    H236456   2.836   4.465   6.410 -0.4088  3.5848  1.3198
12167TIP3   OH236457   3.657   5.087   5.840 -0.4789 -0.1810 -0.5107
12167TIP3    H136458   3.588   5.098   5.905  0.4782 -2.9361  1.0491
12167TIP3    H236459   3.656   5.169   5.790 -3.1169  0.8527  1.1285
12168TIP3   OH236460   0.109   0.312   0.468 -0.2523  0.3905  0.3715
12168TIP3    H136461   0.088   0.366   0.544  1.7553  0.5023  0.8671
12168TIP3    H236462   0.184   0.356   0.428 -1.0985  0.1589 -1.5126
12169TIP3   OH236463   0.233   4.392   4.515  0.3623 -0.2855  0.0022
12169TIP3    H136464   0.289   4.410   4.591  1.4597 -0.0633 -0.8440
12169TIP3    H236465   0.144   4.388   4.551  0.4773  3.0567  0.8162
12170TIP3   OH236466   4.169   7.689   5.034 -0.4211 -0.0349 -0.0099
12170TIP3    H136467   4.221   7.609   5.035  0.3300  0.4305 -0.6298
12170TIP3    H236468   4.205   7.742   5.104 -0.3338  0.1165 -0.1676
12171TIP3   OH236469   2.946   3.791   6.505  0.3558 -0.4082 -0.2858
12171TIP3    H136470   2.972   3.713   6.553  0.6406  0.3025  0.7489
12171TIP3    H236471   2.860   3.769   6.468  0.1783 -1.0167  0.4648
12172TIP3   OH236472   2.476   7.594   5.249 -0.2452 -0.4390 -0.6270
12172TIP3    H136473   2.565   7.577   5.282 -0.7276 -0.4629  0.6882
12172TIP3    H236474   2.418   7.566   5.320 -1.2809  0.2764 -1.1737
12173TIP3   OH236475   0.809   6.495   4.397  0.2808  0.0861  0.2286
12173TIP3    H136476   0.861   6.415   4.406  0.7370 -0.1680 -3.7352
12173TIP3    H236477   0.872   6.566   4.409  0.9782 -0.2212 -1.4049
12174TIP3   OH236478   4.414   3.815   4.784 -0.7087  0.2065 -0.1916
12174TIP3    H136479   4.483   3.878   4.766 -0.0395 -0.7759 -1.1107
12174TIP3    H236480   4.439   3.775   4.868 -0.6462  0.4960 -0.0728
12175TIP3   OH236481   2.672   5.784   6.211  0.7603  0.4347  0.0545
12175TIP3    H136482   2.682   5.875   6.182  1.5495  0.3755  0.1250
12175TIP3    H236483   2.663   5.734   6.130  1.2597  0.4726 -0.0312
12176TIP3   OH236484   1.038   6.466   5.461 -0.0740  0.2102  0.2516
12176TIP3    H136485   1.104   6.398   5.442 -0.7758 -0.1232 -1.0181
12176TIP3    H236486   1.070   6.508   5.541  1.6326 -0.0225 -0.2794
12177TIP3   OH236487   0.645   6.843   5.430 -0.2679  0.2934  0.6402
12177TIP3    H136488   0.599   6.759   5.434 -1.0913  0.8258  3.0513
12177TIP3    H236489   0.658   6.868   5.521  4.5900  0.3339  0.0912
12178TIP3   OH236490   3.475   5.305   5.156  0.1531 -0.4645  0.4285
12178TIP3    H136491   3.520   5.372   5.208 -0.9628  1.4928 -1.0563
12178TIP3    H236492   3.527   5.298   5.076 -0.2962 -0.6473  0.1521
12179TIP3   OH236493   1.880   4.493   3.798  0.2350 -0.0249  0.1105
12179TIP3    H136494   1.883   4.582   3.833 -0.4056 -0.1027  0.3655
12179TIP3    H236495   1.941   4.495   3.724  0.6004  0.4925  0.4185
12180TIP3   OH236496   0.066   1.124   0.167 -0.2971 -0.2828  0.7915
12180TIP3    H136497   0.110   1.176   0.234  0.1876  1.1079 -0.5775
12180TIP3    H236498   0.073   1.176   0.088 -0.6846 -1.9975 -0.4032
12181TIP3   OH236499   3.044   6.976   5.947 -0.4199 -0.3832 -0.3458
12181TIP3    H136500   3.076   7.044   6.006 -2.5934 -0.2003  0.6610
12181TIP3    H236501   3.119   6.918   5.935  0.7466  0.8547  0.7162
12182TIP3   OH236502   2.771   6.835   5.901  0.1729  0.3883  0.4883
12182TIP3    H136503   2.854   6.870   5.934  0.6934 -0.2905 -0.0708
12182TIP3    H236504   2.734   6.907   5.849  0.6744  0.5095  0.2911
12183TIP3   OH236505   2.354   6.755   4.893 -0.1518 -0.1783  0.0825
12183TIP3    H136506   2.394   6.668   4.881  3.2703  1.3738 -0.4275
12183TIP3    H236507   2.374   6.778   4.983 -1.9657 -0.3101  0.5390
12184TIP3   OH236508   5.398   0.220   6.646 -0.6813  0.4280 -0.1437
12184TIP3    H136509   5.416   0.138   6.692 -1.7364 -0.2213 -0.8894
12184TIP3    H236510   5.419   0.288   6.711  2.6881 -0.3134 -0.3500
12185TIP3   OH236511   2.048   7.094   4.833  0.8719 -0.0353  0.4832
12185TIP3    H136512   2.037   7.106   4.739 -0.0718 -0.2166  0.5714
12185TIP3    H236513   2.058   6.999   4.844  1.8437  0.0568  0.4824
12186TIP3   OH236514   2.797   3.653   6.854  0.0821  0.2917  0.4958
12186TIP3    H136515   2.710   3.691   6.868  0.5821  1.2339  1.1509
12186TIP3    H236516   2.856   3.729   6.857  0.9137 -0.3314 -0.0401
12187TIP3   OH236517   8.139   4.862   4.566  0.1965 -0.2465  0.4890
12187TIP3    H136518   8.194   4.940   4.558  0.9302 -0.6743  1.2039
12187TIP3    H236519   8.085   4.862   4.488  1.4463  0.0150 -0.3914
12188TIP3   OH236520   2.843   6.361   6.008 -0.0005  0.0317 -0.2614
12188TIP3    H136521   2.825   6.293   5.943 -0.4930  0.1115 -0.2173
12188TIP3    H236522   2.853   6.441   5.956 -1.6677  0.3276 -0.1576
12189TIP3   OH236523   4.844   1.612   5.073  0.4589 -0.6150 -0.2785
12189TIP3    H136524   4.937   1.632   5.082  0.4834 -0.2568 -1.2394
12189TIP3    H236525   4.799   1.691   5.102  0.4470 -0.7953  0.2042
12190TIP3   OH236526   2.367   5.969   4.665 -0.3552 -0.2336 -0.1076
12190TIP3    H136527   2.322   5.983   4.748 -0.8489  0.2957 -0.4537
12190TIP3    H236528   2.338   6.043   4.610 -0.3339 -0.7829 -0.8665
12191TIP3   OH236529   7.143   2.655   1.244  0.2103 -0.2162  0.1685
12191TIP3    H136530   7.175   2.687   1.160 -0.3159 -1.6523 -0.6027
12191TIP3    H236531   7.106   2.731   1.288  0.5442  0.5483 -0.8779
12192TIP3   OH236532   2.350   6.343   5.918  0.0958 -0.1148 -0.2814
12192TIP3    H136533   2.257   6.366   5.918  0.1419  0.0723 -0.7315
12192TIP3    H236534   2.395   6.422   5.888  0.5708  0.4489  1.8157
12193TIP3   OH236535   6.873   3.294   0.351 -0.1466  0.5770 -0.5613
12193TIP3    H136536   6.853   3.268   0.441 -1.5222 -0.3241 -1.1043
12193TIP3    H236537   6.963   3.265   0.337  0.3222  1.3582  0.7472
12194TIP3   OH236538   0.577   6.237   5.005  0.3080 -0.0878 -0.1097
12194TIP3    H136539   0.525   6.317   5.003 -2.5352 -1.8580  0.6306
12194TIP3    H236540   0.638   6.251   5.078 -1.0518  0.8709  0.8748
12195TIP3   OH236541   2.478   5.736   5.404  0.0244 -0.2509  0.2953
12195TIP3    H136542   2.557   5.714   5.354  0.4513 -0.2273  0.9492
12195TIP3    H236543   2.461   5.659   5.458  0.7822  0.4945  1.6444
12196TIP3   OH236544   4.267   0.175   3.218  0.3179 -0.0248  0.4690
12196TIP3    H136545   4.308   0.231   3.152  0.3864  0.3591  0.8363
12196TIP3    H236546   4.271   0.087   3.180 -0.8129  0.3768 -0.5899
12197TIP3   OH236547   0.974   7.529   5.940 -0.1295  0.1325 -0.2678
12197TIP3    H136548   0.964   7.623   5.951  0.0670  0.1457 -0.2200
12197TIP3    H236549   0.886   7.499   5.916 -0.5496  0.1017  1.3017
12198TIP3   OH236550   0.526   3.157   0.074 -0.1187 -0.1924  0.3869
12198TIP3    H136551   0.450   3.144   0.130 -0.5155 -0.7765 -0.2884
12198TIP3    H236552   0.492   3.151  -0.016  1.0186 -2.2956  0.0609
12199TIP3   OH236553   8.483   2.322   0.390 -0.1005 -0.9280  0.0528
12199TIP3    H136554   8.563   2.270   0.404  0.9004  0.5595 -0.0298
12199TIP3    H236555   8.441   2.323   0.476  0.5067 -0.8481  0.3535
12200TIP3   OH236556   1.878   1.877   0.255 -0.4694 -0.1962  0.3153
12200TIP3    H136557   1.789   1.847   0.239 -0.0935 -0.8883 -0.5343
12200TIP3    H236558   1.892   1.945   0.190 -0.2166 -0.4238  0.1293
12201TIP3   OH236559   3.450   0.986   6.719  0.1883  0.7383  0.3890
12201TIP3    H136560   3.450   0.896   6.751  0.9682  0.2024 -1.0722
12201TIP3    H236561   3.537   1.019   6.742 -0.1582  1.1928  1.0802
12202TIP3   OH236562   2.830   5.369   5.936 -0.6709  0.5187 -0.1235
12202TIP3    H136563   2.792   5.335   5.855  1.0314 -1.0252 -0.3165
12202TIP3    H236564   2.762   5.356   6.002 -1.1818 -0.4829 -0.8269
12203TIP3   OH236565   2.926   6.265   5.083 -0.0548  0.5672  0.4850
12203TIP3    H136566   2.880   6.209   5.020 -0.5769  0.3224  1.0830
12203TIP3    H236567   3.019   6.246   5.069 -0.2805 -2.0755  2.1709
12204TIP3   OH236568   4.072   7.245   6.494  0.2062  1.1077  0.9126
12204TIP3    H136569   4.155   7.268   6.452  0.6968 -1.1322  0.5661
12204TIP3    H236570   4.005   7.288   6.441  1.0289  1.2051 -0.0614
12205TIP3   OH236571   3.242   3.714   6.359 -0.1193  0.6967  0.1646
12205TIP3    H136572   3.214   3.802   6.386  0.3599  0.7831  0.3770
12205TIP3    H236573   3.254   3.666   6.440  0.7835  0.7918  0.0879
12206TIP3   OH236574   4.305   6.189   6.442  0.2391  0.3820 -0.0948
12206TIP3    H136575   4.221   6.145   6.454  0.3033  0.7631  1.9207
12206TIP3    H236576   4.347   6.185   6.528  3.4394 -2.1008 -1.6670
12207TIP3   OH236577   3.172   6.720   5.966 -0.1840  0.5179 -0.7240
12207TIP3    H136578   3.258   6.681   5.951 -0.7834 -1.0709 -0.1417
12207TIP3    H236579   3.182   6.768   6.049 -0.2868 -1.0642  0.2371
12208TIP3   OH236580   2.602   5.320   6.146 -0.0174 -0.5008  0.2707
12208TIP3    H136581   2.522   5.293   6.101 -1.1178  1.8925  0.7183
12208TIP3    H236582   2.628   5.244   6.198 -0.9942 -1.9043 -1.2774
12209TIP3   OH236583   3.172   6.304   6.026 -0.1461  0.1764  0.5417
12209TIP3    H136584   3.088   6.308   6.073 -0.2361 -0.8925  0.4841
12209TIP3    H236585   3.236   6.336   6.090 -0.3126 -0.9819  1.3251
12210TIP3   OH236586   1.894   6.727   4.688  0.1495  0.2075  0.0475
12210TIP3    H136587   1.895   6.638   4.724 -0.3092  0.6364  1.1364
12210TIP3    H236588   1.949   6.777   4.748 -1.4226  1.1453  0.7484
12211TIP3   OH236589   2.128   6.032   5.662 -0.1381  0.3956 -0.8256
12211TIP3    H136590   2.154   6.124   5.665 -0.3264  0.4291 -0.1505
12211TIP3    H236591   2.090   6.015   5.748  1.2341 -0.7082 -0.4127
12212TIP3   OH236592   1.225   7.082   5.703 -0.2186  0.2714 -0.4850
12212TIP3    H136593   1.145   7.049   5.744  0.3545 -0.2501  0.2130
12212TIP3    H236594   1.217   7.177   5.706  0.0848  0.2433  1.3401
12213TIP3   OH236595   2.753   6.436   4.229  0.0011 -0.2913  0.7066
12213TIP3    H136596   2.676   6.471   4.275  0.4601 -0.2954  1.4838
12213TIP3    H236597   2.721   6.357   4.186 -1.2432  1.3869 -1.6484
12214TIP3   OH236598   6.553   0.597   3.376  0.1080 -0.0538  0.4613
12214TIP3    H136599   6.556   0.563   3.286  2.9429  1.1070  0.0754
12214TIP3    H236600   6.466   0.571   3.408 -0.8855 -0.6617 -2.5224
12215TIP3   OH236601   3.238   6.573   5.665 -0.1356  0.4709 -0.1782
12215TIP3    H136602   3.200   6.661   5.666  0.0106  0.5374 -0.5660
12215TIP3    H236603   3.303   6.575   5.735 -0.5526  0.4837  0.2132
12216TIP3   OH236604   8.355   1.680   0.969  0.0619  0.0685  0.4278
12216TIP3    H136605   8.339   1.646   1.057 -0.1827 -1.1652 -0.0772
12216TIP3    H236606   8.423   1.622   0.933 -0.6611 -0.1547 -0.5998
12217TIP3   OH236607   2.704   7.664   4.276 -0.3455  0.6126  0.3801
12217TIP3    H136608   2.715   7.570   4.271 -1.2449  0.4586  1.1846
12217TIP3    H236609   2.656   7.679   4.358 -0.0472  1.7750  0.3578
12218TIP3   OH236610   2.119   4.446   5.193 -0.3212  0.1419  0.0236
12218TIP3    H136611   2.115   4.478   5.283  0.6222  1.1581 -0.2987
12218TIP3    H236612   2.192   4.383   5.192  0.6003  1.2039 -0.3653
12219TIP3   OH236613   1.733   2.592   0.295  0.4119 -0.1809  0.1439
12219TIP3    H136614   1.761   2.577   0.204 -1.6330 -0.1151 -0.5282
12219TIP3    H236615   1.810   2.629   0.338  1.4389 -0.3079 -1.5440
12220TIP3   OH236616   2.317   7.203   4.867  0.1454 -0.1302  0.0710
12220TIP3    H136617   2.336   7.190   4.960  0.5307 -0.7017 -0.0839
12220TIP3    H236618   2.222   7.192   4.860  0.0833  0.1788  0.4404
12221TIP3   OH236619   6.455   0.696   4.821 -0.3220 -0.5961 -0.1569
12221TIP3    H136620   6.395   0.742   4.880 -2.1234 -2.2951 -0.6011
12221TIP3    H236621   6.508   0.641   4.879 -1.0883 -1.1631  0.0091
12222TIP3   OH236622   3.261   5.216   4.472  0.0791  0.0913  0.6222
12222TIP3    H136623   3.233   5.136   4.428 -0.8664  0.5591  0.3700
12222TIP3    H236624   3.193   5.234   4.537  0.8791  0.0460  1.4928
12223TIP3   OH236625   2.534   4.842   4.510  0.0894 -0.0765 -0.1694
12223TIP3    H136626   2.533   4.897   4.588 -3.6657 -0.0586 -0.1082
12223TIP3    H236627   2.477   4.768   4.532  1.7828 -1.8919 -1.6926
12224TIP3   OH236628   2.480   4.328   6.342  0.1473  0.2899 -0.0638
12224TIP3    H136629   2.454   4.411   6.304  0.7734 -0.0491 -1.2784
12224TIP3    H236630   2.567   4.344   6.380  1.2657 -0.3504 -2.2790
12225TIP3   OH236631   6.542   0.317   6.798  0.1961  0.6684  0.0233
12225TIP3    H136632   6.479   0.388   6.791  0.2074  0.5575 -1.1913
12225TIP3    H236633   6.584   0.331   6.883 -2.3082  0.0444  1.4127
12226TIP3   OH236634   3.522   6.439   6.413 -0.3678 -0.0908  0.0007
12226TIP3    H136635   3.581   6.401   6.478  0.0343 -1.9891 -1.4146
12226TIP3    H236636   3.440   6.452   6.460  0.3698 -0.0067  1.2877
12227TIP3   OH236637   5.016   6.337   6.081 -0.1975  0.4218  0.8159
12227TIP3    H136638   5.043   6.357   6.171 -0.2687  1.3936  0.6247
12227TIP3    H236639   5.097   6.338   6.031 -0.2880  0.9445  0.6786
12228TIP3   OH236640   3.785   6.690   4.344 -0.2961  0.3581  0.6480
12228TIP3    H136641   3.771   6.784   4.343  1.0012  0.5739  1.6371
12228TIP3    H236642   3.880   6.679   4.350 -0.4197 -1.0063  0.4304
12229TIP3   OH236643   3.209   7.596   5.417 -0.2742  0.2534  0.1653
12229TIP3    H136644   3.210   7.683   5.376  2.6089  0.7794  1.2533
12229TIP3    H236645   3.146   7.546   5.364  0.4061  2.0649 -2.4691
12230TIP3   OH236646   8.153   1.718   0.236 -0.0835 -0.4222 -0.5644
12230TIP3    H136647   8.226   1.658   0.221  0.1988  0.0812 -1.2243
12230TIP3    H236648   8.078   1.661   0.252  0.1505 -0.9580 -1.3335
12231TIP3   OH236649   0.664   4.135   1.710 -0.6860 -0.3857  0.2282
12231TIP3    H136650   0.686   4.046   1.682  0.9265 -0.9152  2.9996
12231TIP3    H236651   0.713   4.192   1.650  0.2122 -1.4144 -0.0357
12232TIP3   OH236652   1.312   2.384   0.173  0.2070 -0.8015 -0.3136
12232TIP3    H136653   1.260   2.397   0.094 -0.0909 -0.6859 -0.0991
12232TIP3    H236654   1.256   2.332   0.231 -0.0998  0.2309  0.3447
12233TIP3   OH236655   2.087   5.971   4.771 -0.4250 -0.4702 -0.1425
12233TIP3    H136656   2.042   6.055   4.783 -1.7157 -1.0744 -0.6847
12233TIP3    H236657   2.084   5.955   4.677 -1.4644 -1.7958  0.0952
12234TIP3   OH236658   2.984   5.589   4.352  0.2435  0.0644 -0.1577
12234TIP3    H136659   3.017   5.574   4.440  1.0744 -1.3564 -0.6905
12234TIP3    H236660   3.047   5.649   4.312 -0.4529  1.1884  0.3800
12235TIP3   OH236661   2.656   5.628   5.959  0.0002 -0.0963 -0.1730
12235TIP3    H136662   2.638   5.543   5.921  0.0292  0.5272 -1.5979
12235TIP3    H236663   2.621   5.691   5.896 -0.5413  0.9426  1.1345
12236TIP3   OH236664   3.467   5.356   6.508  0.0864 -0.7171  0.3203
12236TIP3    H136665   3.437   5.432   6.558  0.7896  0.3906 -0.9112
12236TIP3    H236666   3.434   5.371   6.419  1.5611 -1.0640 -0.2961
12237TIP3   OH236667   2.656   4.760   5.565  0.4412  0.5082  0.2110
12237TIP3    H136668   2.735   4.715   5.597 -0.8304 -0.9416  1.3461
12237TIP3    H236669   2.638   4.718   5.481  0.4423  0.3150  0.3069
12238TIP3   OH236670   0.286   6.251   6.114 -0.3067  0.2183  0.0663
12238TIP3    H136671   0.224   6.318   6.085 -0.8104 -1.0166 -1.8686
12238TIP3    H236672   0.372   6.287   6.093 -0.5954  0.0876 -1.4252
12239TIP3   OH236673   4.312   6.229   5.999  0.1204 -0.3277  0.3257
12239TIP3    H136674   4.238   6.290   6.004 -0.4801 -0.9009 -1.2677
12239TIP3    H236675   4.275   6.151   5.957  1.7101 -0.4926 -0.8002
12240TIP3   OH236676   3.188   4.472   5.393 -0.1087  0.8044 -0.1937
12240TIP3    H136677   3.226   4.489   5.479 -1.1737  0.7898  0.2917
12240TIP3    H236678   3.158   4.558   5.363 -0.5645  0.6654 -0.1415
12241TIP3   OH236679   2.337   7.659   5.819 -0.0386  0.7883  0.2102
12241TIP3    H136680   2.255   7.611   5.831  0.4992  0.0089  0.7618
12241TIP3    H236681   2.354   7.653   5.725 -0.0617  0.0361  0.2529
12242TIP3   OH236682   3.843   5.025   5.431  0.0568  0.3069  0.2894
12242TIP3    H136683   3.834   4.960   5.362  1.8065  0.4434 -0.1016
12242TIP3    H236684   3.840   4.975   5.513  1.6992 -0.3398 -0.0191
12243TIP3   OH236685   0.568   4.891   0.067 -0.2118  0.0469 -0.0949
12243TIP3    H136686   0.535   4.969   0.022  2.5601  0.3125 -1.7334
12243TIP3    H236687   0.656   4.878   0.032  0.3316 -2.3526  2.0265
12244TIP3   OH236688   8.248   0.330   0.200 -0.0103  0.1217 -0.3327
12244TIP3    H136689   8.207   0.263   0.145 -1.7893  1.1048 -0.2729
12244TIP3    H236690   8.262   0.286   0.284 -1.7328 -0.0386 -0.0980
12245TIP3   OH236691   0.383   3.118   0.973 -0.3254 -0.6628  0.1196
12245TIP3    H136692   0.372   3.111   0.879  0.5921 -0.3032 -0.0161
12245TIP3    H236693   0.294   3.134   1.007 -0.3391  1.5657 -0.8871
12246TIP3   OH236694   8.423   3.182   1.877 -0.0988 -0.1946 -0.3413
12246TIP3    H136695   8.373   3.208   1.954 -0.1278  0.1428 -0.4752
12246TIP3    H236696   8.358   3.149   1.816  0.1141 -2.4543  0.5754
12247TIP3   OH236697   0.378   3.338   1.417  0.2807  0.3779  0.4118
12247TIP3    H136698   0.415   3.350   1.504  0.3962 -2.8384  0.8441
12247TIP3    H236699   0.343   3.250   1.417 -1.4001  0.9834 -2.2161
12248TIP3   OH236700   3.023   6.355   5.684 -0.0428 -0.1411  0.3278
12248TIP3    H136701   3.031   6.425   5.749 -0.3878 -0.7348  1.0159
12248TIP3    H236702   3.015   6.275   5.736 -3.7483 -0.3213 -0.3434
12249TIP3   OH236703   6.651   1.266   4.954 -0.6494  0.3296  0.2170
12249TIP3    H136704   6.691   1.315   4.882  0.3424  0.7279  1.0075
12249TIP3    H236705   6.725   1.245   5.012 -1.6808  1.8055  2.1350
12250TIP3   OH236706   7.591   1.771   0.256 -0.5352 -0.1545 -0.7504
12250TIP3    H136707   7.647   1.801   0.328  1.1154  1.0120 -2.4555
12250TIP3    H236708   7.514   1.733   0.299  1.3157 -1.2943  1.6428
12251TIP3   OH236709   5.698   0.439   4.117  0.5165 -0.0964 -0.4902
12251TIP3    H136710   5.708   0.355   4.162  1.5106 -0.2054 -0.8969
12251TIP3    H236711   5.672   0.416   4.028 -0.9966  0.1011 -0.1040
12252TIP3   OH236712   2.204   7.317   6.337  0.5703 -0.3043 -0.9400
12252TIP3    H136713   2.277   7.326   6.398  0.7084 -0.8162 -1.0276
12252TIP3    H236714   2.135   7.373   6.373  0.9021 -0.0505 -0.6995
12253TIP3   OH236715   8.357   1.477   0.067 -0.0082 -0.1871 -0.2685
12253TIP3    H136716   8.361   1.442  -0.022  1.2309 -0.5417 -0.0748
12253TIP3    H236717   8.285   1.428   0.108 -1.7531  1.1803 -1.5725
12254TIP3   OH236718   6.540   7.950   0.145  0.1537 -0.1833  0.2966
12254TIP3    H136719   6.589   7.880   0.104 -0.8913 -0.8311  0.1508
12254TIP3    H236720   6.601   8.024   0.147  0.9973 -0.8600 -0.2340
12255TIP3   OH236721   1.090   5.959   5.741 -0.0371  0.5329  0.2371
12255TIP3    H136722   1.051   5.883   5.783 -0.1626  0.3172 -0.2641
12255TIP3    H236723   1.016   6.012   5.712  0.0481  0.9815  0.8191
12256TIP3   OH236724   3.615   5.717   5.454 -0.1273  0.4982  0.3600
12256TIP3    H136725   3.551   5.676   5.396  1.3250 -2.7655  0.9698
12256TIP3    H236726   3.695   5.722   5.401  1.2706 -2.6853  2.0143
12257TIP3   OH236727   2.023   7.158   5.967  0.1904  0.3005 -0.3931
12257TIP3    H136728   2.115   7.132   5.958 -0.1105 -1.1300  0.3994
12257TIP3    H236729   2.018   7.196   6.055 -0.2543 -0.9631  0.1457
12258TIP3   OH236730   3.961   3.870   5.390 -0.3383  0.0329  0.5114
12258TIP3    H136731   3.943   3.874   5.296 -0.6571 -0.5097  0.5456
12258TIP3    H236732   3.958   3.961   5.419 -1.7825  0.0835  0.2721
12259TIP3   OH236733   3.280   4.217   5.256 -0.0432  0.3634  0.3239
12259TIP3    H136734   3.322   4.268   5.187  0.1325 -0.3977 -0.1383
12259TIP3    H236735   3.265   4.280   5.327  1.3408  0.7743  0.2601
12260TIP3   OH236736   2.940   6.064   3.728 -0.2747  0.2158 -0.4328
12260TIP3    H136737   2.848   6.088   3.734 -0.7841 -2.0324  1.5442
12260TIP3    H236738   2.984   6.125   3.787 -0.7822 -0.0836  0.2596
12261TIP3   OH236739   1.850   7.649   5.446  0.1411  0.2316 -0.8737
12261TIP3    H136740   1.944   7.670   5.451  0.6522 -2.2320  1.2564
12261TIP3    H236741   1.813   7.684   5.527 -0.8535  1.3948 -1.8119
12262TIP3   OH236742   1.815   5.157   4.755  0.5030 -0.4375 -0.3818
12262TIP3    H136743   1.874   5.116   4.819  0.1290 -0.8299 -0.2863
12262TIP3    H236744   1.873   5.184   4.684  0.9334  0.0672  0.1538
12263TIP3   OH236745   1.741   5.710   4.647  0.3245 -0.5157  0.3052
12263TIP3    H136746   1.680   5.657   4.596  0.8523 -0.3405 -0.5407
12263TIP3    H236747   1.716   5.801   4.628  0.8862 -0.4400 -0.1272
12264TIP3   OH236748   2.222   6.765   5.763  0.4964 -0.2576  0.0876
12264TIP3    H136749   2.250   6.809   5.682  0.0398 -0.4199 -0.1629
12264TIP3    H236750   2.266   6.813   5.833  1.7577 -0.7898 -0.3264
12265TIP3   OH236751   6.435   0.104   4.103  0.0293  0.0454  0.2329
12265TIP3    H136752   6.339   0.096   4.107  0.2124 -3.0760 -0.7895
12265TIP3    H236753   6.466   0.057   4.180  0.8233 -0.4739 -0.4012
12266TIP3   OH236754   2.849   6.245   6.853 -0.5577  0.4889  0.3227
12266TIP3    H136755   2.904   6.320   6.875  0.9126 -0.4779  0.0263
12266TIP3    H236756   2.801   6.272   6.775  1.6960  0.3132 -1.1930
12267TIP3   OH236757   3.789   4.045   5.780 -0.6606  0.1046 -0.7832
12267TIP3    H136758   3.752   4.098   5.709  0.5282  0.4755 -1.1271
12267TIP3    H236759   3.882   4.038   5.759  0.3201  2.7852  2.3492
12268TIP3   OH236760   0.848   6.860   5.205 -0.7382  0.0208  0.0354
12268TIP3    H136761   0.797   6.870   5.286 -0.9963  0.5358 -0.1871
12268TIP3    H236762   0.804   6.917   5.142  0.1876  0.5631 -0.1279
12269TIP3   OH236763   3.194   4.939   6.864 -0.5268  0.0254  0.2296
12269TIP3    H136764   3.239   5.024   6.866  1.1108 -0.8365  1.4256
12269TIP3    H236765   3.114   4.955   6.814 -0.8701  2.5914  1.5040
12270TIP3   OH236766   2.152   6.486   5.071 -0.4206  0.3185 -0.6184
12270TIP3    H136767   2.246   6.469   5.080 -0.5833  0.3866  1.3080
12270TIP3    H236768   2.116   6.402   5.042  0.3818  0.6398 -2.6605
12271TIP3   OH236769   4.246   5.873   6.282  0.3015 -0.3253  0.1510
12271TIP3    H136770   4.181   5.941   6.298  0.0212 -0.5970  0.1778
12271TIP3    H236771   4.259   5.832   6.368 -0.3602 -1.0355 -0.0764
12272TIP3   OH236772   4.813   7.079   3.698 -0.2062  0.0912 -0.1084
12272TIP3    H136773   4.871   7.004   3.709  1.1160  0.7436 -2.3525
12272TIP3    H236774   4.833   7.135   3.774  2.3501  0.4395 -0.9770
12273TIP3   OH236775   2.767   6.927   3.875 -0.5914 -0.2444 -0.2830
12273TIP3    H136776   2.830   6.855   3.867  0.3673  0.4820  0.5724
12273TIP3    H236777   2.693   6.889   3.923 -0.9824 -1.2021 -1.6117
12274TIP3   OH236778   4.371   6.927   6.200 -0.0537  0.7398  0.3689
12274TIP3    H136779   4.320   6.852   6.230 -0.6190  0.6906 -0.7029
12274TIP3    H236780   4.435   6.942   6.270  1.4412 -2.0475 -0.3446
12275TIP3   OH236781   6.962   0.337   6.696 -0.5218  0.0942 -0.0144
12275TIP3    H136782   6.877   0.380   6.685 -0.3589  0.4609  0.1380
12275TIP3    H236783   6.944   0.244   6.682 -0.6918  0.3203 -1.3131
12276TIP3   OH236784   3.124   5.717   4.766 -0.1605 -0.2089  0.1599
12276TIP3    H136785   3.158   5.664   4.837  0.4728 -2.0810 -1.5090
12276TIP3    H236786   3.063   5.660   4.720 -2.3799  1.7404  0.5728
12277TIP3   OH236787   2.150   6.556   5.988 -0.0280  0.2315 -0.6315
12277TIP3    H136788   2.168   6.597   5.904  0.7761 -1.1831 -1.1608
12277TIP3    H236789   2.205   6.603   6.050  0.3998  0.3754 -1.1175
12278TIP3   OH236790   5.870   2.442   3.565  1.0678  0.2491  0.0108
12278TIP3    H136791   5.881   2.455   3.660 -0.0106 -2.8030  0.6398
12278TIP3    H236792   5.782   2.405   3.557  1.6821 -0.8111 -2.0440
12279TIP3   OH236793   3.666   7.160   6.129  0.8349  0.1211 -0.2059
12279TIP3    H136794   3.598   7.227   6.132  0.3204 -0.4145  0.2613
12279TIP3    H236795   3.619   7.080   6.104  1.6791  0.2235 -2.2080
12280TIP3   OH236796   2.391   2.103   0.784 -0.3095  0.4587  0.4642
12280TIP3    H136797   2.434   2.103   0.869  0.0026 -0.8339  0.3202
12280TIP3    H236798   2.416   2.186   0.744  1.8438 -0.1430  0.5074
12281TIP3   OH236799   3.644   5.502   6.087 -0.6499 -0.1642 -0.1386
12281TIP3    H136800   3.660   5.579   6.032 -2.6342  0.9640  0.8220
12281TIP3    H236801   3.720   5.499   6.146  0.4321 -0.1421 -1.4973
12282TIP3   OH236802   3.854   4.589   4.962  0.7341 -0.3746  0.1528
12282TIP3    H136803   3.817   4.608   4.875 -0.1255  1.2544  0.8429
12282TIP3    H236804   3.826   4.500   4.981 -1.2429  0.1397 -0.1797
12283TIP3   OH236805   3.966   6.673   6.299  0.8988 -0.1768  0.0523
12283TIP3    H136806   4.005   6.589   6.325 -0.0036 -0.5837  0.0944
12283TIP3    H236807   3.879   6.650   6.267  0.8954  0.6716 -0.5496
12284TIP3   OH236808   3.189   6.684   4.074 -0.5776  0.1978 -0.1559
12284TIP3    H136809   3.226   6.640   3.997 -2.2384 -0.8036 -0.3857
12284TIP3    H236810   3.265   6.725   4.116  0.5049 -0.1108 -1.7455
12285TIP3   OH236811   4.529   7.121   5.188  0.0657  0.1781 -0.3298
12285TIP3    H136812   4.607   7.128   5.133  0.3580 -1.4344 -0.1638
12285TIP3    H236813   4.563   7.108   5.277 -0.4018  1.1585 -0.0012
12286TIP3   OH236814   4.913   6.069   6.107 -0.6344  0.3380 -0.4781
12286TIP3    H136815   4.944   6.159   6.102  0.8409 -0.2241 -1.6315
12286TIP3    H236816   4.841   6.072   6.171 -1.3530  2.5300 -1.3501
12287TIP3   OH236817   2.357   5.892   5.218  0.5005 -0.0294  0.2769
12287TIP3    H136818   2.424   5.953   5.186 -0.1358  0.8066  0.5229
12287TIP3    H236819   2.404   5.835   5.278  0.4996  2.1611  2.4303
12288TIP3   OH236820   0.546   4.326   0.236 -0.2846  0.5111 -0.1304
12288TIP3    H136821   0.479   4.257   0.233 -1.3507  1.4763  0.8825
12288TIP3    H236822   0.629   4.280   0.226 -1.0386 -0.8242 -0.3286
12289TIP3   OH236823   2.127   7.464   4.753  0.0136 -0.3517  0.0757
12289TIP3    H136824   2.172   7.543   4.725 -1.3674 -0.1865 -1.7801
12289TIP3    H236825   2.132   7.405   4.678 -1.7891 -0.7702  0.2522
12290TIP3   OH236826   4.226   4.636   5.281 -0.6888 -0.3036 -0.3207
12290TIP3    H136827   4.165   4.677   5.220  1.1886  2.4177 -0.4631
12290TIP3    H236828   4.189   4.653   5.368 -0.5604  0.6333 -0.4444
12291TIP3   OH236829   5.394   7.092   5.541  0.1811  0.1834  0.1540
12291TIP3    H136830   5.483   7.058   5.545  0.4428  0.5467 -2.3888
12291TIP3    H236831   5.351   7.054   5.619  1.9014 -1.7816  0.1916
12292TIP3   OH236832   6.678   0.496   4.910 -0.5405  0.3178  0.0852
12292TIP3    H136833   6.715   0.410   4.889 -0.9856 -0.3078  1.8206
12292TIP3    H236834   6.734   0.531   4.979  0.2468  1.8886 -1.2911
12293TIP3   OH236835   6.630   0.165   5.579  0.5171 -0.7712  0.0863
12293TIP3    H136836   6.590   0.246   5.546 -0.3204  0.0971  3.0753
12293TIP3    H236837   6.563   0.128   5.636  0.4473 -4.2142 -2.1114
12294TIP3   OH236838   3.755   6.480   6.260 -0.4260 -0.1057  0.3613
12294TIP3    H136839   3.817   6.407   6.247 -0.9454 -0.2371 -1.5407
12294TIP3    H236840   3.678   6.439   6.299 -0.3806 -0.4248  0.1210
12295TIP3   OH236841   4.339   5.967   6.901  0.3547  0.2466  0.1888
12295TIP3    H136842   4.245   5.973   6.883  0.3667 -2.2690 -0.9032
12295TIP3    H236843   4.364   6.056   6.924 -2.4484  0.8242  1.2505
12296TIP3   OH236844   5.181   4.689   6.284 -0.4211  0.1714  0.0156
12296TIP3    H136845   5.120   4.616   6.278 -1.3467  0.9166  0.2407
12296TIP3    H236846   5.190   4.721   6.194 -3.5466  2.6129  0.4688
12297TIP3   OH236847   3.396   6.664   4.745 -0.1991  0.3740  0.2660
12297TIP3    H136848   3.336   6.603   4.788 -0.9939 -0.2180 -1.6108
12297TIP3    H236849   3.344   6.701   4.673  1.4695  0.3939 -0.9446
12298TIP3   OH236850   5.480   7.848   4.021 -0.6427  0.1535  0.0219
12298TIP3    H136851   5.400   7.863   4.071  0.0900  1.1192  0.9256
12298TIP3    H236852   5.546   7.902   4.064  0.0255  0.9524 -1.9698
12299TIP3   OH236853   6.265   0.347   5.508  0.7507  0.0349 -0.3362
12299TIP3    H136854   6.356   0.362   5.483  0.2368  2.1762 -0.9940
12299TIP3    H236855   6.251   0.402   5.584  1.4282 -4.2052  3.0731
12300TIP3   OH236856   6.642   0.541   4.485  0.0320  0.3402 -0.2605
12300TIP3    H136857   6.735   0.522   4.477 -0.0253  0.2321 -0.6800
12300TIP3    H236858   6.633   0.632   4.459  0.5455  1.4913  3.3620
12301TIP3   OH236859   5.048   5.096   5.487  0.2149  0.0877 -0.5098
12301TIP3    H136860   4.980   5.134   5.542 -0.5119 -1.0828 -0.6041
12301TIP3    H236861   5.001   5.056   5.414  1.0260 -0.3625 -0.7955
12302TIP3   OH236862   0.098   0.097   6.826 -0.5333  0.0535 -0.2054
12302TIP3    H136863   0.100   0.053   6.911  1.6712 -1.5207 -1.0172
12302TIP3    H236864   0.123   0.188   6.845 -1.3280  0.0267  0.9902
12303TIP3   OH236865   5.441   5.555   6.128  0.0557  0.4239  0.0338
12303TIP3    H136866   5.520   5.513   6.095  0.7036 -0.5725  2.7107
12303TIP3    H236867   5.404   5.492   6.190 -0.1798  2.8413  2.4713
12304TIP3   OH236868   4.547   6.806   6.832 -0.0706  1.0247  0.0832
12304TIP3    H136869   4.601   6.820   6.754 -0.5097 -0.1360 -0.4366
12304TIP3    H236870   4.590   6.857   6.900  0.4462  1.8692 -0.8628
12305TIP3   OH236871   1.956   7.912   3.324 -0.0916  0.0174 -0.0137
12305TIP3    H136872   1.866   7.891   3.299  0.7097 -1.8867 -1.4438
12305TIP3    H236873   1.981   7.842   3.384  0.1331  1.0416  1.0952
12306TIP3   OH236874   2.767   5.395   6.756  0.5871 -0.0104  0.0404
12306TIP3    H136875   2.835   5.342   6.797  1.7231  0.4560 -1.1958
12306TIP3    H236876   2.765   5.366   6.665  0.1864  1.0402 -0.2987
12307TIP3   OH236877   3.893   6.236   6.198  0.2840 -0.3479  0.1062
12307TIP3    H136878   3.972   6.282   6.226  0.1452 -0.5703  0.8925
12307TIP3    H236879   3.925   6.168   6.138  0.5962  0.0992 -0.2384
12308TIP3   OH236880   5.800   6.389   5.337  0.7419 -0.0782 -0.0414
12308TIP3    H136881   5.798   6.483   5.316  0.8981 -0.2384 -0.7950
12308TIP3    H236882   5.800   6.386   5.433 -0.5609  0.6604 -0.0034
12309TIP3   OH236883   2.725   5.873   6.877  0.1658  0.5405  0.3304
12309TIP3    H136884   2.733   5.811   6.804 -0.4337  1.4134 -0.4866
12309TIP3    H236885   2.814   5.902   6.895  0.1510  1.4099 -1.0006
12310TIP3   OH236886   3.531   7.147   6.427  0.1888  0.2204 -0.2608
12310TIP3    H136887   3.478   7.132   6.505 -0.2938 -0.5735 -0.7329
12310TIP3    H236888   3.621   7.154   6.459 -0.0137 -0.0322  0.3631
12311TIP3   OH236889   1.838   1.494   0.238  0.0730  0.1804  0.5093
12311TIP3    H136890   1.764   1.461   0.290 -1.4282  1.8929 -0.4843
12311TIP3    H236891   1.892   1.542   0.301  0.3115 -1.0114  1.2267
12312TIP3   OH236892   5.507   7.045   5.213  0.2924  0.2512 -0.1390
12312TIP3    H136893   5.454   6.978   5.256  1.2024  1.2904  2.7241
12312TIP3    H236894   5.556   6.997   5.146 -1.0661 -1.4383  0.0204
12313TIP3   OH236895   1.806   4.207   0.165  0.5253  0.3870 -0.1255
12313TIP3    H136896   1.813   4.112   0.164 -1.0307  0.2282  1.0877
12313TIP3    H236897   1.881   4.238   0.115 -0.7557 -1.5915 -3.4371
12314TIP3   OH236898   4.742   4.453   4.382 -0.0921 -0.2352  0.6782
12314TIP3    H136899   4.669   4.514   4.380 -0.6401 -0.8684  1.0287
12314TIP3    H236900   4.740   4.411   4.296 -1.0696 -1.3170  1.2152
12315TIP3   OH236901   3.625   7.759   3.839 -0.1307  0.8136 -0.2667
12315TIP3    H136902   3.606   7.843   3.797  1.5617  1.6099  0.5283
12315TIP3    H236903   3.605   7.773   3.931 -0.4072  0.1647 -0.2271
12316TIP3   OH236904   3.837   6.231   4.684 -0.3555 -0.1909  0.0112
12316TIP3    H136905   3.870   6.166   4.623 -3.0011 -1.0037 -0.6310
12316TIP3    H236906   3.875   6.314   4.654 -0.0213 -0.8770 -1.4972
12317TIP3   OH236907   8.345   7.209   5.825  0.1293 -0.3213 -0.7343
12317TIP3    H136908   8.351   7.268   5.900 -1.5561 -2.1898  0.9066
12317TIP3    H236909   8.427   7.223   5.778  0.7058  1.7424  0.8000
12318TIP3   OH236910   3.407   7.871   4.861 -0.1500 -0.0255 -0.0392
12318TIP3    H136911   3.379   7.938   4.923  0.5947 -1.3341  1.7622
12318TIP3    H236912   3.352   7.795   4.881  0.7997 -0.7915 -0.3005
12319TIP3   OH236913   3.089   3.416   0.088  0.0683  0.2354 -0.1297
12319TIP3    H136914   3.124   3.356   0.023 -1.4127 -1.5087  0.6528
12319TIP3    H236915   3.140   3.398   0.167  1.1706  1.6307 -0.5055
12320TIP3   OH236916   2.116   2.443   1.208  0.3788 -0.0424  0.5300
12320TIP3    H136917   2.124   2.368   1.150 -0.1514 -0.0011  0.3995
12320TIP3    H236918   2.062   2.506   1.159 -1.3703 -0.6153  1.6524
12321TIP3   OH236919   4.856   7.666   5.066  0.4831 -0.2892 -0.0220
12321TIP3    H136920   4.853   7.571   5.055  0.6864 -0.4824  1.4116
12321TIP3    H236921   4.949   7.687   5.067  0.4206  0.1441 -1.9345
12322TIP3   OH236922   2.783   6.548   4.535 -0.0829  0.0359 -0.3578
12322TIP3    H136923   2.757   6.607   4.606  0.7981  0.0098 -0.0123
12322TIP3    H236924   2.700   6.524   4.494 -0.5873  0.2679  0.4922
12323TIP3   OH236925   4.828   6.157   3.336 -0.5687  0.6246 -0.2397
12323TIP3    H136926   4.758   6.172   3.272 -0.0702  0.5212 -0.8169
12323TIP3    H236927   4.794   6.193   3.418 -1.6272 -0.1591 -0.3189
12324TIP3   OH236928   8.389   4.418   0.405 -0.4149  0.4578  0.1669
12324TIP3    H136929   8.347   4.371   0.333  0.2054 -0.2668  0.2755
12324TIP3    H236930   8.316   4.444   0.462 -0.8588  0.5919 -0.4579
12325TIP3   OH236931   3.354   2.461   0.506 -0.1614 -0.4611 -0.5001
12325TIP3    H136932   3.403   2.533   0.544  0.5183 -0.5018 -1.2806
12325TIP3    H236933   3.273   2.457   0.557 -0.6124  1.4427 -1.0316
12326TIP3   OH236934   2.970   5.012   5.669 -0.3788 -0.3167 -0.8508
12326TIP3    H136935   3.020   5.016   5.750 -1.9596  0.8894  0.0964
12326TIP3    H236936   2.956   4.918   5.653  1.4597 -0.6215 -0.7018
12327TIP3   OH236937   4.029   5.950   5.247 -0.1849 -0.2432  0.2088
12327TIP3    H136938   4.081   5.942   5.166  1.1327 -1.1630  1.1291
12327TIP3    H236939   4.075   6.017   5.298 -0.0388 -0.8859  0.9269
12328TIP3   OH236940   4.172   4.302   6.714 -0.4876  0.2360 -0.8846
12328TIP3    H136941   4.239   4.360   6.678  0.1256 -0.6355 -1.1498
12328TIP3    H236942   4.114   4.361   6.763  1.0656  0.8606  0.2354
12329TIP3   OH236943   5.352   5.254   4.858  0.0306  0.0576 -0.0129
12329TIP3    H136944   5.396   5.328   4.815  1.1199 -0.7432 -0.2957
12329TIP3    H236945   5.293   5.219   4.792  0.9824 -0.5579 -0.5544
12330TIP3   OH236946   3.743   6.942   2.734  0.0493 -0.6130  0.3349
12330TIP3    H136947   3.815   6.987   2.690 -1.6673  1.6388 -0.3047
12330TIP3    H236948   3.757   6.958   2.827  0.0515  0.3246  0.1752
12331TIP3   OH236949   4.988   6.656   6.069 -0.1617 -0.9050 -0.2017
12331TIP3    H136950   4.894   6.671   6.076  0.1281 -0.0377  3.0327
12331TIP3    H236951   5.002   6.623   5.981 -3.5206 -1.2653 -0.6312
12332TIP3   OH236952   3.367   7.488   4.449  0.2809  0.6009 -0.7497
12332TIP3    H136953   3.305   7.417   4.463  1.0950 -0.1940 -1.0884
12332TIP3    H236954   3.355   7.546   4.524 -0.2601 -0.0010 -0.3709
12333TIP3   OH236955   4.111   6.508   4.377  0.3757 -0.4240  0.4743
12333TIP3    H136956   4.178   6.455   4.420  0.9038 -0.1646 -0.0277
12333TIP3    H236957   4.158   6.582   4.340 -0.2086 -0.1617  0.2420
12334TIP3   OH236958   3.710   5.673   5.696 -1.0048 -0.5309 -0.2619
12334TIP3    H136959   3.705   5.673   5.600 -1.1432 -0.7540 -0.2529
12334TIP3    H236960   3.620   5.661   5.725 -1.3390  2.0145 -0.0969
12335TIP3   OH236961   3.200   3.676   0.913  0.0781 -0.0643  0.1175
12335TIP3    H136962   3.290   3.705   0.896  0.8749 -1.4437  1.7909
12335TIP3    H236963   3.208   3.616   0.988 -2.1570 -0.6825 -0.1040
12336TIP3   OH236964   4.458   5.151   4.628  0.5097  0.3283  0.1985
12336TIP3    H136965   4.478   5.232   4.581 -1.8651 -0.4325 -2.2038
12336TIP3    H236966   4.410   5.179   4.706 -1.4191  1.1955 -1.2699
12337TIP3   OH236967   3.828   6.906   4.624  0.2231  0.2383 -0.1728
12337TIP3    H136968   3.879   6.839   4.578  0.2421  1.6027 -2.1758
12337TIP3    H236969   3.738   6.894   4.593  0.0176  0.4137  0.3428
12338TIP3   OH236970   2.946   6.166   6.165  0.2101  0.5498  0.2402
12338TIP3    H136971   2.910   6.248   6.131  0.8187  0.8243  0.2495
12338TIP3    H236972   2.884   6.099   6.138  1.9214  0.3979 -3.6245
12339TIP3   OH236973   4.331   5.480   3.963  0.2607 -0.4058 -0.2801
12339TIP3    H136974   4.364   5.461   3.875 -0.5027  0.7629 -0.8254
12339TIP3    H236975   4.267   5.550   3.950  0.5681  0.1761  1.2901
12340TIP3   OH236976   4.740   7.944   3.834  0.1239 -0.2015 -0.1469
12340TIP3    H136977   4.690   8.023   3.815 -0.6217 -0.6885 -0.2331
12340TIP3    H236978   4.815   7.948   3.775  0.6253  0.9399  0.5540
12341TIP3   OH236979   1.918   4.960   0.075 -0.6350  0.1034 -0.4241
12341TIP3    H136980   1.827   4.951   0.106 -0.1358 -1.6437  0.6212
12341TIP3    H236981   1.957   4.874   0.091  1.2803  0.9076 -0.6654
12342TIP3   OH236982   2.808   5.551   5.629 -0.4729  0.0921  0.3850
12342TIP3    H136983   2.790   5.565   5.722 -0.8198  0.2564  0.2948
12342TIP3    H236984   2.886   5.496   5.627 -0.8776 -0.5016  0.7895
12343TIP3   OH236985   1.045   7.351   5.229  0.2942 -0.3812 -0.5422
12343TIP3    H136986   1.104   7.276   5.234  0.3311 -0.4176 -1.4274
12343TIP3    H236987   0.984   7.328   5.159 -0.6754 -0.2735  0.2670
12344TIP3   OH236988   1.916   7.885   5.891  0.0075  0.1835  0.0242
12344TIP3    H136989   1.978   7.952   5.921 -0.7403  0.5129  0.8760
12344TIP3    H236990   1.945   7.804   5.933  0.3072  0.1887 -0.1777
12345TIP3   OH236991   2.657   3.961   6.398 -0.2273  0.3401 -0.3254
12345TIP3    H136992   2.595   3.943   6.469 -0.5895  0.1481 -0.6921
12345TIP3    H236993   2.656   3.882   6.345  0.8495  0.0658  0.0494
12346TIP3   OH236994   4.575   7.486   4.823 -0.7320 -0.5284  0.8962
12346TIP3    H136995   4.640   7.453   4.885 -1.7386 -1.4700  1.4680
12346TIP3    H236996   4.569   7.580   4.841  1.0938 -0.2536  0.2370
12347TIP3   OH236997   7.147   0.794   5.173 -0.0542 -0.0161  0.1305
12347TIP3    H136998   7.163   0.885   5.197  1.5249 -0.3160  0.2983
12347TIP3    H236999   7.088   0.799   5.098  0.6423  1.1898 -0.3607
12348TIP3   OH237000   3.003   7.460   5.285  0.5234 -0.0521 -0.6754
12348TIP3    H137001   2.992   7.365   5.288 -0.2220 -0.0171 -2.0510
12348TIP3    H237002   3.026   7.479   5.194  3.4791  0.8141  0.1914
12349TIP3   OH237003   4.345   5.727   6.484 -0.1289  0.0964 -0.1377
12349TIP3    H137004   4.267   5.712   6.539 -0.8263  2.7007 -0.3389
12349TIP3    H237005   4.419   5.708   6.542 -0.8858  0.3625  0.9332
12350TIP3   OH237006   3.275   3.207   0.085 -0.5828  0.1427  0.4967
12350TIP3    H137007   3.307   3.232  -0.002 -1.3482  0.1171  0.2081
12350TIP3    H237008   3.352   3.171   0.129 -0.0608  0.6757  0.0291
12351TIP3   OH237009   2.856   6.968   3.233  0.0657  0.4994  0.4253
12351TIP3    H137010   2.768   7.007   3.236  0.2478  1.2375 -2.3705
12351TIP3    H237011   2.915   7.043   3.246  0.2997  0.1496  1.3787
12352TIP3   OH237012   6.109   7.888   5.362 -0.3252 -0.0997 -0.2818
12352TIP3    H137013   6.119   7.840   5.280  0.4019  0.6464 -0.6415
12352TIP3    H237014   6.057   7.830   5.418 -1.1180 -0.4676 -1.3836
12353TIP3   OH237015   4.740   6.797   6.619 -0.4534  0.1568 -0.6061
12353TIP3    H137016   4.799   6.835   6.554  0.8290  0.3768  0.6585
12353TIP3    H237017   4.791   6.728   6.660 -0.6733  1.0946  1.2887
12354TIP3   OH237018   2.815   1.881   0.227 -0.0616 -0.0689 -0.2368
12354TIP3    H137019   2.777   1.819   0.165  0.2118 -0.6720  0.1890
12354TIP3    H237020   2.907   1.888   0.201  0.2311 -0.8824  0.5287
12355TIP3   OH237021   4.770   7.115   5.442  0.0021 -0.3976  0.2554
12355TIP3    H137022   4.865   7.122   5.439 -0.0575 -0.0488 -1.6862
12355TIP3    H237023   4.751   7.025   5.418 -0.2125  0.0401 -1.2700
12356TIP3   OH237024   5.432   1.139   5.162  0.2684 -0.6649  0.3330
12356TIP3    H137025   5.444   1.137   5.257 -1.8811  0.6667  0.6673
12356TIP3    H237026   5.427   1.232   5.141 -2.1445 -0.9902 -0.6743
12357TIP3   OH237027   6.345   5.098   4.293  0.3413 -0.0022  0.6297
12357TIP3    H137028   6.368   5.151   4.369  2.0497 -0.3726  0.3998
12357TIP3    H237029   6.289   5.154   4.240  1.1549  1.1475  0.9685
12358TIP3   OH237030   5.621   0.643   6.034 -0.0748  0.0754  0.6333
12358TIP3    H137031   5.601   0.561   5.990 -1.4392  0.3055  0.8127
12358TIP3    H237032   5.715   0.638   6.053  0.0660 -0.9715 -0.3158
12359TIP3   OH237033   3.127   4.449   4.290 -0.8418  0.1798 -0.2104
12359TIP3    H137034   3.041   4.412   4.265 -0.9254 -0.2128  0.6501
12359TIP3    H237035   3.182   4.432   4.214 -0.3824 -3.4041  0.8359
12360TIP3   OH237036   5.077   7.308   5.213  0.5063 -0.2658 -0.4106
12360TIP3    H137037   5.139   7.306   5.286  0.9962 -1.4987 -0.8480
12360TIP3    H237038   4.995   7.335   5.253  1.1878  0.8513  0.2773
12361TIP3   OH237039   2.257   5.484   3.971 -0.3829 -0.6003 -0.3173
12361TIP3    H137040   2.280   5.557   4.028  0.8697 -2.2003  1.2602
12361TIP3    H237041   2.303   5.502   3.889  0.3489  0.0870  0.2442
12362TIP3   OH237042   6.458   6.793   5.818  0.0521  0.4428 -0.1180
12362TIP3    H137043   6.532   6.760   5.766  0.5151  1.0305  0.1602
12362TIP3    H237044   6.383   6.745   5.785  1.1579 -3.2023  2.3636
12363TIP3   OH237045   3.968   6.506   5.024 -0.4951 -0.2693 -0.2699
12363TIP3    H137046   3.990   6.447   4.953 -2.4093 -0.0813 -1.0526
12363TIP3    H237047   3.933   6.450   5.093 -2.2231 -0.1077 -0.9767
12364TIP3   OH237048   4.786   7.563   5.879  0.4020 -0.0473 -0.2103
12364TIP3    H137049   4.810   7.525   5.795  1.6692 -1.7864  0.9084
12364TIP3    H237050   4.740   7.493   5.926  0.9785  0.4229  1.0954
12365TIP3   OH237051   4.438   6.189   5.505 -0.2862  0.7293 -0.2928
12365TIP3    H137052   4.482   6.237   5.435  0.4395 -0.0835 -0.3979
12365TIP3    H237053   4.451   6.243   5.583  1.0081  0.4217 -0.3005
12366TIP3   OH237054   1.429   7.018   6.880 -0.0599  0.1225 -0.1938
12366TIP3    H137055   1.340   6.997   6.851 -0.4900 -0.2208  1.3682
12366TIP3    H237056   1.435   6.980   6.967  1.5062  0.4687 -0.1491
12367TIP3   OH237057   3.381   6.357   4.475 -0.0715  0.3881 -0.2396
12367TIP3    H137058   3.305   6.413   4.461 -0.6803 -0.4526 -0.3867
12367TIP3    H237059   3.400   6.365   4.568  0.4208  1.5559 -0.4386
12368TIP3   OH237060   2.246   4.279   0.976  0.0086 -0.0022  0.5052
12368TIP3    H137061   2.159   4.286   0.937 -0.0313  0.9205  0.7604
12368TIP3    H237062   2.290   4.211   0.925 -0.6837 -0.1079  0.0484
12369TIP3   OH237063   7.849   0.074   4.347 -0.0431 -0.0237 -0.1175
12369TIP3    H137064   7.838   0.022   4.267  0.5033  0.5295 -0.5633
12369TIP3    H237065   7.839   0.011   4.418 -0.6177 -0.5089 -0.6192
12370TIP3   OH237066   3.149   7.428   5.053  0.1413 -0.2658 -0.4224
12370TIP3    H137067   3.139   7.336   5.028  0.4398 -0.7885  1.2840
12370TIP3    H237068   3.236   7.433   5.091 -0.7377  0.2008  1.5961
12371TIP3   OH237069   2.823   6.555   3.397  0.1735  0.0661  0.0790
12371TIP3    H137070   2.741   6.578   3.442  0.2324  0.2166  0.1097
12371TIP3    H237071   2.892   6.585   3.456  0.2508 -0.1956  0.1215
12372TIP3   OH237072   3.461   6.907   5.836  0.0367 -0.5503 -0.6372
12372TIP3    H137073   3.538   6.863   5.800  0.7404 -0.4701  0.7441
12372TIP3    H237074   3.470   6.898   5.931 -1.4673 -0.2158 -0.4444
12373TIP3   OH237075   6.320   0.296   3.396 -0.4900 -0.3338 -0.5141
12373TIP3    H137076   6.318   0.347   3.477  2.0083  0.2908 -0.8119
12373TIP3    H237077   6.382   0.225   3.414 -0.1391 -0.3535 -1.7627
12374TIP3   OH237078   6.751   0.043   6.728 -0.8516 -0.0671 -0.2882
12374TIP3    H137079   6.828  -0.013   6.713 -0.0523  0.5633  1.3193
12374TIP3    H237080   6.710   0.006   6.806 -0.3129  1.5672  0.7905
12375TIP3   OH237081   3.869   7.021   5.995  0.2049  0.0729 -0.0632
12375TIP3    H137082   3.923   6.973   6.057  2.2095  0.6559 -1.2910
12375TIP3    H237083   3.805   7.068   6.049  0.1634 -1.5542  1.3382
12376TIP3   OH237084   3.234   6.878   4.948  0.5998 -0.3737 -0.1743
12376TIP3    H137085   3.264   6.903   4.860  0.1385 -0.9130 -0.4823
12376TIP3    H237086   3.261   6.787   4.957 -0.1157 -0.5755 -0.0831
12377TIP3   OH237087   4.783   6.706   4.923 -0.3562  0.3867  0.5639
12377TIP3    H137088   4.836   6.713   5.002  0.2747  1.0322  0.0898
12377TIP3    H237089   4.838   6.657   4.862 -1.1532 -0.8065  0.7839
12378TIP3   OH237090   5.426   1.251   4.468 -0.1702  0.2280  0.4921
12378TIP3    H137091   5.391   1.312   4.533  0.0175  0.0767  0.7356
12378TIP3    H237092   5.521   1.263   4.472 -0.2645  1.7325 -1.2395
12379TIP3   OH237093   6.643   0.365   3.865  0.1917 -0.3366  0.2389
12379TIP3    H137094   6.699   0.398   3.936  3.6131 -1.4167 -1.8551
12379TIP3    H237095   6.667   0.417   3.789 -0.9752 -1.4662 -0.9210
12380TIP3   OH237096   1.466   3.939   0.759  0.1273  0.1025  0.0021
12380TIP3    H137097   1.515   3.861   0.784  2.3431  1.2196 -0.6747
12380TIP3    H237098   1.382   3.907   0.727  0.9181 -1.9680 -0.0337
12381TIP3   OH237099   5.460   5.445   4.694 -0.1594  0.3546 -0.4582
12381TIP3    H137100   5.441   5.527   4.650 -2.0192  1.1292  1.6931
12381TIP3    H237101   5.546   5.419   4.662 -0.4858  2.0365 -2.7633
12382TIP3   OH237102   4.906   7.661   6.101  0.0111  0.1046 -0.4638
12382TIP3    H137103   4.882   7.608   6.025 -0.3010  1.4977 -1.3623
12382TIP3    H237104   5.001   7.650   6.108  0.0917  0.2161 -1.2636
12383TIP3   OH237105   4.028   4.901   4.890  0.3327 -0.1895 -0.3406
12383TIP3    H137106   4.047   4.994   4.893  0.4156 -0.1814 -1.1650
12383TIP3    H237107   3.933   4.896   4.877  0.5842 -0.2011 -2.3423
12384TIP3   OH237108   6.533   6.444   5.773  0.2563 -0.0403  0.0229
12384TIP3    H137109   6.613   6.455   5.825 -1.1378  0.3563  2.1753
12384TIP3    H237110   6.534   6.352   5.747  2.3287  0.3958 -1.5964
12385TIP3   OH237111   4.798   6.413   6.322  0.0490 -0.8894 -0.3459
12385TIP3    H137112   4.785   6.411   6.417  1.1878 -1.0981 -0.1884
12385TIP3    H237113   4.774   6.325   6.293 -2.7225 -0.0865 -0.5964
12386TIP3   OH237114   4.909   6.623   3.399  0.6225  0.0337 -0.2112
12386TIP3    H137115   4.989   6.668   3.424  0.6711  0.7794 -1.6331
12386TIP3    H237116   4.847   6.640   3.470  1.6901 -0.4438  0.8293
12387TIP3   OH237117   4.267   4.860   3.927  0.1665 -0.5744  0.4033
12387TIP3    H137118   4.271   4.816   4.012  0.1485 -0.6466  0.3665
12387TIP3    H237119   4.213   4.803   3.873  0.1697 -0.5231  0.3464
12388TIP3   OH237120   3.452   4.681   4.997 -0.1346 -0.1486  0.5084
12388TIP3    H137121   3.478   4.608   5.053 -1.2569 -0.9674 -0.0156
12388TIP3    H237122   3.426   4.640   4.914 -1.6119  0.7518  0.5001
12389TIP3   OH237123   5.835   6.482   6.347  0.8724  0.5529 -0.3860
12389TIP3    H137124   5.803   6.558   6.298 -1.0261 -0.5902 -0.9702
12389TIP3    H237125   5.765   6.462   6.409  1.7597 -0.1731  0.4079
12390TIP3   OH237126   7.268   6.157   0.901  0.1895 -0.1047 -0.5809
12390TIP3    H137127   7.226   6.176   0.985  2.6145  1.4429  0.3473
12390TIP3    H237128   7.352   6.117   0.925  1.5368  1.6236 -2.1833
12391TIP3   OH237129   3.606   4.345   5.711 -0.3303  0.3173  0.0043
12391TIP3    H137130   3.683   4.383   5.753 -0.4353 -2.5800  3.0180
12391TIP3    H237131   3.542   4.335   5.782 -1.1278 -3.1887 -1.1026
12392TIP3   OH237132   4.094   6.860   6.110 -0.0782  0.3038 -0.1309
12392TIP3    H137133   4.065   6.802   6.180 -0.1019 -1.0450 -1.2576
12392TIP3    H237134   4.172   6.904   6.146 -0.0985 -0.3740  0.7366
12393TIP3   OH237135   2.150   2.275   0.350  0.3742  0.1934  0.8560
12393TIP3    H137136   2.224   2.268   0.290  1.0116  1.5555  1.4699
12393TIP3    H237137   2.160   2.201   0.410  0.9084  0.0390  0.5789
12394TIP3   OH237138   6.654   1.734   5.715  0.2583  0.6032  0.0071
12394TIP3    H137139   6.690   1.707   5.630  0.3868  1.5360 -0.2489
12394TIP3    H237140   6.562   1.751   5.698 -0.0597 -0.6874  0.4075
12395TIP3   OH237141   7.483   2.582   0.882 -0.5011  0.4282 -0.1098
12395TIP3    H137142   7.553   2.627   0.930 -1.6328  0.9686  1.0745
12395TIP3    H237143   7.511   2.491   0.879 -0.4089  0.3780  1.6081
12396TIP3   OH237144   2.363   7.276   5.821  0.3192 -0.2132  0.0587
12396TIP3    H137145   2.314   7.256   5.742 -1.1376  0.2957  0.8076
12396TIP3    H237146   2.446   7.312   5.790 -0.3699  0.3015 -1.2255
12397TIP3   OH237147   2.704   1.433   0.935  0.7835 -0.2130  0.0155
12397TIP3    H137148   2.642   1.425   0.863  0.1022  1.8331  0.3260
12397TIP3    H237149   2.688   1.356   0.990 -0.7339 -0.2572 -0.4730
12398TIP3   OH237150   5.600   5.593   3.598  0.0423  0.3187  0.7880
12398TIP3    H137151   5.695   5.577   3.600  0.3178  1.8015  0.0936
12398TIP3    H237152   5.583   5.623   3.509 -1.5601 -2.6460  0.0390
12399TIP3   OH237153   7.543   0.042   5.844 -0.1004  0.1127  0.5029
12399TIP3    H137154   7.564  -0.035   5.792 -0.3745 -0.3433  1.0576
12399TIP3    H237155   7.587   0.027   5.928 -0.2719  0.4915  0.6628
12400TIP3   OH237156   1.394   6.398   3.858  0.7776  0.2548  0.3321
12400TIP3    H137157   1.473   6.438   3.893  1.4685 -0.6989 -0.1319
12400TIP3    H237158   1.405   6.304   3.873 -0.2391  0.1139  0.2198
12401TIP3   OH237159   3.836   6.798   5.448  0.1902  0.4187 -0.1846
12401TIP3    H137160   3.842   6.784   5.543  1.4215  0.8262 -0.1865
12401TIP3    H237161   3.841   6.711   5.410 -1.9002  0.1094  0.1697
12402TIP3   OH237162   3.360   7.149   5.724  0.4359 -0.3695  0.5058
12402TIP3    H137163   3.420   7.094   5.773  0.9556  0.2502  0.5722
12402TIP3    H237164   3.308   7.193   5.791  1.9631  1.4054  0.5805
12403TIP3   OH237165   5.748   0.220   5.348  0.7122 -0.0467  0.2884
12403TIP3    H137166   5.774   0.289   5.409  0.7037 -0.1531  0.4140
12403TIP3    H237167   5.742   0.141   5.402 -0.6567  0.1334  0.4174
12404TIP3   OH237168   3.078   5.618   3.394  0.2187 -0.3940 -0.0777
12404TIP3    H137169   3.009   5.646   3.454  0.8666 -0.2771  0.6140
12404TIP3    H237170   3.071   5.522   3.392 -0.5001 -0.3303 -0.6534
12405TIP3   OH237171   2.257   5.022   4.700  0.7363 -0.6738 -0.0995
12405TIP3    H137172   2.168   4.987   4.696  0.1436  0.6478  1.1583
12405TIP3    H237173   2.275   5.050   4.610  0.1014 -1.4800 -0.4794
12406TIP3   OH237174   3.361   7.709   5.141  0.5636 -0.2533 -0.4165
12406TIP3    H137175   3.439   7.738   5.188  0.7967 -0.4947 -0.6572
12406TIP3    H237176   3.292   7.768   5.173  0.9304  0.2469 -0.5327
12407TIP3   OH237177   5.895   5.367   3.038 -0.1137  0.7754 -0.0533
12407TIP3    H137178   5.927   5.352   2.950  0.8226  1.5556  0.1503
12407TIP3    H237179   5.824   5.303   3.049  0.3278  0.1043 -1.0538
12408TIP3   OH237180   2.831   3.176   0.275 -0.1391 -0.1245 -0.4239
12408TIP3    H137181   2.742   3.157   0.306  0.4683  0.3427  1.6449
12408TIP3    H237182   2.857   3.097   0.226 -1.1889 -0.7875  0.0787
12409TIP3   OH237183   1.591   5.232   0.705 -0.3703  0.2429 -0.2799
12409TIP3    H137184   1.537   5.163   0.667  1.1095 -1.3260  0.3697
12409TIP3    H237185   1.666   5.239   0.646 -0.0839  0.6782  0.1324
12410TIP3   OH237186   3.245   2.044   0.161 -0.0302  0.3612 -0.7677
12410TIP3    H137187   3.203   1.974   0.211 -0.5550  1.5014  0.4212
12410TIP3    H237188   3.229   2.021   0.069 -2.5170  0.3003 -0.3621
12411TIP3   OH237189   5.568   5.972   6.177  0.0704  0.0173 -0.2864
12411TIP3    H137190   5.630   5.905   6.147  2.1462  1.2310  1.1572
12411TIP3    H237191   5.570   6.038   6.108  0.6342  0.1933 -0.1067
12412TIP3   OH237192   1.645   6.050   5.333  0.4411  0.3357  0.7098
12412TIP3    H137193   1.661   6.087   5.419  0.4551 -0.7442  1.1747
12412TIP3    H237194   1.730   6.014   5.307 -0.1295 -1.4805  1.2872
12413TIP3   OH237195   5.311   6.383   5.374  0.5255  0.0010 -0.1900
12413TIP3    H137196   5.384   6.428   5.417  0.2860 -0.5401  0.8146
12413TIP3    H237197   5.349   6.342   5.297  1.1206  0.3858 -0.1031
12414TIP3   OH237198   6.114   5.589   6.242 -0.1619 -0.3158 -0.2557
12414TIP3    H137199   6.052   5.526   6.205 -1.3843  0.0280  1.1573
12414TIP3    H237200   6.066   5.671   6.246 -0.1376 -0.3836  2.2392
12415TIP3   OH237201   2.849   5.870   5.256  0.0931 -0.4675 -0.4167
12415TIP3    H137202   2.813   5.885   5.169 -1.3226 -0.3109  0.1885
12415TIP3    H237203   2.851   5.775   5.266 -1.7547 -0.4552  0.1979
12416TIP3   OH237204   3.354   3.601   6.106  0.3898  0.2845  0.3141
12416TIP3    H137205   3.293   3.528   6.098 -0.2491  0.9008 -0.4603
12416TIP3    H237206   3.325   3.649   6.183 -0.1720  0.6213 -0.0969
12417TIP3   OH237207   4.458   2.112   0.332 -0.3442  0.3463 -0.3430
12417TIP3    H137208   4.550   2.087   0.341 -0.5255  0.1310  1.0738
12417TIP3    H237209   4.439   2.101   0.239  1.1148  0.5935 -0.6811
12418TIP3   OH237210   4.174   3.493   4.958 -0.2834 -0.4576 -0.3198
12418TIP3    H137211   4.256   3.490   5.008 -0.3780 -0.2781 -0.1581
12418TIP3    H237212   4.141   3.403   4.962  0.0467 -0.5968 -0.6212
12419TIP3   OH237213   1.316   3.588   0.947  0.3081 -0.0816  0.2880
12419TIP3    H137214   1.231   3.546   0.959  0.0513  0.6065  0.9502
12419TIP3    H237215   1.302   3.650   0.875  0.0160  0.6052  0.9190
12420TIP3   OH237216   6.249   2.173   1.915  0.2868 -0.6814  0.4222
12420TIP3    H137217   6.167   2.217   1.934  1.1228  2.1466 -2.1576
12420TIP3    H237218   6.241   2.143   1.825  1.4936 -1.8145  0.6624
12421TIP3   OH237219   6.717   7.446   4.804 -0.8685 -0.4211 -0.1178
12421TIP3    H137220   6.667   7.365   4.806 -2.3956  0.5178  0.3340
12421TIP3    H237221   6.654   7.514   4.827  0.6486  0.7661  0.6165
12422TIP3   OH237222   2.915   3.514   1.250  0.0091 -0.5845 -0.1195
12422TIP3    H137223   3.007   3.538   1.244 -0.6473  2.4439  1.3237
12422TIP3    H237224   2.891   3.490   1.160  1.7549  0.2483 -0.8207
12423TIP3   OH237225   1.492   7.300   4.559  0.4732 -0.3509 -0.0397
12423TIP3    H137226   1.403   7.285   4.592  0.5995 -0.0425  0.4499
12423TIP3    H237227   1.524   7.374   4.610  1.4410 -1.2200  0.6246
12424TIP3   OH237228   3.505   7.203   4.721 -0.3121  0.6013 -0.1082
12424TIP3    H137229   3.540   7.282   4.762  0.3427  1.7718 -2.8274
12424TIP3    H237230   3.559   7.190   4.643 -2.2863 -0.8318 -1.2922
12425TIP3   OH237231   5.937   7.981   5.639  0.3322  0.3602 -0.1301
12425TIP3    H137232   5.977   7.894   5.648  2.3332  1.1202 -1.4842
12425TIP3    H237233   5.973   8.032   5.712 -0.5204  0.1835  0.4205
12426TIP3   OH237234   2.871   5.904   5.810  0.3772 -0.5704 -0.8638
12426TIP3    H137235   2.843   5.928   5.722 -1.2570  1.6711  0.1969
12426TIP3    H237236   2.946   5.960   5.828 -0.3545  0.2093 -0.2108
12427TIP3   OH237237   5.084   6.852   6.501  0.0657  0.1048  0.6984
12427TIP3    H137238   5.103   6.856   6.408  0.2243 -0.7392  0.6854
12427TIP3    H237239   5.170   6.840   6.542  0.1287  1.6692  1.0425
12428TIP3   OH237240   3.206   6.282   6.659 -0.3565 -0.1354 -0.2220
12428TIP3    H137241   3.188   6.207   6.602  1.0785 -1.0736  0.5252
12428TIP3    H237242   3.246   6.244   6.737 -2.0505  1.1559  1.3266
12429TIP3   OH237243   6.032   0.306   6.440 -0.1958 -0.0472  0.1266
12429TIP3    H137244   5.953   0.315   6.493 -0.9396  0.4971 -1.0675
12429TIP3    H237245   6.049   0.394   6.406  1.5738  0.0862  1.2810
12430TIP3   OH237246   3.795   5.221   6.150 -0.6973 -0.4192 -0.3572
12430TIP3    H137247   3.740   5.269   6.088 -2.0182 -1.9711 -0.4313
12430TIP3    H237248   3.792   5.274   6.230 -0.1604  0.8506 -1.1662
12431TIP3   OH237249   4.440   7.904   5.847 -0.0743  0.2939  0.2930
12431TIP3    H137250   4.508   7.906   5.780  1.3609  1.9663  1.7376
12431TIP3    H237251   4.447   7.817   5.886  1.1963  0.4007  0.3464
12432TIP3   OH237252   2.881   3.140   1.623 -0.1381 -0.0109  0.5796
12432TIP3    H137253   2.871   3.235   1.625  1.5337  0.1734  0.6774
12432TIP3    H237254   2.847   3.111   1.708 -0.2056  0.5393  0.7437
12433TIP3   OH237255   0.355   1.011   6.522  0.4003  0.0662  0.1597
12433TIP3    H137256   0.387   0.982   6.436  0.0271  1.3310 -0.4175
12433TIP3    H237257   0.432   1.004   6.579  0.9940  0.4046 -0.5774
12434TIP3   OH237258   4.505   7.198   3.314 -0.7656 -0.1594  0.0526
12434TIP3    H137259   4.410   7.195   3.320 -0.8246  2.0642  0.7787
12434TIP3    H237260   4.536   7.196   3.404 -0.2098  0.7758 -0.1062
12435TIP3   OH237261   4.715   4.249   4.589  0.0033  1.3615 -0.4172
12435TIP3    H137262   4.740   4.316   4.525  2.7285  0.8628  0.0426
12435TIP3    H237263   4.775   4.262   4.663 -0.5732 -0.4759  0.4291
12436TIP3   OH237264   3.916   5.470   5.395 -0.0461 -0.3409 -0.1862
12436TIP3    H137265   4.001   5.513   5.391 -1.0938  1.8197 -0.1117
12436TIP3    H237266   3.902   5.452   5.488 -1.6324  3.5636  0.4617
12437TIP3   OH237267   1.550   7.509   4.729 -0.1828  0.4296  0.1615
12437TIP3    H137268   1.644   7.496   4.739 -0.0777  0.9060 -0.2167
12437TIP3    H237269   1.541   7.570   4.655 -0.7933  0.1957  0.0356
12438TIP3   OH237270   5.977   6.432   6.592  0.0466  0.0749 -0.0950
12438TIP3    H137271   5.931   6.422   6.509 -0.9725  0.9849  0.3488
12438TIP3    H237272   6.009   6.522   6.591 -1.8404  0.7974  1.4182
12439TIP3   OH237273   3.231   5.509   1.966 -0.6165  0.5505 -0.1792
12439TIP3    H137274   3.186   5.424   1.966  1.0728 -0.3768  1.4624
12439TIP3    H237275   3.210   5.546   2.052 -0.0722  1.1206 -0.2934
12440TIP3   OH237276   4.815   7.547   3.860  0.0898 -0.1715  0.3090
12440TIP3    H137277   4.872   7.597   3.800  0.1953  0.1899  0.7020
12440TIP3    H237278   4.865   7.543   3.942 -0.5202  0.2842  0.7077
12441TIP3   OH237279   3.763   4.144   6.051 -0.6081  0.0836 -0.3846
12441TIP3    H137280   3.837   4.083   6.054  0.3369  1.1879 -0.7590
12441TIP3    H237281   3.719   4.125   5.968  0.9759  1.3518 -1.5705
12442TIP3   OH237282   6.661   7.935   5.901  0.1548  0.2892 -0.4436
12442TIP3    H137283   6.675   8.019   5.945 -0.3273  0.6891 -1.0617
12442TIP3    H237284   6.596   7.890   5.956 -0.5521  0.8480 -0.8143
12443TIP3   OH237285   3.011   7.364   4.730 -0.2149 -0.0572 -0.4815
12443TIP3    H137286   3.039   7.319   4.810  1.3317  0.1557 -0.8953
12443TIP3    H237287   2.915   7.357   4.731 -0.2292  0.0806  1.4715
12444TIP3   OH237288   2.818   2.335   0.868 -0.5560 -0.2815  0.0546
12444TIP3    H137289   2.869   2.257   0.892  0.2968  0.6305  1.2559
12444TIP3    H237290   2.805   2.381   0.950 -0.4002  1.2446 -0.7666
12445TIP3   OH237291   6.135   7.396   5.472 -0.0331  0.1252 -0.9233
12445TIP3    H137292   6.107   7.404   5.564 -2.0144 -1.1001 -1.4002
12445TIP3    H237293   6.195   7.470   5.459  1.9100 -0.8737  1.9454
12446TIP3   OH237294   3.087   5.603   6.396 -0.1789  0.2803 -0.2705
12446TIP3    H137295   2.995   5.627   6.385  0.1045  1.1949 -0.7443
12446TIP3    H237296   3.096   5.585   6.489 -1.0477 -0.7251 -0.3680
12447TIP3   OH237297   3.944   5.305   6.608  0.5604  0.0916 -0.5247
12447TIP3    H137298   3.984   5.232   6.560 -0.0478 -1.9768  2.0166
12447TIP3    H237299   4.018   5.354   6.644  0.9235 -1.5146  0.9594
12448TIP3   OH237300   2.371   2.495   1.293 -0.4763  0.2556  0.1358
12448TIP3    H137301   2.281   2.465   1.280 -0.6393  1.2332 -1.1296
12448TIP3    H237302   2.425   2.420   1.272 -0.9568  0.0983 -0.5396
12449TIP3   OH237303   6.459   5.974   2.948 -0.0311 -0.0266  0.3627
12449TIP3    H137304   6.409   5.894   2.931 -0.4241 -0.0110  1.4105
12449TIP3    H237305   6.521   5.949   3.017  3.0986 -0.7187 -2.5653
12450TIP3   OH237306   4.261   2.325   5.294 -0.3248 -0.5403  0.1393
12450TIP3    H137307   4.191   2.315   5.229  0.1982 -3.3999 -0.0382
12450TIP3    H237308   4.342   2.324   5.243 -0.0727  2.0151  0.4207
12451TIP3   OH237309   4.749   6.257   5.107 -0.3069 -0.1746  0.4434
12451TIP3    H137310   4.821   6.247   5.170 -0.6673  1.1110  1.0593
12451TIP3    H237311   4.748   6.350   5.086 -1.6891 -0.2164  0.2979
12452TIP3   OH237312   7.594   1.993   0.098  0.2115  0.5583 -0.1203
12452TIP3    H137313   7.580   1.916   0.153 -1.2020  0.2982 -0.8214
12452TIP3    H237314   7.611   1.957   0.010  0.7914  1.0116 -0.1962
12453TIP3   OH237315   1.890   4.458   6.427 -0.4119  0.0771  0.0765
12453TIP3    H137316   1.981   4.446   6.453 -0.0948  1.6593 -0.2474
12453TIP3    H237317   1.846   4.378   6.457  0.9233 -0.3637  0.9241
12454TIP3   OH237318   4.106   7.166   5.942  0.5756  0.3398 -0.1308
12454TIP3    H137319   4.035   7.109   5.973  1.2856 -0.2423  0.4315
12454TIP3    H237320   4.089   7.250   5.984  0.3432  0.1375  0.1842
12455TIP3   OH237321   4.603   7.023   4.801 -0.2440  0.5058 -0.0775
12455TIP3    H137322   4.556   6.941   4.811 -2.5175  1.6126 -1.1573
12455TIP3    H237323   4.538   7.083   4.764  1.9213  2.2136 -1.2583
12456TIP3   OH237324   1.916   3.329   1.834 -0.0733 -0.5174  0.1542
12456TIP3    H137325   1.888   3.288   1.916  0.1792 -2.6752 -0.7867
12456TIP3    H237326   1.879   3.272   1.766  2.7324 -0.8156 -1.1622
12457TIP3   OH237327   3.974   1.201   2.182 -0.5115  0.5863 -0.0777
12457TIP3    H137328   3.918   1.158   2.117 -1.5223 -0.0651  1.2017
12457TIP3    H237329   3.948   1.293   2.179 -0.8726  0.4799 -0.2900
12458TIP3   OH237330   3.327   7.904   6.527  0.0025  0.2297 -0.1253
12458TIP3    H137331   3.265   7.839   6.561 -0.0720 -0.4290 -1.4979
12458TIP3    H237332   3.397   7.906   6.593 -0.0555 -1.1426  0.0017
12459TIP3   OH237333   8.283  -0.005   6.875 -0.4059 -0.1366  0.0274
12459TIP3    H137334   8.273   0.072   6.818 -2.1284 -1.1486 -1.0871
12459TIP3    H237335   8.203  -0.007   6.927  1.9076  1.8220  3.9495
12460TIP3   OH237336   4.082   7.498   5.481 -0.0229  0.4011 -1.0029
12460TIP3    H137337   4.014   7.481   5.545  0.1914 -1.0376 -1.1493
12460TIP3    H237338   4.144   7.426   5.492  0.6387  0.8067 -1.9934
12461TIP3   OH237339   2.261   3.341   0.188  0.4997 -0.4374  0.0524
12461TIP3    H137340   2.201   3.415   0.192  1.8204  0.7063 -0.7850
12461TIP3    H237341   2.246   3.302   0.101  1.4765  0.3037 -0.4573
12462TIP3   OH237342   3.208   4.348   0.791 -0.0255  0.1556  0.0112
12462TIP3    H137343   3.184   4.262   0.755  0.0025  0.0259  0.3038
12462TIP3    H237344   3.283   4.376   0.737  1.4480 -1.0471  1.3957
12463TIP3   OH237345   1.733   7.497   4.333  0.6731  0.1363  0.0148
12463TIP3    H137346   1.722   7.403   4.347 -0.4691  0.2677  0.0459
12463TIP3    H237347   1.662   7.537   4.383  1.2109  1.0228  0.0739
12464TIP3   OH237348   4.570   6.945   6.408 -0.3446  0.2592  0.0792
12464TIP3    H137349   4.622   6.908   6.480 -0.5138  0.3079  0.2258
12464TIP3    H237350   4.635   6.974   6.344 -0.2151 -0.3205 -0.0486
12465TIP3   OH237351   1.132   4.880   0.496  0.2858  0.3789  0.8408
12465TIP3    H137352   1.068   4.812   0.520 -0.2992  0.9108  0.8190
12465TIP3    H237353   1.159   4.858   0.407 -0.7332  0.7808  0.4131
12466TIP3   OH237354   1.598   2.595   1.077  0.1261 -0.7225 -0.6713
12466TIP3    H137355   1.522   2.598   1.019  0.9555  0.7046 -1.6952
12466TIP3    H237356   1.673   2.587   1.019  1.0125  1.3528  0.1632
12467TIP3   OH237357   4.764   7.933   6.667  0.1098 -0.7293  0.3870
12467TIP3    H137358   4.756   7.851   6.618  1.9422 -0.8533  0.2657
12467TIP3    H237359   4.829   7.984   6.618  0.7075 -0.1608  1.7640
12468TIP3   OH237360   6.460   4.914   6.219  0.0535 -0.9380 -0.3571
12468TIP3    H137361   6.465   4.944   6.128  1.0243  0.3634  0.1050
12468TIP3    H237362   6.538   4.861   6.232  0.9917  0.5484  0.2767
12469TIP3   OH237363   4.934   4.913   6.101 -0.3420 -0.1579 -0.2856
12469TIP3    H137364   4.843   4.939   6.091  0.0713  0.7781 -1.7116
12469TIP3    H237365   4.951   4.920   6.195 -1.3894  0.8767 -0.1656
12470TIP3   OH237366   1.838   3.934   0.180  0.1649 -0.6126 -0.3095
12470TIP3    H137367   1.863   3.877   0.252  1.1954  0.5583  0.2821
12470TIP3    H237368   1.743   3.928   0.176  0.1979 -1.6713  0.3163
12471TIP3   OH237369   4.717   6.656   6.140 -0.1870 -0.1838 -0.1078
12471TIP3    H137370   4.726   6.593   6.211 -0.6413  1.0425  1.0758
12471TIP3    H237371   4.622   6.666   6.130 -0.1150  0.5980 -0.0150
12472TIP3   OH237372   3.016   1.553   0.925  0.0943  0.1246 -0.0166
12472TIP3    H137373   2.952   1.531   0.994  1.7450  0.7749  1.7601
12472TIP3    H237374   2.985   1.636   0.889  0.0252  0.5270  0.9588
12473TIP3   OH237375   3.590   2.890   0.539  0.1844  0.1858 -0.2829
12473TIP3    H137376   3.597   2.912   0.632  0.3999  1.2776 -0.5554
12473TIP3    H237377   3.516   2.828   0.535 -2.2980  2.9909  0.1470
12474TIP3   OH237378   0.285   5.458   0.009 -0.0520 -0.1148 -0.1709
12474TIP3    H137379   0.321   5.372   0.029  0.4997 -0.4446 -2.4760
12474TIP3    H237380   0.338   5.519   0.060  0.8179 -0.9720 -0.0404
12475TIP3   OH237381   5.379   0.024   4.908 -0.9954  0.3024 -0.7356
12475TIP3    H137382   5.377  -0.029   4.828  2.5535  0.8261 -1.2347
12475TIP3    H237383   5.352   0.111   4.880  3.4870  1.3512 -2.1805
12476TIP3   OH237384   3.244   6.380   4.733 -0.3438  0.0990  0.8774
12476TIP3    H137385   3.215   6.325   4.805 -0.2026 -0.9437  0.1618
12476TIP3    H237386   3.170   6.381   4.672  0.7052 -1.7755 -0.5030
12477TIP3   OH237387   3.732   7.409   4.796  0.1678  0.1674  0.2333
12477TIP3    H137388   3.811   7.451   4.832 -0.5277  1.7714 -0.0669
12477TIP3    H237389   3.764   7.328   4.757  1.5537  0.4045  0.8201
12478TIP3   OH237390   3.864   7.750   4.757  0.0425  0.4794 -0.3081
12478TIP3    H137391   3.772   7.770   4.773 -0.4052 -0.2864 -1.8106
12478TIP3    H237392   3.882   7.675   4.814 -0.9443 -0.8637 -1.6957
12479TIP3   OH237393   2.244   0.090   0.167 -0.0320  0.4110  0.1138
12479TIP3    H137394   2.316   0.075   0.106  0.5863  1.0326  0.6848
12479TIP3    H237395   2.242   0.011   0.221 -1.5339 -0.8007 -1.6365
12480TIP3   OH237396   5.348   6.145   6.062 -0.4947  0.1106 -0.5943
12480TIP3    H137397   5.355   6.110   6.151 -0.2540 -0.5775 -0.8746
12480TIP3    H237398   5.369   6.070   6.006  2.5187  1.2805 -1.1640
12481TIP3   OH237399   3.045   7.180   5.226 -0.3398 -0.2694 -0.0915
12481TIP3    H137400   3.139   7.194   5.217 -0.1838 -1.8163 -1.2838
12481TIP3    H237401   3.026   7.112   5.161 -2.1771 -0.3761  0.5473
12482TIP3   OH237402   5.217   7.370   6.464  0.0271 -0.2287  0.5047
12482TIP3    H137403   5.137   7.331   6.499  0.2615 -0.9959  0.1969
12482TIP3    H237404   5.196   7.463   6.454 -1.2612 -0.6280 -0.7828
12483TIP3   OH237405   1.001   7.660   6.746 -0.0744  0.2884 -0.9434
12483TIP3    H137406   1.062   7.731   6.764  0.1568 -0.1288 -0.0394
12483TIP3    H237407   1.056   7.584   6.728 -0.3219  0.2484 -1.5708
12484TIP3   OH237408   5.385   5.948   5.104  0.1745  0.1393  0.6165
12484TIP3    H137409   5.370   5.973   5.013 -1.3726 -0.2475  0.7492
12484TIP3    H237410   5.329   5.871   5.117  0.5750  0.0463  1.8230
12485TIP3   OH237411   5.462   8.003   6.424 -0.2389  0.4498 -0.3830
12485TIP3    H137412   5.391   8.032   6.367 -1.0152 -2.4970 -1.0213
12485TIP3    H237413   5.445   7.910   6.438  3.2273 -0.2078 -0.1188
12486TIP3   OH237414   6.142   1.370   5.547 -0.0617 -0.0036  0.2950
12486TIP3    H137415   6.184   1.290   5.515 -1.2779 -0.7331  0.4937
12486TIP3    H237416   6.159   1.435   5.479 -0.1008 -0.7495 -0.4306
12487TIP3   OH237417   4.449   3.243   1.092  0.0660  0.1552 -0.7797
12487TIP3    H137418   4.468   3.335   1.109  2.1880 -0.6203  1.3832
12487TIP3    H237419   4.486   3.225   1.006  1.0978  0.9150 -0.4927
12488TIP3   OH237420   3.183   3.381   0.381  0.1189  0.0267  0.3140
12488TIP3    H137421   3.097   3.395   0.421 -0.5073 -1.2903 -0.5340
12488TIP3    H237422   3.215   3.300   0.421  0.0058 -0.6529 -0.9226
12489TIP3   OH237423   4.748   6.048   4.435  0.0778 -0.4365  0.0503
12489TIP3    H137424   4.685   5.979   4.458  0.9186 -1.2096  0.0463
12489TIP3    H237425   4.693   6.120   4.404 -0.8741 -0.6946  1.0883
12490TIP3   OH237426   3.799   5.428   4.479 -0.8952  0.5293  0.0038
12490TIP3    H137427   3.851   5.359   4.438  0.5659  0.6350  1.6011
12490TIP3    H237428   3.863   5.497   4.499 -1.8640  1.1838  0.8849
12491TIP3   OH237429   5.236   7.921   5.296 -0.3328  0.0157 -0.1536
12491TIP3    H137430   5.208   7.961   5.214  0.6438  2.8380  0.8426
12491TIP3    H237431   5.256   7.995   5.354 -0.8403 -1.9094  2.5849
12492TIP3   OH237432   3.510   3.008   0.127  0.1706 -0.0075  0.1400
12492TIP3    H137433   3.517   3.057   0.209 -0.7851 -0.1693  0.3217
12492TIP3    H237434   3.599   2.978   0.109  0.5341  0.7533  0.6738
12493TIP3   OH237435   7.949   6.760   6.061  1.1616 -0.0662 -0.5256
12493TIP3    H137436   7.930   6.681   6.010 -1.2543  1.0152 -1.3808
12493TIP3    H237437   8.030   6.794   6.024  1.5302 -1.4349 -1.0061
12494TIP3   OH237438   2.565   5.306   1.258  0.3606  1.3195  0.2770
12494TIP3    H137439   2.495   5.363   1.224  1.5444  1.7430 -1.5666
12494TIP3    H237440   2.645   5.351   1.232  1.3087  0.4283  1.6718
12495TIP3   OH237441   0.327   5.886   4.786 -0.1151  0.0474  0.2882
12495TIP3    H137442   0.328   5.841   4.702  0.1484  0.1642  0.2276
12495TIP3    H237443   0.398   5.846   4.836 -0.8641 -0.6628  0.7949
12496TIP3   OH237444   5.582   7.123   6.478 -0.0824  0.1868  0.2716
12496TIP3    H137445   5.639   7.048   6.494 -0.1066 -0.0562 -0.7635
12496TIP3    H237446   5.561   7.119   6.385  0.7642  2.0840 -0.0394
12497TIP3   OH237447   5.135   5.643   6.410  0.2421  0.1001 -0.0515
12497TIP3    H137448   5.101   5.626   6.498  1.1149 -0.5005  0.1827
12497TIP3    H237449   5.136   5.738   6.402 -0.6132  0.1343  0.2852
12498TIP3   OH237450   4.786   3.510   0.814 -0.6923  0.2449 -0.6456
12498TIP3    H137451   4.797   3.441   0.749 -0.2698  1.5239 -1.9673
12498TIP3    H237452   4.694   3.536   0.805 -0.8342 -0.0996 -0.1935
12499TIP3   OH237453   5.995   6.637   5.624 -0.5146  0.4948  0.1543
12499TIP3    H137454   6.032   6.668   5.541  0.7856 -0.4970  0.3452
12499TIP3    H237455   6.066   6.648   5.687  0.1746 -3.1853  0.1457
12500TIP3   OH237456   4.734   7.386   5.051  0.0864  0.0034 -0.0602
12500TIP3    H137457   4.725   7.298   5.013  0.7309  0.0411 -0.3004
12500TIP3    H237458   4.776   7.372   5.135  0.9201  0.1583 -0.4506
12501TIP3   OH237459   6.312   7.657   5.611  0.2208 -0.4568  0.5317
12501TIP3    H137460   6.367   7.692   5.541  0.2260  0.2630  0.8951
12501TIP3    H237461   6.374   7.610   5.668  0.2320 -0.9458  0.1229
12502TIP3   OH237462   8.520   6.861   4.071 -0.0708  0.8328 -0.1206
12502TIP3    H137463   8.522   6.943   4.120  0.9291  0.6525  0.1437
12502TIP3    H237464   8.428   6.834   4.075 -0.0211  0.8611  1.5931
12503TIP3   OH237465   5.492   1.839   0.652  0.7547 -0.2299  0.2900
12503TIP3    H137466   5.429   1.885   0.597  1.2817 -1.1318 -1.0791
12503TIP3    H237467   5.482   1.747   0.628  0.2080 -0.7742  2.5015
12504TIP3   OH237468   4.357   7.074   6.750  1.1535 -0.3912 -0.2170
12504TIP3    H137469   4.345   7.090   6.657  1.3250 -1.7276 -0.4734
12504TIP3    H237470   4.441   7.116   6.771  0.3213  1.3411 -0.2947
12505TIP3   OH237471   0.894   0.131   6.100  0.7169  0.0516 -0.0258
12505TIP3    H137472   0.939   0.215   6.102 -0.6521  0.8097  4.1963
12505TIP3    H237473   0.947   0.073   6.154 -0.7756 -0.4498  0.9324
12506TIP3   OH237474   3.483   3.680   0.112 -0.1177 -0.2136 -0.3379
12506TIP3    H137475   3.563   3.630   0.100 -0.1106 -0.5424  1.0968
12506TIP3    H237476   3.448   3.652   0.196 -0.7340  1.3325 -0.0544
12507TIP3   OH237477   6.114   6.807   5.416  0.5997  0.3982  0.1188
12507TIP3    H137478   6.189   6.840   5.466  0.8300  1.0512 -0.6325
12507TIP3    H237479   6.050   6.878   5.420  0.3930  0.2215 -0.0299
12508TIP3   OH237480   6.585   7.412   4.282  0.3945  0.2383 -0.2377
12508TIP3    H137481   6.577   7.327   4.325 -2.2757  1.1963  1.2673
12508TIP3    H237482   6.623   7.392   4.197  1.7737 -2.1986  0.8977
12509TIP3   OH237483   7.073   6.512   6.945 -0.6786  0.0418 -0.1649
12509TIP3    H137484   7.153   6.482   6.901 -0.5406  1.3966 -0.8623
12509TIP3    H237485   7.027   6.432   6.968  0.7863 -0.7601  0.0517
12510TIP3   OH237486   0.163   7.135   3.963  0.1296 -0.6102 -0.1858
12510TIP3    H137487   0.130   7.198   4.027  2.0624 -0.3755  0.6390
12510TIP3    H237488   0.157   7.050   4.008 -0.1678 -0.6798 -0.3591
12511TIP3   OH237489   3.052   6.549   5.114  0.5714  0.0777  0.1249
12511TIP3    H137490   3.013   6.467   5.084  0.7516  0.9577 -2.6877
12511TIP3    H237491   2.988   6.616   5.089  1.1409  0.9480  0.9665
12512TIP3   OH237492   4.791   6.861   4.572 -0.8569  0.4743 -0.3462
12512TIP3    H137493   4.706   6.898   4.596 -0.1345  2.6658 -1.0304
12512TIP3    H237494   4.852   6.900   4.633 -0.0211  0.7333 -1.3277
12513TIP3   OH237495   1.776   0.893   5.712  0.3667 -0.0047  0.1484
12513TIP3    H137496   1.729   0.814   5.686  1.1317 -0.2241 -0.5948
12513TIP3    H237497   1.813   0.927   5.630  0.5600  0.7829  0.5544
12514TIP3   OH237498   8.135   6.670   3.901 -0.2679 -0.7452  0.3661
12514TIP3    H137499   8.106   6.579   3.902  2.0404 -1.5384 -0.8846
12514TIP3    H237500   8.066   6.718   3.856 -1.4920 -1.8818  1.0340
12515TIP3   OH237501   4.799   5.230   5.626  0.3659 -0.1398  0.1713
12515TIP3    H137502   4.755   5.314   5.633  2.0870  0.7567  0.5335
12515TIP3    H237503   4.760   5.177   5.696 -1.2409  0.0875 -0.5214
12516TIP3   OH237504   3.759   1.311   0.083 -0.1752  0.1528 -0.0809
12516TIP3    H137505   3.698   1.251   0.041 -3.3255  2.9103  0.3416
12516TIP3    H237506   3.828   1.324   0.018 -1.0833 -1.4381 -1.4089
12517TIP3   OH237507   5.582   7.654   5.343 -0.0151  0.1817  0.6446
12517TIP3    H137508   5.609   7.706   5.419 -1.4054  0.7337  0.7716
12517TIP3    H237509   5.582   7.715   5.270  1.0853 -0.2952  0.2294
12518TIP3   OH237510   6.867   5.627   6.467  0.0918 -0.4044  0.0575
12518TIP3    H137511   6.959   5.624   6.439  0.2473 -0.4351  0.5688
12518TIP3    H237512   6.858   5.555   6.529  0.2068  0.7250  1.4243
12519TIP3   OH237513   1.895   0.002   5.789 -0.1158 -0.1825  0.2329
12519TIP3    H137514   1.816   0.027   5.835 -0.7984 -2.2232  0.2304
12519TIP3    H237515   1.878   0.025   5.697  0.2915  1.6324  0.5880
12520TIP3   OH237516   8.249   0.104   5.534  0.3708  0.0758  0.1575
12520TIP3    H137517   8.307   0.039   5.574  0.5132  1.2202  1.8581
12520TIP3    H237518   8.306   0.154   5.477  0.9570  0.7840  1.3355
12521TIP3   OH237519   3.949   7.531   4.974 -0.0943  0.1233  0.6225
12521TIP3    H137520   4.013   7.602   4.973 -2.2586  2.1284 -0.0125
12521TIP3    H237521   3.943   7.506   5.066  0.9719  0.4948  0.8000
12522TIP3   OH237522   4.403   7.142   6.019  0.0715  0.4912  0.6285
12522TIP3    H137523   4.394   7.047   6.032  1.1432  0.3445  0.3208
12522TIP3    H237524   4.313   7.173   6.006 -0.2593 -0.5219  0.4486
12523TIP3   OH237525   4.527   5.890   4.897  0.1340  0.2925  0.1666
12523TIP3    H137526   4.456   5.844   4.852  0.2578 -0.4197  0.6736
12523TIP3    H237527   4.598   5.827   4.899  0.2044  0.3969  1.1461
12524TIP3   OH237528   5.481   7.054   4.193  0.0083  0.0145 -0.2475
12524TIP3    H137529   5.555   7.093   4.240  1.2670 -1.6902 -0.7815
12524TIP3    H237530   5.420   7.127   4.182  0.7518  1.0250  1.8674
12525TIP3   OH237531   1.807   0.394   4.306 -0.5541  0.1688  0.0991
12525TIP3    H137532   1.788   0.339   4.230 -1.1335 -0.5923  0.7777
12525TIP3    H237533   1.731   0.452   4.312 -0.7650 -0.1418  0.4225
12526TIP3   OH237534   4.355   7.510   5.102 -0.2416  0.3932  0.3726
12526TIP3    H137535   4.354   7.433   5.158 -0.9807 -0.0474 -0.2397
12526TIP3    H237536   4.371   7.475   5.014  2.5188  1.2169  0.4999
12527TIP3   OH237537   5.106   7.899   5.998  0.3842 -0.7073  0.0377
12527TIP3    H137538   5.193   7.934   5.983  0.0418 -0.2195 -0.8475
12527TIP3    H237539   5.087   7.846   5.920 -1.0622  1.1352 -0.8936
12528TIP3   OH237540   7.251   6.207   6.383  0.0687 -0.5274 -0.0403
12528TIP3    H137541   7.217   6.248   6.304  0.4272 -1.7972 -0.8616
12528TIP3    H237542   7.319   6.147   6.352  3.3080  2.1690  1.5556
12529TIP3   OH237543   2.896   0.797   5.372  0.7885 -0.2964  0.1960
12529TIP3    H137544   2.911   0.784   5.466  0.2005  0.4858  0.4064
12529TIP3    H237545   2.983   0.817   5.337  0.7255  1.2886  0.9092
12530TIP3   OH237546   4.452   7.377   5.708 -0.2002  0.4369  0.1122
12530TIP3    H137547   4.378   7.317   5.708  0.4332 -0.3513 -0.3918
12530TIP3    H237548   4.477   7.385   5.800  0.0368 -0.4782  0.1316
12531TIP3   OH237549   0.525   1.016   4.569  0.2385 -0.1434 -0.9626
12531TIP3    H137550   0.517   0.924   4.544  0.4828 -0.2720 -0.5687
12531TIP3    H237551   0.483   1.022   4.655  1.5092 -0.1804 -0.3327
12532TIP3   OH237552   4.760   7.110   4.989 -0.3151 -0.2077 -0.1747
12532TIP3    H137553   4.850   7.116   4.957 -0.1449 -0.7740  0.1796
12532TIP3    H237554   4.711   7.070   4.917 -0.2658  0.0148 -0.3329
12533TIP3   OH237555   4.666   3.838   4.678  0.1423 -0.1773 -0.4553
12533TIP3    H137556   4.658   3.743   4.667 -1.3537 -0.0309 -0.7050
12533TIP3    H237557   4.748   3.860   4.633  1.2365 -1.5304  0.7992
12534TIP3   OH237558   6.240   5.751   5.647 -0.0536 -0.3007 -0.4884
12534TIP3    H137559   6.323   5.733   5.602  0.8636 -1.1634  1.4739
12534TIP3    H237560   6.231   5.679   5.710 -0.5152  1.6865  1.7861
12535TIP3   OH237561   5.166   7.996   5.623  0.2733  0.2686 -0.9308
12535TIP3    H137562   5.249   7.997   5.575  1.1535 -1.6215  0.5105
12535TIP3    H237563   5.179   7.933   5.693 -1.6073  1.6694  0.7482
12536TIP3   OH237564   1.792   0.078   6.369 -0.3455  0.1413  0.1568
12536TIP3    H137565   1.697   0.090   6.365 -0.6358 -1.0369  2.7854
12536TIP3    H237566   1.816   0.098   6.459  1.4950 -2.2663  0.2725
12537TIP3   OH237567   7.544   5.866   4.579  0.6252 -1.0745  0.0818
12537TIP3    H137568   7.616   5.900   4.631 -1.0741 -0.6778  2.2569
12537TIP3    H237569   7.485   5.825   4.643 -2.7886  1.6708 -1.1204
12538TIP3   OH237570   4.445   7.777   5.472 -0.4308  0.5279  0.2231
12538TIP3    H137571   4.398   7.718   5.531 -0.4718 -0.1460 -0.4756
12538TIP3    H237572   4.455   7.727   5.391 -0.5883  1.5365 -0.4280
12539TIP3   OH237573   6.072   7.266   5.250 -0.3974 -0.0367  0.5586
12539TIP3    H137574   5.986   7.234   5.280  0.5039 -1.6949  1.4678
12539TIP3    H237575   6.101   7.324   5.321 -0.8359  0.6840  0.1597
12540TIP3   OH237576   8.426   0.631   6.556 -1.3144 -0.2534 -0.0128
12540TIP3    H137577   8.439   0.540   6.531  0.6146 -0.7250  2.5585
12540TIP3    H237578   8.337   0.633   6.593 -0.9465 -1.3251  0.9367
12541TIP3   OH237579   0.015   7.637   4.359 -0.4973  0.1391 -0.0759
12541TIP3    H137580   0.070   7.684   4.422 -1.4338  0.2290  0.6972
12541TIP3    H237581  -0.003   7.553   4.402  0.0583 -0.3862 -0.8639
12542TIP3   OH237582   5.739   2.985   1.549  0.1818  0.5223 -0.0371
12542TIP3    H137583   5.793   3.050   1.504 -0.6780  1.1010 -0.2304
12542TIP3    H237584   5.698   3.032   1.621 -1.5884  0.5432 -1.0515
12543TIP3   OH237585   6.370   6.171   4.073 -0.0609 -0.1463 -0.5398
12543TIP3    H137586   6.449   6.211   4.037 -0.4859  0.6815 -0.5610
12543TIP3    H237587   6.357   6.091   4.021  0.4192  0.0277 -0.9296
12544TIP3   OH237588   3.769   3.488   1.742 -0.1355  0.3845  0.4567
12544TIP3    H137589   3.761   3.567   1.795 -1.8753 -1.0477  2.4148
12544TIP3    H237590   3.851   3.499   1.694 -0.8610  3.8297 -0.1278
12545TIP3   OH237591   6.394   6.970   4.473 -0.0181 -0.1088 -0.2667
12545TIP3    H137592   6.382   6.991   4.380 -2.2027  1.2685  0.3025
12545TIP3    H237593   6.312   6.927   4.498 -0.8990  2.7114  1.8966
12546TIP3   OH237594   4.943   2.239   0.374  0.5880 -0.4018  0.5619
12546TIP3    H137595   4.993   2.255   0.293  0.1328  1.5735  0.6671
12546TIP3    H237596   4.861   2.285   0.361 -0.6356 -2.3700  1.0479
12547TIP3   OH237597   3.628   7.262   3.995  0.1388 -0.3187 -0.0295
12547TIP3    H137598   3.656   7.349   3.964  0.9856  0.0105  1.5685
12547TIP3    H237599   3.537   7.274   4.022  0.0686 -0.0766 -0.3708
12548TIP3   OH237600   6.732   6.321   6.824 -0.2782 -0.0905  0.4843
12548TIP3    H137601   6.818   6.303   6.786 -1.2093  0.6262 -2.0855
12548TIP3    H237602   6.731   6.273   6.907  1.9185 -1.5566 -0.3138
12549TIP3   OH237603   6.966   7.406   5.542 -0.1293 -0.0498  0.3950
12549TIP3    H137604   7.002   7.346   5.608  1.3417  0.2811 -0.0822
12549TIP3    H237605   7.042   7.433   5.491 -1.5283 -2.0690 -2.8988
12550TIP3   OH237606   4.738   7.528   6.338  0.1673  0.3435  0.3843
12550TIP3    H137607   4.788   7.471   6.279  0.4508  1.1643 -0.1584
12550TIP3    H237608   4.702   7.467   6.404  1.5319 -0.3133  0.5425
12551TIP3   OH237609   2.494   2.401   0.951  0.2979  0.1088  0.0278
12551TIP3    H137610   2.556   2.467   0.919  0.2998  0.5598  0.9399
12551TIP3    H237611   2.408   2.441   0.936  0.2770  0.0576  0.0133
12552TIP3   OH237612   6.048   5.681   5.445  0.1875 -0.3335  0.0503
12552TIP3    H137613   5.983   5.617   5.475  1.3505 -0.9254  1.3542
12552TIP3    H237614   6.110   5.689   5.517  0.8018  1.2890 -0.6213
12553TIP3   OH237615   5.439   6.060   4.251  0.1176 -0.4474 -0.2930
12553TIP3    H137616   5.426   5.965   4.244 -0.3549 -0.3040 -1.5600
12553TIP3    H237617   5.477   6.085   4.167  1.3462  0.3247  0.4702
12554TIP3   OH237618   5.141   6.772   3.547 -0.6271  0.2105 -0.1479
12554TIP3    H137619   5.112   6.842   3.606  0.8524  0.7889 -0.0696
12554TIP3    H237620   5.139   6.693   3.601 -1.8240  0.2717 -0.0921
12555TIP3   OH237621   6.127   5.483   3.668 -0.3183 -0.5354 -0.3679
12555TIP3    H137622   6.071   5.421   3.622 -0.7955 -0.9470  0.7500
12555TIP3    H237623   6.114   5.566   3.623  1.8520 -1.6631 -3.1592
12556TIP3   OH237624   5.321   6.481   3.496  0.4384  0.3935  0.1831
12556TIP3    H137625   5.226   6.474   3.486  0.1119  2.9056  1.3500
12556TIP3    H237626   5.351   6.521   3.414  0.9048 -3.0470 -1.4356
12557TIP3   OH237627   7.399   7.088   6.123 -0.0550 -0.4082 -0.3873
12557TIP3    H137628   7.478   7.050   6.160 -1.8704 -2.7785  1.2702
12557TIP3    H237629   7.412   7.084   6.028  2.5624  1.0241 -0.1118
12558TIP3   OH237630   3.890   8.001   4.889  0.0488  0.0784  0.1352
12558TIP3    H137631   3.904   7.968   4.978 -0.3353  0.0089  0.1719
12558TIP3    H237632   3.892   7.923   4.834 -1.2114 -0.0508  0.2635
12559TIP3   OH237633   3.874   5.280   5.010 -0.0061 -0.0308  0.0387
12559TIP3    H137634   3.846   5.305   5.099  0.0640  1.3539 -0.3099
12559TIP3    H237635   3.794   5.249   4.968 -0.0396 -0.7103  0.5859
12560TIP3   OH237636   4.548   6.462   4.309 -0.6131  0.1169  0.3399
12560TIP3    H137637   4.641   6.455   4.330 -0.6879 -2.5373 -0.0731
12560TIP3    H237638   4.504   6.466   4.394 -0.0475  3.4383  0.5496
12561TIP3   OH237639   3.510   2.349   1.576 -0.1208 -0.2782  0.5660
12561TIP3    H137640   3.493   2.342   1.482 -0.8745 -0.3928  0.7116
12561TIP3    H237641   3.563   2.272   1.597  1.8364  0.8242 -0.1608
12562TIP3   OH237642   3.536   7.847   5.305  0.1260 -0.1321 -0.1620
12562TIP3    H137643   3.626   7.818   5.320  0.0733 -0.4710 -0.4982
12562TIP3    H237644   3.544   7.940   5.284  0.1508  0.4926  2.5186
12563TIP3   OH237645   5.375   7.789   5.768  0.5997 -0.2306  0.4085
12563TIP3    H137646   5.440   7.772   5.700  0.7921 -1.0175  0.7812
12563TIP3    H237647   5.341   7.702   5.791  0.9365 -0.0343  1.7045
12564TIP3   OH237648   7.195   7.069   6.324 -0.6110 -0.8306  0.0528
12564TIP3    H137649   7.244   7.083   6.406  0.0213 -0.9122 -0.3055
12564TIP3    H237650   7.247   7.115   6.258 -1.5077 -0.1527 -0.1831
12565TIP3   OH237651   3.201   0.728   3.693 -0.1981  0.0719 -0.7951
12565TIP3    H137652   3.122   0.677   3.677  0.0854 -1.1443  1.4793
12565TIP3    H237653   3.266   0.663   3.721  0.2856  1.5836  1.7171
12566TIP3   OH237654   3.301   3.872   0.121 -0.2953 -0.3096  0.0636
12566TIP3    H137655   3.261   3.823   0.193 -1.5346  2.1784  1.1391
12566TIP3    H237656   3.360   3.810   0.079 -0.1214 -2.0455  2.7677
12567TIP3   OH237657   7.271   6.936   5.473  0.3001 -0.0474  0.6845
12567TIP3    H137658   7.232   6.892   5.397 -3.2278  1.0438  1.7310
12567TIP3    H237659   7.330   7.001   5.436  0.3351 -1.0526 -1.0586
12568TIP3   OH237660   1.908   0.484   5.227  0.5440  0.0004  0.2709
12568TIP3    H137661   1.895   0.486   5.321 -2.1687  2.4230 -0.0918
12568TIP3    H237662   1.941   0.396   5.209 -1.0987 -1.2760  3.1954
12569TIP3   OH237663   5.144   6.309   6.534 -0.8916  0.0861 -0.5493
12569TIP3    H137664   5.202   6.329   6.460 -0.3896  0.4236 -0.0685
12569TIP3    H237665   5.078   6.250   6.497  0.8391 -1.8373 -0.6731
12570TIP3   OH237666   3.359   2.192   0.382 -0.6882 -0.6656  0.4870
12570TIP3    H137667   3.343   2.286   0.389 -0.5195 -0.5761 -0.2543
12570TIP3    H237668   3.332   2.170   0.293 -0.8634 -1.3483  0.7077
12571TIP3   OH237669   5.253   7.292   5.418 -0.2449 -0.0527  0.0614
12571TIP3    H137670   5.323   7.233   5.445 -0.4827 -0.6975 -0.7276
12571TIP3    H237671   5.275   7.375   5.460  0.8968 -0.2944 -0.0371
12572TIP3   OH237672   5.220   1.728   0.078 -0.1579  0.0039  0.2454
12572TIP3    H137673   5.203   1.635   0.093 -0.8462  0.0383 -0.2849
12572TIP3    H237674   5.142   1.772   0.110 -0.4547  0.2833 -0.8331
12573TIP3   OH237675   4.704   7.635   5.387 -0.1334  0.5235  0.5962
12573TIP3    H137676   4.641   7.565   5.405  1.2432 -0.6282  1.0457
12573TIP3    H237677   4.668   7.682   5.312 -1.2767 -0.4256  0.5495
12574TIP3   OH237678   6.230   6.899   6.865  0.4618  0.2813 -0.1150
12574TIP3    H137679   6.252   6.928   6.954 -0.1504 -0.2809  0.2206
12574TIP3    H237680   6.136   6.880   6.869  0.9269 -2.2291 -0.1860
12575TIP3   OH237681   6.353   5.590   4.165 -0.1925  0.0670  0.5300
12575TIP3    H137682   6.267   5.614   4.197 -0.8756 -0.9422 -0.5044
12575TIP3    H237683   6.411   5.659   4.198 -1.6721  1.7281 -0.2351
12576TIP3   OH237684   1.402   1.135   6.472 -0.1429  0.4331 -0.2702
12576TIP3    H137685   1.456   1.078   6.526 -1.4784  0.1636  0.7960
12576TIP3    H237686   1.461   1.207   6.447  1.2300 -0.8183 -0.7096
12577TIP3   OH237687   7.662   6.856   4.405 -0.0825 -0.4946  0.2145
12577TIP3    H137688   7.584   6.805   4.427  0.8611 -1.5726  1.0688
12577TIP3    H237689   7.642   6.893   4.319 -0.8098 -2.2469 -0.3966
12578TIP3   OH237690   6.061   6.163   6.603  0.0453 -0.4056 -0.3210
12578TIP3    H137691   6.154   6.180   6.588  0.0334  0.0378  0.1177
12578TIP3    H237692   6.022   6.249   6.616 -0.1669 -0.6821  0.9699
12579TIP3   OH237693   1.350   0.188   5.900  0.3195 -0.3680  0.3008
12579TIP3    H137694   1.424   0.130   5.881  1.6140  1.3424 -0.0624
12579TIP3    H237695   1.353   0.198   5.995 -0.5687 -1.7174  0.4866
12580TIP3   OH237696   4.338   7.145   4.761 -0.3401 -0.2780  0.2398
12580TIP3    H137697   4.353   7.233   4.725 -0.1820 -0.2034  0.4837
12580TIP3    H237698   4.282   7.102   4.697  0.6275 -0.4357 -0.5225
12581TIP3   OH237699   4.531   7.436   4.319  0.0955  0.4295 -0.5828
12581TIP3    H137700   4.478   7.490   4.378  0.9096  0.2837  0.3082
12581TIP3    H237701   4.469   7.402   4.254 -1.1433 -0.7599  1.1632
12582TIP3   OH237702   5.521   6.722   3.898  0.2901 -0.0678  0.1272
12582TIP3    H137703   5.564   6.765   3.824  0.4854  0.7864  0.7331
12582TIP3    H237704   5.476   6.647   3.859 -0.7621  1.1622 -1.0868
12583TIP3   OH237705   4.365   6.967   4.971 -0.3078 -0.0452  0.2684
12583TIP3    H137706   4.339   7.010   5.052  2.3078  0.6101  0.7994
12583TIP3    H237707   4.331   7.023   4.902 -0.5275  0.6440  0.9282
12584TIP3   OH237708   7.232   6.792   4.797 -0.3509 -0.1011 -0.4027
12584TIP3    H137709   7.251   6.704   4.766  1.0301  0.3312 -0.8138
12584TIP3    H237710   7.140   6.789   4.823 -0.1506 -1.8151  0.1442
12585TIP3   OH237711   5.647   7.811   5.103  0.3158 -0.1872  0.0372
12585TIP3    H137712   5.708   7.751   5.061  2.4304  0.9495  1.3810
12585TIP3    H237713   5.690   7.896   5.099 -2.2196  1.1005 -1.0076
12586TIP3   OH237714   6.068   7.950   3.615  0.5687  0.2270  0.3115
12586TIP3    H137715   5.997   7.917   3.560 -1.5753  1.9615  1.9615
12586TIP3    H237716   6.132   7.986   3.554 -0.4123 -0.4898 -1.1512
12587TIP3   OH237717   6.375   5.388   5.432 -0.1816 -0.3128  0.1345
12587TIP3    H137718   6.455   5.367   5.481 -0.2687  0.5808  0.6819
12587TIP3    H237719   6.338   5.304   5.408  1.2365 -0.7350 -0.6201
12588TIP3   OH237720   5.550   6.302   6.255  0.1710 -0.4296 -0.1522
12588TIP3    H137721   5.467   6.267   6.221 -0.2446 -1.0072  1.4179
12588TIP3    H237722   5.615   6.236   6.231  0.1274 -0.1377 -1.0925
12589TIP3   OH237723   2.408   0.720   5.845  0.1681  0.2443 -0.3848
12589TIP3    H137724   2.324   0.680   5.866 -1.0915  3.1456  0.3415
12589TIP3    H237725   2.387   0.791   5.784  2.0756  0.9596 -0.2486
12590TIP3   OH237726   3.953   6.697   5.696  0.6344  0.1644 -0.4357
12590TIP3    H137727   3.970   6.626   5.634  0.1790 -1.1434  0.8933
12590TIP3    H237728   4.004   6.673   5.774  1.0064  1.6516 -0.2062
12591TIP3   OH237729   3.595   7.785   4.129  0.5853  0.1703  0.4028
12591TIP3    H137730   3.630   7.836   4.201  1.6207  0.2383 -0.1293
12591TIP3    H237731   3.502   7.776   4.148  0.8477  0.1839  1.7348
12592TIP3   OH237732   6.021   7.414   5.728 -0.0393  0.2986 -0.1771
12592TIP3    H137733   5.994   7.332   5.768 -0.5725 -0.0018 -1.1460
12592TIP3    H237734   5.946   7.472   5.738 -1.1647 -0.5897 -3.0198
12593TIP3   OH237735   0.390   0.213   5.026  0.1231 -0.0634 -0.0511
12593TIP3    H137736   0.480   0.192   5.003  0.7906  2.3187  0.2189
12593TIP3    H237737   0.389   0.214   5.121  0.2623  1.6006 -0.0506
12594TIP3   OH237738   1.929   5.386   6.383 -0.6529 -0.0832  0.3008
12594TIP3    H137739   1.981   5.384   6.464  2.9831 -1.2697 -1.9523
12594TIP3    H237740   1.945   5.473   6.346  0.8716 -0.9306 -1.0782
12595TIP3   OH237741   4.831   5.010   5.332  0.1439 -0.1671 -0.3874
12595TIP3    H137742   4.782   4.940   5.374 -0.5928  0.4947 -0.1334
12595TIP3    H237743   4.768   5.082   5.324  1.1955  0.8369  0.3159
12596TIP3   OH237744   2.313   0.309   5.562  0.1408  0.1087 -0.1164
12596TIP3    H137745   2.341   0.221   5.537  0.6569  0.9164 -2.4922
12596TIP3    H237746   2.271   0.297   5.647  0.0057 -2.4628 -0.5034
12597TIP3   OH237747   4.795   6.914   6.022 -1.1162 -0.1453 -0.0999
12597TIP3    H137748   4.770   6.989   6.077 -1.8754 -0.2589 -0.2829
12597TIP3    H237749   4.785   6.838   6.080  0.7585 -0.0126  0.4348
12598TIP3   OH237750   4.601   7.204   3.555 -0.1441 -0.0402  0.5606
12598TIP3    H137751   4.664   7.141   3.591  0.4969  1.4467  2.0847
12598TIP3    H237752   4.627   7.288   3.592 -2.1743  0.8282  0.0799
12599TIP3   OH237753   4.610   7.752   4.846 -0.6455 -0.4855  0.2697
12599TIP3    H137754   4.556   7.816   4.800 -1.5400 -1.0149  0.5514
12599TIP3    H237755   4.641   7.798   4.924  0.6831  0.3417 -0.7277
12600TIP3   OH237756   7.247   0.481   6.195  0.3801 -0.1624 -0.1683
12600TIP3    H137757   7.237   0.545   6.124  0.2648 -0.0248 -0.0309
12600TIP3    H237758   7.161   0.438   6.201 -0.1746  1.0623  1.0568
12601TIP3   OH237759   2.750   6.766   2.797 -0.8466  0.8002 -0.1404
12601TIP3    H137760   2.751   6.839   2.735  3.2338 -1.0369 -2.4907
12601TIP3    H237761   2.829   6.777   2.849 -1.7199 -0.3340  1.4738
12602TIP3   OH237762   1.121   0.032   6.253  0.2190 -0.2169  0.6310
12602TIP3    H137763   1.142  -0.014   6.335  1.3718  0.5853  0.7963
12602TIP3    H237764   1.183  -0.003   6.189 -0.2714 -0.3909  0.2499
12603TIP3   OH237765   6.547   7.643   5.434  0.0029 -0.3886 -0.0146
12603TIP3    H137766   6.564   7.720   5.490  0.5515  0.5013 -1.3728
12603TIP3    H237767   6.627   7.591   5.441  0.3971  0.1303 -0.6038
12604TIP3   OH237768   6.535   7.039   5.967 -0.7951 -0.9123  0.1819
12604TIP3    H137769   6.501   7.098   5.900 -1.8710 -0.6288  0.9687
12604TIP3    H237770   6.630   7.037   5.951 -0.6925  1.2746  0.3295
12605TIP3   OH237771   5.659   7.432   5.129 -0.4193 -0.1447  0.2873
12605TIP3    H137772   5.630   7.459   5.042  0.2609  0.8620  0.3645
12605TIP3    H237773   5.703   7.509   5.164 -1.7335 -0.1540  2.0027
12606TIP3   OH237774   5.353   3.138   0.488 -0.3181 -0.2578  0.2959
12606TIP3    H137775   5.358   3.152   0.583 -1.0599 -0.9996  0.4566
12606TIP3    H237776   5.442   3.149   0.457 -0.2128  0.8509  0.9619
12607TIP3   OH237777   7.390   0.403   5.853 -0.0388  0.2668  0.0549
12607TIP3    H137778   7.435   0.487   5.854  0.4389  0.0102  0.3785
12607TIP3    H237779   7.335   0.405   5.775 -0.4869  1.1216  0.3936
12608TIP3   OH237780   5.527   7.263   5.757 -0.0663  0.5578  0.2125
12608TIP3    H137781   5.568   7.179   5.738 -0.3820  0.7910 -1.5114
12608TIP3    H237782   5.521   7.265   5.853 -2.0039 -2.3290  0.2325
12609TIP3   OH237783   3.268   5.329   4.986 -0.0691 -0.1290  0.3211
12609TIP3    H137784   3.328   5.315   5.059  0.7616  1.0986 -0.1219
12609TIP3    H237785   3.276   5.249   4.933 -1.5502 -1.5474  2.1530
12610TIP3   OH237786   1.420   3.116   1.362  0.9108  0.7547  0.3888
12610TIP3    H137787   1.515   3.130   1.366  1.5612 -2.4010 -2.3814
12610TIP3    H237788   1.407   3.027   1.394 -0.9417  0.5638 -0.8162
12611TIP3   OH237789   4.293   7.400   4.128  0.1761 -0.5156 -0.4973
12611TIP3    H137790   4.213   7.361   4.094 -0.2063  0.0094 -0.2078
12611TIP3    H237791   4.358   7.386   4.059 -0.5121  0.2819 -1.3190
12612TIP3   OH237792   6.954   7.573   6.010  0.1369 -0.0087  0.1915
12612TIP3    H137793   6.971   7.590   6.103 -0.0064  0.7293  0.0897
12612TIP3    H237794   6.991   7.649   5.965  0.8540 -0.7127 -0.4138
12613TIP3   OH237795   6.667   7.373   6.017  0.4175  0.5341  0.3148
12613TIP3    H137796   6.682   7.282   5.994 -0.0052 -0.0697  2.4055
12613TIP3    H237797   6.754   7.407   6.038  0.3238  0.1152  1.3569
12614TIP3   OH237798   5.196   6.852   4.224 -0.1772  0.1738 -0.6142
12614TIP3    H137799   5.281   6.891   4.248 -0.4308  0.3558  0.0227
12614TIP3    H237800   5.134   6.895   4.283 -0.4476 -1.2984  0.2086
12615TIP3   OH237801   5.752   7.188   5.588 -0.7538 -0.0150  0.1652
12615TIP3    H137802   5.702   7.111   5.563 -1.5264  0.9152 -1.1827
12615TIP3    H237803   5.740   7.250   5.516 -0.3100  1.4486  1.3153
12616TIP3   OH237804   3.405   4.628   0.347  0.0347 -0.4599  0.5766
12616TIP3    H137805   3.339   4.654   0.283  0.2626 -1.9179 -0.2857
12616TIP3    H237806   3.357   4.618   0.429 -0.9422 -2.0788 -0.1785
12617TIP3   OH237807   3.272   3.604   0.598 -0.0990 -0.4115 -0.3949
12617TIP3    H137808   3.306   3.522   0.564  1.2063 -0.2691  0.5207
12617TIP3    H237809   3.233   3.581   0.682 -1.6409 -0.4421 -1.0947
12618TIP3   OH237810   0.253   7.239   6.318  0.3164 -0.0068  0.0064
12618TIP3    H137811   0.276   7.238   6.410  0.8812  0.1468 -0.1314
12618TIP3    H237812   0.300   7.314   6.281 -0.2599  0.2014 -0.3171
12619TIP3   OH237813   6.784   6.306   5.852 -0.5055 -0.4966  0.0853
12619TIP3    H137814   6.725   6.261   5.913 -0.5402 -0.6723 -0.0779
12619TIP3    H237815   6.780   6.254   5.772 -2.2876  1.0536 -0.8724
12620TIP3   OH237816   6.895   6.543   6.047 -0.7346  0.1213  0.5810
12620TIP3    H137817   6.901   6.459   6.002 -2.0640  0.4619 -0.2506
12620TIP3    H237818   6.939   6.605   5.989  1.2855 -0.1742  1.7287
12621TIP3   OH237819   4.518   2.490   0.543  0.1408 -0.1447  0.1321
12621TIP3    H137820   4.527   2.528   0.630  1.4759  2.3563 -1.0476
12621TIP3    H237821   4.525   2.395   0.558  0.4352  0.2379  2.7056
12622TIP3   OH237822   8.336   6.700   4.822 -0.5561 -0.1494 -0.4877
12622TIP3    H137823   8.414   6.658   4.857 -0.3546 -0.7732 -1.6391
12622TIP3    H237824   8.335   6.787   4.861 -1.1814 -1.3552  2.2455
12623TIP3   OH237825   6.148   5.231   6.293 -0.3358  0.1602  0.0799
12623TIP3    H137826   6.094   5.282   6.353  0.8611 -1.0501  2.2674
12623TIP3    H237827   6.112   5.142   6.297  0.2559 -0.1061 -0.3669
12624TIP3   OH237828   8.004   6.013   6.223 -0.4309  0.2232  0.6049
12624TIP3    H137829   8.097   6.008   6.201 -0.6221 -0.0860 -0.1638
12624TIP3    H237830   7.998   5.984   6.314  0.1634 -0.2376  0.4978
12625TIP3   OH237831   8.015   5.567   5.451 -0.0300  0.3408 -0.3590
12625TIP3    H137832   8.095   5.604   5.413 -0.3861  1.5791  0.0766
12625TIP3    H237833   7.946   5.630   5.429 -0.5561  0.1974  0.8267
12626TIP3   OH237834   5.152   7.449   6.065 -0.3392 -0.3494  0.2317
12626TIP3    H137835   5.199   7.371   6.095  0.0799 -0.7364 -1.4003
12626TIP3    H237836   5.212   7.521   6.083  1.3093 -0.9249 -2.6297
12627TIP3   OH237837   7.031   6.617   4.735 -0.6672 -0.2904 -0.0941
12627TIP3    H137838   6.976   6.685   4.774 -1.5137  0.5468 -2.5971
12627TIP3    H237839   7.003   6.614   4.643  1.4706 -1.9149 -0.7346
12628TIP3   OH237840   5.791   7.200   4.229 -0.1735 -0.1351  0.2414
12628TIP3    H137841   5.723   7.196   4.296 -0.2224 -2.4537  0.0827
12628TIP3    H237842   5.814   7.293   4.225 -1.3809  0.2997  2.2396
12629TIP3   OH237843   0.692   3.746   0.151  0.5803  0.0353  0.1672
12629TIP3    H137844   0.662   3.672   0.098  1.3307 -0.2592  0.1449
12629TIP3    H237845   0.777   3.718   0.185  0.6394  0.6896  0.5721
12630TIP3   OH237846   4.647   6.516   5.057 -0.2292  0.6603 -0.1916
12630TIP3    H137847   4.604   6.470   4.984 -2.9369  2.3643  0.2852
12630TIP3    H237848   4.708   6.576   5.014 -2.5515  2.4060 -1.1603
12631TIP3   OH237849   4.284   0.460   5.960 -0.8466 -0.1374 -0.0823
12631TIP3    H137850   4.208   0.429   5.911 -0.8808 -2.9675  1.6181
12631TIP3    H237851   4.247   0.491   6.043 -0.0444 -3.3491  1.5510
12632TIP3   OH237852   5.772   7.728   4.412  0.0151 -0.0906  0.5791
12632TIP3    H137853   5.831   7.797   4.443 -0.2239  0.0427  0.7416
12632TIP3    H237854   5.689   7.747   4.456 -0.1770 -0.2148  0.2668
12633TIP3   OH237855   1.143   0.548   3.317  0.2318 -0.2827 -0.3319
12633TIP3    H137856   1.099   0.584   3.240  0.1343  0.4967  0.0809
12633TIP3    H237857   1.073   0.539   3.382  0.6411  0.8045  0.2710
12634TIP3   OH237858   0.700   0.596   6.516  0.6585 -0.2202 -0.2229
12634TIP3    H137859   0.654   0.574   6.596  2.1061 -1.0917  0.3892
12634TIP3    H237860   0.685   0.522   6.458 -1.8442  1.1691 -1.4437
12635TIP3   OH237861   5.225   3.884   0.675 -0.2779  0.4918 -0.3861
12635TIP3    H137862   5.308   3.859   0.716  0.2138 -1.3291 -2.4255
12635TIP3    H237863   5.159   3.832   0.720 -0.4289  2.3944  1.6636
12636TIP3   OH237864   7.223   7.877   3.258  0.2542  0.3308 -0.0520
12636TIP3    H137865   7.223   7.905   3.350  0.3187  1.1351 -0.2917
12636TIP3    H237866   7.162   7.937   3.215  0.8059  0.4509 -0.6795
12637TIP3   OH237867   6.008   7.319   4.395  0.1624  0.5717 -0.2523
12637TIP3    H137868   6.006   7.223   4.398  1.0526  0.5129 -1.1146
12637TIP3    H237869   6.010   7.340   4.302 -3.0628  1.5390 -0.1630
12638TIP3   OH237870   4.107   6.752   5.096 -0.1572  0.4285 -0.0287
12638TIP3    H137871   4.021   6.790   5.077  0.1415  0.8115 -0.6291
12638TIP3    H237872   4.090   6.658   5.104 -0.8507  0.6437  1.1886
12639TIP3   OH237873   3.708   3.607   1.065  0.0045  0.0562  0.1702
12639TIP3    H137874   3.784   3.584   1.012 -0.7966 -2.7820  0.2027
12639TIP3    H237875   3.741   3.612   1.154  0.1512 -1.1269  0.1800
12640TIP3   OH237876   1.489   0.913   5.443 -0.6685 -0.5747 -0.0899
12640TIP3    H137877   1.555   0.846   5.426 -1.7161 -1.5529 -0.4126
12640TIP3    H237878   1.502   0.978   5.374 -0.6364 -1.2272 -0.7060
12641TIP3   OH237879   5.480   5.430   5.162 -0.3347 -0.3550 -0.1359
12641TIP3    H137880   5.519   5.457   5.244  0.2312  1.4838 -0.9960
12641TIP3    H237881   5.537   5.466   5.094 -0.2919 -2.5853 -1.3548
12642TIP3   OH237882   5.025   2.661   0.238  0.1368 -0.3311 -0.1815
12642TIP3    H137883   5.068   2.664   0.323  1.0533  0.9456 -0.6806
12642TIP3    H237884   5.092   2.629   0.178 -0.7824 -2.1640 -0.2823
12643TIP3   OH237885   6.857   5.946   4.906  0.0944  0.8816  0.3686
12643TIP3    H137886   6.868   5.886   4.980 -1.2109 -0.3300 -0.4057
12643TIP3    H237887   6.771   5.986   4.920 -0.7052 -0.2647 -1.1227
12644TIP3   OH237888   1.961   0.269   6.110  0.8125 -0.0473  1.2327
12644TIP3    H137889   1.885   0.216   6.088  1.4323 -0.0520 -0.9537
12644TIP3    H237890   2.034   0.208   6.110  1.2396  0.4636  0.5830
12645TIP3   OH237891   2.166   0.104   6.055 -0.1715  0.2825 -0.0906
12645TIP3    H137892   2.116   0.032   6.016 -0.9336  1.1464 -0.7115
12645TIP3    H237893   2.257   0.076   6.048 -0.6157 -2.0371  2.4868
12646TIP3   OH237894   6.978   5.659   3.640 -0.0248  0.0238  0.6892
12646TIP3    H137895   6.909   5.612   3.686 -0.9147  0.5487 -0.1062
12646TIP3    H237896   6.989   5.741   3.690  0.2875 -0.2234  1.0306
12647TIP3   OH237897   2.614   3.278   0.015 -0.2908  0.6358  0.0975
12647TIP3    H137898   2.690   3.322   0.053  1.5427 -0.8150 -1.7771
12647TIP3    H237899   2.574   3.230   0.087  0.4955  1.5020  1.1094
12648TIP3   OH237900   2.555   3.498   0.416 -0.3738  0.0566 -0.3345
12648TIP3    H137901   2.529   3.562   0.349 -1.2753  0.0590  0.0268
12648TIP3    H237902   2.544   3.413   0.373 -0.6723  0.0713 -0.2867
12649TIP3   OH237903   4.487   3.501   0.183  0.1000 -0.7267  0.5424
12649TIP3    H137904   4.505   3.409   0.162  2.9044 -0.0732 -0.1428
12649TIP3    H237905   4.505   3.508   0.277 -0.5630 -0.9703  0.6899
12650TIP3   OH237906   6.205   7.594   4.884 -0.5178 -0.0833 -0.8161
12650TIP3    H137907   6.291   7.566   4.915 -1.0492  0.1555  0.9100
12650TIP3    H237908   6.216   7.601   4.789  0.9619 -1.4453 -0.7844
12651TIP3   OH237909   6.004   7.685   6.093  0.3724 -0.2135 -0.3351
12651TIP3    H137910   5.958   7.670   6.176  2.0615 -1.5354  0.3904
12651TIP3    H237911   6.015   7.597   6.055 -2.3448  0.5223 -3.1010
12652TIP3   OH237912   6.581   5.365   3.620 -0.0723  0.3979 -0.1938
12652TIP3    H137913   6.561   5.331   3.707  1.3511 -1.0615 -0.4103
12652TIP3    H237914   6.532   5.309   3.560 -0.2303  0.7391 -0.3884
12653TIP3   OH237915   4.119   4.622   4.091 -0.3504  0.1344  0.0776
12653TIP3    H137916   4.105   4.528   4.092 -1.1142  0.2484  1.2236
12653TIP3    H237917   4.178   4.639   4.165  0.8947  0.3980 -0.9604
12654TIP3   OH237918   0.746   1.534   5.888 -0.0769  0.2346  0.1215
12654TIP3    H137919   0.827   1.550   5.839 -0.0772 -0.2786 -0.0445
12654TIP3    H237920   0.772   1.472   5.957 -0.2171  0.4614  0.3777
12655TIP3   OH237921   1.555   0.654   5.755 -0.2606 -0.3668  0.3504
12655TIP3    H137922   1.460   0.645   5.759 -0.2540 -0.4474  0.3153
12655TIP3    H237923   1.589   0.571   5.787 -0.2032 -0.5462 -0.1687
12656TIP3   OH237924   7.237   7.220   6.831 -0.2741 -0.4093 -0.0325
12656TIP3    H137925   7.209   7.129   6.843 -1.1025 -0.4150 -1.9030
12656TIP3    H237926   7.219   7.239   6.739 -1.2960  2.0452  0.6430
12657TIP3   OH237927   7.523   5.659   6.277  0.0963  0.3115 -0.0169
12657TIP3    H137928   7.470   5.659   6.197  0.0883 -0.0743 -0.0148
12657TIP3    H237929   7.570   5.742   6.275  3.3522 -1.4915 -2.5556
12658TIP3   OH237930   2.150   3.415   0.562 -0.5319 -0.5673 -0.0130
12658TIP3    H137931   2.130   3.373   0.645 -0.0332 -1.7432 -0.4695
12658TIP3    H237932   2.136   3.347   0.496  0.0065  0.0605 -0.7987
12659TIP3   OH237933   7.905   6.209   6.498 -0.2915 -0.6221 -0.1684
12659TIP3    H137934   7.946   6.284   6.540 -0.2794 -0.8870  0.2885
12659TIP3    H237935   7.856   6.246   6.424 -1.3747 -0.0221  0.8416
12660TIP3   OH237936   5.517   6.527   5.452 -0.3326 -0.2037 -0.0708
12660TIP3    H137937   5.580   6.461   5.480  0.6058  1.3495  1.5795
12660TIP3    H237938   5.565   6.582   5.390 -0.7778 -0.3945 -0.5927
12661TIP3   OH237939   8.034   1.598   4.889 -0.2465 -0.0592  0.7290
12661TIP3    H137940   8.086   1.678   4.886 -0.0533 -0.2514 -3.1824
12661TIP3    H237941   7.957   1.618   4.836 -1.9546 -1.3290  2.6472
12662TIP3   OH237942   5.976   6.832   6.885 -0.1786  0.6085 -0.0656
12662TIP3    H137943   5.967   6.739   6.902  0.4473  0.6277  0.3914
12662TIP3    H237944   5.908   6.852   6.820  1.3621 -0.6952 -2.1537
12663TIP3   OH237945   4.203   7.769   4.576  0.0140  0.7865 -0.2089
12663TIP3    H137946   4.136   7.701   4.580 -0.1978  0.8653 -2.0182
12663TIP3    H237947   4.155   7.851   4.581  0.3429  0.8432  2.9680
12664TIP3   OH237948   6.284   0.819   4.988 -0.1559  0.5022  0.5056
12664TIP3    H137949   6.200   0.849   4.953  0.7911  0.6819 -1.6808
12664TIP3    H237950   6.316   0.892   5.040 -1.3028  0.4563  1.3028
12665TIP3   OH237951   6.884   2.387   4.674  0.4004  0.1751  0.3264
12665TIP3    H137952   6.951   2.453   4.688 -0.7428  1.8011 -1.5662
12665TIP3    H237953   6.887   2.332   4.753  2.9463  1.0654  0.8805
12666TIP3   OH237954   3.706   2.209   1.220  0.1472  0.5440  0.6352
12666TIP3    H137955   3.715   2.159   1.138 -0.8082 -0.3815  1.0863
12666TIP3    H237956   3.736   2.297   1.197  0.8847  0.0358 -0.4443
12667TIP3   OH237957   6.564   7.445   3.812 -0.0600  0.0687 -0.1154
12667TIP3    H137958   6.578   7.539   3.820  2.8102 -0.4681  1.8914
12667TIP3    H237959   6.468   7.434   3.815 -0.4042  2.8526  0.0256
12668TIP3   OH237960   3.509   3.269   1.050 -0.6178 -0.4645  0.6621
12668TIP3    H137961   3.580   3.318   1.092  0.4280  1.1605 -2.7932
12668TIP3    H237962   3.430   3.303   1.090  0.2537  2.2212  0.1959
12669TIP3   OH237963   2.755   2.476   0.639 -0.2121  0.5487 -0.1414
12669TIP3    H137964   2.803   2.415   0.694 -0.1139 -0.9996 -1.9095
12669TIP3    H237965   2.702   2.421   0.582 -1.5901  2.1579 -0.4710
12670TIP3   OH237966   4.849   5.821   4.910 -0.0564  0.0333  0.4467
12670TIP3    H137967   4.944   5.829   4.903 -0.0900  0.0384 -0.0021
12670TIP3    H237968   4.826   5.747   4.853 -0.2626 -0.3012  0.9592
12671TIP3   OH237969   0.374   2.196   3.985  0.2425 -0.5609 -0.1169
12671TIP3    H137970   0.330   2.242   4.057 -1.4018 -0.0679 -1.4010
12671TIP3    H237971   0.434   2.135   4.029 -0.5039 -0.0604  1.6633
12672TIP3   OH237972   8.167   6.035   3.479 -0.6304  0.0093 -0.2878
12672TIP3    H137973   8.179   6.038   3.384 -0.6477  0.0616 -0.2884
12672TIP3    H237974   8.234   6.095   3.513 -2.9617  2.8188 -0.4544
12673TIP3   OH237975   5.787   4.824   4.019  0.0236  0.7587  0.2610
12673TIP3    H137976   5.692   4.829   4.021 -0.1016 -1.0265 -0.4782
12673TIP3    H237977   5.807   4.735   4.049  1.5283  1.6485  2.0058
12674TIP3   OH237978   4.211   6.844   6.421  0.4337  0.5698 -0.2364
12674TIP3    H137979   4.183   6.760   6.457 -0.8401 -0.4981 -3.5478
12674TIP3    H237980   4.143   6.906   6.448 -0.7291 -0.3036 -1.0785
12675TIP3   OH237981   3.803   5.988   5.869 -0.0897 -0.3748 -0.5076
12675TIP3    H137982   3.736   5.942   5.819 -0.7105 -1.1553  1.0111
12675TIP3    H237983   3.807   6.075   5.830 -0.0057 -1.2010 -2.3953
12676TIP3   OH237984   5.636   3.413   4.906 -0.5199  0.1382  0.1546
12676TIP3    H137985   5.603   3.463   4.981  0.0299 -0.6910  0.9623
12676TIP3    H237986   5.711   3.464   4.875  0.2184 -0.3161  1.1553
12677TIP3   OH237987   4.781   4.830   6.484  1.0642 -0.4059  0.4928
12677TIP3    H137988   4.690   4.857   6.472  0.8256 -1.1330  0.6871
12677TIP3    H237989   4.832   4.901   6.444  0.4203  0.0852  0.5369
12678TIP3   OH237990   5.007   5.949   3.251  0.2078 -0.3929 -0.2453
12678TIP3    H137991   4.940   6.014   3.274  1.5745  0.3136  1.9629
12678TIP3    H237992   4.958   5.876   3.214 -1.8676 -0.1218  1.8181
12679TIP3   OH237993   5.592   6.715   5.941  0.3478  0.3511 -0.0225
12679TIP3    H137994   5.541   6.660   6.001 -0.6712  0.3836 -0.8503
12679TIP3    H237995   5.557   6.696   5.854  0.5943  1.6407 -0.4212
12680TIP3   OH237996   3.916   3.530   0.908  0.1702  0.3909  0.3898
12680TIP3    H137997   3.924   3.465   0.839  0.7274 -0.6757  1.4368
12680TIP3    H237998   3.997   3.522   0.958 -0.8872  0.0131  2.1074
12681TIP3   OH237999   4.425   6.851   5.485  0.0371 -0.1465  0.2675
12681TIP3    H138000   4.478   6.846   5.406  0.5166  0.6163  0.5315
12681TIP3    H238001   4.335   6.837   5.454  0.2458 -0.0850 -0.3772
12682TIP3   OH238002   7.898   5.184   5.356 -0.3031  0.3760 -0.0576
12682TIP3    H138003   7.898   5.259   5.296 -2.1224  1.0877  0.7822
12682TIP3    H238004   7.917   5.221   5.441 -1.4245 -0.0650  0.4017
12683TIP3   OH238005   8.202   6.386   1.744  0.8342 -0.1036  0.3886
12683TIP3    H138006   8.151   6.432   1.677  1.1540 -0.7926 -0.3313
12683TIP3    H238007   8.270   6.341   1.696  0.9399 -0.7807  1.1615
12684TIP3   OH238008   0.957   0.254   5.063  0.5607  0.5483 -0.0066
12684TIP3    H138009   0.931   0.310   4.990  1.2671  0.3724 -0.3840
12684TIP3    H238010   0.887   0.266   5.128  0.3619  1.3395 -0.3677
12685TIP3   OH238011   1.471   6.217   5.927 -0.1649 -0.0610 -0.3816
12685TIP3    H138012   1.457   6.290   5.866  1.9494  1.2629  0.6771
12685TIP3    H238013   1.461   6.256   6.014  0.9183 -1.0399  0.1922
12686TIP3   OH238014   4.384   3.506   1.303  0.1292  0.0681 -0.0300
12686TIP3    H138015   4.422   3.577   1.354 -1.1494  1.2954 -0.7504
12686TIP3    H238016   4.299   3.489   1.345 -0.1948 -0.0592 -0.7356
12687TIP3   OH238017   7.595   7.183   4.593  0.0444 -0.6847  0.3924
12687TIP3    H138018   7.575   7.232   4.673  2.0727 -1.0809  1.1934
12687TIP3    H238019   7.544   7.102   4.602  0.1349 -0.6547  1.2046
12688TIP3   OH238020   2.170   0.707   5.499  0.0756  0.5083  0.9293
12688TIP3    H138021   2.247   0.748   5.539 -0.7838  0.2198  2.9502
12688TIP3    H238022   2.167   0.619   5.537  0.2854 -0.4551 -1.2212
12689TIP3   OH238023   6.520   5.372   4.974 -0.4151 -0.0325  0.1994
12689TIP3    H138024   6.442   5.352   5.025 -0.5172  0.6909  0.3323
12689TIP3    H238025   6.525   5.468   4.974  0.0164 -0.0512 -0.4942
12690TIP3   OH238026   4.593   0.752   3.885 -0.0991 -0.1788  0.1512
12690TIP3    H138027   4.585   0.657   3.879  1.8223 -0.3229 -0.1580
12690TIP3    H238028   4.588   0.771   3.979 -0.5052 -0.5744  0.2088
12691TIP3   OH238029   7.487   7.719   5.770  0.3770 -0.2700 -0.0661
12691TIP3    H138030   7.403   7.700   5.810  0.0204 -0.7469 -1.0255
12691TIP3    H238031   7.526   7.786   5.826 -0.2196 -0.7419  0.9238
12692TIP3   OH238032   8.203   7.903   3.462  0.4565 -0.1033 -0.3836
12692TIP3    H138033   8.178   7.893   3.554  1.0236  2.0732  0.0325
12692TIP3    H238034   8.146   7.972   3.429 -0.7462 -1.8421 -2.0950
12693TIP3   OH238035   2.231   0.358   4.587  0.0533 -0.8081  0.4775
12693TIP3    H138036   2.213   0.268   4.559 -0.5490 -0.1565 -1.3149
12693TIP3    H238037   2.256   0.404   4.507 -1.8714  1.1758  0.9485
12694TIP3   OH238038   4.500   4.678   0.408 -0.3482  0.2749  0.2650
12694TIP3    H138039   4.463   4.762   0.382 -0.4012  0.0542 -0.3722
12694TIP3    H238040   4.425   4.619   0.416 -0.1673 -0.1033 -0.7665
12695TIP3   OH238041   6.224   4.321   5.341 -0.2038 -0.0087 -0.3902
12695TIP3    H138042   6.183   4.301   5.257  0.9569 -2.2875 -0.4729
12695TIP3    H238043   6.318   4.319   5.322  0.0213  2.1135  0.4244
12696TIP3   OH238044   0.072   6.747   3.727 -0.2562 -0.5788  0.3507
12696TIP3    H138045  -0.022   6.756   3.708 -0.2031  2.3096  1.2621
12696TIP3    H238046   0.114   6.754   3.641 -0.7930 -0.0411  0.1226
12697TIP3   OH238047   7.367   7.747   4.723 -0.0934 -0.6922 -0.0674
12697TIP3    H138048   7.289   7.722   4.673  0.1947 -0.2655 -0.7374
12697TIP3    H238049   7.336   7.760   4.812 -0.8363 -0.2497 -0.3927
12698TIP3   OH238050   0.514   7.140   5.380  0.5389 -0.0586  0.4540
12698TIP3    H138051   0.559   7.215   5.339  0.0351  0.6793  1.2342
12698TIP3    H238052   0.568   7.118   5.456 -0.7921  1.3046  1.8180
12699TIP3   OH238053   4.776   5.800   5.188 -0.4175  0.1172  0.1395
12699TIP3    H138054   4.794   5.812   5.095  0.4063 -0.0336  0.2785
12699TIP3    H238055   4.768   5.889   5.222 -3.7322  0.1721 -0.6375
12700TIP3   OH238056   0.881   0.593   3.417  0.6193 -0.0107  0.3229
12700TIP3    H138057   0.831   0.617   3.338 -1.2918 -1.6195  0.9933
12700TIP3    H238058   0.878   0.671   3.472 -1.1225 -0.0485  0.3084
12701TIP3   OH238059   7.902   7.004   4.421  0.2223  0.1559  0.3533
12701TIP3    H138060   7.925   6.951   4.498 -0.3363  0.8829  1.0324
12701TIP3    H238061   7.809   6.986   4.408 -0.7319  3.2202  2.4027
12702TIP3   OH238062   2.541   0.725   3.070 -0.0987  0.2021  0.4881
12702TIP3    H138063   2.506   0.804   3.113 -0.2135 -0.8530  2.3708
12702TIP3    H238064   2.611   0.758   3.013 -1.7744  1.9450 -0.6353
12703TIP3   OH238065   0.192   8.025   3.567  0.3261 -0.1371 -0.1212
12703TIP3    H138066   0.117   7.978   3.531  0.1359  1.2729 -1.6236
12703TIP3    H238067   0.211   7.980   3.649 -0.8063 -1.8590 -0.7656
12704TIP3   OH238068   0.209   7.844   6.413 -0.0659 -0.3428 -0.1716
12704TIP3    H138069   0.148   7.871   6.344 -0.5142  2.3978  1.2355
12704TIP3    H238070   0.296   7.859   6.376 -0.3067  0.7986 -0.2975
12705TIP3   OH238071   8.401   7.680   5.203 -0.4022 -0.3727 -0.1565
12705TIP3    H138072   8.335   7.746   5.184 -0.3441  0.0677  1.1572
12705TIP3    H238073   8.471   7.727   5.248  1.1782 -0.6799 -2.2000
12706TIP3   OH238074   2.374   0.061   5.448 -0.6884  0.1901 -0.0327
12706TIP3    H138075   2.342  -0.029   5.450  0.4746 -0.2824 -1.9234
12706TIP3    H238076   2.339   0.097   5.367  2.6367 -0.0120 -1.6125
12707TIP3   OH238077   7.158   7.621   5.442  0.0932 -0.0818 -0.2623
12707TIP3    H138078   7.120   7.673   5.372 -0.9897  0.2987  0.5981
12707TIP3    H238079   7.236   7.670   5.470 -0.5122  0.6962  0.0482
12708TIP3   OH238080   8.137   7.700   3.296 -1.0465  0.7191 -0.2872
12708TIP3    H138081   8.145   7.755   3.374 -0.5279  2.1987 -1.3675
12708TIP3    H238082   8.199   7.738   3.233 -0.0109 -1.6422 -0.7560
12709TIP3   OH238083   1.750   0.440   3.911  0.4441 -0.3913  0.1601
12709TIP3    H138084   1.667   0.453   3.958 -0.1790 -0.6202 -0.8612
12709TIP3    H238085   1.732   0.471   3.822  1.9914  1.2605  0.3912
12710TIP3   OH238086   8.373   7.676   6.579  0.3718  0.6808  0.3183
12710TIP3    H138087   8.330   7.598   6.614 -0.4599  0.8691 -0.2885
12710TIP3    H238088   8.463   7.670   6.613  0.1223 -0.1693  0.8536
12711TIP3   OH238089   1.178   0.784   3.474  0.3133  0.1377 -0.0004
12711TIP3    H138090   1.219   0.713   3.425  1.3831  1.4715 -1.0831
12711TIP3    H238091   1.129   0.740   3.544  1.0396 -1.6413 -0.5833
12712TIP3   OH238092   7.995   7.287   5.542  0.5517 -0.0105 -0.2752
12712TIP3    H138093   8.059   7.358   5.547  1.6309 -1.0084  0.1476
12712TIP3    H238094   8.030   7.219   5.598 -1.0394 -0.4550  0.2137
12713TIP3   OH238095   7.193   6.188   3.927 -0.4103  0.9083  0.9048
12713TIP3    H138096   7.239   6.225   3.852  0.3261 -2.4795 -0.4335
12713TIP3    H238097   7.259   6.183   3.996 -0.4597  1.8685  1.0205
12714TIP3   OH238098   6.763   6.687   5.398 -0.5160  0.2777  0.0306
12714TIP3    H138099   6.749   6.616   5.335 -0.7405 -0.4758  0.9199
12714TIP3    H238100   6.715   6.761   5.361  0.8361  0.3812 -1.5885
12715TIP3   OH238101   6.114   3.165   0.202 -0.2013 -0.6800  0.0522
12715TIP3    H138102   6.201   3.127   0.194  0.4077  0.8121 -0.6613
12715TIP3    H238103   6.079   3.166   0.112 -0.3275  0.1453  0.1050
12716TIP3   OH238104   2.474   1.519   4.678 -0.1643  0.8625  0.6806
12716TIP3    H138105   2.386   1.554   4.665 -1.3736 -1.8732  1.1454
12716TIP3    H238106   2.520   1.536   4.595 -1.2367  1.9175  0.2899
12717TIP3   OH238107   6.853   7.754   5.128  0.5896  0.0274  0.2954
12717TIP3    H138108   6.888   7.784   5.212 -1.1594 -0.8010  1.3453
12717TIP3    H238109   6.801   7.828   5.097  1.7261  0.5658 -0.3875
12718TIP3   OH238110   1.039   0.969   3.322  0.2414  0.1360 -0.1435
12718TIP3    H138111   1.050   1.049   3.374  2.8985  0.3617 -0.9750
12718TIP3    H238112   1.088   0.903   3.370 -0.4708 -0.5747 -0.3898
12719TIP3   OH238113   7.907   6.438   5.591  0.1369 -0.8387  0.6647
12719TIP3    H138114   7.881   6.529   5.600  0.9552 -0.5439  0.1493
12719TIP3    H238115   7.848   6.402   5.525 -0.2763 -0.7298  0.9690
12720TIP3   OH238116   2.644   0.160   3.280  0.0324 -0.6247 -0.2539
12720TIP3    H138117   2.732   0.131   3.257 -0.0992  0.6886 -2.6581
12720TIP3    H238118   2.586   0.096   3.240 -0.1534  0.6492 -2.1222
12721TIP3   OH238119   6.543   6.164   2.165  0.2135  0.2862 -0.5397
12721TIP3    H138120   6.566   6.075   2.138 -0.0140 -0.1665  0.7254
12721TIP3    H238121   6.506   6.204   2.087  1.3711 -0.3578 -1.4402
12722TIP3   OH238122   7.661   6.230   4.976  0.2112 -0.3529 -0.6453
12722TIP3    H138123   7.712   6.277   5.042 -2.9595 -0.0518  1.7179
12722TIP3    H238124   7.694   6.140   4.980  2.3031  0.3639 -1.0403
12723TIP3   OH238125   1.526   3.806   3.107  0.2395  0.2816 -0.2457
12723TIP3    H138126   1.473   3.843   3.178 -0.6467 -1.6846  0.1516
12723TIP3    H238127   1.552   3.882   3.055 -1.9100  1.4328  0.2841
12724TIP3   OH238128   7.903   7.933   5.739  0.6512  0.0436  0.1574
12724TIP3    H138129   7.867   8.021   5.751  1.8753  0.8372 -1.6594
12724TIP3    H238130   7.899   7.918   5.645  1.9122 -1.1936  0.2763
12725TIP3   OH238131   0.295   0.594   4.486  0.4116  0.2326 -0.4845
12725TIP3    H138132   0.247   0.529   4.435  3.8904 -0.8571 -2.5474
12725TIP3    H238133   0.259   0.678   4.456 -1.7016 -0.5772 -0.3409
12726TIP3   OH238134   6.356   7.265   4.930 -0.0107 -0.3323  0.1024
12726TIP3    H138135   6.335   7.179   4.965  2.0226 -1.3788 -1.1552
12726TIP3    H238136   6.408   7.307   4.999  0.4590 -0.7743  0.0167
12727TIP3   OH238137   5.992   5.367   5.223 -0.2095 -0.1557 -0.5376
12727TIP3    H138138   5.970   5.396   5.311 -2.7895  0.0713 -1.2071
12727TIP3    H238139   6.001   5.272   5.230 -0.6992 -0.1690 -0.0685
12728TIP3   OH238140   7.973   5.909   2.932 -0.2860 -0.1713 -0.4564
12728TIP3    H138141   8.015   5.833   2.972  1.0893  0.4295 -0.7197
12728TIP3    H238142   7.924   5.949   3.004  0.3857 -0.3403  0.1043
12729TIP3   OH238143   6.735   5.968   3.373  0.0406 -0.2593  0.1983
12729TIP3    H138144   6.682   6.029   3.424  2.3882  1.8457  0.1597
12729TIP3    H238145   6.696   5.882   3.391 -2.0337  0.9955  1.8458
12730TIP3   OH238146   5.565   7.812   2.851 -0.8860  0.0471  0.2087
12730TIP3    H138147   5.600   7.728   2.822 -2.7340 -0.7258  0.1657
12730TIP3    H238148   5.573   7.869   2.774  0.7962  0.0621  0.3800
12731TIP3   OH238149   6.093   6.595   3.128  0.1033  0.2575  0.3043
12731TIP3    H138150   6.073   6.630   3.041 -2.3947 -1.0541  0.3123
12731TIP3    H238151   6.114   6.672   3.181  0.7815  1.1461 -1.2250
12732TIP3   OH238152   7.456   6.494   4.086  0.4954  0.4121  0.1119
12732TIP3    H138153   7.366   6.467   4.107  0.6426  0.9269  1.4011
12732TIP3    H238154   7.452   6.589   4.078  1.0673  0.5006  0.8630
12733TIP3   OH238155   6.515   5.489   3.247  0.1072 -0.3164 -0.3832
12733TIP3    H138156   6.496   5.571   3.291 -1.8112 -1.4743  1.0509
12733TIP3    H238157   6.603   5.466   3.275  0.4999  1.0349 -0.4849
12734TIP3   OH238158   6.624   7.981   5.377  0.3071 -0.3059 -0.1595
12734TIP3    H138159   6.690   7.933   5.426 -0.4820 -0.4508  0.7864
12734TIP3    H238160   6.626   8.069   5.414 -0.7375 -0.5867  0.5972
12735TIP3   OH238161   2.031   1.411   5.730  0.5795  0.0129 -0.2458
12735TIP3    H138162   1.959   1.349   5.738  0.7068 -0.5285 -2.9488
12735TIP3    H238163   2.078   1.404   5.813 -3.2196  1.4010  2.1455
12736TIP3   OH238164   6.589   5.633   5.250 -0.5442 -0.0713  0.2177
12736TIP3    H138165   6.639   5.562   5.291 -0.3541 -0.3873 -0.5357
12736TIP3    H238166   6.566   5.598   5.163 -0.3190  0.8454 -0.2209
12737TIP3   OH238167   6.816   6.073   5.646 -0.2369  0.0578  0.0111
12737TIP3    H138168   6.786   6.141   5.585  0.2739 -0.7462 -1.1689
12737TIP3    H238169   6.881   6.024   5.596 -2.5601 -3.0016 -0.1062
12738TIP3   OH238170   0.312   7.707   4.245  0.2140 -0.4715 -0.4446
12738TIP3    H138171   0.404   7.705   4.270  0.1343 -0.1194 -0.1256
12738TIP3    H238172   0.305   7.781   4.184  0.3800 -1.2336 -1.4127
12739TIP3   OH238173   6.511   7.339   5.165  0.3304  0.3574 -0.0029
12739TIP3    H138174   6.438   7.394   5.195  0.0615 -1.1896  2.3516
12739TIP3    H238175   6.543   7.297   5.245  1.0364 -2.2818 -1.6281
12740TIP3   OH238176   6.400   7.101   4.202 -0.4962 -0.7462  0.0210
12740TIP3    H138177   6.493   7.108   4.181 -0.4767 -1.9733 -0.3499
12740TIP3    H238178   6.357   7.162   4.142 -0.0381 -1.0804 -0.6531
12741TIP3   OH238179   6.036   7.470   6.412  0.1390  0.7835 -0.0251
12741TIP3    H138180   6.098   7.430   6.351  1.0221  2.1845 -0.0583
12741TIP3    H238181   5.950   7.450   6.375  0.6157  0.0888 -0.7722
12742TIP3   OH238182   7.248   7.629   3.515 -0.2376 -0.0615  0.0639
12742TIP3    H138183   7.283   7.682   3.443 -1.9539  0.3380 -0.4859
12742TIP3    H238184   7.281   7.541   3.497  0.5116  0.3061 -0.4152
12743TIP3   OH238185   6.297   4.929   0.422 -0.0843 -0.0113 -0.7516
12743TIP3    H138186   6.202   4.919   0.415  0.1102 -4.2420  0.9217
12743TIP3    H238187   6.332   4.885   0.344  0.5505  3.6471 -2.6575
12744TIP3   OH238188   0.693   1.454   4.543  0.2200  0.4653 -0.5397
12744TIP3    H138189   0.637   1.498   4.607 -0.4710  1.0892 -1.5579
12744TIP3    H238190   0.700   1.364   4.575 -1.7991  0.2469 -0.6813
12745TIP3   OH238191   7.192   7.810   4.372  0.0140  0.1258  0.1154
12745TIP3    H138192   7.201   7.867   4.449  0.7345 -1.3941  1.1946
12745TIP3    H238193   7.113   7.841   4.328 -0.4663  0.9697  1.5410
12746TIP3   OH238194   6.971   7.175   6.202  0.9648 -0.1668 -0.0969
12746TIP3    H138195   6.897   7.120   6.230  0.5550  0.2495 -0.3635
12746TIP3    H238196   7.045   7.143   6.254 -0.1878  1.8690  2.9039
12747TIP3   OH238197   8.020   0.063   5.043 -0.2114  0.7390  0.3231
12747TIP3    H138198   8.088   0.124   5.013 -0.6599  0.7361 -0.7145
12747TIP3    H238199   7.948   0.076   4.982 -0.4369 -0.5854  0.3061
12748TIP3   OH238200   7.335   6.327   3.720 -0.1031 -0.3928  0.2463
12748TIP3    H138201   7.371   6.263   3.660  0.1114 -0.3351  0.3112
12748TIP3    H238202   7.410   6.383   3.743  0.1917 -1.4143  1.8455
12749TIP3   OH238203   0.974   4.838   5.588  0.2509 -0.6312 -0.1610
12749TIP3    H138204   1.004   4.929   5.592 -1.3497 -0.1129  0.0820
12749TIP3    H238205   0.880   4.843   5.572 -0.2386 -2.2235  2.0079
12750TIP3   OH238206   8.001   7.419   5.223 -0.3949  0.1214 -0.1194
12750TIP3    H138207   8.063   7.434   5.153 -0.6021  1.7568  0.0156
12750TIP3    H238208   7.999   7.324   5.235 -0.3623 -0.1747 -2.3147
12751TIP3   OH238209   1.838   0.825   4.165  0.3455  0.3442 -0.3640
12751TIP3    H138210   1.899   0.764   4.124  1.6453  2.0567 -0.9993
12751TIP3    H238211   1.815   0.783   4.248  4.7223  1.0295  1.3301
12752TIP3   OH238212   3.738   1.246   5.429  0.0391  0.7017 -0.4576
12752TIP3    H138213   3.676   1.175   5.446  0.5561  0.3024 -0.2276
12752TIP3    H238214   3.691   1.306   5.372 -0.3985  0.1695 -0.6600
12753TIP3   OH238215   0.187   2.133   4.940 -0.5857 -0.0796 -0.0089
12753TIP3    H138216   0.265   2.167   4.983 -0.0012 -1.3431 -0.0499
12753TIP3    H238217   0.210   2.043   4.915 -1.9934 -0.4132 -0.1589
12754TIP3   OH238218   5.001   7.431   6.694 -0.2133  0.0328 -0.1742
12754TIP3    H138219   4.906   7.425   6.681 -0.4802  1.2340  1.0696
12754TIP3    H238220   5.021   7.523   6.678  0.9968 -0.5131 -1.9281
12755TIP3   OH238221   1.415   0.544   5.404 -0.0597 -0.2726 -0.1337
12755TIP3    H138222   1.413   0.448   5.403  0.2000 -0.3132  1.7385
12755TIP3    H238223   1.498   0.566   5.446 -0.2263  0.7821 -0.3472
12756TIP3   OH238224   0.690   6.380   2.340  0.1099  0.1086  0.4876
12756TIP3    H138225   0.698   6.288   2.316  0.6248  0.5703 -1.1284
12756TIP3    H238226   0.612   6.411   2.293  1.0638  0.9899 -0.5322
12757TIP3   OH238227   5.426   6.065   2.730 -0.5004 -0.2220  0.5570
12757TIP3    H138228   5.488   6.043   2.660  0.3950  0.5151  1.1017
12757TIP3    H238229   5.450   6.154   2.756 -1.7610  0.0410  0.8262
12758TIP3   OH238230   7.006   5.142   5.036 -0.6092  0.3917 -0.1085
12758TIP3    H138231   6.988   5.175   5.124 -0.3144 -0.5788  0.3242
12758TIP3    H238232   6.920   5.137   4.995 -0.8724 -0.2138  0.5097
12759TIP3   OH238233   7.163   5.055   3.775 -0.0332  1.1300 -0.4372
12759TIP3    H138234   7.126   5.141   3.752 -1.2597  0.8356  0.4029
12759TIP3    H238235   7.166   5.007   3.693  0.1952  1.8122 -0.8297
12760TIP3   OH238236   8.136   7.145   4.494 -0.2329  0.2014  0.1470
12760TIP3    H138237   8.200   7.078   4.517  0.9087  0.6539 -1.5794
12760TIP3    H238238   8.072   7.099   4.440  1.3672  0.7459 -2.3225
12761TIP3   OH238239   6.586   4.080   5.209  0.3998  0.3844 -0.1787
12761TIP3    H138240   6.541   4.162   5.189 -0.1085 -0.1244 -1.1476
12761TIP3    H238241   6.627   4.054   5.126  2.4196  0.7962  0.6606
12762TIP3   OH238242   4.708   1.020   4.811  0.1002  0.0859  0.5406
12762TIP3    H138243   4.696   0.940   4.862  0.1113 -0.4742 -0.3262
12762TIP3    H238244   4.620   1.046   4.786  0.1352  0.0311  0.3541
12763TIP3   OH238245   4.536   6.324   1.409 -0.4804  0.0240  0.0746
12763TIP3    H138246   4.574   6.248   1.366  0.1222  0.6836 -0.5522
12763TIP3    H238247   4.607   6.387   1.415 -1.0052  0.5847  0.5019
12764TIP3   OH238248   6.188   7.033   6.342  0.6234  0.5935 -0.0147
12764TIP3    H138249   6.102   7.001   6.315 -0.1337  1.1940  1.6429
12764TIP3    H238250   6.243   7.019   6.265 -0.4183 -1.8201 -0.3721
12765TIP3   OH238251   7.678   7.253   4.005 -0.1438 -0.3587  0.0094
12765TIP3    H138252   7.649   7.262   3.914 -0.5946  1.4803  0.3033
12765TIP3    H238253   7.669   7.341   4.041 -0.0728 -1.1015  1.8767
12766TIP3   OH238254   6.569   7.848   5.633 -0.0098 -0.0253  0.0799
12766TIP3    H138255   6.485   7.894   5.641 -0.1702 -0.3790  0.4697
12766TIP3    H238256   6.613   7.866   5.716 -0.2652 -0.9522  0.4161
12767TIP3   OH238257   6.607   5.870   3.147 -0.3820 -0.3624  0.3497
12767TIP3    H138258   6.639   5.780   3.155  0.0777 -0.0695  2.0913
12767TIP3    H238259   6.662   5.920   3.207 -0.6840  1.0781 -0.5485
12768TIP3   OH238260   8.016   6.854   6.666 -0.3098 -0.0166 -0.2066
12768TIP3    H138261   7.923   6.831   6.675  0.2207 -1.9099  0.7509
12768TIP3    H238262   8.058   6.810   6.740  1.2486  1.4691 -0.1885
12769TIP3   OH238263   7.442   6.909   5.818  0.0254 -0.1700 -0.0673
12769TIP3    H138264   7.430   6.815   5.805 -0.3360 -0.3266  1.3403
12769TIP3    H238265   7.537   6.920   5.822  0.2321  0.0297 -3.6331
12770TIP3   OH238266   8.234   7.558   5.433 -0.4461  0.1004  0.5409
12770TIP3    H138267   8.295   7.585   5.365 -0.8982 -1.0545 -0.3430
12770TIP3    H238268   8.147   7.576   5.396 -0.6835  0.0382  1.0608
12771TIP3   OH238269   8.081   7.547   5.705  0.5614  0.3230  0.4935
12771TIP3    H138270   8.175   7.529   5.715  0.6607  0.8853  0.5748
12771TIP3    H238271   8.074   7.641   5.717  0.2187  0.5413 -1.2979
12772TIP3   OH238272   2.723   1.685   2.781  0.2003 -0.5184  0.4007
12772TIP3    H138273   2.710   1.627   2.856  0.9389 -1.7884 -0.4342
12772TIP3    H238274   2.698   1.772   2.814 -1.3733 -1.3593  1.5312
12773TIP3   OH238275   6.800   6.815   6.820 -0.1453 -0.0983 -0.3388
12773TIP3    H138276   6.892   6.790   6.812  0.9211  2.8985  1.5254
12773TIP3    H238277   6.754   6.733   6.836  2.4618 -1.4632  0.4829
12774TIP3   OH238278   8.438   7.216   6.725  0.4563  0.3372 -0.9008
12774TIP3    H138279   8.398   7.129   6.725  1.0718  0.0534 -0.3328
12774TIP3    H238280   8.498   7.214   6.651 -2.3986  1.6255 -3.3771
12775TIP3   OH238281   5.319   2.362   0.186 -0.1206  0.3440 -0.0631
12775TIP3    H138282   5.247   2.371   0.124  0.3512  1.4072 -0.4610
12775TIP3    H238283   5.391   2.409   0.146  0.7229 -0.4705  0.4729
12776TIP3   OH238284   6.437   5.371   6.261 -0.3308 -0.5556  0.6853
12776TIP3    H138285   6.479   5.414   6.336 -2.1484 -1.4082  2.2479
12776TIP3    H238286   6.466   5.280   6.267  0.1870 -0.4441 -0.1466
12777TIP3   OH238287   7.401   6.210   5.615 -0.1130 -0.2780 -0.0947
12777TIP3    H138288   7.466   6.155   5.660  0.6499 -0.0441 -0.9004
12777TIP3    H238289   7.438   6.225   5.528 -0.7977  0.6651 -0.2302
12778TIP3   OH238290   6.477   4.597   4.288  0.4011  0.3806 -0.3815
12778TIP3    H138291   6.477   4.684   4.328  2.8475 -0.0821  0.7425
12778TIP3    H238292   6.446   4.539   4.357 -1.8704  0.4172 -1.3404
12779TIP3   OH238293   6.712   6.286   5.506  0.0810 -0.1502 -0.0614
12779TIP3    H138294   6.641   6.253   5.562 -0.8278  0.8447 -0.6299
12779TIP3    H238295   6.688   6.257   5.418  1.1578 -1.1068 -0.0536
12780TIP3   OH238296   7.623   7.559   4.894 -0.7274 -0.3071 -0.2561
12780TIP3    H138297   7.707   7.568   4.939 -1.6685 -0.1784  1.5573
12780TIP3    H238298   7.620   7.633   4.834 -0.7853  1.4208  1.8028
12781TIP3   OH238299   7.784   1.086   4.296 -0.7301  0.0601  0.3050
12781TIP3    H138300   7.868   1.040   4.298 -0.7036  0.0426 -0.8941
12781TIP3    H238301   7.806   1.178   4.309 -0.5007  0.0703 -0.1367
12782TIP3   OH238302   0.572   0.211   4.720  0.4301  0.0922  0.1753
12782TIP3    H138303   0.477   0.213   4.722  0.3581 -1.2049 -0.7761
12782TIP3    H238304   0.597   0.160   4.798  0.3110 -0.1325  0.0667
12783TIP3   OH238305   3.300   1.060   2.714 -0.1458  0.1523 -0.2476
12783TIP3    H138306   3.317   1.024   2.801  0.1856  0.0861 -0.3406
12783TIP3    H238307   3.222   1.113   2.725  0.2079  0.5760  0.2083
12784TIP3   OH238308   8.033   7.294   3.654  0.4382  0.3830  0.3633
12784TIP3    H138309   7.969   7.345   3.705  1.0340  0.3368  1.1679
12784TIP3    H238310   8.095   7.359   3.622  0.3345  0.3503  0.0917
12785TIP3   OH238311   5.732   4.010   0.522  0.0390  0.0546  0.0812
12785TIP3    H138312   5.701   4.067   0.592  1.1741  0.6930  0.0699
12785TIP3    H238313   5.768   4.070   0.456 -1.5870 -0.4944 -1.3380
12786TIP3   OH238314   7.857   7.309   4.694 -0.0315 -0.1885  0.1618
12786TIP3    H138315   7.815   7.389   4.660  1.3798  0.0023 -1.2036
12786TIP3    H238316   7.811   7.238   4.649  1.1920  0.0270 -1.4848
12787TIP3   OH238317   6.582   7.056   6.881  0.1576  0.6756  0.1679
12787TIP3    H138318   6.608   7.142   6.913 -1.3193  1.2526 -0.1273
12787TIP3    H238319   6.532   7.074   6.802 -2.7558 -0.2020  1.7261
12788TIP3   OH238320   8.119   7.015   3.548 -0.0138  0.3893  0.5731
12788TIP3    H138321   8.066   7.009   3.469 -0.2228 -0.1036  0.7492
12788TIP3    H238322   8.097   7.100   3.586  1.7380  1.6121 -1.0690
12789TIP3   OH238323   7.577   7.436   3.704 -0.1674 -0.6503  0.0205
12789TIP3    H138324   7.505   7.416   3.645 -0.4353 -0.0358  0.1312
12789TIP3    H238325   7.536   7.446   3.790  0.2127 -1.4737  0.2988
12790TIP3   OH238326   6.181   7.176   6.761 -0.3611 -0.5578 -0.2294
12790TIP3    H138327   6.215   7.192   6.673  1.2361 -0.2406  0.4151
12790TIP3    H238328   6.211   7.088   6.783 -4.6713 -2.5037 -1.7402
12791TIP3   OH238329   6.412   7.896   3.240  0.0954  0.2247 -0.9366
12791TIP3    H138330   6.352   7.918   3.311  0.0475  0.2404 -0.9816
12791TIP3    H238331   6.399   7.802   3.226 -0.4386  0.3710 -1.4300
12792TIP3   OH238332   2.807   0.170   5.898  0.1759  0.0433 -0.2896
12792TIP3    H138333   2.764   0.087   5.877  1.7871 -0.9395  0.1908
12792TIP3    H238334   2.892   0.144   5.932  0.8922  1.9313 -0.6114
12793TIP3   OH238335   2.921   1.544   5.910 -0.0746 -0.0434  0.0032
12793TIP3    H138336   2.948   1.456   5.882 -0.9542 -1.8185  4.3160
12793TIP3    H238337   2.974   1.560   5.989 -1.2262  2.5630  0.2634
12794TIP3   OH238338   3.947   0.835   6.206  0.1113  0.0808 -0.4460
12794TIP3    H138339   3.863   0.877   6.191  0.2571  0.5669  0.0783
12794TIP3    H238340   3.999   0.856   6.129  1.0641  3.0650  0.9036
12795TIP3   OH238341   7.591   7.477   6.023 -0.5645  0.2372 -0.0246
12795TIP3    H138342   7.510   7.455   5.977  0.4310  0.2137 -1.8133
12795TIP3    H238343   7.595   7.414   6.095 -2.3629  0.5420  0.3889
12796TIP3   OH238344   1.707   6.259   6.895  0.1997 -0.2396  0.0577
12796TIP3    H138345   1.669   6.346   6.892 -1.2054 -0.8248  0.7246
12796TIP3    H238346   1.728   6.238   6.804 -0.1350  0.4869 -0.1837
12797TIP3   OH238347   0.762   6.175   3.816 -0.1463 -0.1738 -0.7535
12797TIP3    H138348   0.731   6.148   3.730 -1.1510  0.2534 -0.5360
12797TIP3    H238349   0.683   6.204   3.862  0.0881 -2.0287  0.9183
12798TIP3   OH238350   0.725   7.311   5.293  0.4994  0.1604  0.1011
12798TIP3    H138351   0.804   7.351   5.331  0.5066 -0.0902  0.3527
12798TIP3    H238352   0.722   7.345   5.204  0.6979  0.4511  0.2028
12799TIP3   OH238353   5.904   6.786   4.933  0.1471  0.1366  0.7367
12799TIP3    H138354   5.919   6.736   5.014  1.3805 -0.6766  0.0243
12799TIP3    H238355   5.986   6.834   4.920 -0.2207  0.6267  0.2206
12800TIP3   OH238356   5.541   5.410   2.609  0.4016 -0.0856  0.3085
12800TIP3    H138357   5.527   5.315   2.612  0.6380 -0.1061  0.9017
12800TIP3    H238358   5.636   5.420   2.615  0.5046  0.1409 -1.3730
12801TIP3   OH238359   0.218   4.540   4.942 -0.1231 -0.1684  0.3022
12801TIP3    H138360   0.178   4.464   4.900 -1.0404  0.3991  0.1306
12801TIP3    H238361   0.199   4.529   5.035 -0.6211  0.0528  0.2314
12802TIP3   OH238362   0.430   6.455   4.709  0.4591  0.2005 -0.7463
12802TIP3    H138363   0.417   6.458   4.804  1.4929  3.9080 -0.6505
12802TIP3    H238364   0.523   6.474   4.697  0.1393  0.7374 -2.5311
12803TIP3   OH238365   7.295   5.116   4.987  0.3796  0.1578 -0.2126
12803TIP3    H138366   7.225   5.066   5.028  0.9512  0.8221  1.6189
12803TIP3    H238367   7.361   5.126   5.056 -0.3003  4.5968 -0.0832
12804TIP3   OH238368   6.663   7.976   4.429 -0.0239  0.3175 -0.0903
12804TIP3    H138369   6.650   7.883   4.409  1.9043  0.3827 -1.8135
12804TIP3    H238370   6.594   8.021   4.381 -1.7223 -0.2884  1.7280
12805TIP3   OH238371   6.984   6.494   2.629  0.1937  0.5152 -0.1146
12805TIP3    H138372   6.960   6.541   2.709 -0.2991  1.0591 -0.5778
12805TIP3    H238373   7.038   6.421   2.660 -0.5361  0.3406  0.7662
12806TIP3   OH238374   6.651   5.927   5.815 -0.3022 -0.2122  0.4289
12806TIP3    H138375   6.643   5.846   5.764  0.6509 -0.4803  0.6826
12806TIP3    H238376   6.706   5.984   5.761  0.4567 -0.3835  1.0101
12807TIP3   OH238377   1.114   7.645   2.715 -0.0705 -0.3407 -0.0801
12807TIP3    H138378   1.067   7.564   2.735 -0.9673  0.2972  0.4236
12807TIP3    H238379   1.064   7.685   2.644 -0.6280  0.6186  0.8377
12808TIP3   OH238380   8.094   5.706   4.487 -0.4101 -0.0393 -0.1359
12808TIP3    H138381   8.142   5.707   4.404  0.6219 -0.8290  0.4474
12808TIP3    H238382   8.014   5.657   4.468 -0.2517 -0.0793 -0.7084
12809TIP3   OH238383   8.252   6.162   4.920  0.4329  0.4455  0.3491
12809TIP3    H138384   8.210   6.120   4.995  1.1731  0.7783  0.9585
12809TIP3    H238385   8.299   6.090   4.876 -1.4986 -0.1095 -0.8685
12810TIP3   OH238386   4.987   6.791   5.099  0.1313  0.4370  0.1133
12810TIP3    H138387   5.032   6.874   5.116 -1.4525  1.4030 -0.2414
12810TIP3    H238388   5.054   6.724   5.110  0.8569  1.5735  2.9823
12811TIP3   OH238389   7.408   7.943   6.621 -0.5735  0.4728  0.0648
12811TIP3    H138390   7.315   7.945   6.645 -0.9204  0.4360 -1.2450
12811TIP3    H238391   7.418   7.863   6.568  0.2705  0.3047  0.4671
12812TIP3   OH238392   4.321   1.115   6.775  0.3518  0.0572 -0.3461
12812TIP3    H138393   4.272   1.163   6.842  1.7885  0.3637  0.5031
12812TIP3    H238394   4.332   1.027   6.812 -0.9659 -0.5105 -1.2505
12813TIP3   OH238395   3.438   6.808   4.215  0.0283  0.3226 -0.0923
12813TIP3    H138396   3.421   6.902   4.226 -0.1333  0.3700 -0.7268
12813TIP3    H238397   3.489   6.803   4.134 -1.5626 -0.2987 -1.0749
12814TIP3   OH238398   1.997   6.866   6.054  0.0501  0.3448 -0.5546
12814TIP3    H138399   2.006   6.961   6.044  0.9738  0.1222 -2.0675
12814TIP3    H238400   1.985   6.834   5.964  0.1840 -1.0187 -0.0932
12815TIP3   OH238401   7.049   3.801   1.595  0.2091 -0.9273 -0.5285
12815TIP3    H138402   7.039   3.714   1.555  3.8569 -1.2110 -1.0251
12815TIP3    H238403   7.135   3.798   1.637 -0.2915  1.9436  0.7898
12816TIP3   OH238404   0.144   7.334   6.840 -0.3054  0.1169  0.1426
12816TIP3    H138405   0.057   7.314   6.806 -0.1400  1.2670 -0.9825
12816TIP3    H238406   0.133   7.331   6.935 -1.7109  0.7812  0.0182
12817TIP3   OH238407   3.892   6.319   5.263  0.7730 -0.2686  0.5885
12817TIP3    H138408   3.976   6.288   5.230  0.5617 -0.6177  0.3838
12817TIP3    H238409   3.854   6.243   5.307  1.2058  0.2740  1.9355
12818TIP3   OH238410   0.085   3.337   0.640 -0.1991  0.1357  0.4349
12818TIP3    H138411   0.160   3.391   0.662 -0.1594  0.8239 -1.2973
12818TIP3    H238412   0.014   3.369   0.697  0.4796  0.3282  1.1733
12819TIP3   OH238413   0.335   7.567   5.734  0.3536 -0.8718 -0.0695
12819TIP3    H138414   0.333   7.476   5.703  0.1810 -0.4064 -1.4877
12819TIP3    H238415   0.274   7.612   5.676  0.7988  0.2423  0.3285
12820TIP3   OH238416   3.590   1.437   5.309  0.5898  0.4981 -0.0080
12820TIP3    H138417   3.676   1.473   5.288  0.0825  1.6893 -0.0867
12820TIP3    H238418   3.533   1.467   5.238 -0.2456  1.1330  0.9140
12821TIP3   OH238419   2.818   0.252   5.435  0.3324  0.2109  0.0777
12821TIP3    H138420   2.745   0.201   5.471 -0.3285  0.4011 -0.9741
12821TIP3    H238421   2.783   0.291   5.356  1.5320  0.4553 -0.3444
12822TIP3   OH238422   3.043   1.409   6.399 -0.0365  0.2185  0.7970
12822TIP3    H138423   3.064   1.459   6.320  1.2631 -2.1631 -0.3911
12822TIP3    H238424   3.125   1.404   6.447 -0.1426 -0.8693  0.8650
12823TIP3   OH238425   4.701   4.861   0.832 -0.3525  0.7391  0.1085
12823TIP3    H138426   4.672   4.783   0.786  0.1137  1.0383 -0.6936
12823TIP3    H238427   4.624   4.919   0.833 -0.0821  1.1350 -1.1635
12824TIP3   OH238428   1.287   6.615   6.125 -0.1014 -0.0574  0.2459
12824TIP3    H138429   1.203   6.646   6.159 -1.0166 -0.6522 -1.4124
12824TIP3    H238430   1.333   6.695   6.099 -0.5411  0.2064  0.2728
12825TIP3   OH238431   8.147   2.609   0.320 -0.1617 -0.2062  0.3061
12825TIP3    H138432   8.224   2.613   0.263 -0.9585  1.0654 -0.7286
12825TIP3    H238433   8.125   2.516   0.325  0.7103 -0.4588 -0.3789
12826TIP3   OH238434   7.921   2.488   0.019  0.1695  0.1349 -0.1438
12826TIP3    H138435   7.870   2.505   0.098  1.7586 -2.2078  1.4551
12826TIP3    H238436   7.873   2.419  -0.026  0.7883 -0.5809  0.2813
12827TIP3   OH238437   3.925   0.432   3.129  0.2595  0.3243 -0.2950
12827TIP3    H138438   3.834   0.457   3.144  1.1896  2.2313  2.4665
12827TIP3    H238439   3.929   0.411   3.035 -3.0199  0.0792 -0.4294
12828TIP3   OH238440   0.296   3.457   0.384 -0.1562 -0.0498  0.4171
12828TIP3    H138441   0.201   3.468   0.392  0.2093  2.4770  1.6552
12828TIP3    H238442   0.317   3.498   0.300  0.0128  0.7322  0.8331
12829TIP3   OH238443   4.908   0.564   6.807  0.0279 -0.1338 -0.5157
12829TIP3    H138444   4.949   0.625   6.868 -2.3006 -0.9738  1.9960
12829TIP3    H238445   4.945   0.479   6.830 -1.3164 -0.5479  0.2047
12830TIP3   OH238446   6.567   4.253   0.404  0.0340  0.2883  0.2604
12830TIP3    H138447   6.530   4.331   0.446 -0.7853  0.5950 -0.9766
12830TIP3    H238448   6.617   4.287   0.330 -1.1604 -0.3952 -0.8945
12831TIP3   OH238449   2.383   6.598   6.436 -0.2056 -0.7322  0.2057
12831TIP3    H138450   2.297   6.556   6.442  0.1951 -1.7746 -0.9819
12831TIP3    H238451   2.421   6.562   6.356  0.7620  0.7980 -0.0398
12832TIP3   OH238452   0.045   7.915   5.763 -0.0398 -0.1543  0.0506
12832TIP3    H138453   0.106   7.854   5.722  1.7675  1.5824  0.0727
12832TIP3    H238454  -0.032   7.915   5.705  0.5029 -1.3670 -0.6913
12833TIP3   OH238455   7.823   0.929   0.149  0.2869  0.1302  0.4648
12833TIP3    H138456   7.893   0.974   0.101 -0.8636  0.0606 -1.3213
12833TIP3    H238457   7.861   0.912   0.236  1.9818  1.3387 -0.0094
12834TIP3   OH238458   7.893   4.517   6.313 -0.4963 -0.4017 -0.0730
12834TIP3    H138459   7.820   4.476   6.359 -1.3104 -0.6920 -1.5874
12834TIP3    H238460   7.852   4.587   6.262  0.2681 -0.6288 -0.9999
12835TIP3   OH238461   0.686   1.056   0.019  0.6441 -0.2722 -0.0034
12835TIP3    H138462   0.756   0.998   0.050  1.0515  0.0360 -0.3418
12835TIP3    H238463   0.683   1.126   0.084  0.1005 -0.7052  0.4467
12836TIP3   OH238464   3.645   0.448   6.562  0.8938  0.5314 -0.5497
12836TIP3    H138465   3.588   0.475   6.490 -0.1393 -1.0772 -0.3535
12836TIP3    H238466   3.680   0.363   6.534  1.8721  0.7243  0.0725
12837TIP3   OH238467   2.927   4.944   6.766  0.0907  0.1854 -0.5502
12837TIP3    H138468   2.916   4.859   6.722 -1.3968 -0.0208  0.1639
12837TIP3    H238469   2.909   4.925   6.859 -1.9479  1.5770 -0.6196
12838TIP3   OH238470   8.309   4.331   0.161  0.1869  0.6138 -0.0978
12838TIP3    H138471   8.289   4.241   0.135  0.0868  0.5884  0.0645
12838TIP3    H238472   8.287   4.383   0.084 -2.9648  0.8777  0.9071
12839TIP3   OH238473   5.002   0.044   5.877 -0.4759 -0.6816 -0.0415
12839TIP3    H138474   5.015  -0.018   5.805 -0.9043 -2.4752  1.3843
12839TIP3    H238475   5.067   0.019   5.943 -0.3218  0.7199  0.3607
12840TIP3   OH238476   0.776   2.175   0.098  0.7091 -0.8229 -0.6431
12840TIP3    H138477   0.863   2.179   0.058  0.1109 -0.4419 -1.9685
12840TIP3    H238478   0.752   2.082   0.094  0.4752 -0.7344 -1.6224
12841TIP3   OH238479   6.548   6.225   0.277 -0.0375 -0.0345  0.5380
12841TIP3    H138480   6.479   6.191   0.221 -1.2145  0.0954  1.9076
12841TIP3    H238481   6.629   6.200   0.232 -0.9058 -2.3622  0.2051
12842TIP3   OH238482   4.474   1.159   4.773 -0.2313 -0.4729 -0.4699
12842TIP3    H138483   4.489   1.215   4.849 -1.5540 -0.5127 -0.1596
12842TIP3    H238484   4.425   1.084   4.808  0.7436 -1.3948 -1.0394
12843TIP3   OH238485   4.739   3.517   1.270 -0.2991  0.2410  0.4854
12843TIP3    H138486   4.739   3.425   1.245 -1.8531  0.7138 -1.4089
12843TIP3    H238487   4.754   3.564   1.187 -0.2953  1.7176  1.2993
12844TIP3   OH238488   7.682   3.042   0.479 -0.6513  0.2605  0.2740
12844TIP3    H138489   7.675   2.951   0.451  0.0343  0.8833 -2.0978
12844TIP3    H238490   7.620   3.089   0.423 -0.5074  1.3368  0.9966
12845TIP3   OH238491   4.066   0.668   6.761  0.1302 -0.4609 -0.3217
12845TIP3    H138492   3.998   0.613   6.723  1.5014 -0.7528 -2.4356
12845TIP3    H238493   4.025   0.754   6.770 -1.3473 -1.2629  1.0196
12846TIP3   OH238494   1.313   7.892   4.831 -0.0185 -0.3455 -0.7352
12846TIP3    H138495   1.299   7.875   4.924 -1.6675 -1.4762 -1.1667
12846TIP3    H238496   1.392   7.843   4.810 -1.4848 -2.8274 -0.6419
12847TIP3   OH238497   0.897   7.798   5.910 -0.1651 -0.1017 -0.2356
12847TIP3    H138498   0.894   7.792   5.814 -0.8280 -1.9772 -0.1203
12847TIP3    H238499   0.946   7.878   5.927 -1.7823  1.3538 -2.1478
12848TIP3   OH238500   6.611   2.829   0.704 -0.2854 -0.2880 -0.1683
12848TIP3    H138501   6.627   2.922   0.722 -1.9987  0.1245 -0.6820
12848TIP3    H238502   6.592   2.791   0.789  0.9044 -0.2733  0.1101
12849TIP3   OH238503   4.534   0.548   5.567  0.1465 -0.1196 -0.1045
12849TIP3    H138504   4.610   0.606   5.557  0.4073 -0.2450  1.0879
12849TIP3    H238505   4.557   0.470   5.518  0.9620 -0.3124  0.5748
12850TIP3   OH238506   1.591   8.014   5.312  0.0491  0.7944  0.1188
12850TIP3    H138507   1.568   7.935   5.361  1.6273 -0.3502 -0.9287
12850TIP3    H238508   1.510   8.066   5.310 -0.4236  0.2399  2.7084
12851TIP3   OH238509   4.243   1.157   5.974 -0.5033 -0.7138 -0.1039
12851TIP3    H138510   4.148   1.170   5.974 -0.3099  0.7998  0.4792
12851TIP3    H238511   4.257   1.080   5.919 -1.8488  0.5942 -2.3245
12852TIP3   OH238512   5.092   0.631   4.763  0.0879 -0.0119  0.1131
12852TIP3    H138513   5.133   0.605   4.846 -0.3148 -0.2148  0.2455
12852TIP3    H238514   5.082   0.726   4.770  0.2419 -0.0019  0.2097
12853TIP3   OH238515   0.956   3.732   1.745  0.0538 -0.2255 -0.5425
12853TIP3    H138516   0.912   3.672   1.805  2.1503 -0.8162  0.4606
12853TIP3    H238517   0.989   3.675   1.675 -0.1833  0.1156 -0.9326
12854TIP3   OH238518   2.799   7.430   6.649 -0.5813  0.2146 -0.3503
12854TIP3    H138519   2.861   7.371   6.606 -2.1388 -1.1526 -0.7760
12854TIP3    H238520   2.846   7.465   6.724  1.0260 -0.0405 -1.2238
12855TIP3   OH238521   4.522   0.417   6.632  0.2272 -0.1353 -0.0281
12855TIP3    H138522   4.532   0.474   6.556  0.6465  2.9190  2.1861
12855TIP3    H238523   4.428   0.420   6.652  0.2999  0.0387  0.2885
12856TIP3   OH238524   2.319   7.640   4.829 -0.1748 -0.1060  0.2814
12856TIP3    H138525   2.406   7.663   4.861  1.1745 -1.4741 -2.2395
12856TIP3    H238526   2.275   7.724   4.815  1.7206  0.7188 -0.9551
12857TIP3   OH238527   0.987   4.748   1.974 -0.4243  0.6071 -0.1369
12857TIP3    H138528   1.082   4.750   1.957 -0.1844 -1.8659  0.6785
12857TIP3    H238529   0.951   4.815   1.916  1.9848  2.6967  0.6602
12858TIP3   OH238530   5.671   1.597   4.371  0.1379  0.1255  0.0261
12858TIP3    H138531   5.693   1.507   4.397  0.0106 -0.3693 -1.5281
12858TIP3    H238532   5.585   1.613   4.411  0.1953 -0.4107  0.3741
12859TIP3   OH238533   5.641   1.734   6.387  0.2270 -0.1096  0.3967
12859TIP3    H138534   5.677   1.669   6.447  0.3078 -0.2707  0.1745
12859TIP3    H238535   5.718   1.769   6.341  0.2443  0.5390  0.9084
12860TIP3   OH238536   4.742   0.431   5.284  0.2410 -0.5442 -0.1873
12860TIP3    H138537   4.738   0.520   5.250 -0.3085  0.2558  1.9061
12860TIP3    H238538   4.825   0.396   5.253 -0.5608 -0.0992 -2.9257
12861TIP3   OH238539   6.099   0.408   5.161 -0.7468 -0.4032 -0.4815
12861TIP3    H138540   6.046   0.476   5.204 -1.7568 -1.8888  0.7047
12861TIP3    H238541   6.184   0.448   5.147 -1.3939  1.1686  0.0157
12862TIP3   OH238542   2.849   7.460   5.829 -0.5207  0.1842 -0.0780
12862TIP3    H138543   2.780   7.523   5.849 -1.1757 -0.9251  1.2626
12862TIP3    H238544   2.802   7.377   5.818  0.3214 -0.0483 -1.9056
12863TIP3   OH238545   4.525   0.774   4.144  0.2160  0.3602 -0.1085
12863TIP3    H138546   4.441   0.817   4.162 -0.1071 -0.5817  0.7355
12863TIP3    H238547   4.590   0.830   4.186 -0.1601  0.2479  0.6353
12864TIP3   OH238548   8.141   6.509   4.196 -0.6086  0.1158  0.2291
12864TIP3    H138549   8.103   6.593   4.174  0.6842  0.3156 -1.3773
12864TIP3    H238550   8.154   6.465   4.112 -0.8618 -1.5146  1.0061
12865TIP3   OH238551   5.729   2.810   3.882  0.8264  0.3460 -0.0209
12865TIP3    H138552   5.706   2.860   3.803 -0.5243  0.4569  0.4231
12865TIP3    H238553   5.694   2.862   3.954 -1.1361 -1.4746  0.4195
12866TIP3   OH238554   5.726   0.278   5.797 -0.1729  0.1679 -0.0598
12866TIP3    H138555   5.685   0.308   5.878 -0.4896  2.1601 -0.9286
12866TIP3    H238556   5.653   0.270   5.735  0.2777  0.3265 -0.6140
12867TIP3   OH238557   0.104   4.596   0.359 -0.5155  0.3700  0.2056
12867TIP3    H138558   0.186   4.550   0.377 -1.1996 -1.5291 -1.4637
12867TIP3    H238559   0.036   4.531   0.375 -1.5375  1.0357 -1.3786
12868TIP3   OH238560   6.929   3.793   0.861 -0.3801 -0.2884  0.0251
12868TIP3    H138561   6.977   3.734   0.919  1.8212  0.9568 -0.4742
12868TIP3    H238562   6.964   3.773   0.774  0.1721  1.5058 -0.1831
12869TIP3   OH238563   5.923   1.183   4.392 -0.0377 -0.4495 -0.1796
12869TIP3    H138564   5.913   1.090   4.408 -1.5148 -0.3787 -0.6354
12869TIP3    H238565   6.015   1.201   4.410 -0.0938 -1.6954  1.3745
12870TIP3   OH238566   2.475   6.461   6.752  0.1316 -0.4324  0.3924
12870TIP3    H138567   2.545   6.516   6.716 -0.1889 -0.2329  0.0666
12870TIP3    H238568   2.475   6.383   6.695  0.1204 -0.4549  0.4233
12871TIP3   OH238569   1.555   7.695   5.090 -0.1553  0.2871 -0.1121
12871TIP3    H138570   1.588   7.632   5.153 -1.2750  0.3767  0.5881
12871TIP3    H238571   1.622   7.700   5.022  1.1274  0.2754  1.1322
12872TIP3   OH238572   5.101   6.528   3.695  0.5396 -0.0663 -0.1452
12872TIP3    H138573   5.179   6.508   3.747 -0.5307  0.3400  1.6373
12872TIP3    H238574   5.028   6.522   3.756 -0.7072  0.9006 -1.4835
12873TIP3   OH238575   4.323   0.338   5.590  0.0479  0.2264 -0.8521
12873TIP3    H138576   4.416   0.317   5.583  0.0513 -0.7200  1.6523
12873TIP3    H238577   4.313   0.420   5.541  2.4986  1.2179  0.2496
12874TIP3   OH238578   2.543   5.124   1.031 -0.4406  0.1758  0.0577
12874TIP3    H138579   2.547   5.171   1.114  1.5981  0.8479 -0.3843
12874TIP3    H238580   2.596   5.046   1.046  2.2182  1.6385 -1.3976
12875TIP3   OH238581   3.345   6.379   5.187 -0.4472 -0.2206  1.0001
12875TIP3    H138582   3.338   6.423   5.271 -0.9766  0.8535  0.4034
12875TIP3    H238583   3.427   6.329   5.192 -0.2932  0.1413  2.0022
12876TIP3   OH238584   0.214   1.635   0.440  0.2757 -0.4725 -0.4049
12876TIP3    H138585   0.152   1.688   0.389 -0.3339  0.9177  1.7192
12876TIP3    H238586   0.166   1.610   0.518  1.9338 -0.6090  0.5963
12877TIP3   OH238587   7.179   0.228   6.895 -0.6705  0.5055  0.5410
12877TIP3    H138588   7.165   0.162   6.827 -2.1189  0.5699  0.7736
12877TIP3    H238589   7.208   0.177   6.971  2.5250  0.5677 -0.5201
12878TIP3   OH238590   1.107   5.920   5.231 -0.3269 -1.1149 -0.1165
12878TIP3    H138591   1.193   5.923   5.273 -0.0601  1.3085 -0.7295
12878TIP3    H238592   1.113   5.851   5.165  1.3367 -0.5936 -0.5148
12879TIP3   OH238593   0.274   3.884   0.146 -0.3103  0.0142 -0.5325
12879TIP3    H138594   0.312   3.970   0.160  1.4817 -1.0452  1.3974
12879TIP3    H238595   0.252   3.882   0.053  0.3837  2.2384 -0.7608
12880TIP3   OH238596   4.095   7.848   6.426  0.4325 -0.9114  0.2207
12880TIP3    H138597   4.110   7.905   6.351 -0.7166 -0.1553  0.5507
12880TIP3    H238598   4.097   7.907   6.502 -1.9668 -1.0624  0.4633
12881TIP3   OH238599   4.882   1.468   5.796  0.0052 -0.2776  0.7259
12881TIP3    H138600   4.871   1.386   5.844 -0.2872  0.6171  2.2085
12881TIP3    H238601   4.793   1.499   5.781  0.1601  0.7930  1.9618
12882TIP3   OH238602   6.728   0.194   3.470 -0.1633  0.1265  0.0341
12882TIP3    H138603   6.820   0.171   3.478 -0.0612  0.3804 -0.3600
12882TIP3    H238604   6.716   0.212   3.376 -1.1935 -2.3185 -0.3459
12883TIP3   OH238605   0.508   5.795   0.930  0.0424 -0.0249  0.0918
12883TIP3    H138606   0.587   5.748   0.956  0.7639  0.5811 -0.9273
12883TIP3    H238607   0.532   5.888   0.937 -0.7159  0.1697  0.1877
12884TIP3   OH238608   3.396   6.562   5.917  0.3699 -0.2408  0.5715
12884TIP3    H138609   3.382   6.512   5.998  0.8587 -1.3227 -0.0034
12884TIP3    H238610   3.490   6.576   5.913  0.3330 -0.0865  0.2352
12885TIP3   OH238611   6.474   1.119   2.355  0.2166 -0.1126 -0.5063
12885TIP3    H138612   6.523   1.076   2.425 -0.5946 -0.9589 -0.4447
12885TIP3    H238613   6.476   1.056   2.283 -0.5489 -0.0295 -0.5960
12886TIP3   OH238614   0.919   7.023   4.341 -0.0176 -0.0061  1.0064
12886TIP3    H138615   0.870   7.099   4.372 -1.2893 -0.8406  1.0835
12886TIP3    H238616   1.008   7.037   4.373 -0.1804  1.5576  0.8138
12887TIP3   OH238617   3.137   0.547   5.746  0.1836 -0.0697 -0.3890
12887TIP3    H138618   3.078   0.474   5.727 -1.0950  0.7585  0.2879
12887TIP3    H238619   3.169   0.530   5.835  1.3727 -0.7698 -0.9338
12888TIP3   OH238620   0.514   4.167   6.917 -0.6393 -0.0314 -0.0909
12888TIP3    H138621   0.525   4.197   6.827  0.4100  1.2204  0.4319
12888TIP3    H238622   0.584   4.211   6.966 -1.7012 -0.0341  1.4808
12889TIP3   OH238623   3.309   6.550   5.396 -0.0060  0.0826  0.0247
12889TIP3    H138624   3.296   6.545   5.491  0.4998  0.2034  0.1057
12889TIP3    H238625   3.307   6.644   5.377 -0.3170  0.0485 -0.1166
12890TIP3   OH238626   7.000   2.916   5.224 -0.0129  0.0280 -0.0867
12890TIP3    H138627   7.038   2.894   5.309 -0.1664 -1.2976 -0.3436
12890TIP3    H238628   7.035   3.002   5.203  0.3550  0.1836  1.1282
12891TIP3   OH238629   2.216   7.955   6.608 -0.3352  0.1948 -0.0847
12891TIP3    H138630   2.258   7.934   6.525 -1.3356 -0.4112 -0.4396
12891TIP3    H238631   2.220   7.874   6.659  0.6967  0.6893  0.6611
12892TIP3   OH238632   3.529   5.935   5.768  0.3430  0.8557 -0.1455
12892TIP3    H138633   3.498   5.993   5.837 -1.8864 -0.2004 -0.2105
12892TIP3    H238634   3.502   5.978   5.687 -1.3639 -0.2591 -0.1927
12893TIP3   OH238635   6.703   0.898   6.626  0.1843 -0.2298 -0.1807
12893TIP3    H138636   6.657   0.815   6.614  0.9485 -0.9798  1.8383
12893TIP3    H238637   6.795   0.876   6.619  0.4507  0.1895  1.6111
12894TIP3   OH238638   0.399   2.785   0.860  0.6979  0.3174  0.0567
12894TIP3    H138639   0.355   2.829   0.932 -0.7270 -0.9016 -0.0451
12894TIP3    H238640   0.491   2.778   0.888  1.1801  4.0927 -0.3039
12895TIP3   OH238641   0.211   7.510   3.790  0.4699 -0.2381 -0.3840
12895TIP3    H138642   0.228   7.525   3.883 -0.2787 -1.6231 -0.0050
12895TIP3    H238643   0.131   7.559   3.773 -0.4514 -1.5134  0.1815
12896TIP3   OH238644   1.014   6.917   5.827 -0.0971  0.3227 -0.0076
12896TIP3    H138645   0.942   6.911   5.765 -1.3303  1.6168  1.2712
12896TIP3    H238646   0.979   6.967   5.900  2.1745  1.1689  0.5399
12897TIP3   OH238647   1.851   7.072   3.707  0.3953  0.0798 -0.1432
12897TIP3    H138648   1.938   7.109   3.694 -0.2382  1.6267 -0.0946
12897TIP3    H238649   1.820   7.054   3.618  1.2061 -1.5562 -0.1102
12898TIP3   OH238650   0.866   6.541   5.987  0.5422  0.1835  0.0467
12898TIP3    H138651   0.879   6.504   5.899 -1.3638  0.1372 -0.2293
12898TIP3    H238652   0.952   6.534   6.028  1.7731  1.2635 -2.2105
12899TIP3   OH238653   7.057   0.934   4.375  0.5774 -0.2979 -0.0646
12899TIP3    H138654   7.009   1.014   4.354  0.1395 -0.3714  0.6200
12899TIP3    H238655   7.134   0.964   4.422  0.0538 -0.3112  0.8223
12900TIP3   OH238656   1.468   6.422   6.256 -0.3343 -0.3248 -0.7586
12900TIP3    H138657   1.437   6.509   6.233  0.9733  0.0240 -1.2269
12900TIP3    H238658   1.409   6.393   6.326 -0.5306  1.0785 -0.3355
12901TIP3   OH238659   3.361   1.462   5.491  0.0263 -0.3971 -0.4048
12901TIP3    H138660   3.417   1.458   5.414  0.1021 -1.2023 -0.3053
12901TIP3    H238661   3.416   1.502   5.559  0.8013 -2.0768 -0.0282
12902TIP3   OH238662   2.333   7.559   4.134 -0.1235  0.6185  0.6350
12902TIP3    H138663   2.243   7.527   4.122 -0.6617  2.2026  0.2080
12902TIP3    H238664   2.354   7.539   4.225 -0.4129 -0.9765  0.3537
12903TIP3   OH238665   6.232   5.087   0.658  0.7612  0.0654 -0.0115
12903TIP3    H138666   6.298   5.152   0.681  0.1651  1.5167 -2.3041
12903TIP3    H238667   6.280   5.022   0.607  0.5463  0.8596 -1.2456
12904TIP3   OH238668   3.849   5.607   4.034  0.2650 -0.1981 -0.0748
12904TIP3    H138669   3.865   5.513   4.022 -0.1978 -0.1117 -1.4945
12904TIP3    H238670   3.769   5.612   4.086 -0.4930 -0.5994 -1.1815
12905TIP3   OH238671   8.013   5.728   0.645  0.1386 -0.6224 -0.5160
12905TIP3    H138672   8.023   5.635   0.665  0.6221 -0.1348  1.6785
12905TIP3    H238673   8.025   5.772   0.730 -1.8884  1.3196 -1.1994
12906TIP3   OH238674   0.464   2.793   0.308 -0.0428  0.6054 -0.1180
12906TIP3    H138675   0.452   2.787   0.403 -0.9023  2.3579 -0.0966
12906TIP3    H238676   0.383   2.757   0.272 -0.2467  1.0985 -0.1581
12907TIP3   OH238677   8.242   5.383   0.678  0.0048 -0.0978  0.4125
12907TIP3    H138678   8.238   5.288   0.691 -0.2808 -0.3732 -1.6248
12907TIP3    H238679   8.156   5.414   0.707 -0.3544 -0.6106 -0.0886
12908TIP3   OH238680   4.614   0.003   4.638  0.1736  0.5511  0.0608
12908TIP3    H138681   4.638   0.067   4.572 -1.2906 -0.2988 -1.3265
12908TIP3    H238682   4.531  -0.034   4.607  1.7761 -3.2188 -0.0489
12909TIP3   OH238683   7.751   7.406   6.777 -0.1664  0.4884  0.2904
12909TIP3    H138684   7.809   7.480   6.797 -1.2382  0.8002  2.4042
12909TIP3    H238685   7.806   7.329   6.787  0.8213  0.9350 -1.3959
12910TIP3   OH238686   4.102   6.340   4.819 -0.4699  0.4060 -0.1112
12910TIP3    H138687   4.196   6.351   4.801 -0.1507 -2.1763 -0.1226
12910TIP3    H238688   4.061   6.338   4.733 -0.4667  0.8997 -0.1259
12911TIP3   OH238689   8.277   5.196   0.177  0.1855  0.5485 -0.5201
12911TIP3    H138690   8.196   5.150   0.198  1.4007 -1.6767 -0.5410
12911TIP3    H238691   8.318   5.143   0.109  1.4767  1.8524 -0.7942
12912TIP3   OH238692   2.086   6.816   4.844  0.2747 -0.4885  0.7226
12912TIP3    H138693   2.181   6.806   4.851  0.3635  1.0930  2.2161
12912TIP3    H238694   2.052   6.787   4.929 -0.5399 -0.5774  0.3749
12913TIP3   OH238695   0.485   4.616   1.804 -0.1120 -0.2290 -0.1007
12913TIP3    H138696   0.462   4.691   1.750  0.8706 -2.0017 -3.0849
12913TIP3    H238697   0.577   4.629   1.826 -1.1877  1.8544  3.5302
12914TIP3   OH238698   5.277   1.034   4.948 -0.2178  0.5016  0.1148
12914TIP3    H138699   5.231   1.113   4.922  0.9693  0.5876 -1.8455
12914TIP3    H238700   5.359   1.065   4.988  0.0780  0.2853 -0.3142
12915TIP3   OH238701   5.312   0.472   5.985 -0.4743  0.6984 -0.0769
12915TIP3    H138702   5.351   0.499   6.068  0.3703 -2.2701  0.5392
12915TIP3    H238703   5.227   0.436   6.008 -0.6055  0.6663 -0.5958
12916TIP3   OH238704   3.931   5.034   5.730  0.5640 -0.5965  0.0793
12916TIP3    H138705   3.843   5.052   5.764  0.5366 -0.4791 -0.0564
12916TIP3    H238706   3.923   4.947   5.689  0.8111 -1.1245  1.1411
12917TIP3   OH238707   4.227   1.708   6.078 -0.2390 -0.3466 -0.1636
12917TIP3    H138708   4.175   1.752   6.010  0.8995 -0.8752 -1.3835
12917TIP3    H238709   4.198   1.617   6.076  0.9923 -0.7284 -1.1160
12918TIP3   OH238710   6.944   0.001   6.217 -0.4710 -0.1670  0.4813
12918TIP3    H138711   6.894  -0.023   6.139 -0.6364  0.1322  0.4938
12918TIP3    H238712   6.979   0.088   6.197  0.1491 -0.4239  0.4227
12919TIP3   OH238713   8.280   3.925   0.481 -0.1876 -0.1573  0.0439
12919TIP3    H138714   8.241   3.841   0.505 -0.8116 -0.1005 -0.7692
12919TIP3    H238715   8.374   3.908   0.479 -0.3387 -0.9308 -0.4787
12920TIP3   OH238716   6.021   4.922   0.273  0.1224 -0.3584 -0.3073
12920TIP3    H138717   5.970   4.990   0.317  0.8450  0.1661 -0.2697
12920TIP3    H238718   5.959   4.878   0.215  0.2795  2.2690 -2.5474
12921TIP3   OH238719   6.928   1.433   5.601 -0.1238  0.1950  0.3296
12921TIP3    H138720   6.884   1.489   5.537 -0.0499 -0.4981 -0.3227
12921TIP3    H238721   6.965   1.361   5.550 -1.0483 -0.9813  1.2656
12922TIP3   OH238722   3.907   6.897   4.874 -0.1092  0.3534 -0.0755
12922TIP3    H138723   3.875   6.902   4.784  1.2687 -1.0173 -0.6589
12922TIP3    H238724   3.838   6.851   4.921 -0.6261  0.6528 -0.5369
12923TIP3   OH238725   6.356   0.679   3.773 -0.1290  0.2388  0.6777
12923TIP3    H138726   6.349   0.609   3.708 -2.2649 -0.0541  1.1751
12923TIP3    H238727   6.449   0.680   3.798  0.0772 -1.8947  0.0904
12924TIP3   OH238728   5.696   1.228   5.619  0.1195 -0.1809  0.3009
12924TIP3    H138729   5.717   1.233   5.712  0.7184  1.2717  0.0947
12924TIP3    H238730   5.669   1.316   5.596 -2.9703 -1.2148 -0.2261
12925TIP3   OH238731   0.940   7.395   5.499  0.1075  0.1105  0.0308
12925TIP3    H138732   0.958   7.475   5.451  0.8241  0.4779  0.8772
12925TIP3    H238733   0.986   7.407   5.583 -0.0232 -1.0517  0.2802
12926TIP3   OH238734   1.904   6.952   5.231 -0.5452 -0.1093 -0.4274
12926TIP3    H138735   1.924   7.038   5.194  2.2349  0.7152  2.7463
12926TIP3    H238736   1.813   6.958   5.260 -0.0847  2.1567  0.6651
12927TIP3   OH238737   1.386   7.813   6.142 -0.4179 -0.1483 -0.4336
12927TIP3    H138738   1.362   7.873   6.071  1.8893  0.0392 -1.1073
12927TIP3    H238739   1.336   7.734   6.123 -2.9962  1.2765  0.0932
12928TIP3   OH238740   2.624   6.711   5.649  0.0758  0.2787  0.2868
12928TIP3    H138741   2.690   6.698   5.718  0.0480  0.5599  0.3667
12928TIP3    H238742   2.630   6.804   5.627  0.5363  0.0579 -0.5476
12929TIP3   OH238743   2.648   0.043   4.535  0.3771  0.1813 -0.1170
12929TIP3    H138744   2.679   0.133   4.536  0.1491  0.2654  1.3282
12929TIP3    H238745   2.612   0.029   4.623  1.5890 -1.7278  0.1053
12930TIP3   OH238746   6.749   3.538   0.581 -0.4347 -0.5198  0.1065
12930TIP3    H138747   6.827   3.589   0.602  0.0101 -0.4207 -1.7155
12930TIP3    H238748   6.748   3.534   0.485 -1.9370 -1.6499  0.1544
12931TIP3   OH238749   1.020   6.410   6.913  0.1570 -0.6537  0.2229
12931TIP3    H138750   0.949   6.423   6.850  0.6895  1.1000 -0.0433
12931TIP3    H238751   1.057   6.325   6.891  0.2434 -0.1188 -1.7465
12932TIP3   OH238752   7.096   4.933   0.434 -0.0330 -0.0360 -0.5813
12932TIP3    H138753   7.189   4.928   0.453 -0.0572 -1.4692 -0.7984
12932TIP3    H238754   7.091   4.977   0.349  0.4208  0.2832 -0.4431
12933TIP3   OH238755   6.429   1.434   3.984  0.3348  0.0586 -0.2040
12933TIP3    H138756   6.350   1.432   3.929  0.5313 -0.6854 -0.4661
12933TIP3    H238757   6.419   1.360   4.043  1.0762 -0.3537 -0.5830
12934TIP3   OH238758   6.169   1.699   6.516 -1.0203  0.3109 -0.2405
12934TIP3    H138759   6.264   1.703   6.505 -0.8432 -0.8046  0.8232
12934TIP3    H238760   6.146   1.609   6.496 -1.9531  0.7630 -1.1907
12935TIP3   OH238761   2.570   7.537   6.312  0.6805  0.0350 -0.1267
12935TIP3    H138762   2.505   7.552   6.244 -0.9746 -0.3259  1.3309
12935TIP3    H238763   2.652   7.573   6.276 -0.9574  3.2837 -0.7690
12936TIP3   OH238764   0.210   5.160   1.406 -0.4977 -0.5149  0.2691
12936TIP3    H138765   0.267   5.111   1.466  0.7200  1.0260  0.4176
12936TIP3    H238766   0.153   5.094   1.367  0.6269 -1.9368  0.9899
12937TIP3   OH238767   1.639   7.894   6.253  0.3314 -0.4300 -0.4913
12937TIP3    H138768   1.703   7.920   6.187 -0.1483  0.5260 -0.5930
12937TIP3    H238769   1.605   7.977   6.287 -2.1388 -0.8863 -1.7036
12938TIP3   OH238770   7.688   7.380   6.416 -0.0189  0.2688  0.3464
12938TIP3    H138771   7.714   7.471   6.429  0.2396  0.2492 -0.0150
12938TIP3    H238772   7.592   7.383   6.410  0.0071  0.5528  0.0606
12939TIP3   OH238773   7.210   0.086   6.623 -0.0838 -0.0614 -0.2991
12939TIP3    H138774   7.210   0.083   6.527  0.8938 -1.8172 -0.2620
12939TIP3    H238775   7.298   0.115   6.646 -0.1812 -0.0695  0.0833
12940TIP3   OH238776   6.825   0.289   5.842  0.3317  0.1999 -0.3226
12940TIP3    H138777   6.909   0.325   5.814  0.2411 -0.5623 -1.5965
12940TIP3    H238778   6.760   0.341   5.795  0.1257  0.0217 -0.2330
12941TIP3   OH238779   7.573   3.921   0.099  0.1784 -0.0449 -0.5814
12941TIP3    H138780   7.535   3.845   0.055  0.2875  0.0897 -0.9109
12941TIP3    H238781   7.603   3.888   0.184  1.3744 -0.6394 -1.2357
12942TIP3   OH238782   2.715   7.857   4.084 -0.3255  0.8690  0.2608
12942TIP3    H138783   2.755   7.825   4.003 -2.0889  0.7838 -0.6086
12942TIP3    H238784   2.715   7.781   4.142 -0.9349  0.3607 -0.3968
12943TIP3   OH238785   5.966   0.272   5.933 -0.2770  0.6030 -0.0560
12943TIP3    H138786   5.900   0.294   5.867 -0.3631  0.9707  0.1529
12943TIP3    H238787   5.918   0.274   6.016  0.0051  0.8890  0.0979
12944TIP3   OH238788   3.188   5.429   5.564  0.5146  0.0959 -0.2435
12944TIP3    H138789   3.094   5.411   5.574  1.3050 -3.2633  1.9227
12944TIP3    H238790   3.213   5.380   5.486  0.1278  2.5948 -1.9809
12945TIP3   OH238791   7.978   5.194   1.441  0.1857  0.5481 -0.1434
12945TIP3    H138792   7.987   5.288   1.460  1.1397  0.5265 -0.4634
12945TIP3    H238793   8.060   5.156   1.472 -0.4619 -0.2857  0.5678
12946TIP3   OH238794   0.622   1.339   0.132  0.2909  0.2051 -0.1848
12946TIP3    H138795   0.633   1.348   0.227  1.2292  0.4430 -0.3150
12946TIP3    H238796   0.592   1.425   0.103  1.7961  0.6906 -0.3534
12947TIP3   OH238797   0.281   2.290   0.103  0.4174 -0.0983  0.4469
12947TIP3    H138798   0.369   2.272   0.071  0.4462  0.6878  0.0543
12947TIP3    H238799   0.264   2.222   0.167  1.3994 -0.1275  0.6868
12948TIP3   OH238800   5.712   0.020   5.881 -0.1257 -0.0042 -0.0648
12948TIP3    H138801   5.722   0.110   5.850 -1.3874  0.2822  0.2954
12948TIP3    H238802   5.797  -0.003   5.919  0.5785  0.5948 -1.2673
12949TIP3   OH238803   2.327   7.687   6.192 -0.0720 -0.3153 -0.0983
12949TIP3    H138804   2.305   7.604   6.149  3.4198 -0.6871 -1.3525
12949TIP3    H238805   2.330   7.750   6.120 -1.8106  0.7291  0.7279
12950TIP3   OH238806   3.687   7.685   4.989  0.1638  0.2947  0.5916
12950TIP3    H138807   3.677   7.766   5.039 -1.0781  0.3545  0.2613
12950TIP3    H238808   3.751   7.633   5.039  0.2280  1.0682  1.3183
12951TIP3   OH238809   5.332   0.320   2.989 -0.5537 -0.1188 -0.0289
12951TIP3    H138810   5.244   0.282   2.988 -0.7589  0.3636 -0.4561
12951TIP3    H238811   5.321   0.406   3.030 -0.3392  0.0736 -0.3710
12952TIP3   OH238812   3.028   7.165   6.158 -0.5816 -0.0690 -0.1943
12952TIP3    H138813   3.020   7.257   6.131 -0.0914  0.3390  1.0364
12952TIP3    H238814   2.938   7.139   6.180 -0.4576  0.6803  1.2502
12953TIP3   OH238815   1.513   7.560   3.540 -0.4087 -0.1948  0.8995
12953TIP3    H138816   1.503   7.465   3.536  0.6117 -0.2264 -1.1986
12953TIP3    H238817   1.434   7.595   3.499 -0.1490 -0.1637  0.4227
12954TIP3   OH238818   5.231   0.688   6.614 -0.3418  0.4144  0.5125
12954TIP3    H138819   5.193   0.627   6.550  1.9813 -0.7265  0.1542
12954TIP3    H238820   5.274   0.631   6.677 -0.9367  1.6169  2.0254
12955TIP3   OH238821   2.382   4.733   1.019  0.2079  0.6544 -0.0028
12955TIP3    H138822   2.473   4.761   1.025  0.5364  0.4213 -3.2610
12955TIP3    H238823   2.350   4.772   0.938 -2.1146 -0.6275  0.2480
12956TIP3   OH238824   0.439   7.344   3.267 -0.0188  0.3752  0.0612
12956TIP3    H138825   0.442   7.404   3.341  1.9045  1.7124 -1.0476
12956TIP3    H238826   0.400   7.394   3.196  0.6499 -0.0019 -0.5835
12957TIP3   OH238827   1.750   7.106   3.037 -0.5085  0.1454  0.3802
12957TIP3    H138828   1.810   7.171   3.000 -1.2916 -0.3818 -1.9522
12957TIP3    H238829   1.752   7.121   3.131  1.5280  1.6294  0.1268
12958TIP3   OH238830   6.397   0.419   5.072  0.6108 -0.1149 -0.0422
12958TIP3    H138831   6.438   0.348   5.123 -1.6097 -1.3328  0.1189
12958TIP3    H238832   6.440   0.414   4.986  0.1604 -1.9833 -0.1845
12959TIP3   OH238833   4.045   7.046   3.866  0.3984  0.4081 -0.5089
12959TIP3    H138834   3.989   6.970   3.857 -0.8879  1.6314 -3.8702
12959TIP3    H238835   4.049   7.064   3.960 -4.0553 -0.2786 -0.1215
12960TIP3   OH238836   1.741   6.510   0.312  0.4413  0.0022 -0.3171
12960TIP3    H138837   1.748   6.592   0.263  0.0419 -0.8128 -1.7720
12960TIP3    H238838   1.651   6.481   0.297  1.3233 -2.0235 -2.0210
12961TIP3   OH238839   5.276   0.255   4.822  0.1133 -0.2268 -0.1078
12961TIP3    H138840   5.207   0.188   4.821  0.7193 -0.8733  0.0915
12961TIP3    H238841   5.244   0.325   4.767 -1.3575  0.1288  1.1761
12962TIP3   OH238842   6.607   1.824   4.293 -0.6244 -0.1093  0.3528
12962TIP3    H138843   6.582   1.733   4.309 -2.3708  0.4000  0.5495
12962TIP3    H238844   6.560   1.849   4.214 -0.4614  0.7477  0.5212
12963TIP3   OH238845   2.681   5.461   4.577 -0.5598 -0.1049  0.1298
12963TIP3    H138846   2.672   5.399   4.649 -0.8313 -0.7643 -0.4570
12963TIP3    H238847   2.609   5.439   4.517 -0.8972  1.0440  0.1054
12964TIP3   OH238848   3.786   4.948   6.162  0.0068 -0.1214  0.3080
12964TIP3    H138849   3.867   4.938   6.113 -0.3005 -0.7766 -0.0738
12964TIP3    H238850   3.764   5.041   6.153  0.4244 -0.0551 -0.0539
12965TIP3   OH238851   5.608   0.435   6.671 -0.0550  0.1475 -0.2151
12965TIP3    H138852   5.649   0.496   6.610 -1.3088 -0.1668 -1.3917
12965TIP3    H238853   5.524   0.476   6.694 -0.4914 -0.6972 -0.2855
12966TIP3   OH238854   3.663   7.953   5.027  0.6217 -0.3160 -0.3131
12966TIP3    H138855   3.571   7.979   5.018  0.7141  0.8030  1.6427
12966TIP3    H238856   3.705   7.988   4.948 -0.7275 -1.4060 -1.5541
12967TIP3   OH238857   1.209   7.101   3.884  0.0159  0.1019 -0.3975
12967TIP3    H138858   1.119   7.119   3.857  0.0050 -0.5442 -0.8098
12967TIP3    H238859   1.231   7.018   3.840  0.7662  0.1941 -0.2043
12968TIP3   OH238860   8.101   2.087   0.452 -0.3658  0.3948 -0.2373
12968TIP3    H138861   8.168   2.037   0.405 -0.6539 -0.1763 -0.0383
12968TIP3    H238862   8.018   2.055   0.416 -0.5247  1.4325 -0.8217
12969TIP3   OH238863   7.462   2.089   5.995 -0.8898  0.4031 -0.5879
12969TIP3    H138864   7.452   2.145   6.073 -2.8193  0.0246 -0.5445
12969TIP3    H238865   7.548   2.113   5.960 -0.2592  1.0318  1.3000
12970TIP3   OH238866   3.004   6.452   6.675  0.7478 -0.3026  0.2182
12970TIP3    H138867   2.917   6.417   6.657  0.2723  1.3559 -0.7690
12970TIP3    H238868   3.064   6.379   6.655 -0.1459 -0.2885 -2.7167
12971TIP3   OH238869   7.298   0.664   3.148 -0.3250 -0.1083  0.6855
12971TIP3    H138870   7.341   0.683   3.231  0.9271  0.1624 -0.0176
12971TIP3    H238871   7.236   0.737   3.136  1.2523  1.1746  0.1928
12972TIP3   OH238872   6.628   0.710   3.712  0.2841 -0.2330 -0.4156
12972TIP3    H138873   6.692   0.639   3.711  0.8976  0.3273 -0.5986
12972TIP3    H238874   6.678   0.788   3.734 -0.3823  0.1617 -0.2732
12973TIP3   OH238875   1.241   3.395   6.289 -0.2909 -0.1295  0.3490
12973TIP3    H138876   1.195   3.476   6.308  0.8615  0.5524  0.2512
12973TIP3    H238877   1.191   3.355   6.218  0.1582  1.3401 -0.7914
12974TIP3   OH238878   2.294   7.437   6.117  0.0943  0.0736  0.0724
12974TIP3    H138879   2.252   7.377   6.179  0.8067 -0.9293 -0.3944
12974TIP3    H238880   2.229   7.448   6.047 -0.3947  0.5727  0.6039
12975TIP3   OH238881   2.369   7.892   5.953 -0.3678  0.0414  0.0526
12975TIP3    H138882   2.458   7.928   5.955  0.0386 -0.9234 -0.3234
12975TIP3    H238883   2.370   7.828   5.882 -0.8651 -1.2226  1.1562
12976TIP3   OH238884   1.119   2.905   0.178  0.3857 -0.8884  0.3857
12976TIP3    H138885   1.056   2.874   0.243 -0.6688  1.4108  0.5234
12976TIP3    H238886   1.180   2.960   0.227 -2.0100  3.1255 -0.8687
12977TIP3   OH238887   3.676   7.947   4.324 -0.2700 -0.1004 -0.0743
12977TIP3    H138888   3.659   8.006   4.397  2.5046  1.1709 -0.3539
12977TIP3    H238889   3.729   7.877   4.362  1.1486  0.5471 -0.7919
12978TIP3   OH238890   2.103   5.351   5.912  0.1831  0.3417  0.0162
12978TIP3    H138891   2.150   5.286   5.964  2.8304  0.7647 -1.7711
12978TIP3    H238892   2.142   5.435   5.936 -0.8389  0.9167 -0.2520
12979TIP3   OH238893   2.508   7.934   4.647 -0.4704 -0.6340 -0.5739
12979TIP3    H138894   2.472   7.974   4.568 -1.0345  0.5918  0.2934
12979TIP3    H238895   2.526   7.844   4.622  0.4659  0.0407 -2.4606
12980TIP3   OH238896   8.286   5.927   0.469  0.3212 -0.3411 -0.3276
12980TIP3    H138897   8.291   5.959   0.379 -0.5732 -0.1246 -0.3107
12980TIP3    H238898   8.266   5.834   0.461 -1.7985  0.0755 -0.3671
12981TIP3   OH238899   5.031   0.742   5.589  0.6153  0.1105  0.1183
12981TIP3    H138900   5.004   0.656   5.622  0.3805 -1.0264 -2.9241
12981TIP3    H238901   5.126   0.742   5.599  0.4658  0.1444  1.5992
12982TIP3   OH238902   3.066   7.874   4.932 -0.0464  0.0099  0.0153
12982TIP3    H138903   3.107   7.909   4.853  1.4289  1.2044  1.2719
12982TIP3    H238904   3.082   7.780   4.927 -1.1226 -0.1127 -1.7407
12983TIP3   OH238905   2.950   4.594   0.039 -0.0237  0.0783 -0.0248
12983TIP3    H138906   2.988   4.645   0.111 -0.6504  3.1836 -1.8097
12983TIP3    H238907   2.855   4.599   0.054 -0.0822 -0.7648 -0.0926
12984TIP3   OH238908   8.228   3.678   0.614 -0.1943 -0.0488 -1.4499
12984TIP3    H138909   8.175   3.670   0.693  0.1094 -0.6684 -1.3054
12984TIP3    H238910   8.222   3.592   0.572  2.3709 -0.7850 -0.3574
12985TIP3   OH238911   7.502   0.173   6.699 -0.5299  0.0749 -0.1930
12985TIP3    H138912   7.556   0.209   6.770  1.0177  1.7158 -2.1494
12985TIP3    H238913   7.543   0.089   6.678  0.1965  0.5023 -0.4840
12986TIP3   OH238914   5.442   0.747   4.696 -0.0065  0.0749 -0.1548
12986TIP3    H138915   5.494   0.827   4.704 -0.2745  0.5691 -2.9190
12986TIP3    H238916   5.457   0.717   4.606 -1.9711 -1.5558  0.0244
12987TIP3   OH238917   6.373   0.557   4.584 -0.2779 -0.5748  0.6457
12987TIP3    H138918   6.397   0.584   4.673 -0.7334  0.0333  0.5919
12987TIP3    H238919   6.455   0.531   4.544  0.6948  3.4653 -0.2078
12988TIP3   OH238920   3.204   7.193   5.503  0.2449 -0.2650  0.4374
12988TIP3    H138921   3.122   7.231   5.534  0.7576  0.5238  0.8311
12988TIP3    H238922   3.255   7.179   5.582  0.9995  0.4373  0.0835
12989TIP3   OH238923   6.164   1.037   6.750  0.0835  0.3826  0.7608
12989TIP3    H138924   6.186   0.963   6.693 -1.1069  0.6303 -0.0321
12989TIP3    H238925   6.068   1.040   6.750  0.0420  0.2277  2.9796
12990TIP3   OH238926   6.358   6.222   5.396  0.4166  0.4685 -0.3624
12990TIP3    H138927   6.309   6.177   5.328 -0.6621  0.3275  0.4926
12990TIP3    H238928   6.303   6.297   5.419  1.2203  1.0449 -0.3143
12991TIP3   OH238929   6.995   1.394   4.236 -0.0230  0.0162 -0.2338
12991TIP3    H138930   7.067   1.423   4.180 -0.2301 -0.6934 -0.8879
12991TIP3    H238931   6.964   1.473   4.279 -0.3262  0.7002 -1.6849
12992TIP3   OH238932   5.605   0.356   6.045  0.4231 -0.8935  0.0861
12992TIP3    H138933   5.537   0.402   6.094 -0.0731 -0.8325 -0.6517
12992TIP3    H238934   5.590   0.263   6.066  1.5645 -0.7261  1.7482
12993TIP3   OH238935   8.386   1.539   4.452 -1.3019 -0.0819 -0.4562
12993TIP3    H138936   8.459   1.563   4.510  0.2626 -2.7743 -1.1850
12993TIP3    H238937   8.406   1.583   4.370 -0.2084 -1.1792 -0.7955
12994TIP3   OH238938   5.380   1.430   4.693 -0.2951  0.5105  0.1491
12994TIP3    H138939   5.458   1.398   4.738  1.0969  3.2100 -0.2427
12994TIP3    H238940   5.340   1.490   4.755 -0.9428  0.6991 -0.4493
12995TIP3   OH238941   7.289   1.588   4.402  0.0696 -0.4111 -0.4984
12995TIP3    H138942   7.278   1.500   4.368  0.4407 -0.7970  0.3616
12995TIP3    H238943   7.384   1.602   4.406  0.0333 -0.3071  0.1809
12996TIP3   OH238944   5.309   6.965   5.771 -0.3799  0.0368  0.3980
12996TIP3    H138945   5.239   7.025   5.795 -1.5579 -1.7683  1.5642
12996TIP3    H238946   5.333   6.923   5.853  2.6505  1.1842  0.1767
12997TIP3   OH238947   3.198   7.438   2.790 -0.1293 -0.1435  0.0367
12997TIP3    H138948   3.273   7.468   2.739 -0.3138 -2.5680 -1.7080
12997TIP3    H238949   3.137   7.403   2.726 -1.4048 -1.0819  1.7245
12998TIP3   OH238950   5.172   0.561   5.044 -0.0268  0.0581 -0.1615
12998TIP3    H138951   5.226   0.487   5.016 -0.4876  0.3982 -1.9892
12998TIP3    H238952   5.224   0.638   5.024  0.6390  0.2344  2.1549
12999TIP3   OH238953   3.253   7.276   5.932 -0.6818 -0.4601  0.3678
12999TIP3    H138954   3.202   7.357   5.931  1.3518  0.8693  0.1255
12999TIP3    H238955   3.228   7.233   6.014 -0.8235  1.0868  1.1663
13000TIP3   OH238956   4.022   7.571   4.481  0.5008 -0.2953  0.4600
13000TIP3    H138957   4.093   7.563   4.417 -0.1885 -0.7998 -0.2500
13000TIP3    H238958   4.025   7.489   4.530  1.1512  0.1712  1.2095
13001TIP3   OH238959   3.327   6.576   4.298 -0.0196  0.2023 -0.4836
13001TIP3    H138960   3.388   6.515   4.340  0.7292 -0.9074 -3.0483
13001TIP3    H238961   3.379   6.654   4.283  0.2261 -0.0462 -0.9395
13002TIP3   OH238962   0.855   5.054   0.237 -0.2448  0.4830  0.1558
13002TIP3    H138963   0.926   5.108   0.273  0.5641 -0.2976 -0.2431
13002TIP3    H238964   0.892   5.017   0.157 -1.7164  1.4846 -1.0124
13003TIP3   OH238965   7.635   0.831   4.330  0.6966 -0.2480 -0.4272
13003TIP3    H138966   7.625   0.926   4.316  0.5562 -0.5308 -2.3911
13003TIP3    H238967   7.705   0.823   4.395  1.3398  1.1736 -0.9319
13004TIP3   OH238968   5.690   1.577   6.597  0.3106  0.2255 -0.0744
13004TIP3    H138969   5.674   1.648   6.660  1.4131  0.4013  0.0178
13004TIP3    H238970   5.609   1.526   6.598  0.0206  0.6837  0.8973
13005TIP3   OH238971   3.755   5.340   6.823  0.4709 -0.7065  0.4909
13005TIP3    H138972   3.823   5.329   6.757  0.0695 -1.4018  0.1801
13005TIP3    H238973   3.702   5.260   6.817 -0.8601  0.1791  0.1603
13006TIP3   OH238974   6.703   0.351   6.559  0.1373 -0.1713  0.9966
13006TIP3    H138975   6.642   0.346   6.633  0.2523  1.2513  1.2034
13006TIP3    H238976   6.652   0.391   6.489  0.1643 -1.0990  0.4464
13007TIP3   OH238977   4.219   7.902   4.878  0.1388  0.6891 -0.8020
13007TIP3    H138978   4.182   7.820   4.909 -0.6436  1.3981  0.1819
13007TIP3    H238979   4.171   7.970   4.926  1.6360  1.6748 -0.6659
13008TIP3   OH238980   5.870   0.811   5.562 -0.3064  0.8963 -0.3982
13008TIP3    H138981   5.806   0.866   5.607  0.6974  1.6718  0.1350
13008TIP3    H238982   5.955   0.846   5.591  0.3657 -1.5745  0.7450
13009TIP3   OH238983   4.042   7.994   4.385 -0.0666 -0.4201 -0.5166
13009TIP3    H138984   3.980   8.044   4.332  1.2488  2.3855  0.4663
13009TIP3    H238985   3.987   7.944   4.445 -1.4235  0.9946 -0.5463
13010TIP3   OH238986   2.327   4.528   0.470 -0.6902  0.0578 -0.3074
13010TIP3    H138987   2.269   4.584   0.419  0.3400  1.6618  0.2386
13010TIP3    H238988   2.321   4.563   0.559 -1.0952 -1.5814  0.3344
13011TIP3   OH238989   4.746   7.591   4.594  0.5143 -0.1182  0.3397
13011TIP3    H138990   4.680   7.568   4.529 -0.3744  2.3393  0.3114
13011TIP3    H238991   4.698   7.639   4.661  2.0566  0.6272  0.9396
13012TIP3   OH238992   2.213   6.262   4.034 -0.4985  0.3786 -0.3680
13012TIP3    H138993   2.164   6.256   3.952 -0.4619  0.5002 -0.3995
13012TIP3    H238994   2.167   6.331   4.084 -0.2484  0.6207 -0.4740
13013TIP3   OH238995   4.157   7.594   6.338 -0.0809  0.1677 -1.0137
13013TIP3    H138996   4.121   7.678   6.367 -0.8712 -0.1168 -1.1731
13013TIP3    H238997   4.252   7.609   6.337 -0.0654  0.3794  1.0948
13014TIP3   OH238998   6.823   1.486   4.788 -0.3027  0.1284  0.7218
13014TIP3    H138999   6.918   1.488   4.782 -0.2700 -0.3496  1.0909
13014TIP3    H239000   6.794   1.451   4.704 -0.1801  0.8294  0.3844
13015TIP3   OH239001   8.057   0.461   6.473 -0.7999 -0.1827 -0.2534
13015TIP3    H139002   8.036   0.392   6.537  0.7815 -3.3516 -3.0068
13015TIP3    H239003   8.003   0.440   6.397  2.1207 -0.3633 -2.3372
13016TIP3   OH239004   5.616   0.020   6.863  0.2058  0.0603 -0.2064
13016TIP3    H139005   5.630  -0.068   6.829 -0.1723  0.1759 -0.6611
13016TIP3    H239006   5.694   0.068   6.836  0.5482 -0.2078  0.2938
13017TIP3   OH239007   5.346   7.651   6.111  0.1865 -0.8208  0.1203
13017TIP3    H139008   5.416   7.715   6.098 -1.4951  0.7756 -1.4304
13017TIP3    H239009   5.317   7.629   6.022 -1.1022 -1.6377  0.7326
13018TIP3   OH239010   7.084   0.338   5.792  0.1603  0.3833  0.1893
13018TIP3    H139011   7.141   0.392   5.738  1.0997 -1.1182 -0.3503
13018TIP3    H239012   7.141   0.269   5.826 -1.5980 -2.0693 -1.6390
13019TIP3   OH239013   7.812   0.189   3.981  0.2774 -0.4907  0.2271
13019TIP3    H139014   7.756   0.193   3.903  0.9402 -1.8044 -0.3267
13019TIP3    H239015   7.898   0.215   3.949  0.7371 -1.8713  0.3326
13020TIP3   OH239016   5.869   0.327   5.559  0.0103  0.0670 -0.3204
13020TIP3    H139017   5.899   0.237   5.544 -2.3936 -0.9007  0.4218
13020TIP3    H239018   5.840   0.327   5.650 -3.0398  0.6769 -1.2437
13021TIP3   OH239019   4.398   1.031   6.306 -0.1369  0.2643 -0.4761
13021TIP3    H139020   4.307   1.059   6.316  0.3540  1.6895  0.1223
13021TIP3    H239021   4.410   0.963   6.373 -0.6325  0.3994 -0.2486
13022TIP3   OH239022   5.926   0.916   5.068 -0.4762 -0.0348 -0.4922
13022TIP3    H139023   5.883   0.881   5.147  0.5984 -0.4598 -0.0856
13022TIP3    H239024   5.915   1.010   5.075  0.3974 -0.0100  0.6347
13023TIP3   OH239025   5.198   1.096   4.580 -0.2285 -0.3533 -0.8057
13023TIP3    H139026   5.179   1.078   4.488  1.7415 -1.3067 -1.0462
13023TIP3    H239027   5.292   1.112   4.582 -0.8678  3.8713  0.3893
13024TIP3   OH239028   2.746   7.796   6.718 -0.1604 -0.4566 -0.4004
13024TIP3    H139029   2.809   7.822   6.651  2.5164 -0.6359  1.9752
13024TIP3    H239030   2.704   7.717   6.682  2.3494 -1.4631 -1.2058
13025TIP3   OH239031   3.745   7.748   5.438 -0.3968  0.2107 -0.1488
13025TIP3    H139032   3.708   7.797   5.512  1.4856  1.2066  0.1676
13025TIP3    H239033   3.827   7.712   5.472 -0.1490 -0.3914 -1.3771
13026TIP3   OH239034   0.459   2.344   0.515  0.3700  0.4448 -0.5779
13026TIP3    H139035   0.522   2.349   0.443  1.8343 -1.8808  0.4693
13026TIP3    H239036   0.510   2.364   0.593 -0.7979  1.1473  0.0185
13027TIP3   OH239037   7.710   0.690   3.117 -0.0533 -0.4998 -0.3809
13027TIP3    H139038   7.652   0.672   3.042 -0.3747  1.2114 -0.5649
13027TIP3    H239039   7.798   0.680   3.082 -0.2150 -0.7321 -0.7273
13028TIP3   OH239040   1.653   6.946   4.825  0.0281 -0.0924  0.2825
13028TIP3    H139041   1.658   7.030   4.871  2.5027 -0.1750  0.2105
13028TIP3    H239042   1.699   6.960   4.743 -2.0426 -0.7265 -1.0219
13029TIP3   OH239043   5.536   0.441   3.458 -0.2110 -0.0696 -0.0557
13029TIP3    H139044   5.529   0.401   3.371 -1.3545 -0.6066  0.2703
13029TIP3    H239045   5.525   0.367   3.518 -1.4826  0.5894  0.5485
13030TIP3   OH239046   6.709   1.458   5.813  0.4606 -0.3403 -0.0728
13030TIP3    H139047   6.673   1.545   5.798 -1.0719 -1.2355 -1.9028
13030TIP3    H239048   6.804   1.469   5.810  0.2989  1.4373  0.8946
13031TIP3   OH239049   3.800   7.188   4.635  0.7672 -0.0640  0.2459
13031TIP3    H139050   3.838   7.208   4.549  0.2487 -0.3905 -0.0626
13031TIP3    H239051   3.778   7.095   4.630  1.6198 -0.3140  1.0730
13032TIP3   OH239052   0.771   3.891   0.939 -0.6294 -0.0159  0.2558
13032TIP3    H139053   0.690   3.867   0.986 -0.5573  0.1862  0.4886
13032TIP3    H239054   0.770   3.837   0.860 -2.0134  1.4458 -0.7480
13033TIP3   OH239055   4.742   5.918   6.906  0.2295 -0.0910  0.1126
13033TIP3    H139056   4.677   5.848   6.909  1.2117 -1.1398 -1.7728
13033TIP3    H239057   4.704   5.984   6.849 -0.8188  1.0682  2.1172
13034TIP3   OH239058   4.943   0.445   5.652  0.3470  0.3160 -0.5739
13034TIP3    H139059   4.993   0.367   5.629  0.9992  1.0225 -1.5960
13034TIP3    H239060   4.928   0.437   5.746  0.2304 -1.1381 -0.7055
13035TIP3   OH239061   3.711   6.113   6.343  0.1877 -0.4906  0.3410
13035TIP3    H139062   3.776   6.164   6.294  0.2262  0.0805  0.9770
13035TIP3    H239063   3.726   6.137   6.434 -0.6056 -0.7205  0.5331
13036TIP3   OH239064   5.484   1.069   5.970  0.2420  0.0772  0.0425
13036TIP3    H139065   5.516   1.120   6.045 -0.3478  1.8891 -0.9003
13036TIP3    H239066   5.429   1.001   6.009  1.4250 -0.1610  1.3634
13037TIP3   OH239067   2.191   6.783   4.555 -0.4520  0.1139 -0.2231
13037TIP3    H139068   2.098   6.759   4.564 -0.2205 -0.1344  1.7800
13037TIP3    H239069   2.221   6.734   4.478 -1.3598 -1.7910  0.5946
13038TIP3   OH239070   1.660   3.904   1.255 -0.1984  0.0008  0.1675
13038TIP3    H139071   1.753   3.884   1.241 -0.0150 -1.2461  2.9151
13038TIP3    H239072   1.614   3.846   1.194  0.8064  0.3742 -0.9570
13039TIP3   OH239073   4.627   5.530   5.985  0.6416  0.4811 -0.4679
13039TIP3    H139074   4.569   5.522   5.909  0.3744  1.6081 -0.4016
13039TIP3    H239075   4.701   5.581   5.954  0.2203  1.5165  0.1786
13040TIP3   OH239076   7.205   1.466   4.069  0.0434  0.2343 -0.3214
13040TIP3    H139077   7.133   1.479   4.007  0.6076  0.3080 -0.9766
13040TIP3    H239078   7.246   1.552   4.077 -1.6071  0.8325  2.1858
13041TIP3   OH239079   6.537   0.380   5.429 -0.4825  0.1178 -0.0918
13041TIP3    H139080   6.579   0.457   5.390 -2.2560  0.4417 -1.4560
13041TIP3    H239081   6.537   0.315   5.359 -0.3438 -0.5944  0.5660
13042TIP3   OH239082   6.196   0.640   6.282  0.2920 -0.2009 -0.2882
13042TIP3    H139083   6.215   0.569   6.220 -0.4977 -0.1996 -0.5373
13042TIP3    H239084   6.282   0.668   6.313  0.5369 -2.4909  1.1920
13043TIP3   OH239085   3.729   5.335   5.250  0.1449 -0.7196  0.3909
13043TIP3    H139086   3.688   5.289   5.323  0.6633 -0.1438  1.0477
13043TIP3    H239087   3.799   5.386   5.290 -0.8494  1.1712 -0.2612
13044TIP3   OH239088   8.374   3.886   0.759  0.4823 -0.4852  0.4050
13044TIP3    H139089   8.418   3.801   0.755  0.7242 -0.3676  0.5775
13044TIP3    H239090   8.316   3.886   0.682 -0.0287 -1.0816  0.7866
13045TIP3   OH239091   4.302   6.725   6.844  0.0265 -0.1876  0.3291
13045TIP3    H139092   4.259   6.748   6.926 -0.7048  1.4234 -0.4629
13045TIP3    H239093   4.384   6.775   6.845  1.0380 -1.8262  1.0160
13046TIP3   OH239094   0.865   7.746   5.612  0.0489 -0.2206  0.6309
13046TIP3    H139095   0.933   7.701   5.561 -1.2105 -0.7169 -0.6154
13046TIP3    H239096   0.875   7.839   5.590  0.1796 -0.3189  0.2771
13047TIP3   OH239097   5.550   0.106   5.218  0.4131 -0.2875  0.0369
13047TIP3    H139098   5.581   0.081   5.130  0.9347 -0.4466  0.2613
13047TIP3    H239099   5.626   0.148   5.258  0.2522 -0.4461  0.5020
13048TIP3   OH239100   5.936   2.136   4.528 -0.0337 -0.4254  0.2156
13048TIP3    H139101   5.997   2.180   4.469 -1.8395  0.2772 -1.2079
13048TIP3    H239102   5.862   2.112   4.471 -0.5739 -2.2636  1.6532
13049TIP3   OH239103   6.283   6.807   3.801 -0.1555 -0.1460  0.5207
13049TIP3    H139104   6.235   6.748   3.744 -0.0216  1.6946 -1.5673
13049TIP3    H239105   6.219   6.835   3.866 -1.3660  0.6604 -0.9929
13050TIP3   OH239106   4.878   7.852   4.551  0.4534 -0.4371 -0.0267
13050TIP3    H139107   4.818   7.778   4.556  0.2524 -0.2353  0.4979
13050TIP3    H239108   4.826   7.928   4.576  0.2226  0.1370 -2.1267
13051TIP3   OH239109   0.800   1.618   5.475  0.0852  0.5220  0.0896
13051TIP3    H139110   0.874   1.661   5.519  1.0516 -0.9385 -0.0914
13051TIP3    H239111   0.782   1.674   5.399 -1.1330  2.6684  1.8949
13052TIP3   OH239112   8.258   0.923   6.178  0.3389  0.1791  0.1805
13052TIP3    H139113   8.200   0.873   6.236  1.8417 -0.5985  1.0496
13052TIP3    H239114   8.272   1.005   6.225 -0.3188  0.5062 -0.1888
13053TIP3   OH239115   1.762   2.896   3.676  0.2597  0.0408  0.1337
13053TIP3    H139116   1.730   2.876   3.764  0.3225  2.2791  0.7033
13053TIP3    H239117   1.856   2.877   3.679  0.1269 -0.6016  0.3121
13054TIP3   OH239118   6.956   0.892   6.473 -0.6385 -0.4340 -0.1657
13054TIP3    H139119   6.942   0.977   6.430 -1.5472  0.0622  1.0594
13054TIP3    H239120   6.896   0.833   6.429 -0.5393 -0.2610 -0.5353
13055TIP3   OH239121   7.752   2.681   4.243  0.0778  0.2830  0.4921
13055TIP3    H139122   7.782   2.691   4.334  2.1291  0.5870 -0.1947
13055TIP3    H239123   7.773   2.765   4.202 -0.1209 -0.1371 -0.4790
13056TIP3   OH239124   6.611   1.948   4.565  0.1593  0.6259  0.4089
13056TIP3    H139125   6.605   1.901   4.482  1.0873  1.8700 -0.3923
13056TIP3    H239126   6.540   2.012   4.562 -0.5676 -0.1420  1.1158
13057TIP3   OH239127   0.267   7.182   6.036 -0.7755 -0.6847  0.0392
13057TIP3    H139128   0.244   7.092   6.015 -0.1517 -1.1206  1.2039
13057TIP3    H239129   0.268   7.185   6.132 -1.7444  0.7988  0.0220
13058TIP3   OH239130   0.639   1.218   6.449  0.0145 -0.2892 -0.5095
13058TIP3    H139131   0.648   1.278   6.524  0.7499 -0.9433 -0.0625
13058TIP3    H239132   0.725   1.178   6.441  0.1866  0.4222 -2.2810
13059TIP3   OH239133   7.617   0.141   6.292  0.0589 -1.0668  0.2157
13059TIP3    H139134   7.609   0.212   6.229  0.8595 -2.0095 -0.9741
13059TIP3    H239135   7.550   0.078   6.265 -0.9074 -0.6098  1.4971
13060TIP3   OH239136   6.745   1.025   4.585  0.1134  0.1750 -0.2991
13060TIP3    H139137   6.709   0.966   4.652  0.5471 -0.2864 -0.4641
13060TIP3    H239138   6.811   1.076   4.630  1.1552 -0.8766 -0.6012
13061TIP3   OH239139   5.817   0.290   6.214 -0.1807 -0.3298 -0.1438
13061TIP3    H139140   5.738   0.334   6.184 -0.5680  0.1616  1.5479
13061TIP3    H239141   5.872   0.360   6.249  1.3567 -0.5628 -2.0441
13062TIP3   OH239142   8.145   1.444   5.886 -0.2920  0.0543  0.0303
13062TIP3    H139143   8.237   1.458   5.866 -0.1888  0.2245  0.6032
13062TIP3    H239144   8.134   1.349   5.884 -0.4590  0.0889 -1.5380
13063TIP3   OH239145   8.222   1.593   5.100 -0.0279  0.1398  0.2386
13063TIP3    H139146   8.134   1.611   5.065  0.1466  0.3081 -0.1078
13063TIP3    H239147   8.273   1.566   5.024  0.4788  0.9574  0.2868
13064TIP3   OH239148   3.381   5.569   6.360  0.1089  0.1957  0.2831
13064TIP3    H139149   3.288   5.576   6.385  0.1535 -0.6024  0.6658
13064TIP3    H239150   3.380   5.531   6.273  0.1220 -0.8385  0.7348
13065TIP3   OH239151   5.762   7.912   5.928  0.1326  0.5997 -0.4231
13065TIP3    H139152   5.811   7.831   5.915  0.4228  0.4991  1.1454
13065TIP3    H239153   5.826   7.973   5.966 -0.4823  1.0725 -0.1358
13066TIP3   OH239154   1.151   0.075   4.605  0.0373 -0.5780 -0.5090
13066TIP3    H139155   1.083   0.056   4.540  0.9760 -2.7156 -0.8816
13066TIP3    H239156   1.232   0.077   4.555  0.2926  1.9575 -0.0551
13067TIP3   OH239157   3.234   7.871   5.297 -0.4900 -0.3232  0.1542
13067TIP3    H139158   3.325   7.861   5.325 -0.9618 -0.9570  1.5217
13067TIP3    H239159   3.227   7.964   5.273  1.0621 -0.7309 -2.0410
13068TIP3   OH239160   0.053   5.014   0.526  0.0769  0.2823  0.1198
13068TIP3    H139161   0.104   4.975   0.597  2.9269  0.5254 -1.6889
13068TIP3    H239162   0.051   4.947   0.458 -0.4702  0.9656 -0.5484
13069TIP3   OH239163   6.527   0.200   5.215 -0.0026  0.2322  0.0850
13069TIP3    H139164   6.544   0.118   5.168 -0.3107  0.3170 -0.1725
13069TIP3    H239165   6.458   0.177   5.278  0.6727  0.0227  0.7625
13070TIP3   OH239166   6.475   7.537   5.846  0.4849  0.2202  0.1521
13070TIP3    H139167   6.539   7.607   5.832  0.0401  0.5627 -0.1755
13070TIP3    H239168   6.521   7.474   5.902  1.1915  0.3488 -0.2681
13071TIP3   OH239169   7.253   0.707   6.029 -0.4184  0.2696 -0.0255
13071TIP3    H139170   7.257   0.729   5.936 -0.7805 -0.4643 -0.2125
13071TIP3    H239171   7.336   0.739   6.064 -0.2699  0.5276 -0.6017
13072TIP3   OH239172   3.039   7.414   6.027 -0.4094 -0.2979  0.6978
13072TIP3    H139173   3.083   7.490   6.064  0.2796 -0.1825 -0.3711
13072TIP3    H239174   2.980   7.450   5.961  1.5848 -0.8467 -1.4437
13073TIP3   OH239175   7.558   0.911   6.738  0.1372  0.2000  0.2317
13073TIP3    H139176   7.627   0.959   6.691  2.1186 -1.7291  1.0368
13073TIP3    H239177   7.566   0.941   6.829 -0.2868  0.2019  0.2655
13074TIP3   OH239178   7.576   0.659   6.596  0.5178  0.3063 -0.2749
13074TIP3    H139179   7.664   0.638   6.628 -0.1953 -0.4005  1.2452
13074TIP3    H239180   7.538   0.714   6.664 -1.1866 -1.5654  0.3341
13075TIP3   OH239181   7.645   1.397   3.845  0.3558 -0.2491  0.1735
13075TIP3    H139182   7.600   1.399   3.930  0.0060 -1.3609  0.0197
13075TIP3    H239183   7.624   1.482   3.805 -1.5956 -0.7399  0.1121
13076TIP3   OH239184   8.339   0.166   4.658 -0.2022  0.0347 -0.7677
13076TIP3    H139185   8.416   0.109   4.665 -1.8442 -2.1752 -0.2284
13076TIP3    H239186   8.335   0.190   4.565  1.0782  0.0758 -0.8159
13077TIP3   OH239187   6.014   0.898   4.195 -0.4965 -0.2192 -0.6156
13077TIP3    H139188   5.984   0.887   4.105 -1.3801  0.9461 -0.4803
13077TIP3    H239189   5.934   0.903   4.247  0.0036 -0.6121  0.1978
13078TIP3   OH239190   2.165   7.754   5.248 -0.2017  0.5288 -0.1338
13078TIP3    H139191   2.076   7.729   5.225 -0.5927  2.6564 -1.1149
13078TIP3    H239192   2.200   7.793   5.168  1.2325  0.6912  0.5585
13079TIP3   OH239193   7.069   1.822   5.956  0.0919 -0.1240 -0.3997
13079TIP3    H139194   7.149   1.769   5.955  0.2549  0.0830  1.0801
13079TIP3    H239195   7.099   1.909   5.980 -0.3350  0.3807 -1.6825
13080TIP3   OH239196   5.236   0.170   4.086 -0.3303  0.6537 -0.5532
13080TIP3    H139197   5.162   0.201   4.137  0.0649 -1.6792  1.5386
13080TIP3    H239198   5.304   0.152   4.151  1.3715  0.8609 -2.2423
13081TIP3   OH239199   5.647   0.873   2.835  0.1870 -0.0856  0.1059
13081TIP3    H139200   5.737   0.898   2.816  0.1927 -0.3764 -0.2412
13081TIP3    H239201   5.631   0.796   2.781 -0.5563  0.4992 -0.5366
13082TIP3   OH239202   7.527   1.473   3.504  0.2200 -0.0188 -0.3785
13082TIP3    H139203   7.594   1.518   3.452 -0.6647  1.1013 -0.5506
13082TIP3    H239204   7.463   1.541   3.526 -0.6420 -0.9888  0.1591
13083TIP3   OH239205   4.945   7.683   5.537 -0.2126 -0.2512 -0.5694
13083TIP3    H139206   4.862   7.657   5.497 -0.8082 -1.6084  1.5105
13083TIP3    H239207   5.009   7.673   5.466 -1.3592 -1.9683 -1.3932
13084TIP3   OH239208   2.555   7.276   6.064 -0.1152  1.1557  0.0785
13084TIP3    H139209   2.580   7.280   5.972  0.8191 -0.0091  0.2791
13084TIP3    H239210   2.468   7.315   6.067  0.2127  2.0077 -1.1571
13085TIP3   OH239211   6.845   0.880   4.976 -0.0849 -0.4308  0.0804
13085TIP3    H139212   6.787   0.878   4.900  2.3986  2.8133 -2.0549
13085TIP3    H239213   6.826   0.964   5.019 -0.3265 -1.5089  2.1244
13086TIP3   OH239214   0.947   6.951   0.028 -0.4119  0.4389  0.6619
13086TIP3    H139215   0.917   7.041   0.041 -1.4158 -0.0034  1.4678
13086TIP3    H239216   1.042   6.958   0.022 -0.4245  1.4468  1.6039
13087TIP3   OH239217   5.271   7.915   6.637 -0.4389 -0.1376  0.4474
13087TIP3    H139218   5.218   7.959   6.704 -1.2161  0.0975 -0.3201
13087TIP3    H239219   5.349   7.970   6.629 -0.3510 -0.1490  1.1326
13088TIP3   OH239220   6.692   0.824   4.744  0.2810 -0.4141  0.1042
13088TIP3    H139221   6.734   0.748   4.704 -0.2199 -0.2192 -0.7950
13088TIP3    H239222   6.612   0.789   4.784 -0.0676 -0.3209 -0.5104
13089TIP3   OH239223   6.788   0.405   5.299 -0.4158  0.5558  0.4355
13089TIP3    H139224   6.735   0.341   5.252 -1.9697  1.8172  0.4364
13089TIP3    H239225   6.844   0.352   5.355 -0.8674 -0.8458 -0.4081
13090TIP3   OH239226   0.856   4.799   0.844  0.1284  0.1396  0.3084
13090TIP3    H139227   0.807   4.745   0.905  0.9512 -0.0990  0.7594
13090TIP3    H239228   0.789   4.850   0.798 -0.5108  0.1061  1.1990
13091TIP3   OH239229   5.780   1.863   5.649 -0.6674 -0.2610 -0.4661
13091TIP3    H139230   5.709   1.860   5.713  0.9536 -1.6641  1.3142
13091TIP3    H239231   5.763   1.789   5.591 -1.9165  0.7785 -1.4658
13092TIP3   OH239232   7.577   2.696   3.780  0.1515  0.0079 -0.6875
13092TIP3    H139233   7.611   2.776   3.820 -1.9466  0.4579  0.3062
13092TIP3    H239234   7.514   2.726   3.715  0.5855 -0.8054 -1.4871
13093TIP3   OH239235   4.195   7.543   6.642  0.0034 -0.3226 -0.2705
13093TIP3    H139236   4.227   7.470   6.589  1.2182  0.1347 -0.1985
13093TIP3    H239237   4.135   7.591   6.585  2.4460  1.0302 -1.7900
13094TIP3   OH239238   0.293   0.028   4.835  0.5009 -0.1047  0.1267
13094TIP3    H139239   0.360  -0.032   4.801  1.0083  1.6176 -1.9823
13094TIP3    H239240   0.341   0.087   4.893  0.7204  0.7188 -0.8767
13095TIP3   OH239241   8.335   5.700   1.773  0.0663  0.0632 -0.5540
13095TIP3    H139242   8.311   5.661   1.857 -0.5614  2.8542  0.6379
13095TIP3    H239243   8.381   5.631   1.726 -0.9388 -2.0403  1.4549
13096TIP3   OH239244   0.863   5.952   6.384  0.3073  0.5765  0.1736
13096TIP3    H139245   0.841   5.866   6.420  0.3723 -0.4572 -2.2032
13096TIP3    H239246   0.800   6.011   6.425 -0.4419 -0.7701  1.0127
13097TIP3   OH239247   2.005   5.188   0.659 -0.1266 -0.0110 -0.4909
13097TIP3    H139248   1.965   5.187   0.572  0.7148  0.4371 -0.8953
13097TIP3    H239249   2.012   5.281   0.681  1.1960 -0.0587 -0.6752
13098TIP3   OH239250   0.230   3.011   0.454 -0.0885 -0.4712 -0.0348
13098TIP3    H139251   0.202   2.979   0.368  1.1516 -0.0879 -0.5903
13098TIP3    H239252   0.291   2.944   0.486  0.8954  0.2838 -0.2861
13099TIP3   OH239253   6.843   1.089   3.703 -0.6125  0.4777 -0.0935
13099TIP3    H139254   6.764   1.112   3.655  0.7465  1.3336 -1.9826
13099TIP3    H239255   6.890   1.171   3.715 -0.6387  0.1952  2.2524
13100TIP3   OH239256   3.093   7.864   6.006  0.1312  0.6988  0.1608
13100TIP3    H139257   3.131   7.781   6.035  0.1268  1.5501  2.7189
13100TIP3    H239258   3.063   7.906   6.086 -3.1271  1.5943 -1.4414
13101TIP3   OH239259   1.116   3.230   0.341 -0.3781  0.2377  0.4911
13101TIP3    H139260   1.087   3.163   0.402  0.0909 -0.0133  0.4432
13101TIP3    H239261   1.206   3.249   0.368 -0.0688 -0.0839 -0.3019
13102TIP3   OH239262   3.956   6.453   6.845  0.1518 -0.5736  0.0132
13102TIP3    H139263   3.901   6.480   6.772 -0.5731 -1.4507  0.2246
13102TIP3    H239264   3.952   6.525   6.907  0.3714 -0.0362 -0.5939
13103TIP3   OH239265   1.177   6.994   5.172 -0.2051  0.3467 -0.2264
13103TIP3    H139266   1.183   6.967   5.264  2.0165 -0.4720 -0.5619
13103TIP3    H239267   1.225   7.076   5.167 -1.8070  1.2950 -0.3525
13104TIP3   OH239268   1.045   2.992   6.811  0.1441  0.0532 -0.1724
13104TIP3    H139269   1.035   2.948   6.895 -1.0175  0.7860  0.0799
13104TIP3    H239270   1.014   3.081   6.826 -1.3878 -0.1925 -1.7323
13105TIP3   OH239271   3.598   7.694   4.709 -0.9043 -0.0318  1.0128
13105TIP3    H139272   3.625   7.615   4.757  0.2737  1.5417  2.9940
13105TIP3    H239273   3.518   7.722   4.753 -0.1746  1.0514  1.6773
13106TIP3   OH239274   7.857   2.044   4.549  0.1482  0.3864  0.1873
13106TIP3    H139275   7.937   2.070   4.596 -0.2146 -0.1329  1.0958
13106TIP3    H239276   7.835   1.958   4.584 -0.8353  0.5396 -0.0400
13107TIP3   OH239277   4.506   6.169   4.352 -0.0515 -0.7705 -0.3195
13107TIP3    H139278   4.476   6.078   4.346  0.3450 -1.0123  1.0479
13107TIP3    H239279   4.429   6.217   4.384  0.0794 -0.8390  0.1062
13108TIP3   OH239280   2.233   4.886  -0.012 -0.8302  0.4550 -0.3991
13108TIP3    H139281   2.317   4.841  -0.015 -0.0323  1.8438  0.5358
13108TIP3    H239282   2.243   4.951   0.057 -2.7502  0.4925 -0.1237
13109TIP3   OH239283   8.301   0.244   4.410  0.1957 -0.3713 -0.6032
13109TIP3    H139284   8.327   0.279   4.325  0.5544 -1.0380 -0.7731
13109TIP3    H239285   8.222   0.192   4.390 -0.6359  0.7378 -0.2727
13110TIP3   OH239286   1.892   4.758   0.585 -0.6818  0.1391  0.0085
13110TIP3    H139287   1.880   4.787   0.676 -0.0223  0.8388 -0.1229
13110TIP3    H239288   1.900   4.663   0.591 -1.3792  0.1125  0.6053
13111TIP3   OH239289   7.243   5.583   0.138  0.0969 -0.1081  0.1826
13111TIP3    H139290   7.220   5.552   0.225  0.4745 -2.1212 -0.4181
13111TIP3    H239291   7.324   5.634   0.151 -0.5417  0.6753  1.1694
13112TIP3   OH239292   5.634   7.011   5.784  0.3457  0.3281 -0.7073
13112TIP3    H139293   5.567   6.961   5.738  0.8381  0.4877 -1.6085
13112TIP3    H239294   5.716   6.966   5.764  0.2839 -1.2136  2.2257
13113TIP3   OH239295   3.904   3.261   0.830  0.0399  0.0309 -0.5344
13113TIP3    H139296   3.838   3.221   0.774  0.8169  0.4582 -1.7697
13113TIP3    H239297   3.940   3.187   0.880  0.0505 -0.5235 -1.3458
13114TIP3   OH239298   5.351   7.581   5.498  0.7937  0.4205  0.0517
13114TIP3    H139299   5.273   7.626   5.464  0.5281  0.4231  0.6518
13114TIP3    H239300   5.410   7.575   5.423  1.1050  2.3680  0.0894
13115TIP3   OH239301   3.957   6.507   5.502  0.4130  0.2684  0.3133
13115TIP3    H139302   3.911   6.438   5.455  1.3970  0.0255 -0.3174
13115TIP3    H239303   4.048   6.499   5.474  0.7965  0.9168  1.3163
13116TIP3   OH239304   4.688   7.799   5.729  0.3500  0.1664  0.1200
13116TIP3    H139305   4.681   7.734   5.799 -0.9748  0.8419  0.6371
13116TIP3    H239306   4.747   7.759   5.665  0.3673 -1.1020  0.9041
13117TIP3   OH239307   2.721   7.468   5.382  0.2297  0.7790  0.1730
13117TIP3    H139308   2.812   7.471   5.353  0.6697 -2.4750  1.0733
13117TIP3    H239309   2.724   7.497   5.473  0.4380  0.1997  0.3512
13118TIP3   OH239310   0.424   4.228   0.661  0.4517 -0.5554 -0.7798
13118TIP3    H139311   0.340   4.226   0.615  1.3291  1.3129 -2.6047
13118TIP3    H239312   0.442   4.137   0.683 -1.0882 -1.2245 -2.1891
13119TIP3   OH239313   6.903   7.906   6.055  0.3058  0.2783 -0.6787
13119TIP3    H139314   6.850   7.919   5.977  1.6335 -0.5655 -1.7454
13119TIP3    H239315   6.991   7.933   6.030  1.0403 -1.3073  0.0585
13120TIP3   OH239316   6.757   7.367   4.043 -0.1625  0.3501 -0.5786
13120TIP3    H139317   6.851   7.382   4.032 -0.3567  0.4030 -2.1981
13120TIP3    H239318   6.718   7.390   3.959 -1.6305  0.2879  0.0650
13121TIP3   OH239319   2.684   7.676   3.846 -0.2531  0.5164  0.4513
13121TIP3    H139320   2.637   7.606   3.891  1.2290 -0.7798  0.0604
13121TIP3    H239321   2.617   7.739   3.821 -1.8132 -1.3692 -0.2497
13122TIP3   OH239322   4.528   7.980   6.226  0.1904 -0.2903  0.5152
13122TIP3    H139323   4.580   7.899   6.227 -0.6519 -0.8278  0.7081
13122TIP3    H239324   4.460   7.964   6.161 -0.4402 -0.0170  1.1063
13123TIP3   OH239325   6.517   0.224   4.527 -0.0062 -0.3270  0.0549
13123TIP3    H139326   6.588   0.287   4.540 -0.4268  0.1139  0.2196
13123TIP3    H239327   6.509   0.180   4.612 -0.7886  0.5180  0.4265
13124TIP3   OH239328   4.962   1.083   3.807 -0.0580 -0.2096  0.2644
13124TIP3    H139329   5.026   1.056   3.872  0.3437 -2.4490 -1.0124
13124TIP3    H239330   4.934   1.002   3.765 -0.5732  1.1395 -2.1020
13125TIP3   OH239331   3.157   7.643   6.504  0.1547 -0.5659 -0.0226
13125TIP3    H139332   3.094   7.660   6.434 -0.8860  0.2397  1.0885
13125TIP3    H239333   3.164   7.548   6.508  2.6260 -0.6334 -3.3107
13126TIP3   OH239334   0.002   2.523   0.213  0.0628 -0.4902  0.2002
13126TIP3    H139335  -0.009   2.465   0.289  0.2440 -0.1160  0.5116
13126TIP3    H239336   0.091   2.505   0.182 -0.2901 -1.2083 -0.3931
13127TIP3   OH239337   6.737   1.250   3.960 -0.7702  0.3206  0.4885
13127TIP3    H139338   6.675   1.188   3.999 -1.0278 -0.8466 -1.6955
13127TIP3    H239339   6.696   1.275   3.877  1.4629 -0.1500 -0.7879
13128TIP3   OH239340   5.284   7.081   6.437  0.2116 -0.4088 -0.6407
13128TIP3    H139341   5.325   7.030   6.507 -2.9813 -3.0158 -0.5278
13128TIP3    H239342   5.310   7.171   6.454  2.3201 -1.4411  1.8696
13129TIP3   OH239343   4.585   7.364   5.978  0.3780 -0.2762  0.1097
13129TIP3    H139344   4.512   7.301   5.980 -0.1506  0.3499  3.4736
13129TIP3    H239345   4.661   7.313   6.005  0.5035 -0.1190  0.0498
13130TIP3   OH239346   5.192   5.120   4.683 -0.8154  0.4072 -0.4402
13130TIP3    H139347   5.110   5.090   4.723 -0.8356  1.2332  0.1563
13130TIP3    H239348   5.170   5.133   4.591 -1.1642 -0.0789 -0.4310
13131TIP3   OH239349   4.689   0.206   5.444  0.5520 -0.1780 -0.6855
13131TIP3    H139350   4.717   0.291   5.411  1.8694 -1.0110 -1.7949
13131TIP3    H239351   4.633   0.170   5.375  0.8760 -0.6681 -0.6985
13132TIP3   OH239352   6.135   1.362   5.173 -0.4969 -0.1713  0.7752
13132TIP3    H139353   6.045   1.393   5.163 -0.0403  0.9626  0.2063
13132TIP3    H239354   6.175   1.423   5.234 -0.3150 -1.1148  1.6145
13133TIP3   OH239355   7.699   0.912   5.853 -0.1145  0.0156  0.1813
13133TIP3    H139356   7.723   0.992   5.900 -0.7974 -0.1190  0.7628
13133TIP3    H239357   7.774   0.854   5.865  1.1273  1.1525 -1.6576
13134TIP3   OH239358   4.513   7.714   6.652 -0.0182 -0.3001 -0.1566
13134TIP3    H139359   4.432   7.720   6.703  0.2372  0.5375  0.1672
13134TIP3    H239360   4.488   7.739   6.564  0.1308  1.2699  0.2232
13135TIP3   OH239361   4.332   7.503   3.246  0.3648  0.2711 -0.3457
13135TIP3    H139362   4.352   7.432   3.308 -1.2349  0.6036  0.5606
13135TIP3    H239363   4.400   7.569   3.263  1.5381 -0.7882 -0.8165
13136TIP3   OH239364   4.197   7.222   5.653 -0.2674  0.0324 -0.1753
13136TIP3    H139365   4.154   7.214   5.738  1.2337 -4.2463  0.3095
13136TIP3    H239366   4.133   7.189   5.590 -0.8733  1.9248 -0.5808
13137TIP3   OH239367   7.777   1.096   6.057 -0.0110  0.0757 -0.0514
13137TIP3    H139368   7.845   1.142   6.105 -0.4892  0.7355  0.0068
13137TIP3    H239369   7.772   1.010   6.098 -0.3375  0.5989  1.0068
13138TIP3   OH239370   3.325   5.251   6.298  0.2902  0.4455 -0.1943
13138TIP3    H139371   3.241   5.290   6.319  0.1140  0.1227 -0.2915
13138TIP3    H239372   3.341   5.274   6.206 -0.5950 -1.0955 -0.7587
13139TIP3   OH239373   2.949   7.020   6.816  0.3586  0.5046 -0.1764
13139TIP3    H139374   2.971   7.103   6.859 -0.1057 -0.1789  1.3894
13139TIP3    H239375   3.031   6.971   6.816  0.7639  1.1527 -1.5752
13140TIP3   OH239376   8.372   0.971   5.715  0.7959 -0.5190  0.1587
13140TIP3    H139377   8.323   0.913   5.773  2.0111 -0.8343  0.8782
13140TIP3    H239378   8.460   0.974   5.752  0.9219  1.2905 -0.2175
13141TIP3   OH239379   2.206   0.543   6.264 -0.1789 -0.3711  0.0750
13141TIP3    H139380   2.251   0.478   6.209  2.8014  0.8024  1.0275
13141TIP3    H239381   2.250   0.536   6.349 -0.5905  2.0942  0.5085
13142TIP3   OH239382   0.279   0.357   4.666 -0.0634  0.0159  0.0617
13142TIP3    H139383   0.194   0.364   4.710  1.8490  0.2863  3.9049
13142TIP3    H239384   0.292   0.442   4.625 -1.6699 -0.0532 -0.6341
13143TIP3   OH239385   0.176   0.411   5.030  0.1256  0.3379  0.1825
13143TIP3    H139386   0.231   0.440   4.956 -0.5204  0.0589 -0.4087
13143TIP3    H239387   0.208   0.323   5.050 -0.3482  0.0301 -0.4031
13144TIP3   OH239388   7.242   0.154   5.901  0.0226  0.2691  0.0599
13144TIP3    H139389   7.272   0.066   5.878 -0.6082 -0.0023  0.2660
13144TIP3    H239390   7.321   0.208   5.898  0.0442  0.1996 -2.4434
13145TIP3   OH239391   6.114   0.054   6.313 -0.5894 -0.2208  0.7155
13145TIP3    H139392   6.126  -0.013   6.381  1.0440 -0.2838  0.3872
13145TIP3    H239393   6.089   0.133   6.361 -1.6981 -0.8415  1.1830
13146TIP3   OH239394   0.424   1.396   4.639 -0.3927 -0.2467  0.0937
13146TIP3    H139395   0.330   1.381   4.652 -0.5930  1.3497  0.6164
13146TIP3    H239396   0.450   1.331   4.574 -2.4228  0.9971 -2.0397
13147TIP3   OH239397   6.337   7.789   2.725  0.0521 -0.9982  0.2292
13147TIP3    H139398   6.295   7.741   2.654 -0.7488  0.8647 -0.5760
13147TIP3    H239399   6.265   7.831   2.772  0.9439  1.7607 -0.8177
13148TIP3   OH239400   3.993   5.263   0.957 -0.1743 -0.1571  0.1091
13148TIP3    H139401   4.069   5.305   0.917 -1.0017  0.8364 -0.4298
13148TIP3    H239402   3.997   5.289   1.049  0.2734 -0.3094  0.1350
13149TIP3   OH239403   0.733   0.287   5.248 -0.0094 -0.7808  0.6188
13149TIP3    H139404   0.698   0.374   5.270  0.7937 -0.2902  0.0104
13149TIP3    H239405   0.657   0.229   5.251 -0.6347  0.0244  0.6048
13150TIP3   OH239406   8.092   2.775   5.609 -0.8373 -0.0184 -0.3049
13150TIP3    H139407   8.154   2.805   5.675  0.2934  1.4270 -2.0068
13150TIP3    H239408   8.146   2.738   5.540 -2.0548 -2.2276 -0.1312
13151TIP3   OH239409   1.189   0.291   6.386 -0.0844  0.1806 -0.4558
13151TIP3    H139410   1.111   0.325   6.430 -0.0597  0.4786 -0.6434
13151TIP3    H239411   1.164   0.203   6.358  0.2719 -0.4621  1.1669
13152TIP3   OH239412   5.035   6.545   6.367 -0.6713  0.5599  0.7650
13152TIP3    H139413   5.002   6.575   6.282  0.2243 -0.4411  0.0531
13152TIP3    H239414   4.964   6.489   6.401 -0.5598  0.0277  0.1410
13153TIP3   OH239415   5.594   7.495   5.628 -0.2217  0.0769 -0.9319
13153TIP3    H139416   5.591   7.412   5.676 -0.8719  0.8339  0.3909
13153TIP3    H239417   5.510   7.500   5.583 -1.1648  1.0926  0.8951
13154TIP3   OH239418   2.375   1.069   6.379  0.4128  0.8379 -0.0033
13154TIP3    H139419   2.407   0.987   6.415 -1.0772  0.3750  0.3014
13154TIP3    H239420   2.419   1.078   6.295  1.1899  0.1260  0.3269
13155TIP3   OH239421   1.285   0.916   5.105  0.2790 -0.3791  0.1866
13155TIP3    H139422   1.370   0.947   5.137 -0.8259  0.9515  1.8964
13155TIP3    H239423   1.239   0.889   5.184 -1.4633  0.3233 -0.5753
13156TIP3   OH239424   1.430   3.163   3.325 -0.0299  0.1264  0.2899
13156TIP3    H139425   1.392   3.215   3.254  1.3555  1.8630  0.7871
13156TIP3    H239426   1.524   3.168   3.310  0.3725  1.7345  3.0378
13157TIP3   OH239427   8.032   7.346   6.731 -0.2001  0.0353  0.4000
13157TIP3    H139428   8.043   7.257   6.764  0.2215 -0.1974 -0.3533
13157TIP3    H239429   7.969   7.338   6.660  0.8857  0.1025 -0.5922
13158TIP3   OH239430   1.010   0.389   6.100  0.3913  0.2036 -0.1413
13158TIP3    H139431   1.071   0.417   6.032 -2.7106  1.4880 -2.4468
13158TIP3    H239432   1.005   0.464   6.160  0.7824  0.2333 -0.1446
13159TIP3   OH239433   8.293   0.669   4.621  0.5861  0.1772 -0.2826
13159TIP3    H139434   8.225   0.733   4.645  1.0470  0.8803 -0.8545
13159TIP3    H239435   8.248   0.585   4.628 -0.3977  0.6429 -0.7943
13160TIP3   OH239436   3.615   7.189   5.266 -0.3444 -0.1110  0.0854
13160TIP3    H139437   3.671   7.117   5.239  1.5315  1.3071  0.0908
13160TIP3    H239438   3.575   7.220   5.185 -0.1220 -0.3074 -0.1005
13161TIP3   OH239439   6.403   0.325   5.767 -0.0748  0.3938  0.2349
13161TIP3    H139440   6.318   0.363   5.791 -0.6652 -1.3098  0.8900
13161TIP3    H239441   6.457   0.338   5.844 -0.5275 -0.7912  0.7693
13162TIP3   OH239442   2.539   7.443   5.602  0.2909 -0.4812  0.3427
13162TIP3    H139443   2.493   7.527   5.596 -0.3012 -0.7547  0.9391
13162TIP3    H239444   2.543   7.412   5.512 -1.3432 -0.7884  0.3689
13163TIP3   OH239445   7.122   0.916   4.878 -0.5283 -0.6599 -0.3592
13163TIP3    H139446   7.031   0.894   4.901 -1.8964  2.2720 -2.6605
13163TIP3    H239447   7.128   1.010   4.890  1.7244 -0.5756 -1.8721
13164TIP3   OH239448   5.541   6.304   2.848 -0.3182 -0.1110  0.1147
13164TIP3    H139449   5.597   6.364   2.799 -0.3381  0.3400  0.6536
13164TIP3    H239450   5.521   6.349   2.930  1.4583 -1.7415  1.4922
13165TIP3   OH239451   7.510   1.100   4.985  0.0730 -0.5003  0.0919
13165TIP3    H139452   7.478   1.014   4.959  0.3846 -0.9020  0.9937
13165TIP3    H239453   7.433   1.145   5.020  0.5246 -1.6147  2.6428
13166TIP3   OH239454   7.885   2.105   3.294  0.2659 -0.1958  0.1246
13166TIP3    H139455   7.829   2.096   3.217  0.0716 -0.5030  0.3030
13166TIP3    H239456   7.971   2.131   3.259  0.6686 -2.0981 -0.3317
13167TIP3   OH239457   5.747   6.403   3.715 -0.3111 -0.1602  0.5229
13167TIP3    H139458   5.786   6.444   3.792 -0.0589  0.1046  0.2583
13167TIP3    H239459   5.727   6.476   3.657  1.4677 -0.5071 -0.5674
13168TIP3   OH239460   6.915   1.893   6.345  0.3461  0.8594  0.2678
13168TIP3    H139461   6.915   1.823   6.279  0.8969  1.1003  0.0152
13168TIP3    H239462   6.836   1.876   6.397  0.3246  0.2099  0.0353
13169TIP3   OH239463   1.099   0.284   4.773  0.1044 -0.3852 -0.2018
13169TIP3    H139464   1.123   0.217   4.709 -1.4270  0.9085 -2.2215
13169TIP3    H239465   1.010   0.310   4.748  0.2516  1.6060  1.1869
13170TIP3   OH239466   4.415   4.120   0.371 -0.7052 -0.3323  0.0904
13170TIP3    H139467   4.424   4.170   0.290 -1.0969  0.4252  0.5104
13170TIP3    H239468   4.335   4.154   0.412  1.0957  1.4509  2.2817
13171TIP3   OH239469   4.764   2.749   1.483 -0.1006 -0.3164  0.8756
13171TIP3    H139470   4.724   2.830   1.515  2.2482  0.7200  1.2980
13171TIP3    H239471   4.798   2.772   1.396  1.0508 -0.6775  1.2215
13172TIP3   OH239472   4.048   4.739   0.312 -0.1566 -0.3338 -0.1797
13172TIP3    H139473   4.022   4.704   0.397 -0.7453 -1.1421 -0.6759
13172TIP3    H239474   3.969   4.782   0.279 -0.0150 -0.2622 -0.4296
13173TIP3   OH239475   2.239   0.209   3.711 -0.0913  0.2698  0.3059
13173TIP3    H139476   2.166   0.271   3.722  0.2168  0.6226  0.3718
13173TIP3    H239477   2.205   0.126   3.744 -0.2812  0.5621  0.8491
13174TIP3   OH239478   6.861   6.060   6.236 -0.1238 -0.3054  0.2726
13174TIP3    H139479   6.894   6.009   6.163 -1.9931  1.6538 -2.0000
13174TIP3    H239480   6.925   6.130   6.248 -0.7859  0.5060 -0.8011
13175TIP3   OH239481   8.272   3.237   4.633  0.4469 -0.3585 -0.7657
13175TIP3    H139482   8.238   3.192   4.711  2.8237  0.6756  0.9473
13175TIP3    H239483   8.198   3.286   4.599 -0.4953 -0.3727  1.1955
13176TIP3   OH239484   0.353   0.930   6.250  0.2172 -0.1340 -0.4421
13176TIP3    H139485   0.429   0.880   6.222 -0.5374 -0.9716 -1.0258
13176TIP3    H239486   0.279   0.871   6.235 -0.5787  0.7935 -0.2011
13177TIP3   OH239487   6.019   7.404   4.993  0.5054  0.0642 -0.3672
13177TIP3    H139488   6.072   7.359   5.059  0.1649  0.2684  0.0469
13177TIP3    H239489   6.080   7.463   4.949  1.3534 -1.9703 -2.0327
13178TIP3   OH239490   5.327   3.157   0.160  0.3732  0.1390 -0.0125
13178TIP3    H139491   5.348   3.063   0.156 -0.5453 -0.0177 -2.6362
13178TIP3    H239492   5.298   3.178   0.071  0.2568  2.8546  0.6311
13179TIP3   OH239493   8.099   0.899   3.487  0.3814  0.0499  0.2848
13179TIP3    H139494   8.187   0.935   3.495  1.0676 -1.7267  0.9462
13179TIP3    H239495   8.102   0.846   3.407 -0.0782 -0.0298  0.3173
13180TIP3   OH239496   7.090   7.620   6.677 -0.3796  0.0675  0.1187
13180TIP3    H139497   7.102   7.714   6.690 -0.2545  0.1120 -0.3097
13180TIP3    H239498   7.091   7.583   6.765 -0.3267  0.4576  0.2805
13181TIP3   OH239499   0.386   0.562   6.201  0.0613 -0.0232  0.3101
13181TIP3    H139500   0.377   0.468   6.183  0.3726  0.1760 -0.9652
13181TIP3    H239501   0.329   0.577   6.276 -1.3246 -0.9173 -0.5261
13182TIP3   OH239502   5.878   7.220   1.747  0.3471 -0.0601  0.5045
13182TIP3    H139503   5.943   7.200   1.815 -0.1652  0.0795  1.0496
13182TIP3    H239504   5.927   7.223   1.666  1.0498  0.2142  0.9363
13183TIP3   OH239505   6.353   7.527   5.269  0.4094  0.8219 -0.4995
13183TIP3    H139506   6.427   7.568   5.315  0.3885  0.3511 -0.0429
13183TIP3    H239507   6.291   7.599   5.254  0.4712  1.0012  0.0958
13184TIP3   OH239508   7.967   0.249   5.974  0.0258 -0.2941 -0.0853
13184TIP3    H139509   7.917   0.215   5.900 -1.6984  1.3439  0.2893
13184TIP3    H239510   8.007   0.172   6.015 -0.9032 -1.4415 -1.3461
13185TIP3   OH239511   5.579   7.833   6.704 -0.0871  0.4817 -0.7440
13185TIP3    H139512   5.507   7.778   6.671 -0.4892 -0.8452  2.1653
13185TIP3    H239513   5.536   7.893   6.765  0.9246  1.5282 -1.0445
13186TIP3   OH239514   5.776   6.946   4.651  0.0868  0.1427  0.4464
13186TIP3    H139515   5.741   7.035   4.643  0.8545  0.3072 -1.2292
13186TIP3    H239516   5.869   6.954   4.630  0.2084 -1.0298  0.4819
13187TIP3   OH239517   4.146   6.737   4.705 -0.1422 -0.4362  0.0933
13187TIP3    H139518   4.107   6.781   4.780  1.1384  0.7053  0.1067
13187TIP3    H239519   4.203   6.671   4.743  1.0812  0.6415  0.1475
13188TIP3   OH239520   5.878   1.887   3.221  0.6591  0.3422 -0.1858
13188TIP3    H139521   5.871   1.793   3.204 -0.3618  0.2835  0.4735
13188TIP3    H239522   5.944   1.919   3.159 -0.4837 -0.4531 -1.8501
13189TIP3   OH239523   7.215   2.198   4.294  0.3406 -0.1323  0.3309
13189TIP3    H139524   7.250   2.124   4.345 -0.0864  0.6492  1.7892
13189TIP3    H239525   7.222   2.273   4.353  0.5164  0.9581 -1.0401
13190TIP3   OH239526   3.857   7.158   5.738 -0.1286  0.3318 -0.5223
13190TIP3    H139527   3.871   7.230   5.800  2.2525  0.1315 -0.7629
13190TIP3    H239528   3.843   7.081   5.794  0.7187  0.3843 -0.2298
13191TIP3   OH239529   5.920   7.544   4.562  0.0889 -0.1978  0.3367
13191TIP3    H139530   5.946   7.459   4.526 -1.4617 -0.4915 -0.1338
13191TIP3    H239531   5.875   7.587   4.489 -0.5449  0.3659  1.0623
13192TIP3   OH239532   5.641   6.805   4.180 -0.2583 -0.0404 -0.2247
13192TIP3    H139533   5.624   6.772   4.092  0.2943  0.2350 -0.4354
13192TIP3    H239534   5.583   6.880   4.189 -0.9552 -0.6012 -0.0280
13193TIP3   OH239535   1.795   0.314   4.604 -0.2217 -0.7013  0.3065
13193TIP3    H139536   1.834   0.305   4.517 -0.8109 -0.9734  0.0712
13193TIP3    H239537   1.802   0.227   4.643  1.4242 -0.2233  1.1207
13194TIP3   OH239538   3.789   6.726   5.044 -0.2650 -0.0455  0.4796
13194TIP3    H139539   3.723   6.691   5.104 -0.6895 -0.3937 -0.1843
13194TIP3    H239540   3.816   6.651   4.992  0.0418  0.2722  0.1797
13195TIP3   OH239541   0.310   0.938   5.684  0.2223 -0.5329  0.3077
13195TIP3    H139542   0.357   0.869   5.731  2.5015  1.7941  1.5961
13195TIP3    H239543   0.249   0.974   5.749  0.0225 -0.4045  0.0497
13196TIP3   OH239544   7.208   0.917   5.773  0.3297  0.0601 -0.1429
13196TIP3    H139545   7.117   0.943   5.787  0.1742 -1.1918  1.2551
13196TIP3    H239546   7.219   0.921   5.678 -0.5722  2.1893 -0.1944
13197TIP3   OH239547   6.327   7.953   4.513  0.3624  0.3286  0.7165
13197TIP3    H139548   6.305   8.046   4.507  3.4234  1.1088  0.2641
13197TIP3    H239549   6.415   7.947   4.475 -0.7197 -3.1677 -1.5175
13198TIP3   OH239550   5.145   7.675   5.344  0.0328 -0.2468 -0.1086
13198TIP3    H139551   5.151   7.628   5.261 -1.8265 -0.0019 -0.4236
13198TIP3    H239552   5.159   7.767   5.320 -1.7196 -0.0295 -0.3714
13199TIP3   OH239553   8.056   1.658   5.666  0.1169  0.0187 -0.1593
13199TIP3    H139554   8.089   1.571   5.691  2.7510  1.2057  0.7021
13199TIP3    H239555   8.035   1.650   5.573  0.1464 -1.6043 -0.0383
13200TIP3   OH239556   5.070   7.701   5.766 -0.0385  0.2144  0.1177
13200TIP3    H139557   5.026   7.729   5.686 -0.3121 -2.0055 -0.5302
13200TIP3    H239558   5.034   7.615   5.786  2.2537 -0.6288  0.8979
13201TIP3   OH239559   0.164   0.080   5.419 -0.4189  0.0870  0.5999
13201TIP3    H139560   0.217   0.032   5.483 -1.0040  1.6854  2.3031
13201TIP3    H239561   0.199   0.052   5.334  0.9997 -1.3323  1.6155
13202TIP3   OH239562   0.920   2.230   3.604 -0.4363  0.3556  0.1659
13202TIP3    H139563   0.839   2.208   3.558 -0.9273  1.4709  0.4640
13202TIP3    H239564   0.890   2.267   3.687  0.4246 -1.1500  1.1673
13203TIP3   OH239565   0.803   0.462   4.917  0.3428 -0.1353  0.1577
13203TIP3    H139566   0.862   0.526   4.957  2.6767 -0.3835 -2.6868
13203TIP3    H239567   0.715   0.493   4.940  1.4395  3.1538  0.2671
13204TIP3   OH239568   6.373   7.985   5.225 -0.2306  0.3380  0.2150
13204TIP3    H139569   6.451   8.019   5.269  0.4795  0.3306 -1.0320
13204TIP3    H239570   6.309   7.975   5.296  0.0504  2.7383  0.8552
13205TIP3   OH239571   0.060   0.782   2.261  0.0776  0.0716  0.2347
13205TIP3    H139572   0.126   0.810   2.197  0.3774  1.2852  1.0650
13205TIP3    H239573   0.098   0.804   2.346 -0.7987 -0.5139  0.7824
13206TIP3   OH239574   0.823   0.383   4.410  0.1498  0.2797  0.1845
13206TIP3    H139575   0.803   0.358   4.500  0.1405  1.3223  0.4816
13206TIP3    H239576   0.827   0.300   4.362  1.2222 -0.3634  1.3566
13207TIP3   OH239577   3.827   7.815   3.293 -0.2261  0.2532 -0.2691
13207TIP3    H139578   3.830   7.830   3.198  0.1068 -0.8940 -0.4526
13207TIP3    H239579   3.882   7.883   3.330  0.1401  0.3340 -0.9502
13208TIP3   OH239580   6.960   0.559   5.565 -0.3456  0.2142  0.1139
13208TIP3    H139581   6.870   0.528   5.573 -0.1232 -0.0511  1.6013
13208TIP3    H239582   6.966   0.633   5.625 -0.2569  1.8113 -1.8097
13209TIP3   OH239583   4.062   0.882   5.963 -0.1539 -0.2407 -0.2248
13209TIP3    H139584   4.139   0.827   5.949  0.2375  0.3621 -0.4668
13209TIP3    H239585   4.029   0.899   5.875  0.9885  1.6841 -0.3020
13210TIP3   OH239586   1.160   1.620   4.368  0.0833  0.1445  0.4831
13210TIP3    H139587   1.227   1.568   4.412 -0.0633  0.0478  0.5909
13210TIP3    H239588   1.122   1.561   4.303  0.4973  0.3753  0.0316
13211TIP3   OH239589   3.711   3.377   0.549 -0.4116 -0.2223 -0.5350
13211TIP3    H139590   3.768   3.441   0.593  0.9861 -0.1482 -2.3950
13211TIP3    H239591   3.706   3.408   0.459 -2.4513 -0.9117 -0.6912
13212TIP3   OH239592   0.239   0.534   4.176  0.2272 -0.1942  0.2291
13212TIP3    H139593   0.326   0.574   4.169  1.1847 -1.8822  1.7916
13212TIP3    H239594   0.252   0.444   4.144 -1.0800 -0.2770 -0.0789
13213TIP3   OH239595  -0.008   1.680   3.964 -0.6142  0.4438 -0.4838
13213TIP3    H139596   0.083   1.660   3.946 -0.5134 -0.8319  1.3278
13213TIP3    H239597  -0.058   1.612   3.918 -0.5452 -0.1642  0.3276
13214TIP3   OH239598   4.732   7.169   1.996 -0.0656 -0.3446 -0.3048
13214TIP3    H139599   4.775   7.163   1.910  1.4609 -0.3872  0.4562
13214TIP3    H239600   4.784   7.113   2.053  0.0004  1.1288  1.1037
13215TIP3   OH239601   0.808   0.326   4.689 -0.4122  0.4555  0.0963
13215TIP3    H139602   0.805   0.378   4.769  1.5277 -0.4032  0.7843
13215TIP3    H239603   0.734   0.266   4.696 -0.8819  1.1153  0.7429
13216TIP3   OH239604   4.758   7.076   6.223 -0.1670 -0.4653 -0.2454
13216TIP3    H139605   4.742   7.169   6.207 -2.1266  0.1688  4.4676
13216TIP3    H239606   4.830   7.074   6.286 -0.0589 -2.1472 -0.3900
13217TIP3   OH239607   1.511   2.439   0.375 -0.0282  0.7528  0.1336
13217TIP3    H139608   1.573   2.491   0.324 -2.8036  2.7490 -1.4116
13217TIP3    H239609   1.431   2.438   0.321 -1.1048 -2.3728  1.6556
13218TIP3   OH239610   1.832   0.643   6.443 -0.1702 -0.4133 -0.1820
13218TIP3    H139611   1.923   0.672   6.446 -0.4794  0.4668  1.2808
13218TIP3    H239612   1.838   0.547   6.443  0.7981 -0.3796 -2.5234
13219TIP3   OH239613   0.666   0.887   5.315 -0.3203  0.2742  0.3957
13219TIP3    H139614   0.759   0.904   5.302 -0.7592  2.8472  0.2325
13219TIP3    H239615   0.634   0.965   5.360 -2.5867 -0.1446 -0.4197
13220TIP3   OH239616   3.103   7.442   4.289 -0.3850 -0.4846 -0.6349
13220TIP3    H139617   3.013   7.412   4.275 -0.7245 -0.5798  1.5618
13220TIP3    H239618   3.133   7.392   4.365  1.2647  0.0895 -0.8983
13221TIP3   OH239619   2.005   0.685   4.576  0.2015  0.5432 -0.0873
13221TIP3    H139620   1.912   0.676   4.595  0.0708  1.5727 -0.1853
13221TIP3    H239621   2.018   0.638   4.494  0.0534 -0.8179  0.6500
13222TIP3   OH239622   8.153   0.231   4.867  0.1648  0.2708  0.3752
13222TIP3    H139623   8.196   0.154   4.830 -1.1489  0.7481 -2.2534
13222TIP3    H239624   8.166   0.299   4.801 -0.1672  1.8197  1.8920
13223TIP3   OH239625   7.629   0.841   3.457  0.3869  0.1088  0.5506
13223TIP3    H139626   7.534   0.841   3.466  0.3513  0.4056  0.1968
13223TIP3    H239627   7.655   0.751   3.476  0.2596  0.5277  2.8144
13224TIP3   OH239628   1.963   1.670   0.414  0.3394 -0.4361  0.0233
13224TIP3    H139629   1.926   1.707   0.494  0.9854 -0.8565  0.5191
13224TIP3    H239630   1.935   1.731   0.345 -0.2646 -0.1019  0.5517
13225TIP3   OH239631   2.497   5.244   0.185  0.3477 -0.1526 -0.0379
13225TIP3    H139632   2.533   5.248   0.274  1.6647 -0.1769 -0.5641
13225TIP3    H239633   2.540   5.316   0.138 -0.3004 -0.1741 -0.6827
13226TIP3   OH239634   0.328   1.833   3.823  0.3718 -0.2723  0.2311
13226TIP3    H139635   0.326   1.826   3.918  0.8443  0.5408  0.3100
13226TIP3    H239636   0.249   1.883   3.801  2.0349  2.6191  0.5151
13227TIP3   OH239637   5.142   7.726   4.552  0.6262  0.2592  0.3336
13227TIP3    H139638   5.119   7.673   4.476 -0.9118 -0.6814  1.4304
13227TIP3    H239639   5.077   7.795   4.554 -0.2557 -0.5778  1.6230
13228TIP3   OH239640   6.864   7.725   6.866 -0.0379  0.2698  0.3162
13228TIP3    H139641   6.799   7.776   6.819  0.1551  0.3456  0.1310
13228TIP3    H239642   6.852   7.635   6.834 -0.3198  0.2158  0.5795
13229TIP3   OH239643   3.066   7.647   4.086 -0.0932 -0.2317 -0.4849
13229TIP3    H139644   3.093   7.575   4.142 -1.2717  1.9729  3.1000
13229TIP3    H239645   3.000   7.609   4.027 -0.9578 -2.0179  1.5803
13230TIP3   OH239646   4.914   6.813   5.569  0.3161  0.1184  0.0591
13230TIP3    H139647   4.990   6.823   5.627  0.5679 -1.0303 -0.0611
13230TIP3    H239648   4.846   6.866   5.609  0.6156 -0.3456  1.1974
13231TIP3   OH239649   7.103   2.199   3.323  0.2169 -0.5837 -0.1655
13231TIP3    H139650   7.024   2.253   3.326  1.0205  0.5751  0.3700
13231TIP3    H239651   7.170   2.252   3.365  0.5558 -2.7434  2.1704
13232TIP3   OH239652   2.867   0.590   4.275 -0.0058  0.3482  0.0729
13232TIP3    H139653   2.807   0.663   4.263  0.5879  0.6904 -0.8263
13232TIP3    H239654   2.810   0.514   4.289 -0.6113  1.0919  1.6910
13233TIP3   OH239655   1.530   1.042   5.205  0.3634 -0.2255 -0.3295
13233TIP3    H139656   1.485   1.118   5.168 -1.4135 -0.2923  1.5567
13233TIP3    H239657   1.622   1.068   5.210  0.2288  0.7158 -2.3532
13234TIP3   OH239658   6.174   4.368   5.605 -0.5076 -0.2884 -0.2922
13234TIP3    H139659   6.161   4.463   5.612  2.6662  0.1115  0.8735
13234TIP3    H239660   6.208   4.356   5.517 -2.3984 -0.5615 -1.0050
13235TIP3   OH239661   0.273   1.275   5.374  0.2717  0.0530  0.0510
13235TIP3    H139662   0.302   1.350   5.322 -2.6209  1.8145  0.8859
13235TIP3    H239663   0.211   1.228   5.317  1.7720 -1.5433 -0.3258
13236TIP3   OH239664   2.904   3.587   0.362 -0.0577  0.2447  0.0457
13236TIP3    H139665   2.898   3.512   0.421 -1.3036  0.4807  0.2324
13236TIP3    H239666   2.853   3.561   0.285  1.7366 -0.1510 -1.0422
13237TIP3   OH239667   5.129   7.706   6.936 -0.1988 -0.2765 -0.6460
13237TIP3    H139668   5.167   7.678   6.853 -1.7381 -0.9589 -1.1403
13237TIP3    H239669   5.115   7.800   6.925 -1.8453 -0.6260 -1.7733
13238TIP3   OH239670   0.607   0.556   6.774 -0.2188  0.2047 -0.7155
13238TIP3    H139671   0.659   0.602   6.841 -0.8213  0.3989 -0.3833
13238TIP3    H239672   0.540   0.509   6.824 -0.2198 -0.2326 -1.1316
13239TIP3   OH239673   1.754   2.571   1.516 -0.1848 -0.4185 -0.3841
13239TIP3    H139674   1.802   2.646   1.480 -0.8189  0.6440  0.9639
13239TIP3    H239675   1.820   2.503   1.525  0.1740 -0.4031 -2.6689
13240TIP3   OH239676   3.083   2.957   0.172 -0.0185  0.3389 -0.1698
13240TIP3    H139677   3.107   3.049   0.155 -0.9240  0.3782 -1.3257
13240TIP3    H239678   3.095   2.914   0.087  1.3788 -0.8405  0.6218
13241TIP3   OH239679   4.437   5.011   0.757 -0.0611 -0.1353 -0.4515
13241TIP3    H139680   4.412   5.101   0.739 -0.3708 -0.1373 -0.0404
13241TIP3    H239681   4.407   4.961   0.681 -0.3491  0.0268 -0.4435
13242TIP3   OH239682   4.769   7.932   5.076 -0.1920 -0.2370 -0.4645
13242TIP3    H139683   4.844   7.873   5.086  1.4016  1.9767  1.2462
13242TIP3    H239684   4.709   7.906   5.146 -0.6204 -1.4058 -1.2556
13243TIP3   OH239685   0.150   1.840   5.407  0.1621 -0.0671  0.2518
13243TIP3    H139686   0.131   1.906   5.474  1.6861 -0.2814  0.9018
13243TIP3    H239687   0.116   1.758   5.442 -2.5280  0.4737 -0.9292
13244TIP3   OH239688   6.522   7.186   2.565 -0.1481  0.2744 -0.2363
13244TIP3    H139689   6.565   7.185   2.651  1.2961  3.4928 -0.8265
13244TIP3    H239690   6.490   7.276   2.556 -2.1656 -0.6082 -2.1986
13245TIP3   OH239691   1.092   0.102   3.090  0.0890  0.7576  0.0167
13245TIP3    H139692   1.188   0.108   3.087  0.1026  0.4358 -0.1709
13245TIP3    H239693   1.073   0.079   3.181  0.1601  1.3440  0.1854
13246TIP3   OH239694   0.757   1.454   4.135  0.5857  0.2407 -0.2961
13246TIP3    H139695   0.809   1.528   4.166  0.9446 -0.0533 -0.1934
13246TIP3    H239696   0.713   1.487   4.057  1.3399  0.3349 -0.6867
13247TIP3   OH239697   6.286   7.806   6.059 -0.2363 -0.1468 -1.0007
13247TIP3    H139698   6.356   7.741   6.066 -0.4744 -0.1855  1.3161
13247TIP3    H239699   6.208   7.755   6.039 -0.2678 -0.4838 -0.0113
13248TIP3   OH239700   5.218   7.941   3.884  0.1888 -0.3185  0.0869
13248TIP3    H139701   5.304   7.983   3.878 -0.3823  1.0137  1.0066
13248TIP3    H239702   5.201   7.934   3.978 -0.2956 -1.4502 -0.0743
13249TIP3   OH239703   7.352   7.971   3.540  0.3594 -0.3651  0.0059
13249TIP3    H139704   7.284   8.007   3.597  0.6706  1.3126 -0.6754
13249TIP3    H239705   7.386   7.896   3.589  0.0095  0.5164  1.6346
13250TIP3   OH239706   0.412   1.213   3.911  0.0289 -0.0953 -0.1126
13250TIP3    H139707   0.463   1.196   3.990  0.3068  0.0113 -0.2679
13250TIP3    H239708   0.321   1.196   3.936  0.4748 -4.2214 -0.8637
13251TIP3   OH239709   7.626   6.591   5.961 -0.1313 -0.0968  0.1687
13251TIP3    H139710   7.629   6.501   5.995  0.2826  0.3075  1.2252
13251TIP3    H239711   7.560   6.589   5.892 -1.6731 -0.7314  1.6313
13252TIP3   OH239712   1.254   1.182   6.134  0.4569 -0.1442 -0.0771
13252TIP3    H139713   1.259   1.093   6.098 -0.0670 -0.0860 -0.2938
13252TIP3    H239714   1.268   1.239   6.059 -3.5705  0.0358 -0.7723
13253TIP3   OH239715   0.572   0.495   5.704  0.0420 -0.8088 -0.4897
13253TIP3    H139716   0.636   0.533   5.764  0.2989 -0.6698 -0.8439
13253TIP3    H239717   0.558   0.564   5.638 -1.4231 -0.3629  0.2837
13254TIP3   OH239718   4.499   7.444   5.440 -0.1815  0.0303  0.2913
13254TIP3    H139719   4.477   7.431   5.532 -1.8147  1.3566  0.1125
13254TIP3    H239720   4.432   7.397   5.392  1.3440 -1.6613 -0.2484
13255TIP3   OH239721   5.833   0.733   4.598  0.0268 -0.0913  0.1508
13255TIP3    H139722   5.924   0.718   4.571 -0.1194  2.0876 -1.6257
13255TIP3    H239723   5.840   0.769   4.687  1.0320  2.0724 -0.7773
13256TIP3   OH239724   5.028   6.538   4.409  0.0822 -0.0295  0.1310
13256TIP3    H139725   5.094   6.524   4.342 -1.7960  0.4957 -1.8802
13256TIP3    H239726   5.073   6.520   4.491  2.7576  0.4824 -1.1763
13257TIP3   OH239727   4.971   7.821   3.057  0.2432  0.7756 -0.2648
13257TIP3    H139728   5.015   7.868   3.128 -1.4335  1.9110  0.0491
13257TIP3    H239729   4.951   7.735   3.094  0.3847  0.9664  0.2647
13258TIP3   OH239730   6.941   0.131   5.301 -0.0792  0.5426  0.6670
13258TIP3    H139731   6.866   0.072   5.310  0.3532  0.0370  0.9521
13258TIP3    H239732   7.013   0.085   5.343  0.3644  1.0888  0.5081
13259TIP3   OH239733   5.058   5.779   0.117  0.1528  0.0963  0.4934
13259TIP3    H139734   5.146   5.770   0.152  0.1942 -0.4366  0.2616
13259TIP3    H239735   5.055   5.717   0.044 -0.3405  0.2723  0.3616
13260TIP3   OH239736   5.185   6.797   5.384  0.2834  0.7656  0.2312
13260TIP3    H139737   5.170   6.737   5.311  0.6405  3.2315 -1.9466
13260TIP3    H239738   5.173   6.884   5.346  1.1448  2.1279  2.9669
13261TIP3   OH239739   7.791   7.637   6.106 -0.6936 -0.3208 -0.2328
13261TIP3    H139740   7.753   7.720   6.077 -1.9832 -0.8965 -0.2281
13261TIP3    H239741   7.724   7.572   6.084  1.3644 -1.7274 -2.6326
13262TIP3   OH239742   2.788   1.358   6.285 -0.2717 -0.1372 -0.3828
13262TIP3    H139743   2.781   1.266   6.261  1.2993  0.7436 -4.6313
13262TIP3    H239744   2.879   1.369   6.312 -0.3648  0.2383 -0.2117
13263TIP3   OH239745   7.386   0.672   5.145  0.5289 -0.2837  0.3390
13263TIP3    H139746   7.446   0.694   5.216  0.2127 -1.4249  0.9681
13263TIP3    H239747   7.304   0.713   5.168  1.2087  1.7932 -0.8239
13264TIP3   OH239748   4.965   6.450   2.351  0.0557  0.0384  0.0161
13264TIP3    H139749   4.930   6.432   2.439 -0.3149  0.7334  0.0148
13264TIP3    H239750   5.022   6.526   2.363 -2.0382  1.7924 -0.7919
13265TIP3   OH239751   3.855   2.909   0.183  0.1759 -0.0071  0.3209
13265TIP3    H139752   3.818   2.968   0.249  0.9709 -1.0089  1.6697
13265TIP3    H239753   3.830   2.822   0.212  0.6729 -0.4740 -0.6276
13266TIP3   OH239754   5.253   7.230   4.161 -0.0810  0.0754 -0.2546
13266TIP3    H139755   5.192   7.173   4.207  1.0241 -1.3169 -0.4852
13266TIP3    H239756   5.284   7.291   4.228  1.3642 -1.8159  0.8404
13267TIP3   OH239757   5.018   7.400   5.712 -0.4902 -0.0693  0.1468
13267TIP3    H139758   4.990   7.363   5.628 -1.6308  1.2313 -0.0551
13267TIP3    H239759   5.095   7.348   5.736 -1.8895 -2.3920 -0.2418
13268TIP3   OH239760   4.295   7.315   5.290 -0.0364 -0.2914 -0.1410
13268TIP3    H139761   4.354   7.243   5.267 -1.5593 -1.7908  0.4732
13268TIP3    H239762   4.207   7.278   5.278 -0.8468  1.6972 -0.4504
13269TIP3   OH239763   7.171   6.186   4.614  0.1101  0.5277 -0.5205
13269TIP3    H139764   7.105   6.256   4.618  1.4741  1.7774  1.3601
13269TIP3    H239765   7.123   6.106   4.634 -0.6980  1.5660  1.9177
13270TIP3   OH239766   8.236   0.721   5.253 -0.2921  0.2599 -0.0153
13270TIP3    H139767   8.236   0.758   5.341  0.2731  0.4000 -0.0715
13270TIP3    H239768   8.302   0.651   5.257  1.1366  1.5445 -0.8562
13271TIP3   OH239769   1.400   0.326   6.167  0.9884  0.3221 -0.0058
13271TIP3    H139770   1.430   0.412   6.137 -0.6499  1.0249  0.2997
13271TIP3    H239771   1.322   0.346   6.219  1.0957 -1.2834  0.7752
13272TIP3   OH239772   1.980   1.521   3.258  0.3281 -0.2838 -0.0070
13272TIP3    H139773   2.032   1.553   3.333  2.1340 -0.5750 -1.1077
13272TIP3    H239774   1.952   1.601   3.213 -1.2336 -0.0854  1.2497
13273TIP3   OH239775   0.860   2.195   4.984  0.0778  0.5847  0.0905
13273TIP3    H139776   0.909   2.266   4.943 -3.3143  2.4816 -0.8635
13273TIP3    H239777   0.801   2.239   5.045 -1.5479 -1.4814  0.0477
13274TIP3   OH239778   1.873   0.873   3.555  0.0662  0.4094 -0.0283
13274TIP3    H139779   1.855   0.945   3.494  1.1193  1.2985  0.6946
13274TIP3    H239780   1.873   0.795   3.500 -0.2905  1.0515 -0.9588
13275TIP3   OH239781   1.325   2.659   2.741  0.1875 -0.2351  0.1199
13275TIP3    H139782   1.249   2.706   2.776  1.4616  1.3133  0.8594
13275TIP3    H239783   1.375   2.633   2.819 -0.2130 -2.3691 -0.2938
13276TIP3   OH239784   0.639   0.832   6.404 -0.3942 -0.1589  0.0276
13276TIP3    H139785   0.672   0.900   6.463 -1.2662  0.2592  0.0434
13276TIP3    H239786   0.663   0.749   6.446 -0.3018  0.1386  0.5634
13277TIP3   OH239787   8.472   0.657   4.836 -0.3641  0.1156 -0.2536
13277TIP3    H139788   8.479   0.564   4.858  0.0867 -0.1460 -1.5070
13277TIP3    H239789   8.408   0.661   4.765 -0.0310  0.7160 -0.5246
13278TIP3   OH239790   2.562   1.092   5.681 -0.2978  0.3564 -0.0591
13278TIP3    H139791   2.570   0.996   5.679 -1.8945  0.1553  1.5730
13278TIP3    H239792   2.629   1.121   5.742 -0.3233  0.2021  0.0427
13279TIP3   OH239793   1.010   0.018   3.374  0.3707 -0.3262  0.1527
13279TIP3    H139794   0.919   0.047   3.362 -0.0117 -1.2731  0.7144
13279TIP3    H239795   1.044   0.077   3.441  0.6948  1.1032 -1.2144
13280TIP3   OH239796   4.138   6.671   5.884  0.3399 -0.0455 -0.4340
13280TIP3    H139797   4.218   6.695   5.837  0.7070  0.9006  0.6646
13280TIP3    H239798   4.140   6.723   5.964  0.5323 -2.7729  1.4084
13281TIP3   OH239799   0.724   0.254   3.295 -0.3417 -0.3854  0.1191
13281TIP3    H139800   0.683   0.338   3.271  0.3974  0.0276  0.2729
13281TIP3    H239801   0.816   0.267   3.274 -0.2208 -1.1512  0.1968
13282TIP3   OH239802   5.328   6.190   3.316  0.8766 -0.4509  0.7709
13282TIP3    H139803   5.413   6.210   3.354  0.5789 -0.0417  1.2348
13282TIP3    H239804   5.265   6.235   3.373  0.3595 -0.6644  0.3754
13283TIP3   OH239805   0.450   0.519   3.488 -0.1418  0.1549 -0.1177
13283TIP3    H139806   0.409   0.571   3.556 -1.5447 -0.8999 -0.1316
13283TIP3    H239807   0.537   0.500   3.522 -1.9562 -3.2648  3.0219
13284TIP3   OH239808   0.527   0.759   6.098 -0.0085 -0.5710  0.4119
13284TIP3    H139809   0.477   0.684   6.131 -0.1430 -1.1375 -1.0568
13284TIP3    H239810   0.616   0.744   6.131 -0.8018  0.5735  3.2599
13285TIP3   OH239811   7.870   7.750   4.635  0.0793 -0.0205 -0.4812
13285TIP3    H139812   7.774   7.758   4.631  0.0839 -0.0689 -0.7121
13285TIP3    H239813   7.891   7.758   4.728 -0.3007 -1.8222 -0.2318
13286TIP3   OH239814   2.844   0.282   4.199  0.4351 -0.3120  0.7464
13286TIP3    H139815   2.809   0.279   4.288 -2.9133 -3.1939 -0.4963
13286TIP3    H239816   2.907   0.210   4.195 -0.6687 -1.2718  0.3577
13287TIP3   OH239817   3.672   2.121   4.998  0.5975  0.3058  0.8738
13287TIP3    H139818   3.747   2.094   4.945 -0.0554  0.5876 -0.1959
13287TIP3    H239819   3.616   2.044   5.002  0.8809  0.1286  1.5865
13288TIP3   OH239820   5.788   7.449   3.680 -0.0279 -0.2481  0.1355
13288TIP3    H139821   5.841   7.372   3.661  0.3552 -0.0802  0.5074
13288TIP3    H239822   5.809   7.471   3.771 -0.5842 -0.0598  0.2202
13289TIP3   OH239823   1.498   0.476   4.019  0.9039  0.4557  0.3227
13289TIP3    H139824   1.419   0.422   4.022  1.3284 -0.1604  0.6406
13289TIP3    H239825   1.503   0.518   4.104 -0.9460  3.2295 -0.8988
13290TIP3   OH239826   6.562   7.204   2.858  0.1046 -0.1834 -0.5681
13290TIP3    H139827   6.616   7.283   2.860 -0.7378  0.4090 -0.5804
13290TIP3    H239828   6.568   7.169   2.947  0.1418  0.1459 -0.4382
13291TIP3   OH239829   0.478   1.835   5.076 -0.7975  0.1177  0.5745
13291TIP3    H139830   0.488   1.904   5.010  0.2831 -0.0671  0.5310
13291TIP3    H239831   0.523   1.869   5.153 -0.5666 -0.3913  0.6684
13292TIP3   OH239832   6.736   7.392   2.915 -0.1306 -0.0237 -0.3604
13292TIP3    H139833   6.730   7.468   2.973  0.4102 -0.4743  0.2900
13292TIP3    H239834   6.830   7.377   2.904 -0.2065 -1.7903  1.0929
13293TIP3   OH239835   3.445   4.116   0.916  0.1003  0.2192 -0.1512
13293TIP3    H139836   3.414   4.203   0.893  0.6294  0.5369  0.3352
13293TIP3    H239837   3.376   4.081   0.973  0.1581  0.5434  0.1215
13294TIP3   OH239838   6.066   6.330   4.795 -0.8192 -0.3215  0.0016
13294TIP3    H139839   6.151   6.359   4.828 -0.9258 -0.1425  0.1208
13294TIP3    H239840   6.052   6.385   4.717 -1.0995  0.0695  0.3261
13295TIP3   OH239841   1.802   0.726   3.798  0.8440 -0.1159 -0.1250
13295TIP3    H139842   1.712   0.694   3.786  1.3148 -1.1844 -0.8969
13295TIP3    H239843   1.819   0.778   3.720  1.3699 -1.0634 -0.6549
13296TIP3   OH239844   2.617   0.444   3.175  0.2849  0.4951 -0.0637
13296TIP3    H139845   2.630   0.352   3.199  1.9485  1.2293  1.9466
13296TIP3    H239846   2.705   0.477   3.159 -0.4201  1.3415 -2.4521
13297TIP3   OH239847   5.650   7.118   1.595 -0.0610  0.4748 -0.6780
13297TIP3    H139848   5.681   7.038   1.554 -0.4897  0.6414 -1.3330
13297TIP3    H239849   5.728   7.157   1.635  0.1404 -0.2811 -0.3310
13298TIP3   OH239850   0.201   0.848   4.449 -0.1167  0.0508 -0.2463
13298TIP3    H139851   0.198   0.904   4.371 -2.4650 -0.4777 -0.5937
13298TIP3    H239852   0.182   0.907   4.521  1.3243  0.4056 -0.1474
13299TIP3   OH239853   5.850   1.941   5.287 -0.3263 -0.1768 -0.5350
13299TIP3    H139854   5.850   2.024   5.333  1.9329  0.6090 -1.8805
13299TIP3    H239855   5.786   1.952   5.217  0.0475  0.4616 -0.7760
13300TIP3   OH239856   2.831   6.077   1.774  0.3145 -0.4800 -0.5640
13300TIP3    H139857   2.871   6.134   1.839  0.5740 -0.0946 -1.0513
13300TIP3    H239858   2.877   5.993   1.783 -1.2512 -1.1604  1.3288
13301TIP3   OH239859   7.087   4.924   1.197  0.1501  0.6155 -0.2924
13301TIP3    H139860   7.078   4.846   1.142 -1.6535  1.3287 -1.0826
13301TIP3    H239861   7.106   4.994   1.134 -2.7632  1.5926 -0.1617
13302TIP3   OH239862   5.602   5.707   2.644  0.4111  0.5317 -0.2258
13302TIP3    H139863   5.566   5.624   2.676  2.6320 -0.2650  0.2694
13302TIP3    H239864   5.575   5.772   2.709 -0.5556  0.0496 -0.1383
13303TIP3   OH239865   5.449   4.535   0.730 -0.4278 -0.0772 -0.2541
13303TIP3    H139866   5.472   4.620   0.692 -0.2439  0.3252  0.7532
13303TIP3    H239867   5.353   4.535   0.730 -0.4340 -0.1476 -0.8507
13304TIP3   OH239868   8.221   7.426   0.383 -0.6057 -0.6511  0.1752
13304TIP3    H139869   8.207   7.472   0.300 -0.7233 -1.2692 -0.1440
13304TIP3    H239870   8.210   7.494   0.449 -0.5416 -0.1590 -0.3103
13305TIP3   OH239871   7.021   4.375   0.496  1.0397 -0.0599  0.3698
13305TIP3    H139872   6.930   4.405   0.496  1.3567  0.9249  0.6371
13305TIP3    H239873   7.067   4.436   0.554  1.8195 -0.7148  0.4591
13306TIP3   OH239874   7.802   5.816   1.371 -0.7842 -0.0871  0.3628
13306TIP3    H139875   7.783   5.777   1.457 -1.6860  0.7698  0.5582
13306TIP3    H239876   7.793   5.743   1.310 -0.7122 -0.5781  0.9301
13307TIP3   OH239877   8.504   7.049   1.057 -0.0326 -0.0132  0.3081
13307TIP3    H139878   8.572   6.985   1.077  0.3219  1.0280  2.5649
13307TIP3    H239879   8.422   6.999   1.066  0.3641 -0.9940 -1.3447
13308TIP3   OH239880   7.412   5.225   2.486  0.2596 -0.3107  0.1396
13308TIP3    H139881   7.356   5.286   2.436 -0.7033 -0.1851  1.3506
13308TIP3    H239882   7.487   5.278   2.513 -0.6146  0.3646  1.2618
13309TIP3   OH239883   1.615   7.307   2.617  0.1836  0.3274 -0.3146
13309TIP3    H139884   1.598   7.228   2.567  2.6923 -0.0192 -0.6944
13309TIP3    H239885   1.594   7.283   2.708  1.8606 -1.1032 -0.2813
13310TIP3   OH239886   1.839   6.423   0.892  0.3082  0.0557  0.1911
13310TIP3    H139887   1.882   6.406   0.808 -0.5747  0.4154 -0.3377
13310TIP3    H239888   1.909   6.460   0.947  0.8345  0.0374 -0.4530
13311TIP3   OH239889   7.308   5.287   3.062 -0.0803  0.1029  0.2732
13311TIP3    H139890   7.303   5.298   3.157 -0.9555  0.0660  0.2388
13311TIP3    H239891   7.400   5.301   3.040 -0.3085  2.6297  0.8066
13312TIP3   OH239892   8.232   6.924   0.955 -0.1373  0.0495 -0.0689
13312TIP3    H139893   8.188   6.902   1.036 -1.5766  0.9864 -0.5837
13312TIP3    H239894   8.163   6.926   0.889  0.8852  0.1127 -1.1589
13313TIP3   OH239895   6.731   6.349   2.544 -0.1875  0.1049 -0.4975
13313TIP3    H139896   6.680   6.430   2.547 -0.6923 -0.2800  1.8478
13313TIP3    H239897   6.814   6.370   2.585 -0.3535 -0.5731  0.2059
13314TIP3   OH239898   2.588   6.387   1.673 -0.1527  0.5004 -0.0625
13314TIP3    H139899   2.575   6.480   1.691  0.8171  0.7233 -0.4706
13314TIP3    H239900   2.575   6.379   1.578 -1.3700  0.0148  0.1353
13315TIP3   OH239901   8.153   4.974   2.649 -0.0490 -0.3164 -0.0672
13315TIP3    H139902   8.122   4.897   2.696 -0.2018 -0.8108 -0.9819
13315TIP3    H239903   8.076   5.007   2.603  0.1121  0.1411 -0.0165
13316TIP3   OH239904   1.567   6.793   2.643  0.1173 -0.1240 -0.0870
13316TIP3    H139905   1.519   6.873   2.666  0.0589  0.0875 -0.9509
13316TIP3    H239906   1.659   6.817   2.649  0.1257 -0.5386  1.5990
13317TIP3   OH239907   8.092   7.185   1.322 -0.0802  0.5410 -0.1537
13317TIP3    H139908   8.073   7.225   1.237 -1.0776  0.9701  0.2614
13317TIP3    H239909   8.075   7.254   1.386  3.0449  0.9822  0.2598
13318TIP3   OH239910   0.338   3.060   1.390  0.4725 -0.5433 -0.1000
13318TIP3    H139911   0.310   3.011   1.467 -0.2726 -0.2415 -0.1754
13318TIP3    H239912   0.430   3.034   1.377  0.6696 -0.4205  1.0164
13319TIP3   OH239913   3.265   5.121   1.074  0.9182 -0.0794 -0.6110
13319TIP3    H139914   3.304   5.141   1.159 -1.2853 -0.8236  0.6059
13319TIP3    H239915   3.235   5.206   1.041  2.0686  0.2567 -0.8075
13320TIP3   OH239916   0.107   3.933   2.253 -0.0935 -1.1767 -0.6232
13320TIP3    H139917   0.124   3.887   2.171  0.0026 -0.1330 -1.1898
13320TIP3    H239918   0.012   3.944   2.255 -0.3513 -3.4012  0.6015
13321TIP3   OH239919   7.951   4.201   0.158 -0.0566  0.0784 -0.3069
13321TIP3    H139920   7.985   4.113   0.178 -2.1013 -0.5723  0.4050
13321TIP3    H239921   7.938   4.200   0.063  0.4602 -0.1867 -0.3801
13322TIP3   OH239922   8.262   2.769   1.097  0.0062 -0.0258  0.7752
13322TIP3    H139923   8.197   2.837   1.112 -1.1276 -1.0474  0.5640
13322TIP3    H239924   8.214   2.699   1.053  1.3271 -0.6462  0.2862
13323TIP3   OH239925   0.687   6.367   3.114 -0.6088 -0.5835  0.5128
13323TIP3    H139926   0.688   6.458   3.083  0.8632 -0.5082  0.7433
13323TIP3    H239927   0.622   6.324   3.059 -0.6955  0.4168 -0.1808
13324TIP3   OH239928   7.586   5.431   1.524 -0.3762  0.7281 -0.4823
13324TIP3    H139929   7.602   5.371   1.451 -0.5767  1.3617 -1.0519
13324TIP3    H239930   7.590   5.376   1.602  4.8750  0.8488 -0.5149
13325TIP3   OH239931   0.290   6.942   3.789  0.0602 -0.1862  0.1475
13325TIP3    H139932   0.210   6.889   3.797  0.2457 -0.6908 -1.1560
13325TIP3    H239933   0.260   7.032   3.800 -0.6484 -0.3920 -0.0407
13326TIP3   OH239934   6.205   2.097   6.175  0.0140  0.3429 -1.0490
13326TIP3    H139935   6.288   2.094   6.223 -0.5734 -1.8719 -0.1185
13326TIP3    H239936   6.230   2.123   6.086  1.4703  1.5085 -0.3279
13327TIP3   OH239937   0.978   4.245   1.202  0.4924 -0.4338 -0.3968
13327TIP3    H139938   1.028   4.189   1.260  1.1967  0.2372 -0.3387
13327TIP3    H239939   1.044   4.287   1.146  0.0825  1.0285  0.1747
13328TIP3   OH239940   8.400   5.008   2.068  0.0234 -0.1639  0.3142
13328TIP3    H139941   8.367   4.966   2.148  1.4952 -1.5783  0.2030
13328TIP3    H239942   8.475   5.060   2.097  0.1397 -0.1360 -0.0293
13329TIP3   OH239943   7.631   3.998   0.467  0.6972  0.2909 -0.4244
13329TIP3    H139944   7.722   4.008   0.438  0.8017 -1.8051 -0.8868
13329TIP3    H239945   7.580   4.044   0.399  1.1780 -1.7446 -2.2261
13330TIP3   OH239946   8.314   4.174   2.934 -0.8612  0.6123  0.2196
13330TIP3    H139947   8.274   4.213   3.012 -2.0564  1.3058 -0.7146
13330TIP3    H239948   8.301   4.080   2.944  0.7587  0.5173  1.7989
13331TIP3   OH239949   6.152   4.800   1.447 -0.5321 -0.2831  0.3051
13331TIP3    H139950   6.120   4.841   1.366 -0.4039 -0.5138  0.1362
13331TIP3    H239951   6.235   4.844   1.465 -0.4168 -0.4397  0.1495
13332TIP3   OH239952   0.315   3.577   3.111 -0.1206 -0.1993 -0.1210
13332TIP3    H139953   0.322   3.611   3.200 -1.4648  0.6583 -0.3252
13332TIP3    H239954   0.403   3.548   3.089  0.6030  1.2424  0.8282
13333TIP3   OH239955   1.041   4.405   3.319  0.5371  0.7721 -0.9577
13333TIP3    H139956   0.972   4.461   3.354  0.8242  0.1968  0.5707
13333TIP3    H239957   1.118   4.426   3.372  0.3140 -2.0314  0.5759
13334TIP3   OH239958   0.450   6.446   2.192 -0.3865 -0.3839 -0.2920
13334TIP3    H139959   0.409   6.523   2.232 -1.0780  0.5015 -2.6141
13334TIP3    H239960   0.386   6.376   2.206 -0.2943 -0.2661  0.7737
13335TIP3   OH239961   0.524   4.152   2.481  0.0321  0.2238  0.0661
13335TIP3    H139962   0.514   4.073   2.428 -1.0724 -0.0896  0.7443
13335TIP3    H239963   0.487   4.222   2.427  0.1261  0.1299 -0.1229
13336TIP3   OH239964   8.199   4.342   0.852  0.3643 -0.4860 -0.3917
13336TIP3    H139965   8.176   4.323   0.943  1.1126 -0.4145 -0.1824
13336TIP3    H239966   8.275   4.400   0.858  0.0280  0.0292 -1.0597
13337TIP3   OH239967   0.307   6.079   1.558  0.0044 -0.4868 -0.4786
13337TIP3    H139968   0.320   6.090   1.652  1.9096 -0.5987 -0.7107
13337TIP3    H239969   0.301   5.984   1.546  0.6115 -0.5175 -0.5639
13338TIP3   OH239970   0.390   5.819   1.381 -0.2451 -0.4196  0.0658
13338TIP3    H139971   0.364   5.766   1.456 -1.0081 -1.6124 -0.9965
13338TIP3    H239972   0.339   5.783   1.308  1.7168 -0.4066 -1.3637
13339TIP3   OH239973   0.335   6.256   1.343 -0.0520  0.1184  0.2438
13339TIP3    H139974   0.255   6.244   1.292 -0.2371  0.2182  0.5134
13339TIP3    H239975   0.326   6.195   1.417  0.7690 -0.9229 -0.5045
13340TIP3   OH239976   7.835   4.186   1.094  0.0717 -0.4442 -0.1702
13340TIP3    H139977   7.848   4.225   1.181 -1.1632  0.2344 -0.2651
13340TIP3    H239978   7.922   4.161   1.065  0.3998 -1.5808  1.6870
13341TIP3   OH239979   8.425   4.203   2.103  0.2079  0.4224  0.0899
13341TIP3    H139980   8.505   4.210   2.156 -0.0613 -0.5278  0.6314
13341TIP3    H239981   8.451   4.236   2.017  0.8264  1.3598  0.6295
13342TIP3   OH239982   0.883   6.172   2.693 -0.1671  0.0056  0.2834
13342TIP3    H139983   0.897   6.078   2.683 -0.7769 -0.0143 -0.3976
13342TIP3    H239984   0.963   6.204   2.735  0.2403 -0.7409  0.0816
13343TIP3   OH239985   6.079   2.280   6.451  0.3823  0.0492  0.0137
13343TIP3    H139986   6.135   2.278   6.529  0.4154 -1.1886 -0.0224
13343TIP3    H239987   6.136   2.250   6.380 -0.1633 -0.6786 -0.1258
13344TIP3   OH239988   7.194   4.939   1.448 -0.0469  0.1995 -0.1644
13344TIP3    H139989   7.170   4.952   1.356 -0.7401 -0.8478 -0.1466
13344TIP3    H239990   7.158   5.015   1.493  2.4038  1.9782 -1.0905
13345TIP3   OH239991   8.456   4.572   2.081  0.3806 -0.1111  0.0778
13345TIP3    H139992   8.519   4.600   2.148  1.2079 -0.3173 -0.6026
13345TIP3    H239993   8.423   4.488   2.112 -0.2528  0.4299  0.8930
13346TIP3   OH239994   8.183   4.095   2.429 -0.4671  0.2448 -0.1265
13346TIP3    H139995   8.270   4.091   2.467 -0.8134 -2.5161  0.5037
13346TIP3    H239996   8.176   4.184   2.394  2.3174  0.7286  0.4151
13347TIP3   OH239997   0.696   4.141   0.922  0.1820  0.3651  0.2780
13347TIP3    H139998   0.750   4.062   0.922 -1.5428 -0.8487 -1.4353
13347TIP3    H239999   0.641   4.133   0.999  1.1105  0.7058  0.9947
13348TIP3   OH240000   8.138   7.911   2.076  0.5834 -0.0534  0.2541
13348TIP3    H140001   8.145   7.997   2.119  1.2107  0.4628 -0.8549
13348TIP3    H240002   8.150   7.848   2.147  2.2205  0.8017  0.7697
13349TIP3   OH240003   0.502   4.953   2.047 -0.4087  0.6164 -0.2554
13349TIP3    H140004   0.428   5.008   2.071 -1.7766 -1.9370  1.5424
13349TIP3    H240005   0.575   4.986   2.099 -1.8356 -0.8432  2.7689
13350TIP3   OH240006   6.131   6.079   2.616 -0.6390 -0.2202 -0.4827
13350TIP3    H140007   6.183   6.082   2.536  0.0237 -0.9175 -0.0973
13350TIP3    H240008   6.136   5.987   2.644  1.1919  0.4576  1.6458
13351TIP3   OH240009   7.083   4.133   2.023 -0.3630  0.1502  0.2662
13351TIP3    H140010   7.035   4.059   1.985 -0.1261  0.1427 -0.0111
13351TIP3    H240011   7.114   4.100   2.107 -0.3681 -0.0238  0.2003
13352TIP3   OH240012   3.278   1.423   6.545 -0.3877  0.2403  0.3033
13352TIP3    H140013   3.290   1.518   6.548  0.2344  0.1410  0.9442
13352TIP3    H240014   3.306   1.392   6.631  0.4325 -0.6365 -0.2743
13353TIP3   OH240015   0.186   4.645   2.213  0.0635 -0.2232  0.2018
13353TIP3    H140016   0.249   4.638   2.141 -1.0256  2.8067 -1.1400
13353TIP3    H240017   0.234   4.689   2.283  0.4094 -0.9430  0.4169
13354TIP3   OH240018   3.354   2.068   6.810  0.2108 -0.1922  0.5336
13354TIP3    H140019   3.398   1.986   6.787  4.0866  2.4080 -1.9182
13354TIP3    H240020   3.342   2.113   6.726 -1.2845  2.0300  1.8833
13355TIP3   OH240021   7.984   0.008   6.882  0.2104 -0.6330  0.4605
13355TIP3    H140022   7.975   0.094   6.839  2.8373 -0.7024 -0.2649
13355TIP3    H240023   7.894  -0.014   6.908 -0.8498  1.3098 -1.3253
13356TIP3   OH240024   4.169   7.940   6.691 -0.2335  0.4576 -0.2143
13356TIP3    H140025   4.195   7.889   6.768 -0.5061  0.7341  0.0624
13356TIP3    H240026   4.244   7.996   6.672  0.1209 -0.1477 -0.6052
13357TIP3   OH240027   7.631   4.067   1.330 -0.5994  0.0716  0.8128
13357TIP3    H140028   7.585   4.063   1.247  0.9241 -0.0007 -0.0420
13357TIP3    H240029   7.583   4.008   1.388 -0.5431 -1.3658 -0.5870
13358TIP3   OH240030   2.424   6.850   0.376 -0.5129  0.2319 -0.1029
13358TIP3    H140031   2.503   6.882   0.419 -2.6466  1.9700  2.7831
13358TIP3    H240032   2.421   6.757   0.397  1.1632 -0.0308 -0.9405
13359TIP3   OH240033   0.350   4.550   0.939  0.2684  0.1145  0.0692
13359TIP3    H140034   0.313   4.563   0.851  0.7242  0.5861 -0.0487
13359TIP3    H240035   0.360   4.455   0.946  1.1982  0.1433 -0.7866
13360TIP3   OH240036   0.782   6.647   0.791  0.4353  0.6957  0.5821
13360TIP3    H140037   0.719   6.618   0.856  1.0446 -0.3229  0.7348
13360TIP3    H240038   0.802   6.568   0.740 -0.7946  1.6746 -1.4941
13361TIP3   OH240039   2.242   3.806   1.238 -0.5130  0.2775 -0.0341
13361TIP3    H140040   2.312   3.778   1.297 -0.1463  0.9902 -0.1319
13361TIP3    H240041   2.251   3.749   1.161 -0.9518 -0.6120  0.5581
13362TIP3   OH240042   0.495   3.665   2.735 -0.3365 -0.2534 -0.4164
13362TIP3    H140043   0.418   3.722   2.743 -1.2363 -1.4010 -0.7642
13362TIP3    H240044   0.502   3.648   2.641 -0.9766 -1.9095 -0.1796
13363TIP3   OH240045   0.767   7.097   1.907 -0.0318  0.0211  0.3633
13363TIP3    H140046   0.804   7.127   1.824  1.9923 -0.5018  1.0529
13363TIP3    H240047   0.680   7.065   1.884  0.4297  0.0622 -1.5296
13364TIP3   OH240048   7.915   7.108   3.834  0.2484 -0.3212 -0.1555
13364TIP3    H140049   7.919   7.143   3.923 -1.7165 -0.8144  0.1538
13364TIP3    H240050   7.967   7.168   3.782  1.3143  0.0454  1.3122
13365TIP3   OH240051   0.487   7.294   2.434 -0.1766  0.2833  0.4827
13365TIP3    H140052   0.405   7.308   2.481 -0.5637  0.9311 -0.3664
13365TIP3    H240053   0.492   7.367   2.372 -0.8686 -1.8236 -2.1679
13366TIP3   OH240054  -0.013   0.860   6.432 -0.2931 -0.2709 -0.7236
13366TIP3    H140055  -0.039   0.771   6.456  0.9615 -0.3844  0.2709
13366TIP3    H240056   0.077   0.851   6.398  0.4812  0.8210  0.9546
13367TIP3   OH240057   3.202   5.550   0.209  0.0073 -0.0054  0.2829
13367TIP3    H140058   3.148   5.501   0.147  0.6009 -0.9151  0.4878
13367TIP3    H240059   3.203   5.497   0.288  1.6255 -0.2404  0.1123
13368TIP3   OH240060   1.429   5.576   0.483  0.5080  0.2236  0.2185
13368TIP3    H140061   1.460   5.506   0.427  0.3375  0.8395 -0.6622
13368TIP3    H240062   1.369   5.627   0.427 -1.6614 -0.6293  1.6989
13369TIP3   OH240063   8.294   7.600   0.950 -0.0881  0.5293  0.5727
13369TIP3    H140064   8.308   7.539   0.877  0.4507 -0.0054  1.1190
13369TIP3    H240065   8.336   7.682   0.921 -0.4097  0.5004  0.0288
13370TIP3   OH240066   3.415   0.410   1.792 -0.8813  0.0299 -0.2860
13370TIP3    H140067   3.444   0.339   1.848 -0.3877  1.0214  0.7267
13370TIP3    H240068   3.476   0.409   1.718 -1.0006 -0.7076 -0.3822
13371TIP3   OH240069   7.277   7.545   2.328  0.9429 -0.2048 -0.1543
13371TIP3    H140070   7.234   7.500   2.401  1.7287  1.3029  1.2714
13371TIP3    H240071   7.266   7.638   2.347 -0.8766  0.2690 -3.2020
13372TIP3   OH240072   0.112   4.896   1.664  0.5320 -0.7122 -0.5171
13372TIP3    H140073   0.195   4.927   1.628  0.0407  0.9708 -0.2162
13372TIP3    H240074   0.127   4.891   1.759 -0.3332  1.5805 -0.2395
13373TIP3   OH240075   8.119   5.392   2.215 -0.4733 -0.5236 -0.3286
13373TIP3    H140076   8.137   5.373   2.307 -1.3449  0.2146 -0.0025
13373TIP3    H240077   8.024   5.401   2.210 -0.2375  1.8261 -0.8357
13374TIP3   OH240078   1.229   6.957   2.428 -0.6618  0.3912 -0.0935
13374TIP3    H140079   1.183   7.012   2.364 -1.8273 -0.2673  0.1715
13374TIP3    H240080   1.301   6.919   2.378 -2.1371 -0.8987 -1.2966
13375TIP3   OH240081   3.165   6.750   1.647  0.0594  0.5666  0.9208
13375TIP3    H140082   3.155   6.752   1.552  1.1345 -0.2358  0.7864
13375TIP3    H240083   3.236   6.811   1.665 -1.2551  2.0015  1.3767
13376TIP3   OH240084   7.955   7.659   2.703  0.1442  0.1731 -0.5404
13376TIP3    H140085   8.031   7.632   2.754 -0.8990  0.0104  0.9550
13376TIP3    H240086   7.885   7.600   2.731 -0.8170  1.0317 -1.0889
13377TIP3   OH240087   5.984   1.934   6.139  0.2836 -0.1456 -0.4685
13377TIP3    H140088   6.001   1.843   6.115 -0.0142 -0.3618  0.1151
13377TIP3    H240089   6.067   1.966   6.174  0.3196 -0.2725 -0.4392
13378TIP3   OH240090   7.881   2.087   6.548  0.1648  0.8938 -0.4702
13378TIP3    H140091   7.900   2.064   6.457  0.3425 -0.9380  0.0003
13378TIP3    H240092   7.800   2.137   6.544 -1.0200 -1.0556 -1.4537
13379TIP3   OH240093   8.067   6.163   2.843  0.5602  0.6160 -0.3076
13379TIP3    H140094   8.118   6.119   2.775 -0.3147  0.5698 -0.9406
13379TIP3    H240095   8.027   6.092   2.893  0.5110  0.6632 -0.2793
13380TIP3   OH240096   1.950   6.965   2.208 -0.1822  0.5035  0.3173
13380TIP3    H140097   1.939   6.879   2.250  1.2936 -0.8136 -1.8445
13380TIP3    H240098   2.010   7.012   2.266  0.2408 -0.5250  0.7405
13381TIP3   OH240099   8.176   3.953   1.580  0.0809  0.4036 -0.4273
13381TIP3    H140100   8.189   3.992   1.493  1.4480  3.0261  0.8691
13381TIP3    H240101   8.232   3.876   1.580  1.2680  1.2383 -1.3990
13382TIP3   OH240102   2.891   7.282   1.034 -0.0024  0.3197  0.3032
13382TIP3    H140103   2.969   7.314   1.079 -0.6808  0.6555  1.2666
13382TIP3    H240104   2.819   7.301   1.095 -0.8818  0.4019 -0.7461
13383TIP3   OH240105   7.713   1.566   5.521  0.2651 -0.3666 -0.3299
13383TIP3    H140106   7.659   1.502   5.476 -0.5622  0.4023 -0.4431
13383TIP3    H240107   7.780   1.591   5.457 -0.3777  0.0680 -0.8407
13384TIP3   OH240108   2.624   6.890   0.569  0.3428  0.0539  0.0004
13384TIP3    H140109   2.711   6.909   0.534 -1.2879  4.2179 -2.2555
13384TIP3    H240110   2.617   6.944   0.648 -0.4064  0.2886 -0.2150
13385TIP3   OH240111   1.327   4.738   1.026 -0.1970  0.2006  0.0206
13385TIP3    H140112   1.391   4.758   0.957 -0.2172  1.3264  0.3109
13385TIP3    H240113   1.251   4.792   1.003 -1.2709 -1.5388 -0.6363
13386TIP3   OH240114   8.374   3.235   4.955  0.0573  0.0721  0.0758
13386TIP3    H140115   8.463   3.242   4.922 -0.2126 -0.3411 -0.7695
13386TIP3    H240116   8.329   3.179   4.891 -0.8065  0.2818  0.4857
13387TIP3   OH240117   0.607   4.454   0.555 -0.4927 -0.0106  0.2832
13387TIP3    H140118   0.522   4.412   0.568  0.0819 -0.9274  1.2087
13387TIP3    H240119   0.655   4.435   0.636 -0.1376  2.2679  0.6194
13388TIP3   OH240120   0.584   5.596   0.594 -0.3440 -0.1529 -0.2277
13388TIP3    H140121   0.548   5.685   0.598  0.0074  0.0963 -2.1431
13388TIP3    H240122   0.624   5.590   0.508  1.0138 -1.6653  0.4754
13389TIP3   OH240123   0.617   3.212   0.416  0.2122  1.1287 -0.1056
13389TIP3    H140124   0.600   3.304   0.438 -0.6011  1.2140 -1.0413
13389TIP3    H240125   0.534   3.181   0.381  0.1269 -0.3094  1.3372
13390TIP3   OH240126   0.542   7.536   2.740  0.0787  0.0793  0.0297
13390TIP3    H140127   0.471   7.598   2.722  0.0271  1.4643  4.4532
13390TIP3    H240128   0.621   7.591   2.742  0.6392 -0.7096 -0.1874
13391TIP3   OH240129   2.561   5.542   0.079 -0.3394  0.3787  0.4287
13391TIP3    H140130   2.553   5.620   0.134 -2.4003 -0.4245  1.2957
13391TIP3    H240131   2.512   5.563  -0.000  0.3850  0.5320  0.0197
13392TIP3   OH240132   3.968   6.379   1.243  0.1131  0.1995  0.1817
13392TIP3    H140133   3.933   6.406   1.328 -1.9706  0.7512 -0.8149
13392TIP3    H240134   3.997   6.289   1.257  1.4522  0.8737  1.9332
13393TIP3   OH240135   2.944   4.371   0.944  0.2206 -0.5065 -0.2762
13393TIP3    H140136   2.952   4.467   0.945  0.8103 -0.5520  1.4011
13393TIP3    H240137   3.026   4.341   0.904  0.5964 -0.3443  0.3641
13394TIP3   OH240138   6.453   0.599   6.868 -0.1639  0.9498 -0.1826
13394TIP3    H140139   6.479   0.555   6.949 -0.6058 -2.8759 -2.0252
13394TIP3    H240140   6.358   0.599   6.870 -0.1898 -0.4603 -1.3737
13395TIP3   OH240141   0.737   6.233   0.957  0.8545  0.2648 -0.1088
13395TIP3    H140142   0.800   6.305   0.966 -0.6797  1.7009 -0.7037
13395TIP3    H240143   0.671   6.251   1.023  0.7963 -0.9722  0.1781
13396TIP3   OH240144   2.902   3.956   2.274 -0.3467 -0.1358  0.2495
13396TIP3    H140145   2.876   3.939   2.183  0.5987 -4.3670  0.6588
13396TIP3    H240146   2.820   3.963   2.322 -0.8531  2.1646 -0.8988
13397TIP3   OH240147   0.703   3.621   1.014  0.2371 -0.4245 -0.0237
13397TIP3    H140148   0.758   3.580   1.081 -0.9198 -0.9224  0.6340
13397TIP3    H240149   0.707   3.562   0.940 -0.1552 -0.9261  0.3542
13398TIP3   OH240150   0.969   2.864   5.697  0.3926  0.1897 -0.2306
13398TIP3    H140151   0.885   2.901   5.725  0.0629 -0.0942 -0.8324
13398TIP3    H240152   1.031   2.891   5.765 -0.6185 -1.5816  1.4508
13399TIP3   OH240153   8.178   6.124   2.589 -0.1260  0.5947  0.3828
13399TIP3    H140154   8.226   6.184   2.531  1.9592 -1.1793  0.2007
13399TIP3    H240155   8.145   6.056   2.530  1.4947 -0.9006  1.1811
13400TIP3   OH240156   8.302   2.922   5.213  0.3721 -0.7650  0.3442
13400TIP3    H140157   8.360   2.991   5.246 -1.5209  0.9785  0.1290
13400TIP3    H240158   8.325   2.914   5.121 -1.1907  1.5275 -0.3024
13401TIP3   OH240159   0.961   5.839   3.107  0.0458 -0.0855 -0.0008
13401TIP3    H140160   0.954   5.885   3.190  0.8779 -1.5747  0.9191
13401TIP3    H240161   0.870   5.820   3.082 -0.1093 -2.0313  1.9496
13402TIP3   OH240162   4.166   6.074   1.772  0.1006 -0.1038 -0.3300
13402TIP3    H140163   4.199   6.010   1.836  2.0803  2.3900  1.2145
13402TIP3    H240164   4.079   6.097   1.805 -0.5779 -1.8709 -0.8269
13403TIP3   OH240165   4.949   6.132   1.624 -0.6103  0.5973  0.2584
13403TIP3    H140166   4.901   6.098   1.700  0.4930 -0.8228  0.3534
13403TIP3    H240167   5.026   6.174   1.662  0.9372 -1.7782 -0.1110
13404TIP3   OH240168   6.816   7.483   3.154  0.0719 -0.2094  1.0952
13404TIP3    H140169   6.760   7.415   3.190  1.2651 -0.5080  2.4362
13404TIP3    H240170   6.889   7.490   3.216  0.9895  0.8874 -0.0690
13405TIP3   OH240171  -0.014   7.748   0.776  0.0197 -0.5996  0.6713
13405TIP3    H140172  -0.014   7.662   0.733 -0.5462  0.3727 -1.3794
13405TIP3    H240173   0.069   7.787   0.750 -0.6179  0.2586 -0.1446
13406TIP3   OH240174   3.630   7.284   1.003  0.2567  0.2113 -0.0018
13406TIP3    H140175   3.719   7.293   1.037  0.1772 -1.3175  0.6638
13406TIP3    H240176   3.606   7.372   0.976  1.4230  0.9218  1.1959
13407TIP3   OH240177   5.673   7.011   0.729  0.1318  0.2671  0.1587
13407TIP3    H140178   5.668   6.921   0.760  0.7360 -0.2325 -1.1749
13407TIP3    H240179   5.617   7.060   0.789  0.5456 -0.8308  1.4628
13408TIP3   OH240180   0.727   6.127   0.364 -0.9475 -0.0489  0.1030
13408TIP3    H140181   0.687   6.140   0.450 -1.0033  0.3607  0.0170
13408TIP3    H240182   0.654   6.129   0.303 -0.8072  0.7224 -0.0557
13409TIP3   OH240183   6.168   3.718   6.040  0.1964  0.5014  0.4039
13409TIP3    H140184   6.146   3.803   6.077 -0.6907  0.4446  0.0092
13409TIP3    H240185   6.193   3.737   5.949  0.7381  0.4324  0.5344
13410TIP3   OH240186   7.272   0.046   1.478 -0.1912  0.0884 -0.7062
13410TIP3    H140187   7.228  -0.039   1.476  2.9843 -1.6751  1.0097
13410TIP3    H240188   7.220   0.097   1.540 -1.3037 -1.0658 -0.6556
13411TIP3   OH240189   4.421   2.348   6.289 -0.2556 -1.1453 -0.3374
13411TIP3    H140190   4.362   2.276   6.267 -1.3618 -0.9139  1.8195
13411TIP3    H240191   4.417   2.355   6.384  0.9879  0.8106 -0.4034
13412TIP3   OH240192   8.155   6.893   1.730  0.1085 -0.1356 -0.1792
13412TIP3    H140193   8.191   6.932   1.810  0.7782 -0.9465 -0.0792
13412TIP3    H240194   8.175   6.956   1.661  1.9553 -0.6635 -0.1708
13413TIP3   OH240195   7.200   6.679   0.259  0.3760 -0.1350 -0.3580
13413TIP3    H140196   7.176   6.611   0.323 -1.2540  0.8166  0.0945
13413TIP3    H240197   7.194   6.635   0.174 -1.6048 -0.3606 -0.1443
13414TIP3   OH240198   7.252   0.283   1.007  0.2377 -0.5036  0.0079
13414TIP3    H140199   7.175   0.318   1.052  0.2824 -0.7589  0.2854
13414TIP3    H240200   7.314   0.263   1.077 -0.2616 -2.3215 -0.0284
13415TIP3   OH240201   6.826   6.581   0.867  0.6564  0.5379  0.1612
13415TIP3    H140202   6.829   6.547   0.777  2.2998  0.0887  0.3693
13415TIP3    H240203   6.786   6.667   0.859 -2.9233 -1.0990 -0.4830
13416TIP3   OH240204   5.581   6.700   0.651  0.4810  0.3995 -0.3065
13416TIP3    H140205   5.664   6.659   0.628  0.4306  0.1146  0.0124
13416TIP3    H240206   5.556   6.659   0.734 -1.0796 -1.1464 -1.4992
13417TIP3   OH240207   7.775   7.024   0.396  0.3290 -0.0507  0.0591
13417TIP3    H140208   7.819   6.943   0.420  1.5365  0.6122  0.1540
13417TIP3    H240209   7.753   7.065   0.480 -1.0200 -0.6593  0.0145
13418TIP3   OH240210   7.349   7.615   0.758 -0.2835 -0.2349 -0.1514
13418TIP3    H140211   7.352   7.623   0.854 -0.5864  0.8561 -0.2316
13418TIP3    H240212   7.436   7.642   0.729 -0.1354 -0.7313 -0.1735
13419TIP3   OH240213   7.234   5.430   1.088  0.2753 -0.0868 -0.0203
13419TIP3    H140214   7.284   5.508   1.066  1.4453  0.0222  2.8000
13419TIP3    H240215   7.149   5.463   1.118  0.0779 -0.0139 -0.6604
13420TIP3   OH240216   6.373   5.509   1.202 -0.1815 -0.5306 -0.0231
13420TIP3    H140217   6.326   5.533   1.122  0.3127  1.7967  0.3481
13420TIP3    H240218   6.307   5.509   1.270 -0.5161 -2.0327 -0.3502
13421TIP3   OH240219   5.271   5.714   3.345  0.5094 -0.6811 -0.0755
13421TIP3    H140220   5.212   5.752   3.411  0.3236 -1.6452  0.3308
13421TIP3    H240221   5.237   5.746   3.262 -0.0046 -0.4330  0.2234
13422TIP3   OH240222   7.963   5.653   2.006 -0.1859  0.4506  0.4597
13422TIP3    H140223   7.939   5.561   1.994 -0.1099  0.5715 -0.6060
13422TIP3    H240224   7.880   5.700   1.999  0.1063  0.7055 -1.5619
13423TIP3   OH240225   3.052   1.202   6.915 -0.6684 -0.1655 -0.1448
13423TIP3    H140226   2.992   1.258   6.864 -2.0431 -1.8830 -0.4811
13423TIP3    H240227   3.012   1.196   7.001 -1.0038 -1.3363 -0.3742
13424TIP3   OH240228   6.103   6.761   1.625 -0.3481  0.2649  0.0323
13424TIP3    H140229   6.126   6.729   1.537  1.0533 -1.1591  0.8805
13424TIP3    H240230   6.174   6.822   1.647  0.4977 -1.0300  1.0145
13425TIP3   OH240231   6.368   7.246   0.460  0.3292 -0.5251  0.0237
13425TIP3    H140232   6.289   7.203   0.425  0.8148 -1.1958 -0.2595
13425TIP3    H240233   6.431   7.175   0.471  0.8998  0.0109  0.2395
13426TIP3   OH240234   8.284   6.921   0.528  0.1920 -0.3935  0.4151
13426TIP3    H140235   8.368   6.917   0.572 -0.1995 -2.2050  1.0428
13426TIP3    H240236   8.298   6.873   0.446 -0.6923 -2.2418  1.3307
13427TIP3   OH240237   5.601   2.014   6.887 -0.1377 -0.2367  0.1210
13427TIP3    H140238   5.586   1.935   6.836  0.3580 -0.2184 -0.0598
13427TIP3    H240239   5.560   2.084   6.837  0.3030 -0.2258 -0.2277
13428TIP3   OH240240   5.268   3.195   6.340 -0.0612 -0.2353  0.5514
13428TIP3    H140241   5.195   3.151   6.295  0.9463 -1.0605 -0.2977
13428TIP3    H240242   5.225   3.251   6.404 -1.5348  1.0471 -1.4940
13429TIP3   OH240243   0.098   4.301   0.707 -0.4304 -0.2836 -0.2751
13429TIP3    H140244   0.045   4.245   0.650 -1.4622 -0.2185  0.5859
13429TIP3    H240245   0.102   4.252   0.790  1.2076 -0.4726 -0.4647
13430TIP3   OH240246   6.810   6.112   0.874 -0.6117 -0.3592  0.1262
13430TIP3    H140247   6.877   6.073   0.819 -2.7640 -0.6572 -2.3856
13430TIP3    H240248   6.750   6.040   0.894 -1.9313  0.5475 -0.4237
13431TIP3   OH240249   7.035   5.897   1.858  0.4055  0.4340 -0.5291
13431TIP3    H140250   7.047   5.955   1.932  3.7127  0.3200 -0.9043
13431TIP3    H240251   7.024   5.955   1.783  0.6188  0.5594 -0.4622
13432TIP3   OH240252   5.412   7.167   0.509  0.5680  0.5939 -0.0398
13432TIP3    H140253   5.467   7.239   0.478 -1.7896  2.6562  0.4404
13432TIP3    H240254   5.363   7.204   0.583 -1.0671 -1.3463 -0.1036
13433TIP3   OH240255   7.850   6.293   1.561  0.4865  0.0275  0.3546
13433TIP3    H140256   7.794   6.238   1.506  0.9525 -0.9285  0.8314
13433TIP3    H240257   7.829   6.267   1.650  0.5611  0.7678  0.5871
13434TIP3   OH240258   4.951   6.918   1.862  0.0723 -0.7551  0.3443
13434TIP3    H140259   4.930   6.997   1.813  1.4159 -0.5681  0.0475
13434TIP3    H240260   4.945   6.944   1.954  0.2412 -0.3828  0.2504
13435TIP3   OH240261   8.131   1.290   0.022  0.8646  0.1038  0.2782
13435TIP3    H140262   8.188   1.232   0.072  2.4393  0.4309 -1.0945
13435TIP3    H240263   8.056   1.236  -0.001  1.0737 -0.6203  1.2681
13436TIP3   OH240264   6.886   7.174   1.286 -0.4542 -0.1026  0.2367
13436TIP3    H140265   6.968   7.160   1.333 -0.6196  0.6626  0.7592
13436TIP3    H240266   6.851   7.085   1.273 -0.6956 -0.3056  2.0924
13437TIP3   OH240267   7.260   6.030   1.565  0.5170 -0.1588 -0.2038
13437TIP3    H140268   7.290   6.106   1.614  0.1346 -1.3147  1.8679
13437TIP3    H240269   7.165   6.031   1.573  0.6021 -1.8777  1.4575
13438TIP3   OH240270   5.445   6.730   0.933 -0.1664  0.1200 -0.6036
13438TIP3    H140271   5.529   6.771   0.951 -0.7665  0.1981  2.1932
13438TIP3    H240272   5.463   6.636   0.936 -0.4526  0.1040  1.6761
13439TIP3   OH240273   3.547   4.122   6.248 -0.1987  0.4416  0.2384
13439TIP3    H140274   3.608   4.107   6.176  0.8083  0.6511  1.0253
13439TIP3    H240275   3.600   4.110   6.327 -1.5262 -0.8414  0.9625
13440TIP3   OH240276   5.638   6.302   0.095 -0.4550 -0.2900  0.0710
13440TIP3    H140277   5.627   6.286   0.189  1.3300 -0.9740  0.1919
13440TIP3    H240278   5.604   6.390   0.081 -1.5170 -0.5118  1.1994
13441TIP3   OH240279   0.730   7.348   0.219  0.1992 -0.6731 -0.0924
13441TIP3    H140280   0.696   7.270   0.175 -0.6102 -0.3800  0.0046
13441TIP3    H240281   0.793   7.314   0.282  1.3228 -1.0993 -1.4328
13442TIP3   OH240282   6.313   5.725   2.978 -0.1960  0.4183  0.3567
13442TIP3    H140283   6.299   5.739   3.071 -1.8340  0.8631  0.0651
13442TIP3    H240284   6.332   5.632   2.970 -0.0413  0.3821  1.1423
13443TIP3   OH240285   6.025   7.197   1.965  0.4673  0.0670  0.0603
13443TIP3    H140286   6.070   7.228   2.043  1.4358 -1.3015  0.0685
13443TIP3    H240287   5.943   7.160   1.997  0.3781  0.4864  0.3101
13444TIP3   OH240288   3.926   3.054   5.930  0.1946  0.0771 -0.0268
13444TIP3    H140289   3.977   2.984   5.890  0.3757  0.6086 -0.7476
13444TIP3    H240290   3.863   3.009   5.986  0.1978 -0.6640 -0.6100
13445TIP3   OH240291   8.407   7.241   0.407 -0.7691 -0.3439 -0.2471
13445TIP3    H140292   8.324   7.287   0.393 -0.0664  0.7775 -0.7323
13445TIP3    H240293   8.386   7.149   0.388 -1.2942  0.2741 -2.8249
13446TIP3   OH240294   8.219   7.350   2.234 -0.4550 -0.1011  0.3007
13446TIP3    H140295   8.165   7.419   2.272  0.3286 -0.0882  1.4372
13446TIP3    H240296   8.219   7.280   2.300  1.3412  0.1299  0.5906
13447TIP3   OH240297   2.862   1.897   5.415 -0.5917 -0.1599  0.3624
13447TIP3    H140298   2.825   1.811   5.399  1.6218 -1.1240  0.1858
13447TIP3    H240299   2.931   1.883   5.480  0.0622  1.3805  0.0532
13448TIP3   OH240300   4.871   5.987   0.787 -0.2300 -0.2474  0.0968
13448TIP3    H140301   4.828   5.952   0.709 -1.8281  1.6693  0.0923
13448TIP3    H240302   4.800   6.022   0.840  1.2898  3.0724  0.0603
13449TIP3   OH240303   3.474   7.270   1.681  0.8781  0.0518 -0.0089
13449TIP3    H140304   3.392   7.248   1.725  1.1104 -0.5413  0.1335
13449TIP3    H240305   3.542   7.231   1.737  1.3523  1.9587  0.7650
13450TIP3   OH240306   7.183   6.720   1.754  0.2845 -0.5638  0.1073
13450TIP3    H140307   7.107   6.676   1.792 -0.9291  2.1941  0.9771
13450TIP3    H240308   7.207   6.666   1.679 -1.7444 -2.1679  0.5800
13451TIP3   OH240309   6.499   6.203   0.567  0.1730 -0.4120 -0.4602
13451TIP3    H140310   6.552   6.237   0.494  0.6321  2.6963  1.2506
13451TIP3    H240311   6.410   6.234   0.548  0.1930 -0.0666  0.0039
13452TIP3   OH240312   7.246   5.757   0.524 -0.4840 -0.0467  0.2971
13452TIP3    H140313   7.271   5.802   0.605 -0.8185  2.5743 -0.9827
13452TIP3    H240314   7.154   5.780   0.512  0.0752  1.2374 -1.8178
13453TIP3   OH240315   7.446   7.153   2.247  0.3948  0.1764 -0.0312
13453TIP3    H140316   7.362   7.186   2.217 -0.3423 -0.9215  0.8023
13453TIP3    H240317   7.453   7.185   2.338 -0.8960 -2.9492  1.2164
13454TIP3   OH240318   7.395   7.179   2.968  0.2764 -0.1172 -0.2546
13454TIP3    H140319   7.326   7.175   2.901 -1.0577  3.7739  0.7787
13454TIP3    H240320   7.469   7.221   2.924 -0.4896  2.1458  0.5849
13455TIP3   OH240321   8.178   4.682   2.270  0.0194 -0.3138 -0.0726
13455TIP3    H140322   8.243   4.623   2.309  1.1729  0.8411 -0.2211
13455TIP3    H240323   8.214   4.704   2.184 -0.8070 -0.0431 -0.3543
13456TIP3   OH240324   8.413   5.191   1.827 -0.0891 -0.7299  0.2642
13456TIP3    H140325   8.412   5.153   1.740  2.3486 -0.8055  0.2463
13456TIP3    H240326   8.384   5.120   1.885 -0.8208 -0.9461 -0.3561
13457TIP3   OH240327   7.678   7.173   1.488 -0.2257  0.3405  0.3387
13457TIP3    H140328   7.621   7.141   1.557  1.8638 -0.7032  1.6319
13457TIP3    H240329   7.767   7.155   1.520  0.7984  0.7040 -2.1906
13458TIP3   OH240330   7.339   5.629   3.335  0.4325  0.3249 -0.8472
13458TIP3    H140331   7.405   5.600   3.398 -1.0134  0.6456  0.8781
13458TIP3    H240332   7.298   5.705   3.377 -0.2458  0.8256 -2.3941
13459TIP3   OH240333   6.548   4.671   4.586  0.3299  0.4727  0.1304
13459TIP3    H140334   6.582   4.583   4.603  0.7756  0.6638  0.2501
13459TIP3    H240335   6.488   4.688   4.658 -1.1914 -0.4675 -0.8953
13460TIP3   OH240336   4.935   6.088   2.108 -0.2584 -0.9831 -0.1977
13460TIP3    H140337   4.886   6.170   2.117 -0.3989 -1.1932  0.9818
13460TIP3    H240338   5.022   6.109   2.143 -0.4139 -1.4500  0.4655
13461TIP3   OH240339   4.350   5.116   1.823 -0.6854 -0.7356  0.3689
13461TIP3    H140340   4.321   5.206   1.836 -0.6500 -0.4916 -1.1166
13461TIP3    H240341   4.326   5.096   1.733  0.1536 -1.9003  0.3854
13462TIP3   OH240342   4.936   7.031   2.105  0.1634 -0.2572  0.4019
13462TIP3    H140343   4.878   6.975   2.158 -1.1084  0.6346 -0.0270
13462TIP3    H240344   4.947   7.110   2.157  0.3462 -0.0960  0.1194
13463TIP3   OH240345   8.056   6.631   2.891  0.8544 -0.3724 -0.2794
13463TIP3    H140346   8.089   6.684   2.964 -1.4126  0.4152  0.2262
13463TIP3    H240347   8.018   6.554   2.934 -1.0260  0.3764 -0.5403
13464TIP3   OH240348   1.845   3.975   5.748  0.6577  0.4420 -0.1930
13464TIP3    H140349   1.825   3.981   5.841 -1.5772  0.0162 -0.6157
13464TIP3    H240350   1.850   3.881   5.731  0.3748  0.5052 -0.6339
13465TIP3   OH240351   4.732   7.060   0.181  0.0837 -0.4444  0.8428
13465TIP3    H140352   4.765   7.080   0.269 -1.3196 -0.3215  1.3582
13465TIP3    H240353   4.709   7.146   0.145 -0.0622 -0.5676  0.6465
13466TIP3   OH240354   3.985   2.235   6.837  0.8484 -0.3277 -0.4270
13466TIP3    H140355   4.080   2.230   6.826  1.0042 -3.7226  1.6258
13466TIP3    H240356   3.962   2.155   6.885 -3.0259  0.5366 -0.6467
13467TIP3   OH240357   2.411   3.124   5.976  0.4314 -0.4010  0.2522
13467TIP3    H140358   2.369   3.103   5.893 -0.2379 -0.2714  0.5567
13467TIP3    H240359   2.397   3.218   5.987  1.9415 -0.1030 -0.2812
13468TIP3   OH240360   5.677   2.098   6.342 -0.3256  0.2032 -0.4187
13468TIP3    H140361   5.602   2.081   6.400  1.9089  0.2971  2.6527
13468TIP3    H240362   5.698   2.012   6.305  0.7098 -0.7011  2.1427
13469TIP3   OH240363   7.695   5.075   2.142 -0.2058 -0.2436 -0.8753
13469TIP3    H140364   7.680   4.992   2.096  1.1115 -0.7756 -0.3614
13469TIP3    H240365   7.607   5.107   2.163 -0.7117 -1.6472 -0.8218
13470TIP3   OH240366   7.508   6.727   1.584  0.5296  0.4843  0.2153
13470TIP3    H140367   7.458   6.716   1.503  0.4108  1.0147  0.2134
13470TIP3    H240368   7.581   6.665   1.576  0.1624  0.0821 -0.0123
13471TIP3   OH240369   2.021   6.090   0.162 -0.1452  0.0757 -0.1291
13471TIP3    H140370   1.982   6.021   0.108  0.2482 -0.8651  0.7627
13471TIP3    H240371   2.033   6.049   0.248 -0.2520  1.3849  0.5103
13472TIP3   OH240372   7.849   6.729   0.346  0.3080  0.0721 -0.0463
13472TIP3    H140373   7.917   6.687   0.399  0.1492 -1.6524 -1.1615
13472TIP3    H240374   7.897   6.769   0.273  0.4890  2.1387  1.1636
13473TIP3   OH240375   0.039   5.206   0.856  0.4868 -0.3752 -0.0571
13473TIP3    H140376   0.014   5.175   0.769 -1.6466  0.5100  0.2116
13473TIP3    H240377   0.131   5.231   0.847  1.1397 -3.0760 -1.2544
13474TIP3   OH240378   6.181   1.542   4.940 -0.4244  0.4072  0.0972
13474TIP3    H140379   6.161   1.624   4.986  0.9326  0.9023 -0.1754
13474TIP3    H240380   6.255   1.505   4.987 -1.1827 -0.8047  0.3638
13475TIP3   OH240381   7.654   6.495   1.515 -0.0189 -0.5045 -0.1381
13475TIP3    H140382   7.748   6.490   1.498 -0.0094 -0.2671 -0.1635
13475TIP3    H240383   7.640   6.440   1.591  0.2942  0.2263  0.4542
13476TIP3   OH240384   0.305   7.429   2.023 -0.1206  0.2407  0.0622
13476TIP3    H140385   0.256   7.381   2.090 -0.4251 -2.0017 -1.6915
13476TIP3    H240386   0.245   7.435   1.949  1.2419 -0.0353 -1.0883
13477TIP3   OH240387   3.059   5.614   0.814 -0.5969 -0.0803  0.3481
13477TIP3    H140388   2.985   5.559   0.840 -1.0905  0.2383 -0.3856
13477TIP3    H240389   3.026   5.667   0.741  0.0818  0.7092  0.6083
13478TIP3   OH240390   7.878   2.644   6.730  0.3670 -0.1878 -0.2704
13478TIP3    H140391   7.853   2.737   6.731 -0.1932 -0.3448  1.3260
13478TIP3    H240392   7.885   2.620   6.822  1.6658 -1.4394 -0.6755
13479TIP3   OH240393   6.005   2.753   6.580  0.0683 -0.0066 -0.0684
13479TIP3    H140394   6.053   2.768   6.499  0.2330  1.5617  0.3070
13479TIP3    H240395   5.913   2.752   6.554  0.0477  1.6861 -0.1246
13480TIP3   OH240396   0.080   5.794   3.301 -0.0234 -0.0726  0.1120
13480TIP3    H140397   0.085   5.856   3.228 -0.4067 -0.4148 -0.2125
13480TIP3    H240398  -0.013   5.770   3.305 -0.1417  0.5674  1.2496
13481TIP3   OH240399   7.206   7.126   2.722  0.1080 -0.0211  0.3384
13481TIP3    H140400   7.117   7.141   2.753 -0.1539  0.2136 -0.5110
13481TIP3    H240401   7.206   7.034   2.693 -0.6053  0.6800 -2.0480
13482TIP3   OH240402   2.349   0.752   0.642  0.4728 -0.3088  0.4092
13482TIP3    H140403   2.349   0.658   0.663 -0.1438 -0.4709 -0.2967
13482TIP3    H240404   2.293   0.759   0.565  0.0115  0.7222  0.8359
13483TIP3   OH240405   7.505   6.987   0.128 -0.8006  0.9794 -0.8031
13483TIP3    H140406   7.460   6.925   0.185  0.5757  0.2706 -0.4622
13483TIP3    H240407   7.564   7.035   0.186  0.3896  0.4542 -1.5549
13484TIP3   OH240408   6.794   6.177   0.507  0.6121  0.9400  0.1870
13484TIP3    H140409   6.876   6.152   0.549  0.3931  2.5041  1.5837
13484TIP3    H240410   6.735   6.103   0.526  1.2820  0.4505  0.3880
13485TIP3   OH240411   0.848   6.177   3.481 -0.5559 -0.1888  0.0519
13485TIP3    H140412   0.769   6.230   3.475  0.7390  1.8363  0.4068
13485TIP3    H240413   0.902   6.221   3.547  0.8202 -1.6229 -0.0730
13486TIP3   OH240414   8.422   6.284   2.376 -0.0496 -0.2605  0.9643
13486TIP3    H140415   8.485   6.355   2.362 -2.0535  1.3848  0.0219
13486TIP3    H240416   8.406   6.248   2.289 -0.4004 -0.6669  1.1961
13487TIP3   OH240417   8.404   7.330   3.093 -0.5223  0.5246 -0.6839
13487TIP3    H140418   8.360   7.251   3.123  0.1535  0.3486 -0.1504
13487TIP3    H240419   8.494   7.321   3.124 -0.2215  1.0984 -1.3670
13488TIP3   OH240420   0.857   6.924   2.118  0.0861  0.2568  0.4600
13488TIP3    H140421   0.941   6.878   2.116 -0.2499 -0.3570  0.0994
13488TIP3    H240422   0.792   6.854   2.125 -0.4168  0.7004  0.2526
13489TIP3   OH240423   8.058   6.657   0.524 -0.4645 -0.3103  0.1112
13489TIP3    H140424   8.113   6.725   0.562 -0.2774  0.0374 -0.7844
13489TIP3    H240425   8.003   6.628   0.597 -0.3140  0.5562  0.5787
13490TIP3   OH240426   2.246   7.976   0.546  0.2650 -0.7317  0.1254
13490TIP3    H140427   2.194   7.938   0.475 -2.1956 -0.7335  1.8984
13490TIP3    H240428   2.285   7.900   0.590  1.3234 -0.7592 -0.8263
13491TIP3   OH240429   0.470   6.996   2.316  0.1247 -0.1975 -0.1364
13491TIP3    H140430   0.457   7.076   2.367 -0.3218  0.5425 -1.4089
13491TIP3    H240431   0.382   6.962   2.303  0.2067 -0.1735 -0.7587
13492TIP3   OH240432   7.743   5.798   0.693 -0.1259 -0.0957 -0.2612
13492TIP3    H140433   7.758   5.854   0.769 -0.9367  0.0176 -0.1906
13492TIP3    H240434   7.832   5.777   0.662  0.1961  0.4026  0.3065
13493TIP3   OH240435   5.936   3.574   6.017  0.1050  0.4102  0.3312
13493TIP3    H140436   5.897   3.582   6.105  0.7718 -0.4599  0.7124
13493TIP3    H240437   6.019   3.620   6.024  1.5700 -2.2076  1.0562
13494TIP3   OH240438   0.237   2.898   5.884 -0.6635 -0.4924 -0.1273
13494TIP3    H140439   0.236   2.972   5.945  0.9726  0.5841 -1.3754
13494TIP3    H240440   0.280   2.827   5.933 -1.3197 -0.3341  0.7044
13495TIP3   OH240441   8.462   7.915   2.275  0.2241 -0.4280  0.2027
13495TIP3    H140442   8.522   7.848   2.308 -0.0882 -1.0010 -0.3678
13495TIP3    H240443   8.376   7.873   2.278  0.2053 -0.5314 -1.4083
13496TIP3   OH240444   6.915   4.607   6.556  0.3740 -0.5792 -0.0518
13496TIP3    H140445   6.999   4.579   6.593  1.6020 -1.2035 -3.0993
13496TIP3    H240446   6.877   4.526   6.521 -1.8762 -0.4214  1.9678
13497TIP3   OH240447   4.646   2.583   4.992  0.2726 -0.0737  0.5966
13497TIP3    H140448   4.589   2.507   4.983 -0.0227  0.1924  0.2228
13497TIP3    H240449   4.725   2.549   5.035 -0.6254 -0.2274  2.1432
13498TIP3   OH240450   7.907   4.597   2.211  0.2149  0.2244 -0.1679
13498TIP3    H140451   8.002   4.591   2.200  0.4803  1.0129  1.3997
13498TIP3    H240452   7.880   4.509   2.235  0.6956  0.2035  0.3126
13499TIP3   OH240453   3.467   0.134   0.468  0.1903  0.1853 -0.3241
13499TIP3    H140454   3.398   0.199   0.453  1.1626  1.0589 -1.0837
13499TIP3    H240455   3.497   0.151   0.557 -1.5270 -1.1269  0.5346
13500TIP3   OH240456   2.958   0.395   0.752  0.8277  0.1736  0.3304
13500TIP3    H140457   2.998   0.369   0.668  1.7927  2.9019 -0.1036
13500TIP3    H240458   3.015   0.356   0.818 -0.7125 -3.1714 -0.2072
13501TIP3   OH240459   8.294   7.203   0.908  0.1171  0.2696 -0.1868
13501TIP3    H140460   8.308   7.119   0.951 -0.4764  1.1425  1.7685
13501TIP3    H240461   8.311   7.268   0.977  1.8037  1.7990 -1.9852
13502TIP3   OH240462   3.994   5.048   6.442  0.6042  0.2500  0.1338
13502TIP3    H140463   4.085   5.046   6.414 -0.2424  2.0094 -2.9238
13502TIP3    H240464   3.946   5.004   6.372 -1.2101  1.7818  0.3652
13503TIP3   OH240465   0.754   7.352   0.851  0.1899 -0.2537 -0.1172
13503TIP3    H140466   0.671   7.399   0.853  0.1323 -0.3551 -0.0977
13503TIP3    H240467   0.787   7.366   0.763  0.2083 -0.1146 -0.0877
13504TIP3   OH240468   7.429   5.992   2.344  0.0979  0.1222 -0.4962
13504TIP3    H140469   7.485   5.929   2.299  2.2565  1.2708  0.5138
13504TIP3    H240470   7.439   5.971   2.437  0.0448  1.3058 -0.2130
13505TIP3   OH240471   4.144   3.579   6.481  0.9654 -0.1667  0.5528
13505TIP3    H140472   4.183   3.662   6.510  1.1788  0.4874 -1.5135
13505TIP3    H240473   4.100   3.601   6.399 -1.7072 -1.4348  1.5984
13506TIP3   OH240474   7.027   5.681   0.015 -0.5712 -0.5545 -0.5609
13506TIP3    H140475   7.042   5.645  -0.073  0.3671  0.6818 -0.9196
13506TIP3    H240476   7.111   5.672   0.059 -0.2236  1.4738 -0.7625
13507TIP3   OH240477   7.685   6.149   2.062 -0.1109 -0.3445  0.2965
13507TIP3    H140478   7.604   6.184   2.098 -0.4301  0.0026 -0.7433
13507TIP3    H240479   7.725   6.100   2.134 -1.3355 -0.6788  0.7535
13508TIP3   OH240480   8.420   4.578   2.359  0.0570 -0.1487  0.0806
13508TIP3    H140481   8.428   4.516   2.431  0.8882 -0.2759 -0.1178
13508TIP3    H240482   8.503   4.625   2.358 -1.6979  3.2369  2.2838
13509TIP3   OH240483   7.868   6.918   1.872  0.5732  0.0400  0.1015
13509TIP3    H140484   7.960   6.904   1.848  0.9722 -0.5040  1.8318
13509TIP3    H240485   7.827   6.832   1.861  0.4058  0.1579 -0.1745
13510TIP3   OH240486   5.994   4.171   6.823  0.5837  0.0784 -0.1621
13510TIP3    H140487   6.030   4.237   6.882  1.8505 -0.4498 -0.3406
13510TIP3    H240488   5.997   4.090   6.873  1.3006 -0.2994 -0.8031
13511TIP3   OH240489   2.377   1.729   3.118 -0.1925 -0.2374 -0.0075
13511TIP3    H140490   2.398   1.822   3.129 -0.9112 -0.3646  2.6582
13511TIP3    H240491   2.289   1.730   3.079 -0.3828  0.2036  0.4192
13512TIP3   OH240492   3.606   0.847   1.655 -0.2162 -0.1907  0.4091
13512TIP3    H140493   3.684   0.792   1.657 -0.5104 -0.6079  0.4429
13512TIP3    H240494   3.540   0.795   1.609 -0.7497 -0.1980  1.1752
13513TIP3   OH240495   0.574   6.450  -0.019  0.0810  0.2600  0.5084
13513TIP3    H140496   0.548   6.454   0.073 -2.7121  4.1310 -0.3351
13513TIP3    H240497   0.668   6.468  -0.018  0.2217 -0.4652  2.6452
13514TIP3   OH240498   4.879   4.060   5.602  0.7344 -1.0167  0.2859
13514TIP3    H140499   4.853   4.090   5.514 -1.9012 -1.0039  1.0339
13514TIP3    H240500   4.959   4.009   5.587  0.4207 -0.8680 -2.0999
13515TIP3   OH240501   7.526   5.811   0.500 -0.6471 -0.1589  0.0473
13515TIP3    H140502   7.610   5.817   0.544  0.7148  1.1507 -2.5828
13515TIP3    H240503   7.475   5.748   0.552  1.9473 -0.9836  1.6664
13516TIP3   OH240504   6.859   3.836   6.619  0.0858  0.4133 -0.2063
13516TIP3    H140505   6.800   3.909   6.598 -1.3356 -0.6656 -0.0404
13516TIP3    H240506   6.930   3.844   6.555 -0.9173  0.9435 -1.2773
13517TIP3   OH240507   2.583   0.890   1.047  0.4159  0.6298 -0.1029
13517TIP3    H140508   2.648   0.893   0.976 -0.3402  0.2335 -0.8125
13517TIP3    H240509   2.500   0.872   1.003  0.1266 -0.7553  1.0032
13518TIP3   OH240510   0.638   5.098   2.541 -0.0093  0.6814 -0.1992
13518TIP3    H140511   0.654   5.009   2.573 -1.1268  0.5447 -0.0078
13518TIP3    H240512   0.677   5.155   2.607 -0.7643  0.3665  0.5245
13519TIP3   OH240513   8.523   6.971   3.172  0.1675  0.5749  0.1695
13519TIP3    H140514   8.468   6.895   3.193  1.0955  0.3345  1.8455
13519TIP3    H240515   8.478   7.045   3.211  0.0019  0.6869 -0.2271
13520TIP3   OH240516   7.211   7.340   1.003  0.0595  0.1808 -0.1020
13520TIP3    H140517   7.212   7.271   1.069 -0.0958  0.0358 -0.2518
13520TIP3    H240518   7.183   7.418   1.051  0.9154  0.2958  0.2164
13521TIP3   OH240519   7.957   7.328   0.272  0.2487 -0.1900 -0.2101
13521TIP3    H140520   7.928   7.419   0.264  0.8841  0.2772  2.4192
13521TIP3    H240521   8.047   7.329   0.240  0.3282  0.1498  0.0229
13522TIP3   OH240522   7.325   6.864   2.148  0.4709 -0.0799  0.0028
13522TIP3    H140523   7.354   6.913   2.225  2.7180 -1.5662  0.1357
13522TIP3    H240524   7.236   6.837   2.168  0.8111  0.1213  1.8110
13523TIP3   OH240525   4.362   1.444   6.575  0.3618  0.7734 -0.2218
13523TIP3    H140526   4.354   1.458   6.481  0.1298 -2.0060 -0.6377
13523TIP3    H240527   4.456   1.439   6.591  0.3787  0.2029 -0.4816
13524TIP3   OH240528   5.601   4.317   6.732 -0.3418 -0.5689 -0.3215
13524TIP3    H140529   5.591   4.253   6.803 -1.2305  1.1852  1.1579
13524TIP3    H240530   5.680   4.288   6.685  1.0302 -1.0355  2.1642
13525TIP3   OH240531   7.382   4.016   6.613  0.1160 -0.0098  0.0415
13525TIP3    H140532   7.365   3.958   6.538  0.0479  1.3276 -1.0031
13525TIP3    H240533   7.301   4.013   6.664 -0.7322  0.9218 -1.2206
13526TIP3   OH240534   6.819   5.311   1.078  0.2199  0.2407  0.7642
13526TIP3    H140535   6.892   5.372   1.087  1.1026 -0.6315 -0.3413
13526TIP3    H240536   6.832   5.247   1.148  0.5027  0.0951  0.5786
13527TIP3   OH240537   4.814   0.224   1.698 -0.3133 -0.2929 -0.2965
13527TIP3    H140538   4.813   0.315   1.730  0.1875 -0.4351  0.1219
13527TIP3    H240539   4.747   0.223   1.630 -0.6499  0.2810  0.0149
13528TIP3   OH240540   8.065   7.346   1.558 -0.3855  0.1881  0.1921
13528TIP3    H140541   8.148   7.392   1.568 -0.7757  0.9707 -0.1691
13528TIP3    H240542   8.041   7.321   1.647 -0.7661  1.7400  0.5423
13529TIP3   OH240543   7.011   5.099   2.484  0.1363 -0.6440  0.3046
13529TIP3    H140544   6.952   5.083   2.558  0.0886 -0.6338  0.2688
13529TIP3    H240545   7.087   5.141   2.523 -0.3862  0.4374  0.1860
13530TIP3   OH240546   5.479   2.831   6.947 -0.1517 -0.2364  0.3923
13530TIP3    H140547   5.516   2.758   6.898 -0.5168 -0.9744  1.2081
13530TIP3    H240548   5.406   2.861   6.893 -0.5557 -1.0426  0.4878
13531TIP3   OH240549   4.634   4.966   0.507 -0.2405  0.4788  0.7026
13531TIP3    H140550   4.714   4.936   0.464  1.4238  1.5788  2.9232
13531TIP3    H240551   4.602   4.888   0.553 -2.1598 -0.7679 -2.5456
13532TIP3   OH240552   0.260   6.685   1.467  0.0544  0.3298 -0.2864
13532TIP3    H140553   0.206   6.634   1.527  2.8092 -0.0305  2.0079
13532TIP3    H240554   0.226   6.664   1.380 -2.0706 -1.5057  0.9251
13533TIP3   OH240555   1.611   7.477   0.427 -0.1973 -0.0337 -0.1570
13533TIP3    H140556   1.666   7.480   0.505  0.6597 -3.1596 -0.5744
13533TIP3    H240557   1.528   7.516   0.454  1.1075  1.7063  1.4173
13534TIP3   OH240558   6.649   4.313   6.945 -0.4941  0.2782 -0.7199
13534TIP3    H140559   6.682   4.244   6.888 -1.6242 -0.8286 -0.0581
13534TIP3    H240560   6.554   4.301   6.945 -0.5456  0.4498  1.1358
13535TIP3   OH240561   3.244   1.152   0.652 -0.4817 -0.1213 -0.3911
13535TIP3    H140562   3.340   1.156   0.651 -0.4425 -0.1412  1.7076
13535TIP3    H240563   3.218   1.226   0.707 -1.7533  0.7917 -2.1705
13536TIP3   OH240564   6.022   6.435   0.239 -0.4775  0.0691  0.1123
13536TIP3    H140565   6.038   6.342   0.255  1.9000  0.6738  1.5897
13536TIP3    H240566   6.056   6.450   0.151  0.2214 -0.2505  0.3177
13537TIP3   OH240567   4.020   2.818   5.854  0.0127 -0.1949  0.2222
13537TIP3    H140568   4.022   2.738   5.906  0.2998  0.5137  1.3100
13537TIP3    H240569   4.043   2.790   5.766 -0.8799 -1.4707  0.3812
13538TIP3   OH240570   7.362   5.870   1.898 -0.6027 -0.2691 -0.0279
13538TIP3    H140571   7.344   5.962   1.915  0.0358 -0.4125  1.5301
13538TIP3    H240572   7.418   5.870   1.821  1.3507  0.8124  1.3499
13539TIP3   OH240573   0.914   6.541   1.557 -0.0711 -0.2196 -0.4549
13539TIP3    H140574   0.851   6.603   1.593 -0.3209 -0.7791  0.0718
13539TIP3    H240575   0.881   6.521   1.470 -0.2000  0.0878 -0.4764
13540TIP3   OH240576   8.286   6.293   1.185 -0.0500 -0.4598  0.5573
13540TIP3    H140577   8.260   6.215   1.137 -0.1139 -0.4714  0.6101
13540TIP3    H240578   8.212   6.354   1.174  0.1965 -0.2371  0.1276
13541TIP3   OH240579   0.641   6.914   0.789  0.0310 -0.0745  0.5619
13541TIP3    H140580   0.655   6.819   0.793 -2.4204 -0.4725  0.7505
13541TIP3    H240581   0.616   6.938   0.878 -0.4499  0.5517  0.2600
13542TIP3   OH240582   1.528   7.038   3.808  0.3407 -0.8883  0.5817
13542TIP3    H140583   1.572   7.035   3.722  2.8266  0.0408  1.7474
13542TIP3    H240584   1.486   6.953   3.816  1.1446 -1.4819 -1.0322
13543TIP3   OH240585   1.807   4.864   0.841 -0.2312 -0.3268 -0.3413
13543TIP3    H140586   1.886   4.894   0.885 -0.2168 -1.1244  0.1990
13543TIP3    H240587   1.738   4.923   0.872  0.0963  0.1906 -0.5936
13544TIP3   OH240588   6.451   7.390   3.548  0.1849  0.3547 -0.0904
13544TIP3    H140589   6.532   7.364   3.592 -0.4694 -2.2313 -0.3520
13544TIP3    H240590   6.421   7.467   3.597  2.2457  0.7333  0.6342
13545TIP3   OH240591   2.697   3.650   6.597  0.4951  0.1093 -0.4064
13545TIP3    H140592   2.623   3.591   6.614  1.4298 -1.1625 -0.7142
13545TIP3    H240593   2.749   3.648   6.677  0.9080 -0.0390 -0.6783
13546TIP3   OH240594   8.101   6.797   1.202 -0.1698  0.1429  0.0563
13546TIP3    H140595   8.007   6.784   1.213  0.2400 -2.6913  0.4882
13546TIP3    H240596   8.135   6.805   1.291  0.2595 -0.9280 -0.0039
13547TIP3   OH240597   7.538   3.304   6.116  0.6716 -0.0051 -0.0018
13547TIP3    H140598   7.527   3.247   6.193 -0.6096  2.0510  1.4112
13547TIP3    H240599   7.630   3.329   6.118  1.1765 -1.7543 -0.4673
13548TIP3   OH240600   1.482   7.868   2.345 -0.4261  0.5586 -0.0250
13548TIP3    H140601   1.499   7.946   2.292 -0.6054 -0.4196 -1.5599
13548TIP3    H240602   1.488   7.898   2.435 -0.0580  2.2540 -0.6026
13549TIP3   OH240603   2.914   2.080   0.864 -0.1097 -0.0841 -0.5380
13549TIP3    H140604   3.005   2.094   0.892 -0.7710 -0.5494  1.9943
13549TIP3    H240605   2.878   2.020   0.930 -2.6638  1.2241 -0.6916
13550TIP3   OH240606   2.935   0.015   1.229 -0.1215  0.3802 -0.1552
13550TIP3    H140607   2.875   0.086   1.253 -0.3446 -0.4933  1.9056
13550TIP3    H240608   2.879  -0.061   1.217  0.5723 -0.5752  2.3268
13551TIP3   OH240609   5.627   3.050   6.738  0.0331  0.3024  0.2493
13551TIP3    H140610   5.538   3.044   6.705 -0.1764  0.4908  0.7663
13551TIP3    H240611   5.667   2.966   6.715  0.3895  1.0160 -1.8642
13552TIP3   OH240612   6.576   5.065   5.993  0.5388  0.3842 -0.2982
13552TIP3    H140613   6.667   5.083   6.017 -0.3413  1.5229  2.3606
13552TIP3    H240614   6.535   5.151   5.990 -1.1610 -0.3138  1.6855
13553TIP3   OH240615   8.078   6.425   1.510  0.2005 -0.6175 -0.4447
13553TIP3    H140616   8.001   6.374   1.533 -0.6298  0.8590  0.0936
13553TIP3    H240617   8.122   6.373   1.442  0.1773 -2.7583  1.1019
13554TIP3   OH240618   7.608   4.847   5.771 -0.0653 -0.6524  0.6464
13554TIP3    H140619   7.659   4.782   5.723 -0.4963 -1.5027  1.3059
13554TIP3    H240620   7.560   4.795   5.836  0.1771  0.4196  1.6897
13555TIP3   OH240621   5.311   3.857   6.327  0.1835  0.7810 -0.2772
13555TIP3    H140622   5.289   3.767   6.303  0.2468  1.3588 -2.6734
13555TIP3    H240623   5.234   3.890   6.372  0.2644 -0.5418  0.8692
13556TIP3   OH240624   7.939   3.572   6.815  0.1262  0.1364  0.2493
13556TIP3    H140625   7.942   3.664   6.791  2.2979  0.7333  2.5882
13556TIP3    H240626   7.850   3.558   6.848  0.1262  1.6970  0.9400
13557TIP3   OH240627   0.135   5.431   0.482 -0.0594 -0.4448 -0.5115
13557TIP3    H140628   0.060   5.373   0.473 -1.5409  1.4140 -0.4378
13557TIP3    H240629   0.211   5.377   0.459 -1.4924 -2.1083 -1.3743
13558TIP3   OH240630   4.795   0.925   1.548  0.7774  0.2173  0.0032
13558TIP3    H140631   4.739   1.000   1.530  0.4400 -0.1307 -0.4180
13558TIP3    H240632   4.808   0.885   1.462 -1.5146 -1.9669  0.6298
13559TIP3   OH240633   5.871   5.710   6.023 -0.0028  0.2333 -0.1102
13559TIP3    H140634   5.849   5.701   6.116 -0.6735 -0.0552 -0.2983
13559TIP3    H240635   5.790   5.741   5.982  0.4391  0.8772 -0.5160
13560TIP3   OH240636   0.004   7.572   0.183 -0.1732  0.5907 -0.0173
13560TIP3    H140637   0.073   7.634   0.157 -0.7726  0.7166 -1.3980
13560TIP3    H240638  -0.076   7.624   0.179 -0.6120 -0.1289 -0.6398
13561TIP3   OH240639   2.119   0.054   3.152  0.0721 -0.6551  0.1935
13561TIP3    H140640   2.038   0.004   3.137  1.6679 -3.0024 -1.0028
13561TIP3    H240641   2.094   0.145   3.138 -2.1331 -1.4399 -1.2894
13562TIP3   OH240642   4.615   1.452   6.126 -0.4546  0.3336 -0.1200
13562TIP3    H140643   4.584   1.390   6.192 -0.0572  0.4977  0.2233
13562TIP3    H240644   4.639   1.530   6.177 -2.4812  1.3806 -0.6802
13563TIP3   OH240645   0.078   6.565   1.639 -0.7124 -0.2171 -0.0760
13563TIP3    H140646   0.007   6.605   1.690 -0.1461  1.4673 -0.5661
13563TIP3    H240647   0.034   6.501   1.583 -1.5700 -0.7582  1.1793
13564TIP3   OH240648   7.010   3.095   6.045 -0.3432  0.6136  0.0741
13564TIP3    H140649   7.096   3.073   6.009 -0.0212  1.0805  0.5391
13564TIP3    H240650   7.029   3.128   6.133 -0.9357  1.3476 -0.0680
13565TIP3   OH240651   7.634   6.379   0.800 -0.3897 -0.1340  0.4782
13565TIP3    H140652   7.545   6.409   0.783 -0.9272 -1.7311  0.4216
13565TIP3    H240653   7.672   6.364   0.714 -0.7164 -1.3045  0.5300
13566TIP3   OH240654   8.053   1.913   6.672 -0.0494  0.6135  0.1660
13566TIP3    H140655   7.989   1.962   6.621  0.8189  0.7473 -0.8113
13566TIP3    H240656   8.097   1.857   6.608  0.7066  0.4103  0.8481
13567TIP3   OH240657   5.424   3.192   5.934  0.6073 -0.3998  0.1070
13567TIP3    H140658   5.404   3.242   5.855 -0.4768 -1.5226 -0.3577
13567TIP3    H240659   5.354   3.126   5.938  2.0086 -1.8637  0.7032
13568TIP3   OH240660   0.289   5.919   2.241  0.3977 -0.5279 -0.7561
13568TIP3    H140661   0.223   5.884   2.182 -0.6941 -1.1504  0.7819
13568TIP3    H240662   0.371   5.879   2.213 -0.1028 -0.7834 -1.8477
13569TIP3   OH240663   5.141   0.935   6.883  0.2342 -0.0799 -0.3831
13569TIP3    H140664   5.097   0.994   6.944  0.4583  0.5895 -0.8664
13569TIP3    H240665   5.101   0.850   6.900 -0.6996  0.3668 -0.2807
13570TIP3   OH240666   0.290   7.031   3.077 -0.0897 -0.2082 -0.5795
13570TIP3    H140667   0.212   7.067   3.036 -0.6687  0.5294  1.1134
13570TIP3    H240668   0.344   7.107   3.098 -0.0859 -0.5093  0.5631
13571TIP3   OH240669   7.752   5.634   1.584  0.1161 -0.2823  0.4017
13571TIP3    H140670   7.792   5.607   1.667  1.4704 -0.4041 -0.2685
13571TIP3    H240671   7.681   5.572   1.570 -0.5038  0.0998  1.7578
13572TIP3   OH240672   1.046   5.128   0.818  0.0967 -0.4809 -0.1477
13572TIP3    H140673   1.090   5.211   0.838  0.6404 -0.4171 -1.5484
13572TIP3    H240674   1.003   5.144   0.733  0.3550 -1.6922 -0.5145
13573TIP3   OH240675   7.042   5.478   1.511  0.3140  0.4956  0.8673
13573TIP3    H140676   6.983   5.408   1.541 -0.9533  1.4851  0.7221
13573TIP3    H240677   7.129   5.439   1.516 -0.3323 -0.9539  1.2188
13574TIP3   OH240678   5.694   3.364   6.757  0.2059 -0.1685 -0.2316
13574TIP3    H140679   5.738   3.379   6.840  2.3195  0.0076 -1.3425
13574TIP3    H240680   5.715   3.273   6.735 -0.6719 -0.3350 -0.3819
13575TIP3   OH240681   0.583   5.922   0.203 -0.3655  0.0991 -0.0212
13575TIP3    H140682   0.514   5.857   0.186  0.0865 -0.2793 -0.4146
13575TIP3    H240683   0.645   5.876   0.259  0.1364  0.0701 -0.5942
13576TIP3   OH240684   6.743   6.431   0.094 -0.1855  0.3447  0.1788
13576TIP3    H140685   6.776   6.380   0.167  0.1194 -0.4541 -0.5108
13576TIP3    H240686   6.751   6.373   0.018  0.1158  1.3854 -0.5998
13577TIP3   OH240687   5.422   2.428   6.213 -0.0396 -0.0301 -0.5536
13577TIP3    H140688   5.446   2.352   6.266 -1.8577 -1.0743 -1.1759
13577TIP3    H240689   5.417   2.500   6.275  0.1910 -0.7473  0.3016
13578TIP3   OH240690   6.547   7.111   3.118  1.0089  0.8484  0.0113
13578TIP3    H140691   6.573   7.173   3.186  2.7884 -0.8334  0.9250
13578TIP3    H240692   6.582   7.027   3.148  1.8187  0.0604 -2.9738
13579TIP3   OH240693   6.226   3.467   6.081 -0.1805 -0.3206  0.0376
13579TIP3    H140694   6.199   3.559   6.078 -0.0875 -0.2593  0.9103
13579TIP3    H240695   6.221   3.444   6.173 -0.8905 -1.4048 -0.2726
13580TIP3   OH240696   0.152   7.005   1.864 -0.7039  0.1450  0.1176
13580TIP3    H140697   0.130   7.097   1.876  0.7906  0.2889  1.9915
13580TIP3    H240698   0.202   7.003   1.782  1.7949  1.4641  1.5693
13581TIP3   OH240699   6.401   4.831   5.927  0.6894 -0.2902  0.2247
13581TIP3    H140700   6.464   4.897   5.898  0.3539 -0.1543 -0.2142
13581TIP3    H240701   6.411   4.759   5.864 -1.5095  0.8709 -1.5489
13582TIP3   OH240702   0.772   5.948   0.839  0.3240  0.5445  0.7515
13582TIP3    H140703   0.803   6.020   0.894  0.6246  1.3271 -0.4284
13582TIP3    H240704   0.851   5.915   0.796 -0.1791  1.3019 -0.8007
13583TIP3   OH240705   4.945   4.190   6.261  0.8046  0.0813  0.4027
13583TIP3    H140706   4.882   4.233   6.202  2.1965 -0.0045 -1.1828
13583TIP3    H240707   4.892   4.129   6.312 -0.3815 -0.2187 -1.1370
13584TIP3   OH240708   7.346   6.384   0.691 -0.1493  0.0372  0.2634
13584TIP3    H140709   7.303   6.315   0.641  1.6722 -1.4702  0.7314
13584TIP3    H240710   7.338   6.356   0.783 -1.5202  1.6807  0.6814
13585TIP3   OH240711   8.272   6.825   0.276 -0.4379 -0.2341  0.6549
13585TIP3    H140712   8.247   6.735   0.296 -1.5262 -0.0480  0.1628
13585TIP3    H240713   8.287   6.825   0.181  0.6385 -0.1545  0.8272
13586TIP3   OH240714   1.392   6.234   0.097  0.4262  0.2419  0.4860
13586TIP3    H140715   1.400   6.189   0.181  0.5648  0.0657  0.3817
13586TIP3    H240716   1.316   6.291   0.106 -0.8113 -1.2987  0.0394
13587TIP3   OH240717   5.867   3.670   6.252 -0.0268  0.0878  0.1425
13587TIP3    H140718   5.874   3.746   6.309  0.2433  0.4746 -0.3969
13587TIP3    H240719   5.803   3.613   6.295 -0.8843  1.0117  0.1112
13588TIP3   OH240720   0.324   6.580   1.039  0.0678  0.3835 -0.3959
13588TIP3    H140721   0.302   6.607   0.950 -2.1249  1.1600  0.3598
13588TIP3    H240722   0.284   6.494   1.049  0.3138  0.2958 -0.1542
13589TIP3   OH240723   1.471   7.983   0.818  0.6641  0.3430 -0.1288
13589TIP3    H140724   1.470   7.888   0.828 -0.4281  0.3870  0.2913
13589TIP3    H240725   1.442   8.017   0.902  0.7190  1.0375 -0.3837
13590TIP3   OH240726   6.121   3.481   6.347  0.2828 -0.3693  0.3475
13590TIP3    H140727   6.037   3.519   6.318 -0.1340  0.1287  2.1271
13590TIP3    H240728   6.098   3.431   6.426  1.5476 -0.8317  0.4243
13591TIP3   OH240729   4.935   2.361   6.499 -0.2726 -0.0971 -0.1458
13591TIP3    H140730   4.853   2.322   6.469  0.2899 -0.3348 -1.4177
13591TIP3    H240731   4.927   2.363   6.594 -0.4817 -2.9536 -0.0665
13592TIP3   OH240732   4.888   3.799   6.340  0.0000 -0.0946 -0.5743
13592TIP3    H140733   4.975   3.828   6.368  0.4014  0.1273 -1.9948
13592TIP3    H240734   4.831   3.873   6.359  0.1938 -0.0972  0.0180
13593TIP3   OH240735   0.005   7.615   2.009 -0.1529  0.0589  0.0530
13593TIP3    H140736  -0.049   7.674   1.956  0.3140  1.7341  1.4057
13593TIP3    H240737   0.084   7.601   1.957  0.7717  2.5512  0.7428
13594TIP3   OH240738   3.341   2.256   0.841  0.1449 -0.1603  0.0371
13594TIP3    H140739   3.321   2.192   0.772  0.4620 -0.1681 -0.0500
13594TIP3    H240740   3.255   2.284   0.873  0.0086 -0.6767  0.1214
13595TIP3   OH240741   0.058   7.503   0.671 -0.4345 -0.0233 -0.4788
13595TIP3    H140742   0.061   7.429   0.732  0.9842  0.1048 -0.3723
13595TIP3    H240743   0.109   7.474   0.596 -0.1123  0.7409 -0.5585
13596TIP3   OH240744   6.425   5.168   6.860 -0.4834  0.5170  0.0007
13596TIP3    H140745   6.332   5.152   6.878 -0.1847 -0.0088  1.1288
13596TIP3    H240746   6.465   5.081   6.861  0.3066  0.8841  1.2423
13597TIP3   OH240747   5.572   3.731   6.079  0.1995 -0.2107 -0.1222
13597TIP3    H140748   5.657   3.706   6.042 -0.1445 -0.8644 -0.4869
13597TIP3    H240749   5.511   3.667   6.043 -0.3790  0.0084  0.4660
13598TIP3   OH240750   5.459   2.571   6.445  0.1643  0.1274  0.0754
13598TIP3    H140751   5.549   2.547   6.467  0.7949  1.0390 -1.4228
13598TIP3    H240752   5.442   2.650   6.495  0.0632 -0.2505  0.6425
13599TIP3   OH240753   3.433   4.659   6.351  0.3697  0.0829 -0.2451
13599TIP3    H140754   3.393   4.700   6.428 -2.2746 -0.8698 -1.0461
13599TIP3    H240755   3.512   4.710   6.335 -1.5822  3.4147  0.1667
13600TIP3   OH240756   7.313   1.834   5.740  0.2620 -0.4895 -0.2107
13600TIP3    H140757   7.371   1.880   5.801  0.8273  1.3117 -2.0673
13600TIP3    H240758   7.367   1.819   5.663 -1.2045 -0.4232 -1.2652
13601TIP3   OH240759   0.094   6.196   0.531  0.2687  0.1601  0.2209
13601TIP3    H140760   0.059   6.217   0.445 -0.3236 -0.8816  0.2042
13601TIP3    H240761   0.073   6.104   0.545  2.4442 -0.3405  0.4649
13602TIP3   OH240762   0.643   7.810   0.462 -0.5500 -0.5919 -0.5951
13602TIP3    H140763   0.658   7.884   0.521 -1.7738 -0.8922  0.1216
13602TIP3    H240764   0.682   7.837   0.379 -0.1940  0.4865 -0.0928
13603TIP3   OH240765   3.928   0.658   6.422 -0.0536  0.3236 -0.2589
13603TIP3    H140766   3.861   0.712   6.465  0.6576  0.6792  0.4167
13603TIP3    H240767   3.959   0.712   6.349 -0.3688  0.2346 -0.4607
13604TIP3   OH240768   7.301   7.201   1.847 -0.4578 -0.2118  0.0912
13604TIP3    H140769   7.298   7.119   1.897 -1.8966  1.7058  3.3235
13604TIP3    H240770   7.222   7.200   1.794 -0.4137 -0.9570  0.0348
13605TIP3   OH240771   1.007   7.255   3.517  0.5409 -0.3918  0.5834
13605TIP3    H140772   0.949   7.310   3.569  0.8366  1.0070 -0.5457
13605TIP3    H240773   1.008   7.171   3.563 -2.9682 -0.7103  0.1883
13606TIP3   OH240774   1.018   5.656   4.068 -0.4209 -0.3066 -0.8263
13606TIP3    H140775   1.053   5.744   4.077  0.7241 -0.7483 -0.8351
13606TIP3    H240776   0.991   5.632   4.157  1.5539 -0.8696 -0.3669
13607TIP3   OH240777   6.786   1.835   5.958 -0.3409  0.7550 -0.1970
13607TIP3    H140778   6.776   1.796   5.871 -1.8295  0.3033  0.1639
13607TIP3    H240779   6.875   1.811   5.985 -0.7012 -1.1046 -0.6138
13608TIP3   OH240780   8.387   7.353   1.118 -0.5236  0.4676 -0.0266
13608TIP3    H140781   8.345   7.438   1.136 -1.9149 -0.1925 -0.1056
13608TIP3    H240782   8.386   7.308   1.203 -2.4147 -0.6046 -0.6023
13609TIP3   OH240783   7.580   6.354   2.674 -0.7184  0.2455 -0.1970
13609TIP3    H140784   7.660   6.318   2.712 -1.6250  0.4321  1.9357
13609TIP3    H240785   7.543   6.282   2.622 -0.0383 -0.3575  0.1503
13610TIP3   OH240786   0.903   3.940   0.296 -0.3280  0.1352  0.5679
13610TIP3    H140787   0.904   3.844   0.292 -1.1984  0.1615 -0.6216
13610TIP3    H240788   0.846   3.961   0.370 -0.1156 -0.2692  0.8466
13611TIP3   OH240789   2.028   6.324   2.282  0.0124 -0.4250  0.1604
13611TIP3    H140790   2.078   6.329   2.200 -0.9943 -0.4022 -0.4636
13611TIP3    H240791   1.940   6.298   2.255 -1.2067  2.7248  0.8604
13612TIP3   OH240792   5.675   5.619   0.354  0.4322 -0.0829  0.7892
13612TIP3    H140793   5.739   5.682   0.387  0.2142 -0.1198  1.2910
13612TIP3    H240794   5.634   5.584   0.433 -0.8251  0.5896  0.4456
13613TIP3   OH240795   4.733   5.841   5.512 -0.1692 -0.0612  0.1959
13613TIP3    H140796   4.800   5.885   5.460 -1.5906  0.8958 -0.8842
13613TIP3    H240797   4.669   5.909   5.531  0.2434 -0.4299  3.1380
13614TIP3   OH240798   5.786   4.998   6.851  0.1911 -0.2086 -0.4568
13614TIP3    H140799   5.836   5.019   6.930 -0.8040 -1.7426  0.5978
13614TIP3    H240800   5.717   4.939   6.881 -0.4020 -0.5483 -2.4212
13615TIP3   OH240801   6.661   2.366   6.094  0.5589 -0.0780  0.8809
13615TIP3    H140802   6.659   2.417   6.014 -1.7490  0.2133  1.1144
13615TIP3    H240803   6.677   2.276   6.065 -1.0790 -0.0996  0.0293
13616TIP3   OH240804   0.498   6.788   1.137  0.3729  0.1966 -0.0147
13616TIP3    H140805   0.527   6.779   1.228 -0.3475 -0.8675  0.1222
13616TIP3    H240806   0.434   6.717   1.125  0.7330  0.0994 -1.4562
13617TIP3   OH240807   6.419   5.279   3.824 -0.0505  0.2741  0.0094
13617TIP3    H140808   6.340   5.300   3.774  0.1540  1.6025  0.2407
13617TIP3    H240809   6.396   5.197   3.869 -0.8787  0.0317 -0.8311
13618TIP3   OH240810   8.231   5.889   0.778  0.3508  0.4283  0.0116
13618TIP3    H140811   8.226   5.796   0.798  0.8008  0.3693 -0.1450
13618TIP3    H240812   8.239   5.893   0.683  0.0610  0.6351 -0.0031
13619TIP3   OH240813   6.095   4.921   6.607  0.4943 -0.1724 -0.1845
13619TIP3    H140814   6.006   4.893   6.628  0.9707 -0.8673  0.9242
13619TIP3    H240815   6.098   4.923   6.512 -0.5446 -0.6589 -0.2273
13620TIP3   OH240816   4.664   2.390   2.483  0.0328  0.5273  0.2996
13620TIP3    H140817   4.635   2.365   2.395 -0.8432 -0.4552  0.8601
13620TIP3    H240818   4.588   2.432   2.523  0.0986  0.0155  0.9651
13621TIP3   OH240819   4.283   2.022   0.073 -0.2433  0.2731 -0.1494
13621TIP3    H140820   4.369   1.981   0.074 -0.5508 -0.3450  0.6059
13621TIP3    H240821   4.221   1.950   0.080 -0.8307  0.7259 -0.5498
13622TIP3   OH240822   5.725   4.693   1.023 -0.0162 -0.0040  0.6407
13622TIP3    H140823   5.750   4.690   1.116  0.5005 -0.8386  0.4836
13622TIP3    H240824   5.798   4.737   0.980 -1.1009  2.1145  0.8783
13623TIP3   OH240825   8.259   6.320   0.815 -0.3398 -0.1992 -0.1836
13623TIP3    H140826   8.282   6.332   0.723 -1.2702 -0.4532 -0.4545
13623TIP3    H240827   8.324   6.258   0.848  0.4236  0.4374 -0.4856
13624TIP3   OH240828   6.331   1.546   6.260  0.1801  0.1143  0.3840
13624TIP3    H140829   6.425   1.533   6.246  0.2267  1.2085 -0.3532
13624TIP3    H240830   6.289   1.487   6.198  0.3700 -0.7388  1.0533
13625TIP3   OH240831   0.154   6.297   1.835  0.7436  0.2610 -0.3758
13625TIP3    H140832   0.126   6.377   1.880 -2.1065 -1.3227  0.7150
13625TIP3    H240833   0.101   6.294   1.755  2.3546  0.5049 -1.5034
13626TIP3   OH240834   3.198   0.055   1.325  0.3004 -0.2421  0.3022
13626TIP3    H140835   3.275   0.026   1.275 -0.4318 -0.1436 -0.9055
13626TIP3    H240836   3.127   0.053   1.261 -1.1055 -2.2183  1.8623
13627TIP3   OH240837   1.153   6.135   1.566  0.1428  0.4984  0.6019
13627TIP3    H140838   1.172   6.045   1.592  0.9904  1.1805  2.4565
13627TIP3    H240839   1.058   6.140   1.562  0.0820 -0.3857  0.8657
13628TIP3   OH240840   0.617   4.500   2.389  0.5717 -0.4627  0.6110
13628TIP3    H140841   0.675   4.505   2.465  3.3961  0.7304 -1.5646
13628TIP3    H240842   0.580   4.588   2.382  2.6057  0.2903 -1.1009
13629TIP3   OH240843   1.287   5.042   0.680  0.2165  0.0594 -0.3562
13629TIP3    H140844   1.264   5.002   0.596  0.0123  1.3059 -0.8994
13629TIP3    H240845   1.205   5.042   0.730  0.7490 -2.4342  0.5970
13630TIP3   OH240846   8.387   5.087   1.075  0.2014 -0.2306  0.2166
13630TIP3    H140847   8.440   5.112   0.999  1.6089 -0.3903  1.1292
13630TIP3    H240848   8.324   5.023   1.040  1.0850 -0.5877 -0.7494
13631TIP3   OH240849   1.382   7.287   1.132 -0.1316  0.5261 -0.5249
13631TIP3    H140850   1.306   7.234   1.107 -0.5221  2.1442 -2.9120
13631TIP3    H240851   1.455   7.226   1.129 -0.5377  0.1194 -3.4781
13632TIP3   OH240852   5.820   2.330   6.341 -0.1241  0.0337  0.5012
13632TIP3    H140853   5.767   2.251   6.341  0.2492 -0.2437  2.5227
13632TIP3    H240854   5.903   2.303   6.380  0.6814  1.0009 -0.4963
13633TIP3   OH240855   4.513   3.545   6.610 -0.3655 -0.6266 -0.1051
13633TIP3    H140856   4.603   3.513   6.618  0.0997  0.9104  0.9533
13633TIP3    H240857   4.506   3.578   6.521  0.1505 -0.6310 -0.1433
13634TIP3   OH240858   7.650   5.099   0.415  0.2452  0.2633  0.3467
13634TIP3    H140859   7.660   5.042   0.338 -4.4791  0.1510 -0.3652
13634TIP3    H240860   7.659   5.040   0.490  3.5358  0.1326 -0.0623
13635TIP3   OH240861   5.472   5.594   1.196  0.0627 -0.1352  0.0263
13635TIP3    H140862   5.395   5.647   1.179  0.3878  1.0014  1.9764
13635TIP3    H240863   5.445   5.505   1.174 -1.5890  0.3330  0.0873
13636TIP3   OH240864   8.219   7.959   0.976  0.6811 -0.0112 -0.1257
13636TIP3    H140865   8.204   8.036   1.031 -0.4378  0.5422 -1.1980
13636TIP3    H240866   8.303   7.977   0.933 -0.4558  1.4592 -1.7762
13637TIP3   OH240867   5.113   2.034   6.078  0.6633 -0.4066 -0.0644
13637TIP3    H140868   5.187   1.985   6.116  1.4711  2.0180  1.6006
13637TIP3    H240869   5.106   2.112   6.132 -1.2583  0.8429 -2.0527
13638TIP3   OH240870   8.020   6.975   0.578  0.7278  0.1904 -0.2324
13638TIP3    H140871   7.999   7.065   0.554 -0.8497 -0.8202 -2.8405
13638TIP3    H240872   8.115   6.969   0.566  0.7070  1.2524 -0.9846
13639TIP3   OH240873   4.198   0.619   0.843 -0.0796 -0.4628  0.3174
13639TIP3    H140874   4.135   0.548   0.855 -0.5463  0.0088  0.6945
13639TIP3    H240875   4.179   0.652   0.755 -1.0494  0.3365  0.8108
13640TIP3   OH240876   7.087   2.712   6.868 -0.0964 -0.0686 -0.3708
13640TIP3    H140877   6.999   2.692   6.837 -0.1234 -0.0620 -0.2975
13640TIP3    H240878   7.144   2.684   6.797 -0.2378  1.1310 -0.9793
13641TIP3   OH240879   3.328   1.300   0.361 -0.1198  0.3398  0.2661
13641TIP3    H140880   3.332   1.339   0.448  0.7507  0.3062  0.2525
13641TIP3    H240881   3.406   1.333   0.316 -0.0261 -0.4358 -0.1588
13642TIP3   OH240882   3.792   0.517   1.382 -0.3827 -0.0640  0.3040
13642TIP3    H140883   3.855   0.586   1.402 -0.1940 -0.4858  1.2425
13642TIP3    H240884   3.754   0.541   1.298  1.9426 -0.4573 -0.9002
13643TIP3   OH240885   2.304   7.240   0.376  0.3591  0.5760 -0.5424
13643TIP3    H140886   2.363   7.303   0.417  0.4786 -0.0785  0.3013
13643TIP3    H240887   2.331   7.238   0.284  1.7705  0.1584 -0.1306
13644TIP3   OH240888   1.512   7.539   1.324  0.3060  0.4136  0.3706
13644TIP3    H140889   1.569   7.464   1.341 -1.0110 -0.2377  2.0125
13644TIP3    H240890   1.480   7.525   1.236  0.0324 -0.9933  0.6771
13645TIP3   OH240891   5.640   3.371   5.862  0.1063  0.4914 -0.2048
13645TIP3    H140892   5.725   3.351   5.902 -0.0624  0.8571  0.3380
13645TIP3    H240893   5.591   3.289   5.867  0.7275  0.0439 -1.2796
13646TIP3   OH240894   0.872   7.223   0.419  0.2726 -0.3997 -0.0109
13646TIP3    H140895   0.941   7.157   0.428  1.3613  0.6599 -0.3923
13646TIP3    H240896   0.801   7.191   0.474  1.2482 -1.2982  0.7541
13647TIP3   OH240897   5.744   0.689   0.008 -0.0216  0.2748  0.1392
13647TIP3    H140898   5.788   0.646   0.081  0.3526 -0.6256 -0.6105
13647TIP3    H240899   5.785   0.776   0.003 -0.0986  0.3661  1.0329
13648TIP3   OH240900   1.829   7.452   2.610 -0.6489 -0.1571  0.2125
13648TIP3    H140901   1.823   7.528   2.668  0.2476 -0.5516  0.8388
13648TIP3    H240902   1.741   7.415   2.610 -1.2929  1.3411 -0.7342
13649TIP3   OH240903   0.802   5.887   1.142  0.1049  0.7612  0.0214
13649TIP3    H140904   0.874   5.939   1.176  0.7293  0.7003 -1.1745
13649TIP3    H240905   0.774   5.832   1.216  1.6195  0.4237  0.3514
13650TIP3   OH240906   2.008   7.597   0.328 -0.1501 -0.0763  0.0636
13650TIP3    H140907   2.033   7.564   0.415 -1.2846 -2.0808 -0.3478
13650TIP3    H240908   2.078   7.658   0.305  0.4161  0.1384  2.1773
13651TIP3   OH240909   6.877   3.307   4.144 -0.5794  0.0001 -0.4579
13651TIP3    H140910   6.845   3.259   4.220  3.0231 -3.0562 -0.7096
13651TIP3    H240911   6.832   3.268   4.070  0.7844 -1.6371 -0.4579
13652TIP3   OH240912   1.129   6.587   1.286 -0.0810 -0.4234 -0.0691
13652TIP3    H140913   1.208   6.637   1.306  0.1248 -0.7828  0.0299
13652TIP3    H240914   1.061   6.653   1.273 -0.3223 -0.1930  2.2514
13653TIP3   OH240915   0.375   7.534   3.076  0.1878 -0.4540  0.1435
13653TIP3    H140916   0.431   7.602   3.040 -1.3304  1.1441  0.6952
13653TIP3    H240917   0.293   7.580   3.097 -1.1840 -2.6356 -0.2966
13654TIP3   OH240918   3.648   0.902   0.294 -0.4210  0.0783  0.5377
13654TIP3    H140919   3.628   0.991   0.324 -0.5863 -0.3891  1.8441
13654TIP3    H240920   3.562   0.863   0.279 -0.3412  0.6890 -1.7787
13655TIP3   OH240921   4.533   0.180   1.791  0.8040  0.0508  0.2561
13655TIP3    H140922   4.542   0.084   1.795 -0.2066  0.0089  2.3239
13655TIP3    H240923   4.581   0.211   1.869  0.4646  1.1782  0.0207
13656TIP3   OH240924   7.568   2.920   5.575  0.1244 -0.0871 -0.5424
13656TIP3    H140925   7.527   2.835   5.561 -1.2993  0.4195  0.4733
13656TIP3    H240926   7.656   2.910   5.539  0.9788 -2.8798  2.1498
13657TIP3   OH240927   7.111   6.085   6.112 -0.2625 -0.2893  0.4435
13657TIP3    H140928   7.170   6.159   6.101  0.6310 -0.7693  1.7858
13657TIP3    H240929   7.161   6.009   6.082 -0.4354 -0.5992  0.9210
13658TIP3   OH240930   4.598   6.863   0.521  0.0507 -0.0348  0.1997
13658TIP3    H140931   4.529   6.875   0.585 -0.7834  1.0904 -0.8798
13658TIP3    H240932   4.560   6.894   0.438  1.7270  0.3104 -0.4684
13659TIP3   OH240933   1.870   6.742   3.164 -0.1168 -0.5046  0.3174
13659TIP3    H140934   1.922   6.668   3.134  0.2647 -1.1842  2.6032
13659TIP3    H240935   1.931   6.797   3.212 -0.5178  1.0587 -0.8882
13660TIP3   OH240936   6.719   4.099   6.803  0.6290  0.6302 -0.4439
13660TIP3    H140937   6.757   4.088   6.716 -0.0071 -1.2679 -0.5019
13660TIP3    H240938   6.764   4.035   6.857 -1.2520 -0.4702 -0.1343
13661TIP3   OH240939   2.452   7.400   0.660 -0.0947 -0.2593  0.1172
13661TIP3    H140940   2.361   7.429   0.660 -0.6409 -1.9613 -0.3038
13661TIP3    H240941   2.448   7.305   0.665  1.7070 -0.2632  2.2786
13662TIP3   OH240942   0.584   6.476   0.515  0.7486 -0.1763  0.1178
13662TIP3    H140943   0.660   6.433   0.554 -0.7192 -2.0754  0.9570
13662TIP3    H240944   0.511   6.417   0.533 -0.5633  0.5164 -2.6173
13663TIP3   OH240945   1.405   7.177   0.450  0.7996 -0.5839  0.2339
13663TIP3    H140946   1.387   7.187   0.543  3.0471 -1.0555  0.7409
13663TIP3    H240947   1.500   7.182   0.443  0.6803 -0.9300 -1.9945
13664TIP3   OH240948   4.267   6.427   1.490 -0.2089  0.5388 -0.1346
13664TIP3    H140949   4.355   6.423   1.452  0.2377 -0.3084  0.9328
13664TIP3    H240950   4.255   6.519   1.513  0.1742  0.7593 -0.7956
13665TIP3   OH240951   7.623   1.876   5.753  0.2183  0.2786  0.4435
13665TIP3    H140952   7.612   1.938   5.826 -0.0168  1.0570 -0.2517
13665TIP3    H240953   7.664   1.927   5.684 -0.9487 -0.0530 -0.5140
13666TIP3   OH240954   7.350   5.425   6.711 -0.3650  0.1972 -0.3889
13666TIP3    H140955   7.381   5.502   6.664 -2.8715  0.6894 -1.2784
13666TIP3    H240956   7.264   5.449   6.743  0.3950 -0.9140  2.6461
13667TIP3   OH240957   1.319   6.950   0.302 -0.4446  0.3816  0.5255
13667TIP3    H140958   1.356   6.938   0.215 -0.6369  0.8125  0.3871
13667TIP3    H240959   1.351   7.036   0.330  1.2566 -0.5862  1.6750
13668TIP3   OH240960   0.208   1.377   6.179  0.3971 -0.5987  0.0771
13668TIP3    H140961   0.196   1.410   6.090  1.1764 -0.4260  0.0356
13668TIP3    H240962   0.136   1.415   6.229  0.7481  0.3961 -0.1784
13669TIP3   OH240963   3.633   1.317   0.988 -1.0288 -0.4537 -0.3901
13669TIP3    H140964   3.620   1.259   1.064 -0.1224 -1.7708 -1.2191
13669TIP3    H240965   3.716   1.289   0.951 -1.0587  0.7491 -1.3839
13670TIP3   OH240966   0.186   3.859   6.479 -0.0873  0.0205  0.4989
13670TIP3    H140967   0.234   3.887   6.557  2.2227 -2.4292  0.0201
13670TIP3    H240968   0.233   3.900   6.407  0.4885 -1.3088  0.1094
13671TIP3   OH240969   2.486   0.473   2.750 -0.6987  0.3734  0.0001
13671TIP3    H140970   2.544   0.397   2.741 -0.5809  0.2013  2.0030
13671TIP3    H240971   2.543   0.548   2.736 -0.7511  0.1294 -1.6662
13672TIP3   OH240972   5.953   1.182   0.213 -0.4132 -0.4067 -0.3134
13672TIP3    H140973   5.904   1.142   0.142 -1.0716 -0.4666  0.1649
13672TIP3    H240974   6.044   1.156   0.198 -0.6201 -0.8152 -0.8585
13673TIP3   OH240975   2.795   7.806   1.426 -0.0027  0.3206 -0.3677
13673TIP3    H140976   2.784   7.726   1.374  0.3580 -1.4377  2.1488
13673TIP3    H240977   2.707   7.829   1.454 -0.1245  0.9088 -1.2186
13674TIP3   OH240978   4.570   0.923   0.522 -0.0612  0.3266  0.0918
13674TIP3    H140979   4.601   0.873   0.446 -1.1385  0.2791 -0.3331
13674TIP3    H240980   4.580   0.863   0.596 -1.8223 -0.7332 -0.4888
13675TIP3   OH240981   5.328   5.293   5.810 -0.2972  0.3739  0.0361
13675TIP3    H140982   5.327   5.291   5.905  0.8725 -0.4611  0.0410
13675TIP3    H240983   5.291   5.209   5.783 -0.1273  0.3833 -0.2352
13676TIP3   OH240984   0.330   1.862   4.675  0.2698  0.4464  0.1205
13676TIP3    H140985   0.376   1.900   4.750  1.4064  0.6152 -0.6467
13676TIP3    H240986   0.373   1.900   4.599  1.1519 -2.0316 -0.6616
13677TIP3   OH240987   5.641   3.642   5.383 -0.0042 -0.0518 -0.2063
13677TIP3    H140988   5.732   3.618   5.400 -0.5325 -1.2465  0.9764
13677TIP3    H240989   5.628   3.723   5.432  0.0051 -0.6686  0.8332
13678TIP3   OH240990   5.156   1.037   1.298 -0.0286 -0.0297  0.2053
13678TIP3    H140991   5.086   1.095   1.265 -1.1176 -1.4570 -0.0270
13678TIP3    H240992   5.237   1.080   1.270 -0.8539  0.5797 -1.3453
13679TIP3   OH240993   6.843   2.642   6.014 -0.1795  0.7870  0.1969
13679TIP3    H140994   6.802   2.620   6.097 -1.0901 -0.7211 -0.6266
13679TIP3    H240995   6.860   2.558   5.972  0.5020  1.5119 -1.0383
13680TIP3   OH240996   6.627   3.808   5.665  0.4495  0.2454  0.0480
13680TIP3    H140997   6.568   3.875   5.700  0.7665 -0.4515  2.0084
13680TIP3    H240998   6.713   3.832   5.697  0.7874 -0.3190 -0.4149
13681TIP3   OH240999   3.685   0.627   0.353  0.2892  0.2696  0.2786
13681TIP3    H141000   3.728   0.607   0.270  0.3940  2.2378 -0.1701
13681TIP3    H241001   3.649   0.715   0.341  0.4599  0.6665  2.3628
13682TIP3   OH241002   7.490   4.304   6.083 -0.1496 -0.1526 -0.1689
13682TIP3    H141003   7.563   4.367   6.084 -0.2297 -0.0236  2.1285
13682TIP3    H241004   7.413   4.358   6.100 -0.4883 -0.5769 -0.3687
13683TIP3   OH241005   6.503   6.341   6.674 -0.0181  0.0491  0.3434
13683TIP3    H141006   6.585   6.305   6.707 -0.8172 -1.5959  0.6344
13683TIP3    H241007   6.447   6.264   6.662 -1.5878  1.1593  0.3707
13684TIP3   OH241008   4.970   0.385   0.875 -0.2556 -0.2041 -0.0660
13684TIP3    H141009   4.884   0.396   0.836 -1.2754 -2.6908  1.3952
13684TIP3    H241010   5.009   0.311   0.828  0.4901 -0.0623  0.3111
13685TIP3   OH241011   0.099   6.693   2.954 -0.2775  0.7936 -0.0711
13685TIP3    H141012   0.020   6.685   3.008 -0.4577  1.1303 -0.2870
13685TIP3    H241013   0.170   6.706   3.017 -0.3041 -0.1355  0.1613
13686TIP3   OH241014   7.164   3.981   5.837  0.2505 -0.2227 -0.2026
13686TIP3    H141015   7.189   3.983   5.930 -0.0820  0.5734 -0.1351
13686TIP3    H241016   7.184   4.068   5.805 -0.8371 -0.1141 -0.5757
13687TIP3   OH241017   0.921   6.313   0.251 -0.1266 -0.3580 -0.0540
13687TIP3    H141018   0.851   6.263   0.293 -0.6227 -0.3298 -0.8424
13687TIP3    H241019   0.960   6.363   0.323 -0.9191 -0.3695  0.3942
13688TIP3   OH241020   2.045   7.796   2.034  0.1441 -0.2708  0.2296
13688TIP3    H141021   2.017   7.887   2.044  0.6796  0.1402 -1.7682
13688TIP3    H241022   2.019   7.753   2.116  0.6506  1.8535  1.5256
13689TIP3   OH241023   7.144   2.282   6.747  0.0768  0.5969 -0.1641
13689TIP3    H141024   7.055   2.265   6.717  0.3677  0.2760 -0.8495
13689TIP3    H241025   7.140   2.270   6.842 -1.1724  2.9571  0.1398
13690TIP3   OH241026   8.319   2.741   4.440  0.1172 -0.1010 -0.1451
13690TIP3    H141027   8.378   2.790   4.382 -1.8690  1.0193 -1.3017
13690TIP3    H241028   8.369   2.663   4.465  2.2271  1.0119 -0.7200
13691TIP3   OH241029   2.607   6.568   0.704 -0.5001  0.0135 -0.1964
13691TIP3    H141030   2.699   6.574   0.681 -0.7917  2.2001 -0.9083
13691TIP3    H241031   2.561   6.605   0.628 -1.8238  1.4664  1.2759
13692TIP3   OH241032   0.859   7.432   1.704  0.1728 -0.0297 -0.0269
13692TIP3    H141033   0.852   7.343   1.671  0.1107  0.6207 -1.8428
13692TIP3    H241034   0.776   7.446   1.752 -0.4135 -0.4868 -0.8966
13693TIP3   OH241035   5.279   2.617   6.754  0.2747  0.5360 -0.6017
13693TIP3    H141036   5.257   2.594   6.845  0.1059 -0.4957 -0.8967
13693TIP3    H241037   5.375   2.624   6.754  0.3065  0.0851 -0.4506
13694TIP3   OH241038   2.237   7.700   0.910  0.0868  0.1738 -0.1710
13694TIP3    H141039   2.255   7.680   0.819 -0.8499 -1.1924 -0.0537
13694TIP3    H241040   2.166   7.642   0.935  0.6776  0.1588  1.5799
13695TIP3   OH241041   0.863   5.280   0.619 -0.0480  0.3503  0.1923
13695TIP3    H141042   0.819   5.330   0.688 -1.3402  0.3095 -0.5947
13695TIP3    H241043   0.823   5.311   0.538  0.7705 -0.3117 -0.4690
13696TIP3   OH241044   7.461   2.661   6.850 -0.3903  0.3183  0.1159
13696TIP3    H141045   7.492   2.690   6.935  1.0506  0.8469 -0.5680
13696TIP3    H241046   7.366   2.670   6.854 -0.3554 -0.0058  1.7795
13697TIP3   OH241047   8.295   7.577   1.256 -0.1589 -0.3234 -0.1936
13697TIP3    H141048   8.230   7.632   1.300 -0.4647 -1.2156  0.4712
13697TIP3    H241049   8.329   7.520   1.324 -0.3964 -1.4980 -1.0452
13698TIP3   OH241050   3.527   6.664   1.746  0.1687  0.2318 -0.0449
13698TIP3    H141051   3.467   6.705   1.809 -1.3292  0.1026 -1.3649
13698TIP3    H241052   3.533   6.728   1.675  0.0018 -0.6300 -0.8382
13699TIP3   OH241053   3.656   2.695   0.920 -0.1248  0.6792  0.3803
13699TIP3    H141054   3.727   2.687   0.857  0.1532 -0.6574  0.8480
13699TIP3    H241055   3.594   2.627   0.895 -0.0534  0.2003  1.4727
13700TIP3   OH241056   4.611   6.797   1.156 -0.0417  0.3614  0.4767
13700TIP3    H141057   4.699   6.760   1.147 -0.0990  0.5884 -1.0986
13700TIP3    H241058   4.563   6.733   1.209  0.3263 -1.0658 -0.8751
13701TIP3   OH241059   0.357   6.807   0.456  0.2041 -0.0999  0.2316
13701TIP3    H141060   0.355   6.895   0.495 -0.3196 -1.4457  3.3381
13701TIP3    H241061   0.443   6.802   0.414  1.1691  1.0927  1.9768
13702TIP3   OH241062   8.454   2.944   5.769 -0.3328 -0.4157  0.4147
13702TIP3    H141063   8.538   2.983   5.793 -0.7342  0.6348  0.1316
13702TIP3    H241064   8.434   2.884   5.842  0.9465 -1.1467  0.1855
13703TIP3   OH241065   5.248   3.022   6.863 -0.5791  0.1842 -0.1768
13703TIP3    H141066   5.318   3.084   6.882 -0.4399 -0.3752  1.1596
13703TIP3    H241067   5.206   3.056   6.784 -0.1492  1.6753  0.2364
13704TIP3   OH241068   4.304   1.019   0.761  0.3435 -0.5738 -0.0503
13704TIP3    H141069   4.250   0.992   0.687  0.8977 -0.2511 -0.5796
13704TIP3    H241070   4.371   0.952   0.768  1.0291  0.0423 -0.6314
13705TIP3   OH241071   0.526   6.428   0.240  0.0678 -0.1727  0.4742
13705TIP3    H141072   0.569   6.433   0.325 -1.8226  1.9638  1.3499
13705TIP3    H241073   0.482   6.342   0.241  0.4075 -0.3419  1.4766
13706TIP3   OH241074   5.094   0.165   0.731 -0.1828  0.0883 -0.2793
13706TIP3    H141075   5.079   0.089   0.675  0.1672  0.5300 -0.9738
13706TIP3    H241076   5.121   0.235   0.671 -1.3045  0.9926  0.2584
13707TIP3   OH241077   2.564   1.390   0.630 -0.4898 -0.9343  0.0952
13707TIP3    H141078   2.555   1.297   0.611 -0.8267 -0.6768 -1.0521
13707TIP3    H241079   2.481   1.416   0.668 -0.8534 -0.8419 -0.7423
13708TIP3   OH241080   6.562   0.902   2.170 -0.4822 -0.1739  0.3231
13708TIP3    H141081   6.645   0.930   2.131 -0.7672 -0.2837 -0.3527
13708TIP3    H241082   6.587   0.831   2.230 -0.0129  0.1891  0.5547
13709TIP3   OH241083   4.079   7.372   0.425 -0.1338 -0.3834  0.0072
13709TIP3    H141084   4.091   7.314   0.501  0.5433  0.2263  0.3631
13709TIP3    H241085   4.020   7.440   0.457  1.9358  1.1424  0.6792
13710TIP3   OH241086   1.177   6.631   0.997  0.7969  1.0000  0.0606
13710TIP3    H141087   1.215   6.583   1.071  0.2500 -0.7340 -0.7729
13710TIP3    H241088   1.252   6.676   0.957  1.8414 -1.4934 -0.8872
13711TIP3   OH241089   2.946   1.295   0.583 -0.0757  0.4271 -0.2887
13711TIP3    H141090   2.923   1.279   0.492 -0.6748  0.7281 -0.1930
13711TIP3    H241091   2.932   1.210   0.626  1.7165 -0.1368 -0.7662
13712TIP3   OH241092   8.420   3.708   5.056 -0.1895 -0.5322 -0.2642
13712TIP3    H141093   8.360   3.638   5.083  0.2830 -1.6394 -2.0340
13712TIP3    H241094   8.505   3.683   5.094 -0.7886  1.0476  2.2620
13713TIP3   OH241095   3.742   0.370   0.448 -0.4686  0.4486  0.2300
13713TIP3    H141096   3.688   0.439   0.410  0.0043  0.4458 -0.4535
13713TIP3    H241097   3.819   0.366   0.392  0.4155  0.6994  1.4075
13714TIP3   OH241098   5.697   0.313   2.007 -0.0084  0.2575  0.0864
13714TIP3    H141099   5.665   0.267   2.084  1.8580 -1.6194 -0.1933
13714TIP3    H241100   5.635   0.290   1.938  0.9516 -2.0242 -0.0760
13715TIP3   OH241101   0.982   7.002   0.328  0.3161  1.0831  1.1960
13715TIP3    H141102   1.028   6.921   0.306 -1.7813 -0.3560  1.9754
13715TIP3    H241103   0.955   7.039   0.244 -0.6778 -0.2214  0.9216
13716TIP3   OH241104   2.953   6.832   1.050 -0.3660 -0.1089  0.3306
13716TIP3    H141105   2.912   6.757   1.093 -0.8595 -1.0011 -1.6023
13716TIP3    H241106   2.900   6.845   0.970  2.2303 -0.3729 -1.4792
13717TIP3   OH241107   8.377   3.964   5.185  0.2498  0.0758 -0.1602
13717TIP3    H141108   8.287   3.959   5.153  0.6445 -0.5969 -1.2016
13717TIP3    H241109   8.425   3.898   5.134  1.2207  0.0354  0.7702
13718TIP3   OH241110   5.714   1.267   1.163  0.2717 -0.1335 -0.8762
13718TIP3    H141111   5.747   1.356   1.161 -0.6500  0.2393 -0.0788
13718TIP3    H241112   5.680   1.252   1.075  2.2731 -0.4292 -1.6252
13719TIP3   OH241113   3.368   6.406   0.598  0.8393 -0.3992 -0.0963
13719TIP3    H141114   3.432   6.347   0.559 -0.3963 -1.0874 -1.1137
13719TIP3    H241115   3.332   6.455   0.524  0.0280 -0.1868  0.4334
13720TIP3   OH241116   6.738   2.075   6.855 -0.1810 -1.1735 -0.2185
13720TIP3    H141117   6.757   2.141   6.922 -1.1726  1.1109 -2.1298
13720TIP3    H241118   6.822   2.058   6.813  0.1292 -1.3494  0.4626
13721TIP3   OH241119   1.157   7.979   0.973 -0.0895 -0.1383 -0.7118
13721TIP3    H141120   1.185   7.897   1.014 -2.5023 -0.9410 -0.5945
13721TIP3    H241121   1.068   7.993   1.006  1.1056  3.7945  1.1345
13722TIP3   OH241122   1.933   7.482   0.050 -0.5153 -0.3537  0.6245
13722TIP3    H141123   1.840   7.499   0.067 -0.1295  3.2337 -0.3871
13722TIP3    H241124   1.979   7.523   0.123  0.4013  0.8700 -0.6142
13723TIP3   OH241125   2.289   5.039   0.212 -0.0659 -0.2220  0.0582
13723TIP3    H141126   2.349   5.113   0.201 -1.4254  0.5644 -2.3100
13723TIP3    H241127   2.205   5.080   0.236 -0.8938 -0.9589 -1.5356
13724TIP3   OH241128   8.068   1.595   6.810 -0.0363 -0.3767  1.2581
13724TIP3    H141129   7.978   1.587   6.778  0.0926  0.2383  0.7325
13724TIP3    H241130   8.113   1.645   6.742  0.7000 -0.6674  1.5320
13725TIP3   OH241131   3.583   0.236   1.171 -0.8382 -0.0165  0.2513
13725TIP3    H141132   3.501   0.266   1.132 -0.6878 -0.3025 -0.2832
13725TIP3    H241133   3.570   0.248   1.265 -1.2706  0.4928  0.1286
13726TIP3   OH241134   3.878   1.171   0.902  0.1170  0.4447  0.4108
13726TIP3    H141135   3.906   1.251   0.946 -1.8231  1.3038  0.1264
13726TIP3    H241136   3.905   1.183   0.811 -1.2921  1.3518  0.0993
13727TIP3   OH241137   5.255   0.438   0.186 -0.5839 -0.1598  0.2156
13727TIP3    H141138   5.213   0.483   0.259  0.4262  1.6952 -0.3304
13727TIP3    H241139   5.342   0.416   0.219 -0.1869  0.5319 -0.3645
13728TIP3   OH241140   5.199   0.332   0.553 -0.1179 -0.0791 -0.2270
13728TIP3    H141141   5.255   0.388   0.606 -1.6860 -1.1010  2.6292
13728TIP3    H241142   5.136   0.392   0.513  0.1557  0.5612  0.2931
13729TIP3   OH241143   5.750   0.577   0.318  0.7362  0.2817  0.1400
13729TIP3    H141144   5.691   0.651   0.329  1.3741  0.8586 -0.2375
13729TIP3    H241145   5.714   0.509   0.374 -1.2050  0.0618 -1.3227
13730TIP3   OH241146   0.131   5.909   0.929 -0.2019  0.1934 -0.4545
13730TIP3    H141147   0.155   5.818   0.943 -0.0236 -0.5494 -4.8388
13730TIP3    H241148   0.210   5.958   0.952 -0.1741 -0.7593  1.5571
13731TIP3   OH241149   3.532   0.239   1.433 -0.1732  0.4381 -0.6968
13731TIP3    H141150   3.485   0.168   1.476 -0.8011  1.3425  0.1370
13731TIP3    H241151   3.563   0.294   1.505  0.4998  0.8841 -1.3247
13732TIP3   OH241152   4.947   0.943   0.894 -0.4425 -0.2421 -0.0245
13732TIP3    H141153   4.949   0.852   0.864 -2.8846  1.0149 -4.4409
13732TIP3    H241154   4.870   0.948   0.951 -0.2411 -0.9266  0.3190
13733TIP3   OH241155   1.056   7.156   3.139  0.9186  0.3981  0.4856
13733TIP3    H141156   0.987   7.195   3.086  0.3463 -0.3282  0.6789
13733TIP3    H241157   1.099   7.230   3.181  0.4079  0.8745  0.1816
13734TIP3   OH241158   6.652   6.073   6.579  0.1381  0.2863 -0.2235
13734TIP3    H141159   6.726   6.051   6.635 -0.1704 -1.8577 -0.5930
13734TIP3    H241160   6.663   6.016   6.503 -1.6074  0.3174 -0.5120
13735TIP3   OH241161   5.375   0.440   2.379  0.1126 -0.2146  0.3206
13735TIP3    H141162   5.391   0.369   2.317 -1.2658  0.2899 -0.6397
13735TIP3    H241163   5.329   0.506   2.328 -1.2483  0.1133  1.9313
13736TIP3   OH241164   0.640   6.730   0.448 -0.0535  0.2990  0.4380
13736TIP3    H141165   0.600   6.643   0.442 -1.1053  0.8439 -0.6823
13736TIP3    H241166   0.724   6.715   0.491 -0.2180 -1.2796  0.2368
13737TIP3   OH241167   7.513   1.660   5.941  0.3377  0.3691 -0.2712
13737TIP3    H141168   7.548   1.683   6.027  1.5979 -0.7772 -0.4722
13737TIP3    H241169   7.562   1.715   5.880  0.0264  0.5803 -0.3306
13738TIP3   OH241170   5.756   1.928   6.620  0.0135  0.0588 -0.1657
13738TIP3    H141171   5.835   1.965   6.660  0.9580 -2.0903  0.0350
13738TIP3    H241172   5.784   1.901   6.532 -0.9285  0.7488 -0.6905
13739TIP3   OH241173   0.389   1.874   6.796 -0.5228 -0.3260  0.8740
13739TIP3    H141174   0.478   1.896   6.823 -0.8145  0.7930  0.9888
13739TIP3    H241175   0.390   1.780   6.783  1.1531 -0.0835 -0.9313
13740TIP3   OH241176   7.895   2.756   6.143 -0.3295 -0.0189  0.5743
13740TIP3    H141177   7.830   2.686   6.149 -0.4286  0.0896  0.8128
13740TIP3    H241178   7.979   2.713   6.159 -0.3179 -0.1982  0.0432
13741TIP3   OH241179   1.899   6.624   0.505 -0.0098 -0.4225  0.5532
13741TIP3    H141180   1.847   6.626   0.585  1.8279 -0.7654  1.7809
13741TIP3    H241181   1.859   6.554   0.453 -0.0011 -1.5608  2.0301
13742TIP3   OH241182   5.456   4.364   6.484 -0.0910  0.1589 -0.0564
13742TIP3    H141183   5.451   4.402   6.571  0.2437  0.9273 -0.3721
13742TIP3    H241184   5.549   4.346   6.470 -0.2896 -1.2103  0.2689
13743TIP3   OH241185   2.000   6.802   1.820  0.3611 -0.0493  0.7178
13743TIP3    H141186   1.924   6.775   1.871 -0.1554  0.4047  0.2029
13743TIP3    H241187   2.038   6.720   1.788 -0.9554 -0.2145 -0.5020
13744TIP3   OH241188   8.327   7.477   1.605  0.0671  0.6401 -0.3411
13744TIP3    H141189   8.401   7.509   1.553 -1.2810  2.7693 -0.9956
13744TIP3    H241190   8.304   7.551   1.662 -1.4944 -0.0241 -0.0864
13745TIP3   OH241191   6.757   6.707   6.531  0.1228  0.6667  0.4149
13745TIP3    H141192   6.687   6.656   6.572 -0.5647  1.8081  0.6813
13745TIP3    H241193   6.838   6.660   6.554 -0.5579 -0.7429 -0.0196
13746TIP3   OH241194   7.587   1.776   6.174 -0.0740  0.2715  0.3031
13746TIP3    H141195   7.573   1.772   6.268  0.5038 -1.6184  0.3328
13746TIP3    H241196   7.682   1.789   6.164 -0.0690  0.0187 -0.0108
13747TIP3   OH241197   5.155   4.626   5.610 -0.0449  0.2884  0.2935
13747TIP3    H141198   5.178   4.551   5.665  0.9464 -1.2702 -2.1479
13747TIP3    H241199   5.143   4.589   5.522 -2.2629  2.5978 -0.4456
13748TIP3   OH241200   4.626   0.220   0.392  0.3463 -0.2188 -0.0430
13748TIP3    H141201   4.683   0.143   0.383  1.4645  0.3802  1.7080
13748TIP3    H241202   4.621   0.235   0.487 -0.5078  1.3912 -0.3294
13749TIP3   OH241203   7.405   6.200   5.343 -0.5595 -0.1339 -0.2427
13749TIP3    H141204   7.333   6.157   5.297 -1.1167  0.2324  0.2663
13749TIP3    H241205   7.424   6.278   5.291 -0.4549 -0.2987 -0.4477
13750TIP3   OH241206   3.227   5.654   1.017 -0.3811 -0.0907  0.3550
13750TIP3    H141207   3.160   5.631   0.953  0.3575 -2.5562  0.4096
13750TIP3    H241208   3.191   5.628   1.101 -0.4830  1.2104  0.7359
13751TIP3   OH241209   1.807   4.081   6.813 -0.2071 -0.5714  0.1442
13751TIP3    H141210   1.881   4.118   6.860 -0.5948 -0.7885  0.9385
13751TIP3    H241211   1.744   4.058   6.881 -1.0905 -0.2079 -0.5369
13752TIP3   OH241212   5.473   0.104   0.753  0.3217  0.1680  0.1835
13752TIP3    H141213   5.451   0.011   0.763  1.8182 -0.1465  0.6423
13752TIP3    H241214   5.500   0.113   0.662 -2.5983  0.7655 -0.6735
13753TIP3   OH241215   0.858   3.075   4.940 -0.1567  0.2354 -0.2907
13753TIP3    H141216   0.920   3.145   4.917  0.4919  1.1907  4.0460
13753TIP3    H241217   0.774   3.121   4.951 -0.8073 -0.4562 -2.1490
13754TIP3   OH241218   8.159   7.141   2.405  0.0886  0.0658 -0.0739
13754TIP3    H141219   8.079   7.126   2.456  0.1515  0.7539  0.2388
13754TIP3    H241220   8.226   7.090   2.450 -0.1619 -0.4604 -0.2981
13755TIP3   OH241221   1.384   7.588   0.588  0.1022  0.1171  0.0061
13755TIP3    H141222   1.324   7.627   0.524 -1.0334 -0.5941  0.6146
13755TIP3    H241223   1.356   7.626   0.671  0.6802 -0.0197  0.2582
13756TIP3   OH241224   7.348   2.798   6.611 -0.0626  0.3352 -0.0780
13756TIP3    H141225   7.440   2.775   6.627 -0.5783 -0.3628  2.0172
13756TIP3    H241226   7.352   2.875   6.555  1.7851 -0.7172 -1.4624
13757TIP3   OH241227   2.399   7.113   0.719 -0.0425  0.4087  0.0806
13757TIP3    H141228   2.346   7.130   0.797 -0.1923  1.6562 -0.2765
13757TIP3    H241229   2.339   7.069   0.658  0.6718 -2.6072  1.4646
13758TIP3   OH241230   0.757   5.856   0.542 -0.5554 -0.8763 -0.0989
13758TIP3    H141231   0.839   5.889   0.578 -0.5868  0.7190 -1.4337
13758TIP3    H241232   0.690   5.882   0.605 -0.4726  0.9804 -0.7387
13759TIP3   OH241233   3.268   0.296   0.525 -0.2247  1.1300 -0.3217
13759TIP3    H141234   3.174   0.314   0.516 -0.0537  2.5861  0.5941
13759TIP3    H241235   3.288   0.318   0.616  0.2824 -2.8421  0.6008
13760TIP3   OH241236   7.160   2.538   5.223 -0.2654 -0.4266  0.8218
13760TIP3    H141237   7.223   2.486   5.173 -0.4446 -0.2330  0.3948
13760TIP3    H241238   7.210   2.569   5.299  0.0942 -0.4421  0.5912
13761TIP3   OH241239   7.716   3.915   0.890  0.4042  0.3682 -0.8141
13761TIP3    H141240   7.811   3.919   0.896  0.4004 -1.1220  0.4742
13761TIP3    H241241   7.687   4.004   0.911  1.5292  1.0970 -2.2118
13762TIP3   OH241242   3.048   1.100   1.555 -0.5302  0.2225  1.1156
13762TIP3    H141243   3.070   1.193   1.559  1.4835 -0.2042  0.3458
13762TIP3    H241244   3.101   1.060   1.624 -1.3920 -0.3630  1.4455
13763TIP3   OH241245   1.445   6.568   1.189  0.3118  0.0217 -0.1793
13763TIP3    H141246   1.439   6.613   1.104  0.6577 -1.0921 -0.8071
13763TIP3    H241247   1.513   6.616   1.236  0.9104 -0.0196 -0.9728
13764TIP3   OH241248   2.452   6.943   1.345 -0.1060 -0.8318 -0.0155
13764TIP3    H141249   2.396   7.020   1.334 -0.7089 -1.2666 -0.0107
13764TIP3    H241250   2.540   6.975   1.324 -0.1662  0.1492  1.1605
13765TIP3   OH241251   3.365   0.071   3.047 -0.0416 -0.1053 -0.0744
13765TIP3    H141252   3.302   0.000   3.059 -0.0904 -0.1317 -0.4655
13765TIP3    H241253   3.358   0.124   3.126 -0.0575 -0.4977  0.1861
13766TIP3   OH241254   7.598   2.804   6.284 -0.0174 -0.1932 -0.1940
13766TIP3    H141255   7.581   2.711   6.271 -1.5633 -0.2253  1.8583
13766TIP3    H241256   7.523   2.848   6.243 -0.5157  0.0447  0.9680
13767TIP3   OH241257   4.607   1.138   0.157 -0.6839  0.2019 -0.2366
13767TIP3    H141258   4.663   1.213   0.178 -0.2590 -0.2365  0.1794
13767TIP3    H241259   4.655   1.062   0.189 -0.3104 -0.4186 -2.2065
13768TIP3   OH241260   4.339   0.938   2.551  0.3422  0.2243  0.1599
13768TIP3    H141261   4.244   0.927   2.545  0.3722  0.3969 -0.7328
13768TIP3    H241262   4.351   0.996   2.626 -0.2460  0.0441  0.4020
13769TIP3   OH241263   3.694   7.749   0.718 -0.4113  0.1754 -0.2788
13769TIP3    H141264   3.733   7.836   0.704 -1.5508  0.8241  0.4665
13769TIP3    H241265   3.621   7.746   0.656 -0.3769 -0.2455 -0.2963
13770TIP3   OH241266   3.300   0.338   1.132  0.3764  0.2084  1.0061
13770TIP3    H141267   3.264   0.426   1.118 -1.3019 -0.3085  1.9785
13770TIP3    H241268   3.272   0.314   1.220  2.7420 -0.4169  1.6319
13771TIP3   OH241269   7.093   2.306   6.320  0.3084 -0.4840  0.0580
13771TIP3    H141270   7.016   2.275   6.368 -0.0184 -3.3263 -2.1856
13771TIP3    H241271   7.087   2.402   6.324 -2.3118 -0.6611  1.4770
13772TIP3   OH241272  -0.006   5.922   1.176 -0.0331  0.2278  0.3140
13772TIP3    H141273  -0.032   5.837   1.210 -0.7041  0.5909  0.7260
13772TIP3    H241274   0.053   5.902   1.103 -0.9659 -0.6169 -0.2311
13773TIP3   OH241275   4.291   0.012   1.749 -0.0702 -0.2751  0.3013
13773TIP3    H141276   4.338   0.071   1.808 -2.4557  1.5488  0.4564
13773TIP3    H241277   4.290   0.058   1.665 -0.4090 -0.8922 -0.0314
13774TIP3   OH241278   1.569   5.654   1.354 -0.1576  0.4233  0.2453
13774TIP3    H141279   1.585   5.560   1.348 -0.9894  0.3001 -0.1806
13774TIP3    H241280   1.477   5.664   1.329 -0.0107  1.3726  0.0638
13775TIP3   OH241281   0.252   6.959   1.603 -0.5869 -0.3931 -1.0144
13775TIP3    H141282   0.340   6.954   1.565 -1.3929 -0.5946 -2.9030
13775TIP3    H241283   0.222   6.868   1.607  0.2216 -0.5971  1.9818
13776TIP3   OH241284   3.298   6.982   0.630  0.4033 -0.0152  0.3017
13776TIP3    H141285   3.240   6.913   0.600  0.6323  0.1945 -0.6376
13776TIP3    H241286   3.266   7.061   0.587  0.2339  0.4427  1.2513
13777TIP3   OH241287  -0.002   7.980   1.588  0.5197 -0.0308 -0.3930
13777TIP3    H141288  -0.034   8.044   1.524 -2.6473  0.9469  2.0414
13777TIP3    H241289   0.092   7.975   1.573  1.3258  7.0447  0.8563
13778TIP3   OH241290   2.158   1.846   0.706  0.6055 -0.1700 -0.1957
13778TIP3    H141291   2.188   1.770   0.657  1.1359 -0.8531  1.1515
13778TIP3    H241292   2.099   1.810   0.773  1.2915  0.5222  0.8059
13779TIP3   OH241293   0.435   6.142   0.316  0.0384  0.5555  0.4931
13779TIP3    H141294   0.350   6.109   0.345 -0.9261  2.0703 -0.5768
13779TIP3    H241295   0.463   6.080   0.249  0.0925 -0.2975  1.2838
13780TIP3   OH241296   6.828   5.155   6.559 -0.0868  0.7550  0.4211
13780TIP3    H141297   6.846   5.102   6.482 -1.2419  0.5554  0.2816
13780TIP3    H241298   6.735   5.142   6.577  0.4184 -0.2118  2.6158
13781TIP3   OH241299   7.485   2.527   6.232  0.4615  0.0060  0.5696
13781TIP3    H141300   7.442   2.457   6.183  1.1100  0.5435 -0.7913
13781TIP3    H241301   7.413   2.578   6.269 -0.0515 -0.2928 -0.0037
13782TIP3   OH241302   4.027  -0.005   0.421 -0.3081 -0.6246 -0.1669
13782TIP3    H141303   4.083  -0.001   0.498  1.0789 -1.4021 -1.1047
13782TIP3    H241304   3.945   0.035   0.449  0.1862 -0.8306  1.6916
13783TIP3   OH241305   4.844   1.157   1.203  0.4059 -0.0483  0.1943
13783TIP3    H141306   4.788   1.208   1.262  0.2243 -0.6680  0.5635
13783TIP3    H241307   4.784   1.098   1.157  0.4712  0.8236 -1.0318
13784TIP3   OH241308   3.634   7.486   1.369  0.1481  0.8474  0.1816
13784TIP3    H141309   3.566   7.438   1.321 -0.8721  0.6269  1.7916
13784TIP3    H241310   3.666   7.551   1.307 -1.9868  1.3596 -0.4184
13785TIP3   OH241311   3.042   6.301   1.589 -0.7162 -0.5950  0.0107
13785TIP3    H141312   3.086   6.220   1.562 -2.5552 -1.7546  0.4449
13785TIP3    H241313   3.094   6.332   1.664  0.6543 -0.7622 -0.8508
13786TIP3   OH241314   0.186   2.655   6.806 -0.3019  0.1109 -0.1591
13786TIP3    H141315   0.141   2.678   6.725  0.0120 -1.3713 -0.7827
13786TIP3    H241316   0.176   2.560   6.812  1.7643 -0.1098  0.2725
13787TIP3   OH241317   8.376   6.289   6.869  0.1587  0.7510 -0.1538
13787TIP3    H141318   8.378   6.356   6.937 -0.1858 -0.3268  0.9313
13787TIP3    H241319   8.467   6.263   6.858  0.2418  1.0880 -0.2749
13788TIP3   OH241320   2.894   6.371   0.828 -0.5365  0.2409  0.8735
13788TIP3    H141321   2.983   6.404   0.832 -0.3573 -0.1897  0.4471
13788TIP3    H241322   2.874   6.366   0.734 -0.9733  0.2584  0.9657
13789TIP3   OH241323   3.888   5.276   1.448  0.2950  0.2407 -0.5877
13789TIP3    H141324   3.842   5.342   1.396 -0.6449 -2.0902 -2.8310
13789TIP3    H241325   3.980   5.289   1.428  0.4242  2.7968  1.3740
13790TIP3   OH241326   6.885   3.295   6.259  0.3923 -0.3141  0.2045
13790TIP3    H141327   6.824   3.363   6.287  1.0155  1.0827 -1.6936
13790TIP3    H241328   6.940   3.279   6.336  0.7977  1.9732  0.4232
13791TIP3   OH241329   7.879   3.846   5.047 -0.1398  0.2526  0.3868
13791TIP3    H141330   7.880   3.838   4.952 -1.4217  0.5982  0.3264
13791TIP3    H241331   7.894   3.757   5.079  1.6978  0.3569 -0.1089
13792TIP3   OH241332   1.948   7.013   0.698 -0.2434  0.0250 -0.3186
13792TIP3    H141333   2.023   7.028   0.640 -0.4635  0.2197 -0.5564
13792TIP3    H241334   1.907   7.100   0.707 -0.3864 -0.0621 -0.1188
13793TIP3   OH241335   7.960   6.081   6.861  0.3966 -0.4061  0.4015
13793TIP3    H141336   8.031   6.086   6.797 -1.3971  0.3797 -1.5951
13793TIP3    H241337   7.910   6.003   6.836  1.0543 -1.5032  2.3725
13794TIP3   OH241338   8.103   6.900   5.111 -0.1626  0.7079 -0.8538
13794TIP3    H141339   8.194   6.894   5.084 -0.1841 -0.2666 -0.7430
13794TIP3    H241340   8.106   6.940   5.198  0.1512  0.7714 -0.8944
13795TIP3   OH241341   3.976  -0.020   0.710  0.2506  0.4517 -0.2331
13795TIP3    H141342   3.892   0.014   0.680 -0.7513  0.6205  2.5774
13795TIP3    H241343   3.988   0.021   0.796  2.7841 -0.2658 -0.2275
13796TIP3   OH241344   6.589   0.617   1.253  0.5054  0.5841 -0.1901
13796TIP3    H141345   6.656   0.683   1.267  1.9017 -1.0622  1.0151
13796TIP3    H241346   6.615   0.543   1.308 -1.8310 -0.4122 -0.3531
13797TIP3   OH241347   4.120   7.795   2.688 -0.0112  0.2288  0.1670
13797TIP3    H141348   4.027   7.816   2.696 -0.0031  0.3389 -0.0206
13797TIP3    H241349   4.127   7.745   2.607  0.1483  0.5701 -0.0356
13798TIP3   OH241350   3.410   6.558   1.142 -0.3611  0.4421  0.4024
13798TIP3    H141351   3.406   6.643   1.186 -0.1317 -0.0580  1.4027
13798TIP3    H241352   3.353   6.568   1.066  0.6838  1.8987 -0.2024
13799TIP3   OH241353   7.956   4.926   5.924 -0.4743  0.9333  0.2718
13799TIP3    H141354   7.897   5.000   5.912 -1.6322 -0.1648 -0.8263
13799TIP3    H241355   8.012   4.927   5.846  0.3940  1.4267  0.8824
13800TIP3   OH241356   2.115   6.582   1.712  0.3447 -0.4354 -0.2751
13800TIP3    H141357   2.040   6.527   1.688  0.2580 -0.2505 -0.4252
13800TIP3    H241358   2.189   6.521   1.715 -0.2794 -1.1184  2.4393
13801TIP3   OH241359   0.321   4.826   6.010 -0.5265 -0.4254  0.2298
13801TIP3    H141360   0.285   4.914   6.020  0.7803  0.0151  1.2797
13801TIP3    H241361   0.246   4.767   6.021 -1.6666  0.5761 -1.8985
13802TIP3   OH241362   2.343   7.397   3.153  0.4399 -0.6013  0.0348
13802TIP3    H141363   2.378   7.423   3.238 -1.2583  1.3434  0.2035
13802TIP3    H241364   2.415   7.408   3.092  0.9833  0.4204  0.8461
13803TIP3   OH241365   6.493   0.340   1.678 -0.2444  0.2398  0.5582
13803TIP3    H141366   6.510   0.353   1.772 -0.6539 -1.2993  0.8599
13803TIP3    H241367   6.488   0.245   1.668 -0.2213  0.3970 -1.0311
13804TIP3   OH241368   7.617   0.460   6.368 -0.2333 -0.4799  0.1705
13804TIP3    H141369   7.572   0.411   6.299  0.1930  0.5744 -0.8828
13804TIP3    H241370   7.706   0.425   6.368 -1.0071 -2.6007  2.2868
13805TIP3   OH241371   8.298   4.545   6.427  0.3113  0.2868  0.0972
13805TIP3    H141372   8.267   4.589   6.349  1.1018  0.9296  0.1389
13805TIP3    H241373   8.240   4.470   6.437 -0.6642  0.9817 -0.3080
13806TIP3   OH241374   3.921   6.445   1.834 -0.0246 -0.5598  0.1643
13806TIP3    H141375   3.830   6.448   1.805  0.4632  2.7541 -1.2548
13806TIP3    H241376   3.942   6.352   1.839 -2.9517 -1.3385 -1.1934
13807TIP3   OH241377   1.324   2.544   6.297 -0.2201  0.1805 -0.1602
13807TIP3    H141378   1.395   2.482   6.309  0.0099  0.7635  1.6546
13807TIP3    H241379   1.329   2.570   6.205 -0.4154 -2.5767 -0.9793
13808TIP3   OH241380   1.376   6.824   5.400 -0.9975 -0.1282  0.2798
13808TIP3    H141381   1.350   6.777   5.321 -0.4268  0.6598 -0.3730
13808TIP3    H241382   1.406   6.754   5.460 -4.5472 -1.0721  1.0732
13809TIP3   OH241383  -0.024   2.956   4.277 -0.4615  0.0103 -0.0522
13809TIP3    H141384   0.032   2.882   4.299 -0.0374  1.0032  2.3303
13809TIP3    H241385   0.019   2.998   4.203  0.9318 -0.3295  0.5639
13810TIP3   OH241386   1.885   4.765   5.816 -0.1418 -0.3544 -0.4185
13810TIP3    H141387   1.848   4.763   5.728 -1.5660 -0.1030  0.1647
13810TIP3    H241388   1.904   4.858   5.831  1.4954 -0.5730 -1.0151
13811TIP3   OH241389   3.718   2.428   0.590  0.1669 -0.4301 -0.1752
13811TIP3    H141390   3.689   2.390   0.507  0.5954  0.6997 -0.8454
13811TIP3    H241391   3.788   2.488   0.566  0.8693 -0.7189  1.0928
13812TIP3   OH241392   8.241   4.367   5.857  0.8106  0.4205  0.1142
13812TIP3    H141393   8.329   4.372   5.893  1.9337 -1.6443 -2.1775
13812TIP3    H241394   8.230   4.448   5.807  1.7715  0.2598 -0.3594
13813TIP3   OH241395   5.313   0.165   0.063 -0.1269 -0.6456 -0.0544
13813TIP3    H141396   5.342   0.185  -0.026  0.4713  0.6540  0.4117
13813TIP3    H241397   5.290   0.250   0.100  0.6185 -1.0481  1.3725
13814TIP3   OH241398   8.022   3.838   6.748 -0.3057  0.4905  0.3564
13814TIP3    H141399   8.025   3.820   6.654  0.3851  0.6324  0.3479
13814TIP3    H241400   8.113   3.854   6.772 -0.3526 -0.6029  1.2687
13815TIP3   OH241401   4.171   5.849   1.036  0.3974  0.2417  0.0683
13815TIP3    H141402   4.238   5.836   1.103  0.0449  0.0516  0.3841
13815TIP3    H241403   4.091   5.868   1.085 -0.0867 -0.9001 -0.2725
13816TIP3   OH241404   8.288   2.003   5.879 -1.1553  0.2286  0.2756
13816TIP3    H141405   8.230   1.928   5.884  0.2826 -0.9751 -0.6093
13816TIP3    H241406   8.370   1.974   5.919 -0.3755  1.0753 -0.6475
13817TIP3   OH241407   1.392   7.158   6.194  0.2236  0.3611  0.1926
13817TIP3    H141408   1.476   7.141   6.237 -0.3652  0.5580  1.4221
13817TIP3    H241409   1.414   7.218   6.122  0.9997  1.2143  1.1195
13818TIP3   OH241410   7.113   5.554   6.801  0.2434 -0.3185 -0.3609
13818TIP3    H141411   7.059   5.517   6.871 -0.0449 -1.5274 -1.2033
13818TIP3    H241412   7.063   5.539   6.721 -0.0912  2.3252 -0.7056
13819TIP3   OH241413   6.021   2.543   0.441 -0.1997 -0.1646  0.1807
13819TIP3    H141414   6.108   2.521   0.476  0.0458 -2.5070 -1.7402
13819TIP3    H241415   5.961   2.487   0.490 -0.3577 -0.2685 -0.1332
13820TIP3   OH241416   8.164   4.657   6.677  0.1575  0.2667 -0.6212
13820TIP3    H141417   8.197   4.617   6.597 -2.1876  0.6308 -1.7998
13820TIP3    H241418   8.200   4.602   6.747  2.3862  0.0640 -1.8843
13821TIP3   OH241419   1.655   3.921   6.479 -0.1748 -0.2443 -0.4235
13821TIP3    H141420   1.671   3.843   6.427 -0.1060 -1.9953  2.0937
13821TIP3    H241421   1.732   3.930   6.534 -1.1971  0.2103  0.9805
13822TIP3   OH241422   3.608   5.909   6.523 -0.2753  0.1847  0.2190
13822TIP3    H141423   3.663   5.953   6.588  0.3532  0.1060 -0.2619
13822TIP3    H241424   3.629   5.952   6.440 -0.6880 -0.0809 -0.0245
13823TIP3   OH241425   0.755   2.545   0.287 -0.4115 -0.3389 -0.4677
13823TIP3    H141426   0.758   2.470   0.348 -2.0026 -0.1820 -0.1859
13823TIP3    H241427   0.663   2.571   0.285 -0.4002 -0.3740 -3.0182
13824TIP3   OH241428   7.097   1.561   1.009  0.1577  0.3660  0.2998
13824TIP3    H141429   7.113   1.473   0.975 -1.1877  0.7969 -1.4737
13824TIP3    H241430   7.185   1.594   1.029  0.7568 -0.9560 -0.0561
13825TIP3   OH241431   5.609   4.458   0.951 -0.5365  1.1179  0.2036
13825TIP3    H141432   5.604   4.543   0.993 -1.3122  1.4253 -0.5030
13825TIP3    H241433   5.559   4.468   0.870 -2.3359 -0.5901  1.0762
13826TIP3   OH241434   6.775   1.461   1.279 -0.4342 -0.2152 -0.2313
13826TIP3    H141435   6.689   1.502   1.269 -0.0620  0.2583 -1.5488
13826TIP3    H241436   6.772   1.422   1.367 -1.0579  2.0161  0.7792
13827TIP3   OH241437   7.657   2.228   1.206 -0.4863  0.1688 -0.1777
13827TIP3    H141438   7.732   2.171   1.188  0.5271  1.6677 -0.7076
13827TIP3    H241439   7.584   2.188   1.157  0.6119  0.2780 -1.9306
13828TIP3   OH241440   7.444   2.539   2.829 -0.1968  0.0430 -0.3795
13828TIP3    H141441   7.478   2.498   2.750  0.7985 -0.8406  0.4909
13828TIP3    H241442   7.418   2.466   2.885  0.6325  0.6113  0.7758
13829TIP3   OH241443   6.409   0.664   1.061 -0.2741 -0.3578  0.1568
13829TIP3    H141444   6.475   0.653   1.130  0.2573 -1.6289 -0.5510
13829TIP3    H241445   6.325   0.650   1.106 -0.1634  2.0600  1.2370
13830TIP3   OH241446   0.047   5.358   6.788  0.1903  0.0227 -0.3754
13830TIP3    H141447   0.136   5.342   6.820 -0.0399  1.1098  0.8795
13830TIP3    H241448   0.055   5.357   6.693  1.4225 -0.5738 -0.2700
13831TIP3   OH241449   2.450   6.151   6.289  0.6236  0.1247 -0.0442
13831TIP3    H141450   2.362   6.137   6.256  0.9434 -0.7449 -0.5593
13831TIP3    H241451   2.502   6.172   6.212  0.7021  1.4861  0.3745
13832TIP3   OH241452   8.141   0.539   2.361  0.4045  0.4265 -0.3604
13832TIP3    H141453   8.077   0.503   2.423  2.1203  2.2340  2.6141
13832TIP3    H241454   8.095   0.613   2.320 -0.7073 -0.7152 -1.2205
13833TIP3   OH241455   3.746   7.652   1.122  0.1212 -0.3087 -0.0996
13833TIP3    H141456   3.809   7.698   1.177  0.5018 -0.1062 -0.6994
13833TIP3    H241457   3.791   7.571   1.097 -0.3682 -0.7873  0.5731
13834TIP3   OH241458   4.039   1.723   1.628 -0.0654 -0.5079  0.5261
13834TIP3    H141459   3.951   1.758   1.636 -0.5270 -2.1199  2.9467
13834TIP3    H241460   4.092   1.774   1.689  0.8822  1.0265 -1.5445
13835TIP3   OH241461   7.205   1.510   1.503  0.1753  0.1783 -0.0975
13835TIP3    H141462   7.134   1.521   1.567  0.0394 -2.5982  0.2946
13835TIP3    H241463   7.285   1.512   1.556  0.1744 -0.0662 -0.0825
13836TIP3   OH241464   2.678   7.557   2.297 -0.7387  0.1307 -0.4091
13836TIP3    H141465   2.646   7.501   2.226 -1.4228 -2.7221  2.0308
13836TIP3    H241466   2.624   7.532   2.372  2.9120 -0.2104  2.2219
13837TIP3   OH241467   6.876   0.718  -0.015  0.2054 -0.4382 -0.5427
13837TIP3    H141468   6.797   0.727   0.039  1.0184  1.2049  0.4185
13837TIP3    H241469   6.941   0.679   0.043  0.9264  0.8441 -0.4536
13838TIP3   OH241470   5.913   0.697   0.931  0.0279  0.1520 -0.0941
13838TIP3    H141471   5.864   0.640   0.990 -1.3437  2.6726  1.2661
13838TIP3    H241472   5.888   0.667   0.843  0.1215 -1.9703  0.5609
13839TIP3   OH241473   6.981   1.095   0.862  0.4276 -0.0391  0.5216
13839TIP3    H141474   6.897   1.079   0.818  0.9665  1.3693 -1.0598
13839TIP3    H241475   7.043   1.039   0.815  0.5271 -0.5375  1.2318
13840TIP3   OH241476   7.838   0.514   0.495 -0.0339  0.2729 -0.2275
13840TIP3    H141477   7.856   0.452   0.566  0.2721  0.1576 -0.4058
13840TIP3    H241478   7.916   0.510   0.439  0.7328  2.0698  0.6780
13841TIP3   OH241479   2.353   5.220   6.002 -0.0371  0.0611  0.3451
13841TIP3    H141480   2.306   5.198   6.083  1.4239 -0.4504  1.0833
13841TIP3    H241481   2.352   5.138   5.952 -2.1573  0.7647 -0.7920
13842TIP3   OH241482   1.142   5.357   6.262 -0.3183  0.6519  0.6244
13842TIP3    H141483   1.088   5.410   6.321 -0.6354 -0.8332  1.7112
13842TIP3    H241484   1.192   5.300   6.321  1.2057  0.8472 -0.4499
13843TIP3   OH241485   8.408   0.344   1.217 -0.0953 -0.1421 -0.1422
13843TIP3    H141486   8.473   0.413   1.204  0.1071 -0.8216 -3.1249
13843TIP3    H241487   8.419   0.318   1.308  1.2984  2.2564  0.4234
13844TIP3   OH241488   8.141   3.081   0.340 -0.1238 -0.0101 -0.6236
13844TIP3    H141489   8.107   3.018   0.276  0.5298  0.4657 -1.4552
13844TIP3    H241490   8.152   3.030   0.420 -3.2595 -0.0450 -0.1856
13845TIP3   OH241491   0.591   1.610   0.046  0.2510 -0.5640  0.2229
13845TIP3    H141492   0.629   1.638  -0.037 -0.5416 -1.5011 -0.4784
13845TIP3    H241493   0.522   1.674   0.064 -0.3335 -1.0105 -0.4282
13846TIP3   OH241494   7.490   0.950   0.927 -0.2510 -0.3963  0.3502
13846TIP3    H141495   7.486   0.865   0.971  1.5065 -0.1705  0.9616
13846TIP3    H241496   7.461   1.013   0.993  1.9748 -0.1090  1.1030
13847TIP3   OH241497   7.010   0.639   2.384 -0.1737  0.0784 -0.6533
13847TIP3    H141498   7.027   0.545   2.382 -0.5633  0.0212 -1.5866
13847TIP3    H241499   7.022   0.664   2.475 -0.7193 -0.9922 -0.2850
13848TIP3   OH241500   7.173   1.993   1.603  0.2395 -0.0097 -0.2900
13848TIP3    H141501   7.154   1.962   1.514  1.6592 -0.4891 -0.4362
13848TIP3    H241502   7.112   1.944   1.659  1.9805 -2.6062 -0.5799
13849TIP3   OH241503   7.911   1.374   2.402  0.4802  0.6445  0.2896
13849TIP3    H141504   7.928   1.313   2.474  0.3652  1.7696  1.2771
13849TIP3    H241505   7.832   1.340   2.360  0.3484  0.1842  0.9085
13850TIP3   OH241506   0.064   2.110   1.326 -0.2368  0.6583  0.2793
13850TIP3    H141507   0.097   2.125   1.237  1.9191  1.0317  1.1208
13850TIP3    H241508   0.024   2.023   1.323 -0.3400  0.7457 -1.0897
13851TIP3   OH241509   5.973   1.097   1.318  0.0302 -0.3280  0.2906
13851TIP3    H141510   6.010   1.175   1.277  0.8043 -2.1009 -2.5301
13851TIP3    H241511   6.045   1.058   1.367  0.8024 -1.4474 -1.6729
13852TIP3   OH241512   7.402   1.038   0.075 -0.0263 -0.0824  0.4614
13852TIP3    H141513   7.467   0.978   0.037  0.2992  1.7020 -1.9017
13852TIP3    H241514   7.322   0.985   0.082 -0.0199 -0.5511 -2.4937
13853TIP3   OH241515   3.380   6.423   6.163  0.1845  0.2612  0.8120
13853TIP3    H141516   3.416   6.462   6.243  2.6244  1.7420 -0.9181
13853TIP3    H241517   3.433   6.346   6.148  0.2123  0.3902  0.2364
13854TIP3   OH241518   2.443   5.932   6.660  0.3664  0.6804 -0.3496
13854TIP3    H141519   2.451   5.935   6.756 -0.0024  1.5667 -0.3405
13854TIP3    H241520   2.524   5.890   6.631  1.6958  2.7768  0.2019
13855TIP3   OH241521   7.299   0.350   4.675  0.2796 -0.4552 -0.2707
13855TIP3    H141522   7.228   0.314   4.728 -1.1713 -0.2089 -1.9762
13855TIP3    H241523   7.349   0.405   4.735 -0.3635 -1.4403  1.1979
13856TIP3   OH241524   0.447   1.583   4.274  0.2603 -0.1251 -0.1455
13856TIP3    H141525   0.453   1.546   4.362 -1.3643 -0.3040 -0.0893
13856TIP3    H241526   0.357   1.565   4.247  0.7863 -0.2169 -1.9103
13857TIP3   OH241527   7.381   2.884   1.986 -0.5455 -0.5842  0.4034
13857TIP3    H141528   7.343   2.931   2.061  0.4350 -0.8960  1.1033
13857TIP3    H241529   7.442   2.822   2.025  0.3126 -0.4324 -0.6899
13858TIP3   OH241530   2.948   5.660   5.397  0.8380  0.2078 -0.0025
13858TIP3    H141531   2.982   5.590   5.341  1.0123  0.7244 -0.5575
13858TIP3    H241532   2.876   5.620   5.445 -0.6229  0.2923 -2.0822
13859TIP3   OH241533   3.120   4.774   6.160 -0.1587 -0.0069 -0.5278
13859TIP3    H141534   3.190   4.830   6.195  0.3929 -0.2619 -1.2074
13859TIP3    H241535   3.166   4.709   6.107 -0.9451  0.0311 -1.2646
13860TIP3   OH241536   6.003   7.247   0.091  0.2197  0.2643 -0.1679
13860TIP3    H141537   6.046   7.314   0.038 -0.5523 -0.0666 -1.2205
13860TIP3    H241538   6.025   7.271   0.182 -0.6770  2.3814 -0.4757
13861TIP3   OH241539   4.100   6.284   6.658  0.0688 -0.1769 -0.0702
13861TIP3    H141540   4.085   6.204   6.709 -0.1347 -0.8173 -1.1064
13861TIP3    H241541   4.089   6.355   6.721 -0.3858 -0.9369  0.7279
13862TIP3   OH241542   3.150   7.646   1.430 -0.4582 -0.4926 -0.6177
13862TIP3    H141543   3.103   7.577   1.382  0.8737 -0.9718 -1.2552
13862TIP3    H241544   3.228   7.603   1.463  0.8111  0.8992 -1.7212
13863TIP3   OH241545   2.926   2.142   6.739 -0.7787  0.0255  0.2037
13863TIP3    H141546   2.944   2.122   6.647 -2.1991 -0.2944 -0.0165
13863TIP3    H241547   3.012   2.147   6.780 -0.1720 -0.7923 -0.9437
13864TIP3   OH241548   5.328   2.945   6.137  0.4216 -0.5372  0.0094
13864TIP3    H141549   5.402   2.885   6.141  0.4353 -0.6140 -1.0707
13864TIP3    H241550   5.364   3.029   6.165  0.7010 -0.7709  0.3453
13865TIP3   OH241551   8.367   6.566   0.184  0.9107  0.1103  0.0598
13865TIP3    H141552   8.436   6.523   0.133  0.9056 -0.4502  0.5169
13865TIP3    H241553   8.403   6.574   0.272  0.7025  0.5587  0.1059
13866TIP3   OH241554   1.699   3.285   0.135  0.0912 -0.1874  0.3481
13866TIP3    H141555   1.772   3.319   0.185 -0.4838  0.1307  0.9793
13866TIP3    H241556   1.679   3.354   0.071 -0.7654  0.4682  1.3119
13867TIP3   OH241557   4.000   4.015   6.066 -0.6623  0.1692  0.3236
13867TIP3    H141558   4.085   3.977   6.089 -0.8654 -0.2268  0.4239
13867TIP3    H241559   3.952   4.018   6.149 -1.5514 -1.6481 -0.0997
13868TIP3   OH241560   0.876   2.849   0.901 -0.1065  0.1561 -0.4058
13868TIP3    H141561   0.812   2.803   0.845 -0.6662 -1.0411  1.1771
13868TIP3    H241562   0.858   2.942   0.886 -0.7887 -0.1492 -1.5956
13869TIP3   OH241563   3.306   0.878   0.963  0.2140  0.4708 -0.0528
13869TIP3    H141564   3.293   0.961   1.009 -2.8313 -0.2465  0.4952
13869TIP3    H241565   3.241   0.880   0.893 -0.0918 -1.5862  0.1670
13870TIP3   OH241566   7.529   7.365   1.879  0.0761  0.6254 -0.3627
13870TIP3    H141567   7.565   7.377   1.791  0.2270  0.1831 -0.3627
13870TIP3    H241568   7.448   7.316   1.866  0.3963  0.0498 -0.2092
13871TIP3   OH241569   3.607   0.572   1.139  0.3197 -0.0503  0.3397
13871TIP3    H141570   3.519   0.537   1.132  0.3918 -0.1366 -0.1704
13871TIP3    H241571   3.606   0.653   1.087  1.8272 -2.5650 -3.8521
13872TIP3   OH241572   5.127   3.171   6.668 -0.0937 -0.0731  0.7396
13872TIP3    H141573   5.035   3.145   6.660 -0.5064  1.2738  0.9810
13872TIP3    H241574   5.134   3.251   6.616  1.4247 -1.2655 -0.9533
13873TIP3   OH241575   6.225   2.273   6.677 -0.1940 -0.1721 -0.2686
13873TIP3    H141576   6.313   2.237   6.681 -0.2333 -0.3134 -0.6757
13873TIP3    H241577   6.221   2.335   6.750  0.1587 -0.3458 -0.1007
13874TIP3   OH241578   1.004   0.175   0.227 -0.2896  0.1280 -0.7831
13874TIP3    H141579   1.017   0.133   0.312  0.6944 -0.8741 -1.4118
13874TIP3    H241580   1.078   0.145   0.174 -2.5275 -1.8011 -2.9845
13875TIP3   OH241581   4.540   3.266   5.650  0.0246  0.2007  0.7495
13875TIP3    H141582   4.467   3.276   5.588  0.8774  1.3970 -0.0915
13875TIP3    H241583   4.500   3.231   5.729 -1.2984 -0.1233 -0.0459
13876TIP3   OH241584   1.392   7.383   0.283  0.8347 -0.0626  0.5326
13876TIP3    H141585   1.475   7.428   0.300  1.6343 -1.2303 -0.1809
13876TIP3    H241586   1.394   7.307   0.340  1.0297 -1.0145 -0.7363
13877TIP3   OH241587   3.343   4.926   6.240  0.6307 -0.1657 -0.0691
13877TIP3    H141588   3.299   4.976   6.308  2.7947 -1.0304  2.0583
13877TIP3    H241589   3.396   4.862   6.288  0.7474 -2.0551 -2.6277
13878TIP3   OH241590   6.211   3.402   6.829  0.0085 -0.2897 -0.4663
13878TIP3    H141591   6.130   3.352   6.827 -0.1341 -0.1058  0.4829
13878TIP3    H241592   6.220   3.430   6.920  1.4299 -0.8022 -0.4265
13879TIP3   OH241593   8.016   0.576   1.043 -0.1153 -0.5791 -0.0985
13879TIP3    H141594   8.086   0.513   1.060  0.2634 -0.2347 -0.3612
13879TIP3    H241595   8.061   0.652   1.005 -0.6093 -0.2851 -0.1033
13880TIP3   OH241596   3.495   6.082   6.191  0.4446  0.0810  0.0563
13880TIP3    H141597   3.537   5.996   6.188  0.1363 -0.1318  1.3739
13880TIP3    H241598   3.543   6.130   6.259  0.1327  0.6843 -0.1466
13881TIP3   OH241599   6.203   6.307   2.288 -0.3198  0.0458 -0.5014
13881TIP3    H141600   6.196   6.331   2.196  1.5709 -0.6601 -0.8574
13881TIP3    H241601   6.252   6.225   2.287 -1.7980 -0.8837  1.0309
13882TIP3   OH241602   1.677   2.222   0.495 -0.1645  0.2843 -0.2270
13882TIP3    H141603   1.735   2.203   0.421 -1.2336 -0.0867 -0.9757
13882TIP3    H241604   1.646   2.311   0.478 -0.6718  0.0731 -0.3916
13883TIP3   OH241605   4.364   3.414   5.996 -0.2873  0.3168  0.4202
13883TIP3    H141606   4.301   3.358   6.042  1.4931 -0.3643  2.0745
13883TIP3    H241607   4.388   3.364   5.919 -1.1782  0.2436  0.1807
13884TIP3   OH241608   3.306   5.490   6.719  0.1541  0.4089  0.5549
13884TIP3    H141609   3.378   5.552   6.731 -1.6187  2.3578  1.4627
13884TIP3    H241610   3.228   5.545   6.712 -1.0615 -1.5445 -2.2993
13885TIP3   OH241611   4.421   2.404   4.865  0.4994  0.5504  0.6889
13885TIP3    H141612   4.409   2.366   4.952  2.6917 -0.2784  0.6489
13885TIP3    H241613   4.366   2.350   4.808 -0.0077  0.3443  1.3607
13886TIP3   OH241614   2.386   4.538   6.171  0.0635  0.1315 -0.3260
13886TIP3    H141615   2.375   4.475   6.100 -0.1363  0.2780 -0.4284
13886TIP3    H241616   2.300   4.581   6.178  0.3635  0.7793 -0.6283
13887TIP3   OH241617   1.647   3.698   0.659 -0.2198  0.4049  0.3309
13887TIP3    H141618   1.632   3.604   0.668 -0.0099  0.1084 -2.0500
13887TIP3    H241619   1.735   3.712   0.692 -0.7011 -0.0120  1.8398
13888TIP3   OH241620   5.942   6.867   1.021 -0.0725  0.4233 -0.3681
13888TIP3    H141621   5.998   6.908   0.954 -0.7204  0.6676 -0.7662
13888TIP3    H241622   5.979   6.896   1.104  0.8814 -0.0656 -0.6173
13889TIP3   OH241623   2.015   3.340   5.980 -0.3822  0.0038  0.7338
13889TIP3    H141624   1.926   3.364   6.007  0.2570 -0.6448  3.5477
13889TIP3    H241625   2.004   3.254   5.938 -1.5375  1.5252 -2.3170
13890TIP3   OH241626   4.394   3.695   6.075  0.3678 -0.5462  0.1324
13890TIP3    H141627   4.489   3.691   6.071  0.4852  0.9068  0.9577
13890TIP3    H241628   4.365   3.605   6.064  1.8414 -0.9979 -0.1022
13891TIP3   OH241629   3.381   3.410   6.937  0.5050  0.5431 -0.2773
13891TIP3    H141630   3.392   3.418   6.843 -0.6521 -1.5234 -0.6155
13891TIP3    H241631   3.469   3.392   6.970  0.5916 -0.7596 -1.1995
13892TIP3   OH241632   1.724   3.307   2.799 -0.1788 -0.5130 -0.1199
13892TIP3    H141633   1.770   3.387   2.825 -1.9625  0.5785 -0.2589
13892TIP3    H241634   1.712   3.315   2.704 -1.6798 -0.2363  0.0862
13893TIP3   OH241635   5.183   5.702   6.888 -0.1087  0.0147  0.6280
13893TIP3    H141636   5.107   5.699   6.946 -0.4157  0.8790  0.2607
13893TIP3    H241637   5.156   5.654   6.810  0.3017 -1.1446  1.1807
13894TIP3   OH241638   5.555   5.042   0.028  0.0064 -0.1175  0.3681
13894TIP3    H141639   5.536   5.053  -0.066 -0.9715 -1.7989  0.3469
13894TIP3    H241640   5.577   5.130   0.058 -0.4077  0.5812 -1.2865
13895TIP3   OH241641   5.026   3.748   6.935  0.4820  0.0002  0.3667
13895TIP3    H141642   4.984   3.824   6.895 -0.6639  0.2830  2.0445
13895TIP3    H241643   4.982   3.673   6.896  0.9352  0.2126 -0.5646
13896TIP3   OH241644   5.829   5.568   1.735  0.0352  0.2637  0.7658
13896TIP3    H141645   5.784   5.633   1.682 -1.2214 -0.0942  1.3782
13896TIP3    H241646   5.764   5.541   1.800  1.3275  0.1813  2.0426
13897TIP3   OH241647   0.844   2.970   1.188 -0.5366 -0.4894  0.3713
13897TIP3    H141648   0.877   3.047   1.141 -0.8814  1.5974  3.4785
13897TIP3    H241649   0.749   2.978   1.185 -0.5545 -0.1972  1.6809
13898TIP3   OH241650   4.213   5.728   6.811  0.2844  0.0478  0.0268
13898TIP3    H141651   4.138   5.786   6.793 -0.5379 -0.8393  0.5334
13898TIP3    H241652   4.269   5.779   6.869 -0.3100  0.4331  0.2651
13899TIP3   OH241653   7.575   0.310   1.648 -0.5639  0.2997  0.3746
13899TIP3    H141654   7.650   0.281   1.700 -0.3237 -1.0891 -0.7204
13899TIP3    H241655   7.513   0.344   1.713  0.1506 -0.4446  1.4795
13900TIP3   OH241656   0.207   6.562   0.441  0.7754 -0.0820 -0.3730
13900TIP3    H141657   0.227   6.653   0.423 -0.8204  0.2685 -0.4507
13900TIP3    H241658   0.261   6.512   0.380  1.0041  0.8375 -0.9142
13901TIP3   OH241659   0.760   2.436   1.611 -0.0703  0.2908  0.4917
13901TIP3    H141660   0.736   2.394   1.694  2.9782 -0.4775  1.0391
13901TIP3    H241661   0.808   2.368   1.563 -1.2264  0.9449 -1.6382
13902TIP3   OH241662   4.859   5.332   6.074  0.1037 -0.1263  0.6227
13902TIP3    H141663   4.832   5.401   6.015 -0.4937  0.9521  2.1233
13902TIP3    H241664   4.919   5.278   6.023  0.3560  1.3368 -0.6454
13903TIP3   OH241665   8.349   2.908   3.225 -0.0714  0.2585 -0.7372
13903TIP3    H141666   8.393   2.926   3.142  0.2070  1.2181 -0.3876
13903TIP3    H241667   8.263   2.948   3.215  0.8315  2.5315  0.3384
13904TIP3   OH241668   5.638   4.060   5.389 -0.4252  0.2314  0.2647
13904TIP3    H141669   5.721   4.015   5.401 -1.3896 -1.1834  1.7424
13904TIP3    H241670   5.599   4.062   5.476 -2.5249 -0.2718 -0.6459
13905TIP3   OH241671   3.170   3.720   5.086 -0.5200  0.3804  0.2574
13905TIP3    H141672   3.157   3.631   5.053  0.3287 -0.5186  2.2296
13905TIP3    H241673   3.164   3.710   5.182 -0.9093  2.5283  0.4749
13906TIP3   OH241674   0.197   3.752   2.690  0.5179 -0.0724  0.7642
13906TIP3    H141675   0.236   3.838   2.679  0.1800  0.1243  1.0958
13906TIP3    H241676   0.126   3.748   2.625  2.4436 -1.2480 -1.3313
13907TIP3   OH241677   2.888   2.777   0.575 -0.4581 -0.5186  0.0932
13907TIP3    H141678   2.951   2.714   0.541 -1.0276 -0.2948 -1.4253
13907TIP3    H241679   2.803   2.734   0.564 -0.7265 -0.0562  0.3531
13908TIP3   OH241680   1.378   5.360   5.780 -0.2536 -0.0172  0.1083
13908TIP3    H141681   1.356   5.310   5.859 -1.3949 -0.1887 -0.3129
13908TIP3    H241682   1.468   5.390   5.796  0.1448 -1.4816  0.7185
13909TIP3   OH241683   2.854   3.445   5.548  0.0719  0.1957 -0.2778
13909TIP3    H141684   2.901   3.524   5.577  0.9322 -0.1004 -0.8719
13909TIP3    H241685   2.911   3.372   5.573  0.9513 -0.0699 -2.8764
13910TIP3   OH241686   1.859   4.344   5.670  0.0267  0.3391  0.2063
13910TIP3    H141687   1.877   4.384   5.755 -1.9319 -0.7755  1.2073
13910TIP3    H241688   1.904   4.260   5.673 -1.0932 -0.2636  0.6968
13911TIP3   OH241689   1.081   5.640   5.649 -0.1220  0.3452  0.7525
13911TIP3    H141690   1.161   5.609   5.608  0.8271  1.4466  1.7386
13911TIP3    H241691   1.030   5.677   5.577  0.7809  0.7200  0.2987
13912TIP3   OH241692   3.303   2.735   4.758 -0.1734  0.2429 -0.6146
13912TIP3    H141693   3.214   2.768   4.768 -0.9038 -2.3269  1.6552
13912TIP3    H241694   3.295   2.663   4.695  0.2906 -0.0721 -0.3122
13913TIP3   OH241695   7.841   1.859   1.565 -0.4516 -0.2653  0.0737
13913TIP3    H141696   7.841   1.764   1.580 -0.6812 -0.1034  1.0938
13913TIP3    H241697   7.809   1.897   1.647  1.3759  0.7938  0.3339
13914TIP3   OH241698   1.495   2.187   0.114 -0.4410 -0.7024 -0.0511
13914TIP3    H141699   1.481   2.127   0.187  1.1842  0.6589  1.4184
13914TIP3    H241700   1.433   2.258   0.129  0.7745  0.2060  0.7240
13915TIP3   OH241701   1.371   2.866   1.107  0.1518 -0.2226  0.3322
13915TIP3    H141702   1.450   2.868   1.161 -0.3295 -2.4995  1.1778
13915TIP3    H241703   1.378   2.784   1.057 -0.0026  1.2622 -2.1876
13916TIP3   OH241704   5.389   4.717   6.767  0.1935 -0.0400  0.0949
13916TIP3    H141705   5.317   4.676   6.814 -0.2967 -0.1347 -0.7393
13916TIP3    H241706   5.352   4.743   6.682  0.5499  1.8761  0.4933
13917TIP3   OH241707   3.888   2.069   0.861  0.4599 -0.3026  0.1300
13917TIP3    H141708   3.829   2.144   0.872 -1.1289 -1.4308 -0.5332
13917TIP3    H241709   3.872   2.039   0.772  0.8116 -1.6619  0.5173
13918TIP3   OH241710   1.584   5.444   4.688 -0.0326 -0.7937  0.0144
13918TIP3    H141711   1.493   5.472   4.693 -0.0414 -0.4825 -1.6587
13918TIP3    H241712   1.593   5.379   4.758 -1.0361  0.5155  1.4002
13919TIP3   OH241713   0.521   3.503   0.146  0.2743  0.0569 -0.2238
13919TIP3    H141714   0.580   3.428   0.156  1.4751  0.6589 -2.3139
13919TIP3    H241715   0.505   3.508   0.051 -1.0304  1.5086  0.0486
13920TIP3   OH241716   7.679   7.997   0.527  0.0748  0.4583  0.0720
13920TIP3    H141717   7.668   8.076   0.474  0.8048 -0.9428 -2.2367
13920TIP3    H241718   7.592   7.959   0.532  0.1465  0.1572 -0.8531
13921TIP3   OH241719   7.023   7.534   0.089  0.0415 -0.4771 -0.4630
13921TIP3    H141720   7.092   7.534   0.023  1.7946  0.6585  1.3161
13921TIP3    H241721   7.030   7.449   0.132  0.7123 -0.1476  0.0867
13922TIP3   OH241722   3.289   4.246   6.251 -0.4909 -0.0444 -0.1136
13922TIP3    H141723   3.264   4.291   6.331 -0.7643  1.5445 -1.0589
13922TIP3    H241724   3.367   4.197   6.274 -0.1463  0.9768  0.9423
13923TIP3   OH241725   6.782   6.870   0.539 -0.6898 -0.0827 -0.1332
13923TIP3    H141726   6.815   6.827   0.460 -0.3489  0.0377 -0.0594
13923TIP3    H241727   6.852   6.930   0.564  0.0467 -1.5177  1.3622
13924TIP3   OH241728   7.887   2.400   0.903  0.3632 -0.1859 -0.4518
13924TIP3    H141729   7.803   2.439   0.924 -0.4441 -2.2802  0.3470
13924TIP3    H241730   7.923   2.456   0.834 -1.3364  1.1468 -0.2857
13925TIP3   OH241731   3.808   4.532   5.768  0.2791  0.5959  0.3434
13925TIP3    H141732   3.760   4.607   5.803 -0.7313  0.5929 -1.0421
13925TIP3    H241733   3.900   4.550   5.791  0.1833  2.7358 -0.8180
13926TIP3   OH241734   7.720   7.348   0.633  0.4758  0.0288  0.1151
13926TIP3    H141735   7.815   7.334   0.633  0.5705  0.6081  1.0773
13926TIP3    H241736   7.691   7.317   0.719 -0.2038 -0.1118 -0.1587
13927TIP3   OH241737   7.081   2.360   0.371  0.3796  0.3865 -0.5024
13927TIP3    H141738   7.162   2.384   0.416  0.7593 -0.0027 -0.9710
13927TIP3    H241739   7.066   2.431   0.309  0.8083  0.0560 -0.9887
13928TIP3   OH241740   3.690   7.460   5.431  0.4849 -0.5844  0.0827
13928TIP3    H141741   3.700   7.545   5.389 -0.8261 -0.2949  0.3315
13928TIP3    H241742   3.741   7.467   5.512 -1.2100  0.6680  1.0741
13929TIP3   OH241743   4.315   5.079   6.049  0.1758  0.7013  0.0476
13929TIP3    H141744   4.293   4.986   6.060 -0.0317  0.6950 -0.4192
13929TIP3    H241745   4.361   5.083   5.966  2.0973  0.6958  1.0812
13930TIP3   OH241746   6.895   7.898   0.430  0.3210  0.7233 -0.1731
13930TIP3    H141747   6.963   7.852   0.381 -0.1866  0.5707 -0.7562
13930TIP3    H241748   6.890   7.853   0.514 -1.3670 -1.4309 -1.3807
13931TIP3   OH241749   0.203   2.202   0.479  0.0067  0.5471 -0.1198
13931TIP3    H141750   0.296   2.220   0.492  0.1639  0.1853 -0.7056
13931TIP3    H241751   0.197   2.106   0.479 -0.4745  0.5778  0.6765
13932TIP3   OH241752   5.207   6.721   2.408 -0.4721  0.5040 -0.5647
13932TIP3    H141753   5.302   6.712   2.405 -0.3945  0.7510  0.7580
13932TIP3    H241754   5.180   6.723   2.316  0.8555  1.0120 -0.9587
13933TIP3   OH241755   4.853   6.027   1.356  0.0113 -0.2155  0.1134
13933TIP3    H141756   4.859   6.097   1.421 -1.1467  0.1354 -0.1342
13933TIP3    H241757   4.922   6.047   1.292 -0.1258  0.5370  0.1983
13934TIP3   OH241758   7.889   0.508   0.153  0.4936  0.2412  0.2861
13934TIP3    H141759   7.913   0.488   0.063 -1.4220  1.5502 -0.5430
13934TIP3    H241760   7.882   0.604   0.156 -2.5696  0.0516  0.9774
13935TIP3   OH241761   3.298   5.425   1.624 -0.1033  0.3156 -0.3781
13935TIP3    H141762   3.381   5.461   1.654  0.8243 -0.1069 -2.3202
13935TIP3    H241763   3.292   5.340   1.668  0.5682  0.2837 -0.3343
13936TIP3   OH241764   2.299   4.126   6.327  0.2034  0.1290 -0.0384
13936TIP3    H141765   2.304   4.147   6.234 -0.4237 -0.5780 -0.2383
13936TIP3    H241766   2.373   4.172   6.366 -0.2729  1.4633 -0.6832
13937TIP3   OH241767   1.604   2.205   1.552  0.1951 -0.1741 -0.0839
13937TIP3    H141768   1.685   2.227   1.598 -0.0099  0.8208 -0.1842
13937TIP3    H241769   1.630   2.201   1.460 -0.2513  2.1291 -0.3390
13938TIP3   OH241770   7.510   5.360   0.333 -0.0068 -0.3096 -0.0746
13938TIP3    H141771   7.561   5.280   0.350  0.7049  0.3907  1.2095
13938TIP3    H241772   7.420   5.335   0.353  0.2986 -0.6206  0.9981
13939TIP3   OH241773   6.626   6.553   0.500 -0.1499 -0.2931  0.4004
13939TIP3    H141774   6.555   6.568   0.437 -0.0933  0.2652  0.4649
13939TIP3    H241775   6.704   6.584   0.456  0.4001 -2.7572 -0.4605
13940TIP3   OH241776   2.224   3.732   6.662 -0.0667 -0.0044  0.4122
13940TIP3    H141777   2.198   3.810   6.711 -0.4387  1.1907 -1.6574
13940TIP3    H241778   2.173   3.661   6.703  0.8304  0.6575  2.7804
13941TIP3   OH241779   3.394   4.837   6.554 -0.6076  0.6722  0.0851
13941TIP3    H141780   3.371   4.804   6.641 -1.7526 -1.4262 -0.9590
13941TIP3    H241781   3.482   4.872   6.564  0.9357 -3.2577  1.2039
13942TIP3   OH241782   0.205   1.317   0.325 -0.1195 -0.5010  0.4181
13942TIP3    H141783   0.172   1.379   0.391 -2.4769 -1.6305  0.3311
13942TIP3    H241784   0.251   1.373   0.262 -0.9677  1.0050  1.0912
13943TIP3   OH241785   8.384   1.013   0.771  0.1176  0.1471 -0.6632
13943TIP3    H141786   8.319   0.977   0.710  1.4287 -0.8485 -1.5093
13943TIP3    H241787   8.406   1.099   0.735 -0.3798  0.2891 -0.6322
13944TIP3   OH241788   2.102   0.773   0.494  0.5034  0.0823 -0.4430
13944TIP3    H141789   2.102   0.858   0.539 -0.0811  0.5406 -1.2940
13944TIP3    H241790   2.010   0.760   0.469  0.8962  0.0234 -1.8621
13945TIP3   OH241791   2.815   6.364   4.773  0.0076  0.3496 -0.7859
13945TIP3    H141792   2.815   6.279   4.819 -0.1505  1.4793  1.3600
13945TIP3    H241793   2.893   6.361   4.717  1.3437 -0.2691  1.0696
13946TIP3   OH241794   7.991   3.052   1.844  0.7535 -0.3795  0.6983
13946TIP3    H141795   8.078   3.089   1.830 -0.0210  0.6106 -1.7871
13946TIP3    H241796   8.006   2.970   1.890  3.0689 -0.7225 -0.6166
13947TIP3   OH241797   3.597   3.281   6.176  0.1716 -0.0230 -0.1571
13947TIP3    H141798   3.503   3.265   6.187 -0.0806  2.0599  1.0188
13947TIP3    H241799   3.604   3.323   6.090 -0.3451  2.2224  0.8380
13948TIP3   OH241800   7.254   7.783   0.092 -0.1690 -0.7074 -0.2159
13948TIP3    H141801   7.200   7.799   0.169  1.0534  2.7948  0.0109
13948TIP3    H241802   7.343   7.774   0.126  0.2978  0.3019 -1.1234
13949TIP3   OH241803   3.912   3.420   5.414 -0.6140 -0.3369 -0.1257
13949TIP3    H141804   3.993   3.376   5.441  1.3192  2.4110 -1.2410
13949TIP3    H241805   3.857   3.419   5.493  0.6549 -1.8224  0.7768
13950TIP3   OH241806   1.983   4.522   5.465  0.0017 -0.2277 -0.1182
13950TIP3    H141807   1.986   4.477   5.549 -1.2263  0.4298  0.2941
13950TIP3    H241808   1.933   4.463   5.408 -1.6321  0.5923  0.4292
13951TIP3   OH241809   4.691   3.028   6.737 -0.1907 -0.2533 -0.1998
13951TIP3    H141810   4.767   2.990   6.693 -0.0726  1.1039 -1.2129
13951TIP3    H241811   4.722   3.049   6.825  0.3447 -0.5328 -0.3193
13952TIP3   OH241812   2.216   6.100   6.124 -0.1041 -0.3615  0.5237
13952TIP3    H141813   2.149   6.069   6.185 -0.7936  0.5669  0.2355
13952TIP3    H241814   2.167   6.140   6.052  0.7164 -1.0761 -0.4513
13953TIP3   OH241815   4.399   7.815   3.150  0.3360  0.2126 -0.1253
13953TIP3    H141816   4.355   7.858   3.078 -1.3766 -0.1386  0.6811
13953TIP3    H241817   4.468   7.762   3.109 -0.7216 -0.1080 -1.5004
13954TIP3   OH241818   8.434   1.844   1.281 -0.2984 -0.7902  0.2158
13954TIP3    H141819   8.359   1.875   1.231 -1.2587 -2.4340  0.5934
13954TIP3    H241820   8.443   1.752   1.255  3.0063 -0.0475 -1.5612
13955TIP3   OH241821   7.110   0.921   1.394 -0.0419 -0.8706  0.0916
13955TIP3    H141822   7.102   0.996   1.335  0.2491 -0.9867 -0.0935
13955TIP3    H241823   7.103   0.958   1.482 -0.4077 -0.6890 -0.0141
13956TIP3   OH241824   1.414   3.246   2.804  0.9963  0.3665 -0.4736
13956TIP3    H141825   1.433   3.183   2.874  1.8426  1.7682  0.5977
13956TIP3    H241826   1.457   3.327   2.833 -2.4901  2.2963 -0.3448
13957TIP3   OH241827   8.049   7.782   0.826  0.4891  0.5385 -0.4907
13957TIP3    H141828   8.027   7.721   0.896 -0.8987  0.9495 -0.5466
13957TIP3    H241829   8.095   7.853   0.870 -0.0548  0.6231 -0.0542
13958TIP3   OH241830   0.961   2.074   0.780  0.0449  0.0165  0.2627
13958TIP3    H141831   1.043   2.044   0.819  0.4535  0.2631 -0.3918
13958TIP3    H241832   0.912   1.994   0.762  0.8499 -0.2267 -0.8746
13959TIP3   OH241833   4.277   4.546   6.160 -0.4670 -0.1266 -0.2974
13959TIP3    H141834   4.369   4.550   6.184 -0.5442 -0.8561  0.1198
13959TIP3    H241835   4.234   4.608   6.219 -0.4841 -1.0263  0.6500
13960TIP3   OH241836   7.903   7.792   0.580  0.2143  0.1226 -0.1219
13960TIP3    H141837   7.838   7.862   0.584  1.5335  1.3870 -0.3584
13960TIP3    H241838   7.942   7.792   0.668  1.3316  0.7908 -0.6062
13961TIP3   OH241839   5.754   7.905   0.749 -0.4386 -0.0644 -0.6125
13961TIP3    H141840   5.735   7.996   0.770 -2.3203 -0.0991 -2.0338
13961TIP3    H241841   5.687   7.854   0.795  0.9643 -0.8073  0.6729
13962TIP3   OH241842   1.924   4.658   1.098 -0.6718 -0.3248  0.1604
13962TIP3    H141843   1.976   4.586   1.132 -0.2536  0.6066  1.5373
13962TIP3    H241844   1.839   4.650   1.140 -0.4982  0.2087  0.6220
13963TIP3   OH241845   4.583   5.726   6.665 -0.1767 -0.1809  0.0980
13963TIP3    H141846   4.597   5.820   6.654 -2.2873 -0.0418 -1.8315
13963TIP3    H241847   4.574   5.714   6.760  1.0559  1.4075  0.4327
13964TIP3   OH241848   5.110   3.998   6.671 -0.0088  0.6365  0.5392
13964TIP3    H141849   5.148   3.995   6.759  0.1020 -2.2936  0.4626
13964TIP3    H241850   5.016   3.986   6.685  0.2309 -2.0192  0.1953
13965TIP3   OH241851   3.512   1.804   6.683 -0.1100 -0.4262 -0.1833
13965TIP3    H141852   3.453   1.772   6.615  0.4222 -1.1659 -0.3052
13965TIP3    H241853   3.541   1.725   6.729  1.8747 -0.2233 -1.0074
13966TIP3   OH241854   5.105   3.179   5.932  0.4918 -0.0009  0.3504
13966TIP3    H141855   5.038   3.195   5.866 -0.6751  0.4295  1.6132
13966TIP3    H241856   5.154   3.104   5.900 -2.2468 -1.9609  0.6585
13967TIP3   OH241857   6.704   3.030   5.109  0.7153  0.1844  0.0844
13967TIP3    H141858   6.720   3.063   5.197  1.5353  0.7653 -0.2734
13967TIP3    H241859   6.770   3.073   5.055 -0.0979  0.2134 -0.9038
13968TIP3   OH241860   6.885   6.260   0.268  0.0563  0.3151 -0.0036
13968TIP3    H141861   6.826   6.229   0.337 -0.1969 -0.4659 -0.5732
13968TIP3    H241862   6.961   6.202   0.273  0.9637  1.5397  0.9674
13969TIP3   OH241863   0.280   7.079   1.317 -0.3266 -0.4447 -0.1585
13969TIP3    H141864   0.190   7.076   1.285 -0.2167 -1.8032 -0.3832
13969TIP3    H241865   0.284   7.008   1.381  0.5265 -0.2483  0.0081
13970TIP3   OH241866   7.628   2.703   2.052  0.1982 -0.5722  0.0834
13970TIP3    H141867   7.707   2.707   1.999 -0.3637 -0.8957 -0.7933
13970TIP3    H241868   7.620   2.611   2.076  0.3244 -0.4652  0.5369
13971TIP3   OH241869   7.437   0.237   0.542  0.0308 -0.1168  0.4118
13971TIP3    H141870   7.471   0.293   0.612 -0.1779 -2.1044  2.1732
13971TIP3    H241871   7.433   0.149   0.582 -0.5712 -1.1949 -1.9471
13972TIP3   OH241872   1.828   1.786   0.614 -0.7752 -0.0256  0.1183
13972TIP3    H141873   1.742   1.783   0.571 -1.5896  1.0512  1.6205
13972TIP3    H241874   1.808   1.808   0.705  1.1221  0.4095  0.4402
13973TIP3   OH241875   6.726   1.941   1.485  0.1640  0.4222  0.1152
13973TIP3    H141876   6.731   1.887   1.406 -1.5788 -2.0946  1.6500
13973TIP3    H241877   6.647   1.993   1.474  0.8248  1.3191 -0.5120
13974TIP3   OH241878   4.181   5.492   6.669 -0.5651 -0.2941  0.4516
13974TIP3    H141879   4.261   5.439   6.679  1.8581  2.6779 -2.1215
13974TIP3    H241880   4.198   5.570   6.722 -0.5525  1.5512 -2.1707
13975TIP3   OH241881   1.709   1.938   1.113 -0.2778  0.0599  1.2062
13975TIP3    H141882   1.687   2.028   1.134 -0.4694 -0.3285  2.7432
13975TIP3    H241883   1.626   1.890   1.125 -0.8343  0.0936 -2.1987
13976TIP3   OH241884   7.258   1.567   3.129 -0.3134  0.5962  0.2361
13976TIP3    H141885   7.171   1.587   3.096 -0.4256  0.7923  0.6367
13976TIP3    H241886   7.246   1.491   3.185  0.1356 -0.6629 -1.3631
13977TIP3   OH241887   7.180   1.283   0.924  0.3826  0.0324 -0.0054
13977TIP3    H141888   7.108   1.224   0.902 -1.1819  1.9022 -0.0010
13977TIP3    H241889   7.248   1.261   0.861 -1.2369  0.1646 -1.8446
13978TIP3   OH241890   7.089   2.941   2.658  0.2519  0.4299  0.0983
13978TIP3    H141891   7.144   2.864   2.649  0.9995  0.9879 -0.1248
13978TIP3    H241892   6.999   2.907   2.656  0.5471 -0.2944 -1.3194
13979TIP3   OH241893   0.112   7.437   0.406  0.3876  0.2779  0.5315
13979TIP3    H141894   0.063   7.491   0.344 -0.9073  0.7081  1.8933
13979TIP3    H241895   0.058   7.359   0.419  0.5411  0.2833  1.2577
13980TIP3   OH241896   1.505   2.548   2.525  0.2617  0.1576 -0.7834
13980TIP3    H141897   1.435   2.549   2.460 -1.0583 -1.2661  0.5565
13980TIP3    H241898   1.467   2.590   2.603  1.6416  1.3751 -0.7434
13981TIP3   OH241899   2.986   6.015   6.888  0.2933 -0.5150 -0.4309
13981TIP3    H141900   3.037   6.040   6.965  0.5846 -0.5798 -0.6030
13981TIP3    H241901   2.941   6.096   6.862 -0.4472 -0.6877  0.2952
13982TIP3   OH241902   2.544   6.138   5.913 -0.3189 -0.1820  0.5135
13982TIP3    H141903   2.467   6.193   5.930 -0.7573  0.3852 -2.8756
13982TIP3    H241904   2.576   6.169   5.828  1.7485 -2.5775  0.3853
13983TIP3   OH241905   8.048   0.920   1.869  0.8497  0.1541 -0.6179
13983TIP3    H141906   7.995   0.868   1.809 -1.3695  1.7097 -0.0658
13983TIP3    H241907   8.086   0.989   1.815 -1.5185  1.8291 -0.2095
13984TIP3   OH241908   8.023   1.769   2.794  0.4688  0.2455 -0.0280
13984TIP3    H141909   8.039   1.841   2.856  2.3269 -0.9848  0.9751
13984TIP3    H241910   8.098   1.771   2.735 -0.1631 -0.0119 -0.8445
13985TIP3   OH241911   7.387   5.621   2.350 -0.5398 -0.4182  0.2995
13985TIP3    H141912   7.304   5.668   2.359 -0.2321  0.0974  0.4682
13985TIP3    H241913   7.447   5.686   2.314  0.1578 -0.3839  1.4839
13986TIP3   OH241914   7.154   7.612   0.528  0.4102  0.4428 -0.7197
13986TIP3    H141915   7.104   7.531   0.516  2.3616 -0.5601 -2.3289
13986TIP3    H241916   7.224   7.588   0.588  1.4253  0.7143 -1.7714
13987TIP3   OH241917   7.911   0.213   0.401 -0.0980 -0.6587 -0.3680
13987TIP3    H141918   7.974   0.186   0.334 -0.8690  0.7952 -1.7124
13987TIP3    H241919   7.828   0.177   0.372 -0.6492  0.9128 -0.8170
13988TIP3   OH241920   5.083   7.732   1.468 -0.0927  0.0550  0.0616
13988TIP3    H141921   4.993   7.727   1.436  0.3188  0.4683 -1.1787
13988TIP3    H241922   5.080   7.689   1.553 -0.8278 -2.7801 -1.3397
13989TIP3   OH241923   2.301   1.523   0.290  0.0362  0.2461  0.1513
13989TIP3    H141924   2.360   1.480   0.228  0.2459  0.6582  0.0645
13989TIP3    H241925   2.258   1.591   0.238  1.0373  1.3246  0.7343
13990TIP3   OH241926   2.870   4.469   6.796 -0.0315 -0.3632  0.6961
13990TIP3    H141927   2.783   4.498   6.822 -0.0493  0.6987 -0.4683
13990TIP3    H241928   2.854   4.402   6.729  0.0415 -0.1784  0.4919
13991TIP3   OH241929   8.427   2.200   0.652  0.5349 -0.1882  0.3411
13991TIP3    H141930   8.492   2.134   0.679  0.6701 -0.4088 -0.5032
13991TIP3    H241931   8.456   2.280   0.694  1.8112 -0.1177 -0.6281
13992TIP3   OH241932   6.658   6.377   0.975  0.4255 -0.2527 -0.1325
13992TIP3    H141933   6.706   6.423   0.907  1.5394 -1.2064 -0.0046
13992TIP3    H241934   6.709   6.297   0.991 -0.0696 -0.2631  1.4974
13993TIP3   OH241935   8.377   3.348   2.700 -0.4590  0.0911 -0.1440
13993TIP3    H141936   8.390   3.261   2.662 -1.6314  0.4555 -1.4418
13993TIP3    H241937   8.465   3.386   2.705 -0.0574 -0.7709 -0.5650
13994TIP3   OH241938   8.011   2.016   1.726  0.3543 -0.3665 -0.6019
13994TIP3    H141939   8.032   1.946   1.663  2.1737  0.5864 -1.0928
13994TIP3    H241940   7.927   2.051   1.696 -1.5712 -3.5844  0.7690
13995TIP3   OH241941   2.556   0.948   1.587  0.2100  0.3673  0.3064
13995TIP3    H141942   2.516   1.010   1.526 -0.8381 -1.7358 -1.2163
13995TIP3    H241943   2.642   0.930   1.550  0.3836  0.6467  0.5702
13996TIP3   OH241944   8.247   0.853   0.192 -0.1864  0.5381  0.0619
13996TIP3    H141945   8.331   0.817   0.165 -1.1701 -2.2390  0.4399
13996TIP3    H241946   8.183   0.790   0.157 -1.9339  1.2844  1.8488
13997TIP3   OH241947   4.615   5.507   6.285  0.3339 -0.4135 -0.5593
13997TIP3    H141948   4.635   5.584   6.232  1.2760 -0.4164 -0.2206
13997TIP3    H241949   4.613   5.434   6.223 -0.2215 -0.1630 -0.8306
13998TIP3   OH241950   4.878   5.584   5.878  0.5504  0.5312  0.0798
13998TIP3    H141951   4.944   5.520   5.849 -0.8853 -0.4194 -1.1890
13998TIP3    H241952   4.929   5.660   5.904  2.1085  0.5238 -2.6752
13999TIP3   OH241953   5.974   4.360   5.825 -0.0572  0.0352  0.4445
13999TIP3    H141954   6.029   4.374   5.748  0.5025 -0.8132  0.6880
13999TIP3    H241955   5.914   4.435   5.825  0.4941  0.4866 -0.3359
14000TIP3   OH241956   7.329   6.926   1.867  0.2422 -0.2771  0.2287
14000TIP3    H141957   7.290   6.855   1.815  0.1178 -0.0826  0.0545
14000TIP3    H241958   7.294   6.912   1.955 -0.7246  0.2601 -0.0576
14001TIP3   OH241959   3.336   3.364   1.299 -0.3571 -0.7014 -0.2461
14001TIP3    H141960   3.353   3.430   1.366  0.6682 -0.5330 -0.6602
14001TIP3    H241961   3.277   3.301   1.342 -1.3897  0.4988  0.1259
14002TIP3   OH241962   3.209   5.995   5.675  0.4991 -0.5995 -0.5437
14002TIP3    H141963   3.182   5.906   5.652 -0.8595 -0.3433 -0.0006
14002TIP3    H241964   3.253   6.028   5.597  1.1456 -1.8014 -0.6881
14003TIP3   OH241965   4.257   0.598   0.167  0.1225 -0.4961 -0.8012
14003TIP3    H141966   4.345   0.633   0.162 -0.0771 -0.0375 -1.1414
14003TIP3    H241967   4.263   0.512   0.124  0.3171 -0.2917 -1.1843
14004TIP3   OH241968   3.517   1.136   0.592 -0.3489  0.4770 -0.0874
14004TIP3    H141969   3.556   1.072   0.652  0.5821  1.9994  0.9550
14004TIP3    H241970   3.573   1.133   0.514  0.9963  1.5771  0.8153
14005TIP3   OH241971   3.700   1.564   1.219  0.2362 -0.5022 -0.0233
14005TIP3    H141972   3.641   1.512   1.164  0.7916 -1.8282  0.6070
14005TIP3    H241973   3.735   1.501   1.282  0.9155  0.6541  0.7644
14006TIP3   OH241974   3.602   2.468   1.810  0.3370 -0.3065 -0.3787
14006TIP3    H141975   3.577   2.451   1.719 -0.5766  0.9309 -0.3785
14006TIP3    H241976   3.696   2.486   1.806  0.3014 -0.2583 -1.0890
14007TIP3   OH241977   4.792   3.578   4.968  0.3137  0.5575 -0.0341
14007TIP3    H141978   4.868   3.604   5.021 -0.0629 -0.0723  0.8261
14007TIP3    H241979   4.779   3.486   4.990  0.3188  0.2102 -1.4403
14008TIP3   OH241980   2.308   1.968   0.255 -0.1541  0.0935  0.0261
14008TIP3    H141981   2.297   1.979   0.350  0.6387  0.6863  0.0597
14008TIP3    H241982   2.220   1.978   0.219 -0.5394 -0.6782  0.7501
14009TIP3   OH241983   5.865   4.405   6.117 -0.2508  0.1603 -0.5427
14009TIP3    H141984   5.921   4.478   6.093 -0.8164  0.9218  0.3968
14009TIP3    H241985   5.851   4.356   6.036  0.0683  1.1384 -1.1871
14010TIP3   OH241986   4.382   0.074   1.128 -0.0484 -0.1763 -0.1478
14010TIP3    H141987   4.338  -0.002   1.167  0.1731 -1.0480 -1.5851
14010TIP3    H241988   4.346   0.149   1.176 -3.9807 -0.7326 -2.0074
14011TIP3   OH241989   8.198   7.051   1.513 -0.0058 -0.5853  0.1041
14011TIP3    H141990   8.291   7.070   1.502  0.0016 -0.0820  1.0059
14011TIP3    H241991   8.157   7.085   1.433  0.4920 -0.1518  0.0279
14012TIP3   OH241992   5.000   6.147   6.367  0.3742  0.0681  0.2462
14012TIP3    H141993   5.037   6.092   6.298 -1.6077 -0.2612 -0.5596
14012TIP3    H241994   4.911   6.114   6.381 -0.1982  1.8613  1.0700
14013TIP3   OH241995   3.189   2.333   1.257  0.5044  1.2206 -0.7703
14013TIP3    H141996   3.275   2.297   1.279  0.6183  1.5255 -0.7073
14013TIP3    H241997   3.130   2.258   1.261  0.3678  1.3910  1.4777
14014TIP3   OH241998   7.771   7.587   3.047  0.1186 -0.4648 -0.4706
14014TIP3    H141999   7.686   7.606   3.087 -0.4147 -1.8533 -0.9164
14014TIP3    H242000   7.814   7.672   3.040 -0.2353 -0.0350  2.0184
14015TIP3   OH242001   7.616   6.758   0.515 -0.7346  0.5653  0.1199
14015TIP3    H142002   7.624   6.836   0.570 -1.7946  0.7248  0.0631
14015TIP3    H242003   7.693   6.759   0.460 -1.2999  2.2049 -0.6669
14016TIP3   OH242004   6.272   4.488   4.775  0.0833  0.0674  0.5742
14016TIP3    H142005   6.299   4.576   4.802  0.6919 -0.4065  1.5303
14016TIP3    H242006   6.318   4.474   4.692 -1.3032  1.2824 -0.4226
14017TIP3   OH242007   8.337   5.336   6.395 -0.4314  0.5650 -0.0852
14017TIP3    H142008   8.294   5.257   6.364  1.1400 -0.6056  0.6502
14017TIP3    H242009   8.277   5.371   6.461 -0.0697 -1.2761  1.2466
14018TIP3   OH242010   7.426   6.653   1.000 -0.2577 -0.6109 -0.3223
14018TIP3    H142011   7.515   6.679   1.022  0.2254 -1.0750 -1.7053
14018TIP3    H242012   7.432   6.616   0.912 -1.7430 -1.0245 -0.2707
14019TIP3   OH242013   1.529   4.689   0.096  0.2413  0.4274 -0.0059
14019TIP3    H142014   1.541   4.641   0.177 -0.1499  1.2492  0.5433
14019TIP3    H242015   1.523   4.621   0.028  2.5815 -0.2054  0.3738
14020TIP3   OH242016   4.716   3.689   6.802  0.1445 -0.0257 -0.5649
14020TIP3    H142017   4.682   3.692   6.891 -0.1280  2.2684 -0.7139
14020TIP3    H242018   4.765   3.607   6.798  0.3091 -0.0777  1.7356
14021TIP3   OH242019   4.447   7.012   5.717 -0.2962 -0.0156  0.5837
14021TIP3    H142020   4.371   7.070   5.723  0.0279  0.8123 -2.3860
14021TIP3    H242021   4.424   6.950   5.648  1.7100  0.2915 -0.4015
14022TIP3   OH242022   0.538   2.895   5.435 -0.3821 -0.0343 -0.6913
14022TIP3    H142023   0.586   2.956   5.379 -1.4081  0.6643 -0.8266
14022TIP3    H242024   0.577   2.810   5.417  2.0472  0.7684  0.5710
14023TIP3   OH242025   2.941   0.770   0.271  0.1009 -0.0976  0.4063
14023TIP3    H142026   3.026   0.725   0.269  0.2619  0.2084  0.1975
14023TIP3    H242027   2.928   0.793   0.363  0.8654  1.0132  0.2449
14024TIP3   OH242028   3.910   4.666   6.436 -0.0346 -0.3821  0.3750
14024TIP3    H142029   3.823   4.704   6.447 -0.2311 -0.6098 -0.2978
14024TIP3    H242030   3.896   4.571   6.443  0.1690 -0.4149  0.3530
14025TIP3   OH242031   4.248   0.690   0.485  0.2479 -0.1086 -0.0929
14025TIP3    H142032   4.277   0.641   0.408  0.0487 -3.0100  1.5926
14025TIP3    H242033   4.153   0.674   0.489 -0.1206  1.8342 -0.4350
14026TIP3   OH242034   2.211   4.527   1.108 -0.2437 -0.2418 -0.4096
14026TIP3    H142035   2.263   4.589   1.057  0.0380 -0.1241  0.0150
14026TIP3    H242036   2.213   4.446   1.057 -0.5836  0.0858 -0.9479
14027TIP3   OH242037   7.490   1.874   6.631  0.5120  0.6737  0.5243
14027TIP3    H142038   7.484   1.895   6.537 -0.0763 -1.5471  0.0391
14027TIP3    H242039   7.452   1.950   6.675 -2.7237  0.1337 -1.2159
14028TIP3   OH242040   7.282   4.474   6.159  0.0165 -0.1214  0.0265
14028TIP3    H142041   7.266   4.451   6.251 -0.1254  1.2979  0.3779
14028TIP3    H242042   7.197   4.502   6.126  0.7356  2.7166  0.4798
14029TIP3   OH242043   4.683   3.592   6.388  0.5592 -0.0690 -0.1182
14029TIP3    H142044   4.705   3.680   6.356 -0.0324  0.0607 -0.1587
14029TIP3    H242045   4.622   3.557   6.324 -0.4625  0.1076  0.7542
14030TIP3   OH242046   3.484   3.125   0.388  0.3078 -0.0501 -0.1580
14030TIP3    H142047   3.430   3.163   0.457 -0.1810  0.0312 -0.5796
14030TIP3    H242048   3.521   3.046   0.427 -1.0258 -0.7297 -0.2266
14031TIP3   OH242049   3.152   1.173   2.400 -0.6410 -0.3797 -0.0994
14031TIP3    H142050   3.125   1.083   2.382 -3.1184  0.0479  1.2939
14031TIP3    H242051   3.248   1.169   2.400 -0.6966 -3.2208  0.8492
14032TIP3   OH242052   6.342   4.451   6.379  0.2745 -0.1112 -0.2470
14032TIP3    H142053   6.286   4.399   6.321 -0.3903 -0.2218  0.4840
14032TIP3    H242054   6.333   4.541   6.347 -0.9575 -0.0126  0.3629
14033TIP3   OH242055   6.768   2.810   5.394 -0.2106 -0.1380  0.5596
14033TIP3    H142056   6.814   2.729   5.374 -0.1418  0.1056 -0.2694
14033TIP3    H242057   6.808   2.875   5.336 -1.4801  0.1104 -0.0448
14034TIP3   OH242058   0.574   7.584   0.574 -0.1131 -0.0375  0.0294
14034TIP3    H142059   0.597   7.676   0.561 -0.2617  0.0967  0.6720
14034TIP3    H242060   0.656   7.537   0.566 -0.2265  0.0224 -1.5083
14035TIP3   OH242061   1.165   3.042   0.522  0.2602  0.3727 -0.7809
14035TIP3    H142062   1.087   3.006   0.564 -0.0479  1.7261 -0.1877
14035TIP3    H242063   1.232   3.039   0.590  0.6518 -0.5157 -1.2021
14036TIP3   OH242064   2.809   2.189   0.341  0.5348 -0.4238  0.2891
14036TIP3    H142065   2.840   2.099   0.352  2.2527  0.0910 -0.1184
14036TIP3    H242066   2.888   2.242   0.351 -0.3826  1.0063  0.0170
14037TIP3   OH242067   5.282   4.849   6.535 -0.1327 -0.7619  0.5458
14037TIP3    H142068   5.253   4.787   6.468  1.6850 -0.5971 -0.4132
14037TIP3    H242069   5.221   4.922   6.528 -1.1251 -1.5956  0.3806
14038TIP3   OH242070   2.651   1.408   1.799 -0.3567  0.0006  0.0370
14038TIP3    H142071   2.716   1.348   1.762 -1.2781 -0.8659 -0.2097
14038TIP3    H242072   2.573   1.394   1.746 -1.5166 -0.7930  1.9172
14039TIP3   OH242073   6.162   4.131   6.590  0.3507 -0.0156 -0.4330
14039TIP3    H142074   6.221   4.205   6.581  0.6875 -0.1629  0.4832
14039TIP3    H242075   6.110   4.151   6.668  1.1343 -1.2062  0.4142
14040TIP3   OH242076   2.777   1.436   0.035 -0.1753  0.2034  0.2507
14040TIP3    H142077   2.814   1.472   0.115  0.3326 -0.4446  0.3117
14040TIP3    H242078   2.757   1.345   0.057  0.3825 -0.0987 -0.5010
14041TIP3   OH242079   6.880   4.229   4.637  0.0641 -0.0702 -0.4810
14041TIP3    H142080   6.889   4.201   4.546  1.0248  0.6278 -0.6074
14041TIP3    H242081   6.966   4.212   4.676  0.3426  1.7393 -0.2962
14042TIP3   OH242082   2.326   1.685   0.535  0.2924  0.1405  0.5172
14042TIP3    H142083   2.378   1.765   0.540  1.8920 -0.8188  0.0212
14042TIP3    H242084   2.345   1.649   0.448 -1.5556 -0.0329  0.1654
14043TIP3   OH242085   2.143   4.471   1.371  0.1606  1.0199  0.7121
14043TIP3    H142086   2.187   4.393   1.403 -2.4931 -0.5027  0.7599
14043TIP3    H242087   2.156   4.469   1.276 -2.1552 -0.9640  0.4005
14044TIP3   OH242088   7.912   7.641   1.629  0.4128 -0.8876  0.5175
14044TIP3    H142089   7.910   7.701   1.704 -0.4898 -2.0519  1.4613
14044TIP3    H242090   7.881   7.558   1.665 -1.3051 -1.1378 -1.4526
14045TIP3   OH242091   3.054   0.002   2.888  0.0920  0.1041  0.6170
14045TIP3    H142092   3.012   0.070   2.941  1.6403  2.0601 -0.5938
14045TIP3    H242093   3.096  -0.056   2.951  2.4862  2.7764  1.5829
14046TIP3   OH242094   4.982   5.319   6.676 -0.4475 -0.0544  0.5535
14046TIP3    H142095   4.922   5.393   6.664  0.7811  0.9745  0.5452
14046TIP3    H242096   4.940   5.264   6.742 -1.0254  1.0402  1.1156
14047TIP3   OH242097   6.223   0.794   5.824  0.1128  0.1176  0.5064
14047TIP3    H142098   6.189   0.730   5.762  1.3923  1.1903 -1.3222
14047TIP3    H242099   6.164   0.869   5.816  0.9969  0.7257 -0.2927
14048TIP3   OH242100   4.503   7.655   5.969  0.0454 -0.2924 -0.0493
14048TIP3    H142101   4.499   7.560   5.959  0.0204 -0.4760  1.6496
14048TIP3    H242102   4.532   7.669   6.059 -2.7730  1.3222  0.6596
14049TIP3   OH242103   2.455   2.350   0.660 -0.2034 -0.7689 -0.2443
14049TIP3    H142104   2.499   2.424   0.701 -1.8502  0.5419 -0.7759
14049TIP3    H242105   2.499   2.339   0.575 -0.2435 -0.1198 -0.3490
14050TIP3   OH242106   1.544   2.266   0.871 -0.7637 -0.1665  0.2087
14050TIP3    H142107   1.627   2.310   0.853 -0.1096 -0.1004  3.0562
14050TIP3    H242108   1.478   2.321   0.828  0.4712  1.0208 -0.2135
14051TIP3   OH242109   6.126   4.806   6.951 -0.1189  0.0300 -0.3174
14051TIP3    H142110   6.100   4.734   6.893  0.9901 -0.4914 -0.1965
14051TIP3    H242111   6.089   4.884   6.910 -3.1317 -0.8168  0.6582
14052TIP3   OH242112   7.848   6.465   1.033 -0.4771 -0.0110  0.1664
14052TIP3    H142113   7.922   6.490   1.089 -1.7178  0.8273  1.4832
14052TIP3    H242114   7.882   6.396   0.977  0.7022 -1.1900  2.2860
14053TIP3   OH242115   2.490   1.114   0.683  0.3564  0.0338  0.0919
14053TIP3    H142116   2.473   1.073   0.768  2.1656 -1.2573 -0.1443
14053TIP3    H242117   2.407   1.106   0.636 -0.2895 -0.3898  1.2792
14054TIP3   OH242118   8.255   3.126   1.667  0.2837  0.0298  0.1905
14054TIP3    H142119   8.317   3.069   1.620  0.6584 -0.5616  1.3933
14054TIP3    H242120   8.265   3.211   1.624 -0.3334 -0.8026 -1.6718
14055TIP3   OH242121   0.668   5.715   1.320  0.3713 -0.2047 -0.0631
14055TIP3    H142122   0.645   5.623   1.334 -0.6601  0.4532  2.8973
14055TIP3    H242123   0.583   5.760   1.315  0.8822  0.8463  0.5860
14056TIP3   OH242124   4.131   3.342   5.607  0.0043  0.0396  0.1102
14056TIP3    H142125   4.208   3.288   5.589  0.7841  0.9281  0.7420
14056TIP3    H242126   4.086   3.297   5.679 -0.2235 -0.6217 -0.4369
14057TIP3   OH242127   4.710   2.783   5.750 -0.1404  0.1484 -0.1021
14057TIP3    H142128   4.730   2.850   5.686 -1.3005 -0.0962 -0.7338
14057TIP3    H242129   4.785   2.782   5.809  1.8736 -1.0201 -2.6250
14058TIP3   OH242130   6.619   7.293   1.340 -0.0133 -0.3642  0.1508
14058TIP3    H142131   6.605   7.251   1.255 -0.5946 -0.1296  0.1297
14058TIP3    H242132   6.714   7.291   1.352 -0.0440 -1.8234  0.2247
14059TIP3   OH242133   4.409   3.902   6.774  0.4778  0.7338  0.0986
14059TIP3    H142134   4.388   3.855   6.855  2.6823  0.8720  0.7616
14059TIP3    H242135   4.352   3.979   6.775 -0.6054 -0.0612  0.7434
14060TIP3   OH242136   7.264   4.405   6.422  0.8253 -0.6813  0.4058
14060TIP3    H142137   7.224   4.327   6.461  0.7655 -0.6537  0.3996
14060TIP3    H242138   7.223   4.478   6.468 -0.1361 -0.6071 -0.5355
14061TIP3   OH242139   0.096   7.327   0.107  0.6580  0.6863 -0.0139
14061TIP3    H142140   0.052   7.409   0.129  0.9354  0.4019  1.6664
14061TIP3    H242141   0.155   7.310   0.180 -0.0075 -1.4541  0.0766
14062TIP3   OH242142   7.653   4.011   5.399 -0.6485 -0.4571  0.0380
14062TIP3    H142143   7.656   3.916   5.412 -2.1618 -0.4780  0.3497
14062TIP3    H242144   7.561   4.030   5.379 -0.1479  0.7992 -1.2172
14063TIP3   OH242145   7.264   3.295   6.847 -0.2348  0.3085 -0.5623
14063TIP3    H142146   7.280   3.231   6.917 -1.0056 -0.9487 -1.5143
14063TIP3    H242147   7.349   3.338   6.835  0.4393 -0.8983 -0.2733
14064TIP3   OH242148   0.539   7.552   0.175 -0.4383  0.6029 -0.5689
14064TIP3    H142149   0.621   7.511   0.206 -0.0558  2.0244  0.3437
14064TIP3    H242150   0.476   7.535   0.246 -1.0213 -0.7264 -1.3918
14065TIP3   OH242151   4.840   3.144   5.829 -0.1674 -0.6231 -0.2212
14065TIP3    H142152   4.843   3.109   5.740 -0.3570 -1.0246 -0.0722
14065TIP3    H242153   4.861   3.069   5.885 -0.7072 -0.5262  0.1115
14066TIP3   OH242154   5.966   3.799   5.682 -0.5536 -0.1697  0.3982
14066TIP3    H142155   5.918   3.719   5.701 -1.7114  0.0165 -1.6014
14066TIP3    H242156   6.057   3.778   5.705 -0.1888 -3.3052 -3.2754
14067TIP3   OH242157   4.901   2.293   1.305 -0.0220 -0.5832 -1.0789
14067TIP3    H142158   4.894   2.203   1.338 -0.0986 -0.1517  0.1021
14067TIP3    H242159   4.980   2.327   1.346 -1.2099  0.6212  0.2404
14068TIP3   OH242160   1.193   3.006   0.941 -0.6636  0.2564 -0.1063
14068TIP3    H142161   1.222   2.956   1.017 -1.4365 -0.7087 -0.4305
14068TIP3    H242162   1.181   2.940   0.872  0.0447  1.1186 -1.0620
14069TIP3   OH242163   7.984   7.477   0.708  0.6418  0.2398 -0.2260
14069TIP3    H142164   8.010   7.403   0.764  0.7917 -1.0608 -1.9936
14069TIP3    H242165   7.951   7.543   0.770 -0.6368 -1.7628  1.3011
14070TIP3   OH242166   3.091   7.760   0.087  0.1477  0.4013  0.2243
14070TIP3    H142167   2.998   7.742   0.097  0.2668 -0.1330  0.3472
14070TIP3    H242168   3.108   7.829   0.152 -0.5429  1.8046 -1.0447
14071TIP3   OH242169   5.003   1.697   6.723  0.5018  0.6090  0.2123
14071TIP3    H142170   5.008   1.793   6.725  1.3297  0.5586  0.7550
14071TIP3    H242171   4.969   1.677   6.635  0.8873  1.3759 -0.1196
14072TIP3   OH242172   7.032   2.562   5.528  0.2593  0.1870 -0.2985
14072TIP3    H142173   7.087   2.484   5.521 -0.4284 -0.2628 -0.7827
14072TIP3    H242174   6.982   2.563   5.446 -1.2081  0.0082  0.5691
14073TIP3   OH242175   2.956   2.711   0.976 -0.7371 -0.0041  0.1605
14073TIP3    H142176   2.879   2.655   0.968 -0.8298 -0.0563  1.3624
14073TIP3    H242177   2.925   2.787   1.027 -0.2639  0.4873 -0.2749
14074TIP3   OH242178   5.804   4.875   6.608  0.3709 -0.5428  0.5346
14074TIP3    H142179   5.721   4.871   6.562  0.4357 -0.1048  0.3811
14074TIP3    H242180   5.793   4.945   6.672  1.0353  0.3290 -0.3012
14075TIP3   OH242181   6.364   3.223   6.213  0.4235  0.1848 -0.5484
14075TIP3    H142182   6.301   3.248   6.145 -0.7476  1.2217  0.8697
14075TIP3    H242183   6.445   3.204   6.166 -0.4747  0.4930 -2.2522
14076TIP3   OH242184   2.814   2.487   1.098 -0.1650 -0.1701 -0.2006
14076TIP3    H142185   2.885   2.429   1.127  1.0601  0.7278 -1.3539
14076TIP3    H242186   2.808   2.553   1.167  1.2076  0.6690 -0.8771
14077TIP3   OH242187   0.428   7.413   0.399  0.3060 -0.1047 -0.3009
14077TIP3    H142188   0.342   7.424   0.440 -0.0360 -1.4905 -0.6042
14077TIP3    H242189   0.490   7.449   0.462 -0.4598  0.5157  0.1114
14078TIP3   OH242190   2.135   1.047   0.902 -0.1983  0.3899 -0.2242
14078TIP3    H142191   2.119   1.141   0.910 -0.1400  0.4330 -0.6187
14078TIP3    H242192   2.091   1.022   0.821  1.4262  0.4425 -1.1429
14079TIP3   OH242193   0.069   8.022   0.540  1.0041  0.0337 -0.3758
14079TIP3    H142194   0.024   7.954   0.491 -0.6170  1.3646 -0.7821
14079TIP3    H242195   0.096   7.979   0.621  0.1190 -1.1254 -0.6833
14080TIP3   OH242196   4.869   3.905   6.766  0.3460  0.0531  0.1541
14080TIP3    H142197   4.819   3.968   6.817 -1.1930 -1.2895  0.3712
14080TIP3    H242198   4.806   3.835   6.747  1.9410 -1.3045 -0.2503
14081TIP3   OH242199   5.915   6.097   6.391 -0.0531  0.0268  0.7751
14081TIP3    H142200   5.968   6.156   6.445  2.8604 -0.7356 -1.1116
14081TIP3    H242201   5.972   6.075   6.317 -2.7183 -1.5801 -0.8938
14082TIP3   OH242202   5.875   4.633   6.821  0.3612 -0.4119  0.1471
14082TIP3    H142203   5.789   4.613   6.858  0.2173 -1.2851 -0.6366
14082TIP3    H242204   5.857   4.657   6.730  0.9562 -0.7557 -0.0663
14083TIP3   OH242205   5.265   5.418   6.310  0.6701 -0.5344  0.0592
14083TIP3    H142206   5.225   5.497   6.345 -1.2987 -1.6519  0.4016
14083TIP3    H242207   5.323   5.387   6.379 -0.8619 -1.0439  1.1361
14084TIP3   OH242208   5.703   6.679   2.128 -0.3072  0.6761 -1.0938
14084TIP3    H142209   5.655   6.755   2.162 -1.2116 -0.2126 -0.3236
14084TIP3    H242210   5.753   6.713   2.054 -0.5381  2.0623 -0.6359
14085TIP3   OH242211   5.235   3.991   6.898  0.9395  0.0309 -0.4651
14085TIP3    H142212   5.325   3.980   6.928  0.8756  0.3846 -0.1369
14085TIP3    H242213   5.189   3.913   6.929  1.2177 -0.3373 -0.9700
14086TIP3   OH242214   1.504   3.372   0.866  0.8345 -0.2475 -0.3571
14086TIP3    H142215   1.443   3.438   0.897 -1.1003 -1.7252 -0.9250
14086TIP3    H242216   1.510   3.310   0.939  1.2942 -0.3571 -0.4893
14087TIP3   OH242217   4.578   3.154   0.555  0.3092 -0.4444 -0.0692
14087TIP3    H142218   4.569   3.114   0.468 -1.2938 -1.8981  0.7387
14087TIP3    H242219   4.645   3.101   0.599 -1.1007 -1.6416  0.6535
14088TIP3   OH242220   5.064   3.099   1.452  0.6389  0.4935 -0.4995
14088TIP3    H142221   5.040   3.006   1.446 -1.3169  0.9441  0.0051
14088TIP3    H242222   5.119   3.114   1.375  0.1559 -0.8395 -1.1290
14089TIP3   OH242223   6.840   5.688   6.806  0.1893 -0.4093  0.4325
14089TIP3    H142224   6.750   5.721   6.797  0.2934 -0.7510 -2.2358
14089TIP3    H242225   6.840   5.607   6.755  2.0053 -0.4674  0.5114
14090TIP3   OH242226   2.315   0.288   2.630 -0.3530  0.4877 -0.6722
14090TIP3    H142227   2.366   0.353   2.678  0.1728 -1.4221  1.4111
14090TIP3    H242228   2.365   0.273   2.549  0.8859  0.7497  0.0350
14091TIP3   OH242229   3.067   5.630   6.690 -0.5993 -0.2022 -0.6109
14091TIP3    H142230   3.022   5.619   6.774 -0.8130 -2.1101 -0.9546
14091TIP3    H242231   3.056   5.723   6.669 -2.7291 -0.2406  0.2324
14092TIP3   OH242232   6.363   2.941   6.018 -0.0616 -0.7046  0.5416
14092TIP3    H142233   6.356   2.861   6.069 -1.4937 -0.9711 -0.0613
14092TIP3    H242234   6.443   2.983   6.050  0.9699 -2.6009  0.5350
14093TIP3   OH242235   4.805   3.302   6.896 -0.1897  0.0999  0.0719
14093TIP3    H142236   4.806   3.217   6.941  0.5335 -0.4169 -0.9062
14093TIP3    H242237   4.712   3.320   6.882 -0.3421 -0.6291  0.1118
14094TIP3   OH242238   3.418   1.536   1.583  0.2031  0.2035 -1.1611
14094TIP3    H142239   3.460   1.610   1.626 -1.2881  1.1242 -1.2476
14094TIP3    H242240   3.366   1.575   1.513  0.1724 -1.0188 -1.8402
14095TIP3   OH242241   7.929   5.056   0.531 -0.0066  0.1069 -0.4874
14095TIP3    H142242   8.010   5.033   0.576  0.2448  2.3731  0.3048
14095TIP3    H242243   7.864   4.995   0.565  0.4452  1.0050  2.0940
14096TIP3   OH242244   7.510   7.788   0.188  0.4239  0.6289  0.3633
14096TIP3    H142245   7.572   7.727   0.229 -0.6083 -0.5213  0.2489
14096TIP3    H242246   7.466   7.831   0.261  0.0211  0.0535  0.4684
14097TIP3   OH242247   6.688   0.085   5.987  0.4807 -0.2676  0.3717
14097TIP3    H142248   6.750   0.147   5.947 -0.6510  0.7094  0.0927
14097TIP3    H242249   6.723  -0.001   5.966  1.0037  0.2631 -1.0020
14098TIP3   OH242250   3.074   0.867   3.257  0.1109 -0.2496  0.3833
14098TIP3    H142251   3.077   0.780   3.297 -1.6177 -0.3350  0.3874
14098TIP3    H242252   2.998   0.863   3.199 -0.1705  1.3557  0.6267
14099TIP3   OH242253   4.740   6.199   6.790  0.4648  0.1494 -0.5091
14099TIP3    H142254   4.689   6.223   6.868  0.8748  0.7121 -0.4099
14099TIP3    H242255   4.825   6.241   6.804  1.4700 -2.0265  0.0441
14100TIP3   OH242256   8.446   6.533   0.462 -0.6088 -0.1139  0.8171
14100TIP3    H142257   8.398   6.575   0.533 -0.4223  0.3795  0.6516
14100TIP3    H242258   8.538   6.555   0.478 -0.5164 -0.4345  0.7155
14101TIP3   OH242259   7.001   4.229   6.788 -0.6358 -0.1324  0.3050
14101TIP3    H142260   7.087   4.244   6.749 -0.5160 -0.8951  0.2661
14101TIP3    H242261   6.984   4.307   6.841  0.2906 -0.1894  0.6871
14102TIP3   OH242262   6.398   3.622   6.314 -0.7520 -0.5058  0.0525
14102TIP3    H142263   6.370   3.708   6.346  0.6328  0.8301 -2.1523
14102TIP3    H242264   6.328   3.563   6.341 -2.1550  1.4552  0.8878
14103TIP3   OH242265   3.202   1.831   1.714  0.2096 -0.4136 -0.2440
14103TIP3    H142266   3.229   1.899   1.776 -2.0266  0.9763 -0.7435
14103TIP3    H242267   3.280   1.812   1.663  0.7438  2.2106 -0.4748
14104TIP3   OH242268   5.800   5.503   6.586  0.1920 -0.1316 -0.3442
14104TIP3    H142269   5.855   5.507   6.664 -1.0385 -0.9236  0.5752
14104TIP3    H242270   5.720   5.460   6.615 -1.0363  1.2571 -1.6093
14105TIP3   OH242271   5.423   5.008   6.826  0.8455  0.3221 -0.4762
14105TIP3    H142272   5.493   4.943   6.820  0.2798 -0.3487  0.1924
14105TIP3    H242273   5.343   4.960   6.805  0.6762  1.2948 -2.1760
14106TIP3   OH242274   4.455   0.526   0.792  0.3071  0.0916  0.0020
14106TIP3    H142275   4.375   0.577   0.805 -1.5544 -2.0220 -2.6020
14106TIP3    H242276   4.435   0.440   0.828  2.4154  0.2829  1.7750
14107TIP3   OH242277   7.951   2.933   5.937 -0.7771 -0.2760 -0.0698
14107TIP3    H142278   7.926   2.891   6.020 -0.2050  2.1262  1.3805
14107TIP3    H242279   8.042   2.907   5.923 -1.2412 -1.6596 -0.5956
14108TIP3   OH242280   3.260   5.841   6.944 -0.1655 -0.7937 -0.2859
14108TIP3    H142281   3.224   5.855   6.856  0.0286  0.7028 -0.1546
14108TIP3    H242282   3.198   5.886   7.002  0.1672 -1.0294  0.2501
14109TIP3   OH242283   4.244   4.814   5.996 -0.6945 -0.0124  0.1550
14109TIP3    H142284   4.155   4.841   6.019 -1.7287 -2.9776 -0.1933
14109TIP3    H242285   4.251   4.724   6.028  2.1522  0.1334  0.0759
14110TIP3   OH242286   4.566   3.500   5.305  0.0970 -0.5163  0.5194
14110TIP3    H142287   4.597   3.577   5.352 -0.6336  0.0077  0.1413
14110TIP3    H242288   4.636   3.435   5.316  0.8057  0.2728  0.6532
14111TIP3   OH242289   4.365   4.482   5.630  0.0279  0.3675  0.3151
14111TIP3    H142290   4.458   4.502   5.637 -0.0441  0.4737  0.9351
14111TIP3    H242291   4.341   4.443   5.714 -0.8920  2.0031  0.8433
14112TIP3   OH242292   5.841   5.655   6.300  0.1585  0.1041 -0.0327
14112TIP3    H142293   5.882   5.696   6.376  0.6947 -1.2371  0.4064
14112TIP3    H242294   5.798   5.578   6.335  0.0916 -0.3164 -1.0381
14113TIP3   OH242295   7.355   3.509   5.498 -0.0625 -0.6037  0.3294
14113TIP3    H142296   7.403   3.460   5.431 -1.1107 -1.2259  0.0268
14113TIP3    H242297   7.416   3.514   5.571  0.9438 -0.2716 -0.5140
14114TIP3   OH242298   1.930   1.167   0.374 -0.3616 -0.6803  0.0277
14114TIP3    H142299   1.957   1.159   0.283 -2.3736 -0.4739 -0.6002
14114TIP3    H242300   1.977   1.243   0.407 -2.3051  1.4150 -1.8654
14115TIP3   OH242301   0.633   4.937   4.231  0.5780  0.0701 -0.3812
14115TIP3    H142302   0.589   4.968   4.151  0.6343  1.3728  0.0661
14115TIP3    H242303   0.726   4.943   4.212  0.5906  0.2962 -0.2550
14116TIP3   OH242304   1.464   2.497   0.692 -0.5340  0.4013  0.1553
14116TIP3    H142305   1.475   2.488   0.597 -1.4499  3.2609 -0.2807
14116TIP3    H242306   1.544   2.540   0.721 -1.4135  1.9948  0.2466
14117TIP3   OH242307   7.096   6.224   0.614 -0.1513 -0.3305  0.1089
14117TIP3    H142308   7.129   6.136   0.602  1.0009  0.1449 -0.2641
14117TIP3    H242309   7.111   6.244   0.706  0.6665 -0.1031 -0.0659
14118TIP3   OH242310   5.999   5.089   5.243  0.1912  0.0454 -0.7729
14118TIP3    H142311   6.053   5.017   5.277 -1.3806 -0.4810  0.6461
14118TIP3    H242312   5.957   5.052   5.165 -0.1209 -0.3738 -0.4081
14119TIP3   OH242313   7.717   6.728   1.041 -0.0380  0.4805  0.0047
14119TIP3    H142314   7.721   6.732   1.136  0.1562 -0.5867  0.0478
14119TIP3    H242315   7.768   6.651   1.017  1.2318  1.6109 -1.0741
14120TIP3   OH242316   5.362   7.575   0.771  0.0595  0.3832 -0.1283
14120TIP3    H142317   5.299   7.639   0.803 -0.0005  0.3116 -0.1032
14120TIP3    H242318   5.357   7.582   0.676 -1.2464 -0.8306 -0.1751
14121TIP3   OH242319   6.680   3.376   5.159 -0.2578 -0.0100 -0.1283
14121TIP3    H142320   6.740   3.342   5.225  1.4727  2.0599 -0.5947
14121TIP3    H242321   6.642   3.297   5.119  2.0680 -1.3719  0.2474
14122TIP3   OH242322   4.413   2.896   0.659 -0.3612  0.6301 -0.1100
14122TIP3    H142323   4.503   2.883   0.628 -0.3640 -1.0069  0.5163
14122TIP3    H242324   4.362   2.831   0.611 -1.1100  1.1132  0.0263
14123TIP3   OH242325   3.097   1.423   1.550  0.1683 -0.1479 -0.2567
14123TIP3    H142326   3.104   1.506   1.597 -4.0284 -1.0356  2.2345
14123TIP3    H242327   3.104   1.446   1.458 -0.6324  2.9281  0.4098
14124TIP3   OH242328   4.485   2.219   0.570 -0.3546  0.3152 -0.4201
14124TIP3    H142329   4.478   2.164   0.492  1.5669 -1.2444  0.4694
14124TIP3    H242330   4.469   2.160   0.643 -1.1965  1.5709  0.4248
14125TIP3   OH242331   3.169   1.146   1.333  0.4589  0.4017  0.2935
14125TIP3    H142332   3.236   1.079   1.316  0.2630 -0.0348  1.2123
14125TIP3    H242333   3.134   1.123   1.419 -0.1895  1.2081  0.2457
14126TIP3   OH242334   1.147   7.659   1.749  0.1273  0.0919 -0.5915
14126TIP3    H142335   1.128   7.745   1.711 -1.6813 -0.9301 -2.1181
14126TIP3    H242336   1.113   7.597   1.684 -1.7249 -1.7168  2.0380
14127TIP3   OH242337   7.449   5.554   6.002  0.1107 -0.1945  0.1238
14127TIP3    H142338   7.467   5.484   6.064 -0.5010 -0.4615 -0.0012
14127TIP3    H242339   7.388   5.612   6.048 -1.7037 -1.3029 -0.8567
14128TIP3   OH242340   2.573   2.694   1.354  0.2927  0.5764 -0.6553
14128TIP3    H142341   2.616   2.608   1.355  1.4599  1.1497 -0.7512
14128TIP3    H242342   2.491   2.680   1.308 -1.1006 -1.2483  2.2282
14129TIP3   OH242343   3.136   0.274   0.920  0.1059  0.2339 -0.3037
14129TIP3    H142344   3.198   0.280   0.992  0.4215 -0.2279 -0.5343
14129TIP3    H242345   3.101   0.185   0.925 -0.4443  0.4550 -0.2481
14130TIP3   OH242346   5.816   5.233   6.717  0.2297 -1.0338  0.1594
14130TIP3    H142347   5.906   5.258   6.738 -0.6770  0.2958  2.6734
14130TIP3    H242348   5.801   5.151   6.764 -0.5840 -0.0463  1.6683
14131TIP3   OH242349   2.729   0.500   2.333  0.5285  0.5578  0.0968
14131TIP3    H142350   2.815   0.518   2.372  0.6427 -0.1870  0.2049
14131TIP3    H242351   2.728   0.551   2.252  1.1633  0.3971 -0.0131
14132TIP3   OH242352   3.806   1.072   1.256  0.3527  0.4672  0.1590
14132TIP3    H142353   3.782   1.044   1.344  0.2555  0.1064  0.0208
14132TIP3    H242354   3.726   1.111   1.220  0.8100  1.9730  0.7636
14133TIP3   OH242355   7.985   7.315   1.108  0.2265  0.0283  0.1291
14133TIP3    H142356   8.015   7.403   1.086  1.0896 -0.3569 -0.2563
14133TIP3    H242357   7.982   7.269   1.024 -1.5070  0.0694  0.1522
14134TIP3   OH242358   4.286   1.086   1.760  0.4128  0.0874 -0.5829
14134TIP3    H142359   4.297   1.038   1.842  0.1399  0.2096 -0.4715
14134TIP3    H242360   4.221   1.153   1.780  0.2131  0.0075 -0.9467
14135TIP3   OH242361   4.713   4.815   6.889  0.0823  0.4508  0.3737
14135TIP3    H142362   4.633   4.767   6.869  0.8608 -0.6470 -0.1953
14135TIP3    H242363   4.742   4.782   6.974  0.0445  0.6877  0.4794
14136TIP3   OH242364   2.609   2.168   0.950  0.2969 -0.0949 -0.2398
14136TIP3    H142365   2.703   2.164   0.933  0.4247 -0.1634  0.4668
14136TIP3    H242366   2.583   2.255   0.921  0.6992  0.1639  0.1712
14137TIP3   OH242367   3.874   1.231   0.627  0.1624 -0.1372 -0.3814
14137TIP3    H142368   3.886   1.325   0.615  1.5624  0.2622  3.3381
14137TIP3    H242369   3.922   1.191   0.554 -0.3723  2.0156 -1.9501
14138TIP3   OH242370   1.075   7.466   1.561 -0.5762  0.3635  0.4713
14138TIP3    H142371   1.006   7.455   1.627 -0.5440  0.0766  0.4552
14138TIP3    H242372   1.029   7.466   1.477 -0.7832  2.1703  0.5669
14139TIP3   OH242373   8.198   7.635   0.586  0.1070 -0.3909  0.1435
14139TIP3    H142374   8.203   7.560   0.644  0.1996  1.2065  2.2791
14139TIP3    H242375   8.105   7.658   0.583  0.2474  0.2623  0.6400
14140TIP3   OH242376   3.572   0.924   1.973 -0.0036 -0.7788  0.9143
14140TIP3    H142377   3.559   0.832   1.949 -2.3378 -0.3588  0.4981
14140TIP3    H242378   3.579   0.969   1.889 -0.3758 -0.3567  1.1158
14141TIP3   OH242379   5.086   3.989   6.401  0.0635 -0.4276 -0.2116
14141TIP3    H142380   5.068   4.068   6.349  1.5350 -1.2907 -2.0791
14141TIP3    H242381   5.073   4.017   6.492  1.0059  2.0902 -0.8221
14142TIP3   OH242382   7.452   7.548   1.033 -0.1125  0.4821  0.3381
14142TIP3    H142383   7.534   7.509   1.064  1.1834  0.7003 -2.6403
14142TIP3    H242384   7.444   7.629   1.082  1.2794  0.3025  0.9008
14143TIP3   OH242385   4.144   0.786   1.188 -0.0802 -0.0476 -0.0949
14143TIP3    H142386   4.129   0.880   1.181  0.6003  0.0974  0.2784
14143TIP3    H242387   4.110   0.762   1.274 -1.3125 -0.3633 -0.6659
14144TIP3   OH242388   4.401   7.139   6.497  0.1424 -0.0392 -0.4222
14144TIP3    H142389   4.391   7.210   6.434 -0.1872  0.9480  0.7248
14144TIP3    H242390   4.450   7.072   6.450 -1.3149  0.0943 -2.1774
14145TIP3   OH242391   3.092   4.491   6.964  0.4605  0.2927 -0.1846
14145TIP3    H142392   3.008   4.445   6.961  2.0336 -2.7014  0.1714
14145TIP3    H242393   3.102   4.527   6.875 -0.9187  0.2281 -0.3900
14146TIP3   OH242394   8.468   1.572   0.290  0.1791  0.4414  0.2114
14146TIP3    H142395   8.472   1.525   0.206  1.9903 -0.5736  0.8321
14146TIP3    H242396   8.405   1.523   0.343 -0.4624  0.6896 -0.3162
14147TIP3   OH242397   2.094   1.416   0.455 -0.5233 -0.1754 -0.5221
14147TIP3    H142398   2.052   1.500   0.474  0.5447 -0.1541  1.9741
14147TIP3    H242399   2.163   1.438   0.393  1.6777  1.3740  2.3312
14148TIP3   OH242400   3.755   4.534   1.539 -0.6130  0.6331 -0.5697
14148TIP3    H142401   3.675   4.540   1.487 -0.7477  0.7129 -0.3547
14148TIP3    H242402   3.823   4.507   1.477 -0.6137  1.4615 -0.9433
14149TIP3   OH242403   4.337   0.956   0.150  0.0741 -0.2319 -0.0521
14149TIP3    H142404   4.356   0.878   0.203  0.7309 -0.5598 -0.7474
14149TIP3    H242405   4.411   0.961   0.090 -0.9657 -0.2311 -1.3539
14150TIP3   OH242406   3.337   1.344   1.977  0.1082  0.2352 -0.0497
14150TIP3    H142407   3.326   1.261   2.023  1.0043 -0.1727 -0.5758
14150TIP3    H242408   3.371   1.320   1.891  3.1744  1.3105  0.7955
14151TIP3   OH242409   4.260   1.828   1.810  0.2113 -0.2128  0.2445
14151TIP3    H142410   4.271   1.733   1.811  0.6547 -0.1541  1.3715
14151TIP3    H242411   4.325   1.861   1.871  0.1121  0.8306 -0.1998
14152TIP3   OH242412   5.770   6.412   6.845  0.0608 -0.0153  0.2148
14152TIP3    H142413   5.812   6.433   6.762  1.2302 -1.0507  0.5284
14152TIP3    H242414   5.699   6.353   6.821  1.8865 -2.2633  0.1623
14153TIP3   OH242415   4.055   4.246   1.172  0.0236 -0.5772 -0.1559
14153TIP3    H142416   3.963   4.267   1.154 -0.2182 -2.5039 -1.2745
14153TIP3    H242417   4.067   4.158   1.137  2.0124 -0.7967  1.0118
14154TIP3   OH242418   5.058   5.700   4.737 -0.5885  0.4904  0.0642
14154TIP3    H142419   5.025   5.783   4.702 -0.8829  0.1735 -0.4158
14154TIP3    H242420   4.983   5.641   4.732 -0.4769  0.2926  0.7373
14155TIP3   OH242421   7.467   5.484   5.262 -0.0560  0.1659  0.2828
14155TIP3    H142422   7.454   5.579   5.263 -1.2414  0.0264 -0.6232
14155TIP3    H242423   7.468   5.461   5.169  1.0677 -0.6096  0.4724
14156TIP3   OH242424   3.657   0.437   1.596  0.3637  0.2524 -0.4603
14156TIP3    H142425   3.703   0.457   1.514  0.6153  2.2367  0.1509
14156TIP3    H242426   3.723   0.395   1.651  0.3691 -0.4912 -1.0265
14157TIP3   OH242427   2.345   0.492   0.680 -0.3492  0.1573  0.1478
14157TIP3    H142428   2.325   0.473   0.588  0.3343 -0.5443  0.1313
14157TIP3    H242429   2.321   0.411   0.726 -0.1796  0.3140  0.5079
14158TIP3   OH242430   2.459   2.167   1.768  0.4181 -0.5110  0.4318
14158TIP3    H142431   2.394   2.108   1.804  1.0661 -1.0101  0.7892
14158TIP3    H242432   2.491   2.217   1.844  0.1344  0.0473  0.1897
14159TIP3   OH242433   6.927   6.547   6.322  0.1593  0.5816  0.2274
14159TIP3    H142434   6.906   6.460   6.356  0.1362  0.0674 -1.0670
14159TIP3    H242435   6.928   6.536   6.227  0.2657  1.9750  0.0545
14160TIP3   OH242436   8.519   7.734   1.166  0.1005  0.0853  0.1767
14160TIP3    H142437   8.523   7.710   1.073  0.4143 -1.7883  0.6370
14160TIP3    H242438   8.446   7.683   1.200 -1.3312  2.3268  0.5592
14161TIP3   OH242439   2.793   0.815   0.028 -0.1667  0.6322 -0.2610
14161TIP3    H142440   2.834   0.779   0.106  0.3334  0.2772 -0.6832
14161TIP3    H242441   2.759   0.739  -0.019  1.9846  0.5600 -1.7847
14162TIP3   OH242442   6.209   3.738   5.771  0.3684 -0.2303  0.3831
14162TIP3    H142443   6.266   3.802   5.726 -0.3956  0.6827  0.6931
14162TIP3    H242444   6.241   3.653   5.741  0.6294  0.3323 -0.9950
14163TIP3   OH242445   4.647   2.157   1.626  0.2614  0.2254 -0.3790
14163TIP3    H142446   4.727   2.210   1.620  0.4207  0.1183  0.6298
14163TIP3    H242447   4.583   2.203   1.572  0.7845  0.7442 -0.5557
14164TIP3   OH242448   6.231   3.863   5.104 -0.3258 -0.2381 -0.2801
14164TIP3    H142449   6.150   3.817   5.123 -0.4577  0.2028  0.2379
14164TIP3    H242450   6.246   3.919   5.180 -0.2855  0.7360 -0.9922
14165TIP3   OH242451   6.281   4.699   6.567  0.0059 -0.0277 -0.0049
14165TIP3    H142452   6.315   4.709   6.479  3.2717  0.3114  1.2302
14165TIP3    H242453   6.205   4.757   6.570  0.7297  1.0898 -2.1303
14166TIP3   OH242454   6.423   1.814   6.367  0.7495  0.8244  0.1442
14166TIP3    H142455   6.400   1.729   6.328  1.0590  0.1089  1.4966
14166TIP3    H242456   6.434   1.872   6.291  0.6284 -0.3560 -0.8050
14167TIP3   OH242457   6.411   4.057   6.446 -0.2672 -0.0681  0.0085
14167TIP3    H142458   6.321   4.028   6.438 -0.1484 -0.4657  0.1263
14167TIP3    H242459   6.416   4.097   6.533 -1.3242  3.4299 -1.4425
14168TIP3   OH242460   6.884   6.455   0.631  0.0771 -0.1703  0.0936
14168TIP3    H142461   6.968   6.415   0.611  0.1079  1.1006 -2.4625
14168TIP3    H242462   6.820   6.403   0.584 -0.0223  1.8657 -2.0991
14169TIP3   OH242463   2.152   4.288   1.713 -0.2336  0.3242 -0.1819
14169TIP3    H142464   2.183   4.247   1.632  1.4919 -0.6738  0.9373
14169TIP3    H242465   2.073   4.335   1.688  2.3185  3.2493 -3.2644
14170TIP3   OH242466   6.844   2.393   6.575 -0.0696  0.0514  0.8122
14170TIP3    H142467   6.854   2.297   6.571 -0.2318  0.1356 -2.1098
14170TIP3    H242468   6.751   2.407   6.590 -0.6448 -0.2208 -2.2959
14171TIP3   OH242469   4.243   2.769   0.474  0.0274 -0.2729 -0.3081
14171TIP3    H142470   4.267   2.791   0.384 -0.9954 -0.5142 -0.6514
14171TIP3    H242471   4.159   2.813   0.488 -0.4995 -1.3651  0.0479
14172TIP3   OH242472   3.804   4.067   6.388 -0.0374 -0.8912  0.3053
14172TIP3    H142473   3.860   4.076   6.466 -1.4420 -0.5172  1.2961
14172TIP3    H242474   3.777   3.976   6.389 -1.2257 -0.5394  1.0891
14173TIP3   OH242475   1.712   3.550   3.647 -0.0928  0.0738 -0.2304
14173TIP3    H142476   1.751   3.463   3.657 -1.4606 -0.5785 -0.3057
14173TIP3    H242477   1.763   3.607   3.704 -0.1683 -1.1118  1.0621
14174TIP3   OH242478   1.289   1.909   0.757  0.0784 -0.9452 -0.0993
14174TIP3    H142479   1.270   1.925   0.849  0.9183 -0.8753  0.0696
14174TIP3    H242480   1.369   1.959   0.740 -0.3850 -0.5170 -1.0118
14175TIP3   OH242481   7.844   5.091   6.360 -0.0846 -0.2099  0.0488
14175TIP3    H142482   7.800   5.151   6.421  0.7444 -1.1625  1.6015
14175TIP3    H242483   7.880   5.149   6.293 -1.1509  0.8506  0.3574
14176TIP3   OH242484   5.637   7.755   0.261 -0.0188 -0.3648 -0.4669
14176TIP3    H142485   5.695   7.681   0.244 -0.0887 -0.9152  1.5509
14176TIP3    H242486   5.692   7.817   0.309 -0.4982  0.0665 -0.4809
14177TIP3   OH242487   1.778   1.831   2.853  0.4622 -0.3885 -0.1465
14177TIP3    H142488   1.693   1.791   2.872 -0.0984  0.0800 -1.5626
14177TIP3    H242489   1.771   1.921   2.886  0.4946 -0.4162 -0.0627
14178TIP3   OH242490   5.707   4.753   5.885  0.0145 -0.3084  0.7310
14178TIP3    H142491   5.794   4.720   5.907  1.0843  2.1375  0.4103
14178TIP3    H242492   5.668   4.774   5.970 -0.0082 -0.7906  0.8414
14179TIP3   OH242493   5.788   6.947   6.409  0.5048  0.2079 -0.5221
14179TIP3    H142494   5.816   7.011   6.343  2.0612  0.2911  0.2087
14179TIP3    H242495   5.794   6.863   6.364  3.4043  0.0652  0.0554
14180TIP3   OH242496   2.894   1.810   1.304  0.0774 -0.0307 -0.5213
14180TIP3    H142497   2.911   1.717   1.289 -0.5483 -0.5084  1.5523
14180TIP3    H242498   2.918   1.825   1.395 -1.8427  1.3325 -0.1902
14181TIP3   OH242499   2.852   0.997   2.323 -0.0811 -0.0010  0.1200
14181TIP3    H142500   2.775   0.960   2.366 -0.5597  0.0861 -0.6481
14181TIP3    H242501   2.924   0.938   2.346 -0.4831 -0.3831  0.3945
14182TIP3   OH242502   5.043   3.260   5.646 -0.8987 -0.1176 -0.1340
14182TIP3    H142503   4.957   3.251   5.605 -0.5895 -1.9034 -0.4608
14182TIP3    H242504   5.097   3.194   5.602  0.6150  0.9378  0.1229
14183TIP3   OH242505   0.500   2.644   1.161  0.4198 -0.5288  0.1045
14183TIP3    H142506   0.419   2.690   1.183  0.1751  0.1748 -2.0696
14183TIP3    H242507   0.569   2.709   1.174  0.0959  0.4505 -2.7608
14184TIP3   OH242508   4.267   2.391   0.420 -0.1323 -0.4891 -0.0867
14184TIP3    H142509   4.235   2.313   0.465  0.6952 -0.0045  1.3752
14184TIP3    H242510   4.349   2.413   0.465  0.8360 -0.1091 -1.9634
14185TIP3   OH242511   1.258   7.030   0.998  0.0179 -0.0328 -0.2940
14185TIP3    H142512   1.245   7.015   0.904 -0.0387  0.8807 -0.4285
14185TIP3    H242513   1.172   7.015   1.037  0.3185 -1.6626 -0.2245
14186TIP3   OH242514   7.551   4.798   5.442 -0.1463  0.3540 -0.5518
14186TIP3    H142515   7.643   4.773   5.436 -0.2159  0.5806 -3.0941
14186TIP3    H242516   7.516   4.746   5.514  1.7997 -0.2429 -0.0201
14187TIP3   OH242517   7.992   7.896   0.336  0.0144 -0.4894  0.1416
14187TIP3    H142518   8.086   7.914   0.348 -0.0890  0.3366 -0.2568
14187TIP3    H242519   7.963   7.863   0.421  1.0510 -2.4523 -0.2419
14188TIP3   OH242520   2.727   0.166   0.867 -0.2993 -0.4614 -0.2128
14188TIP3    H142521   2.786   0.213   0.808 -0.0746  0.0880  0.4384
14188TIP3    H242522   2.642   0.166   0.822 -0.0124 -0.4975 -0.7603
14189TIP3   OH242523   6.093   3.975   6.095  0.0088 -0.2419 -0.4450
14189TIP3    H142524   6.053   4.002   6.178  1.3186  0.3159  0.0145
14189TIP3    H242525   6.023   3.984   6.030 -0.3311  1.6743  0.1778
14190TIP3   OH242526   2.330   3.122   1.839  0.0876  0.0532 -0.4214
14190TIP3    H142527   2.393   3.128   1.767  1.3016  0.8942  0.6959
14190TIP3    H242528   2.265   3.058   1.809  0.5546  0.4319 -2.2729
14191TIP3   OH242529   2.043   1.029   0.618  0.2666 -0.3754 -0.4306
14191TIP3    H142530   2.080   1.111   0.650 -1.2253 -0.4278  1.5192
14191TIP3    H242531   1.978   1.056   0.553  1.2303 -0.1295 -1.3048
14192TIP3   OH242532   8.416   2.213   2.128  0.0862 -0.7531  0.4794
14192TIP3    H142533   8.408   2.171   2.042 -0.0499 -1.3071  0.7572
14192TIP3    H242534   8.326   2.224   2.158  0.1146 -0.0929  0.3336
14193TIP3   OH242535   2.644   1.189   1.126 -0.2352 -0.2282  0.1520
14193TIP3    H142536   2.608   1.108   1.091 -0.5733  0.5100 -1.2604
14193TIP3    H242537   2.737   1.170   1.140  0.0374 -0.3820 -1.7203
14194TIP3   OH242538   6.311   5.885   6.447 -0.2108 -0.1127  0.3323
14194TIP3    H142539   6.341   5.800   6.480 -0.5995 -0.3924 -0.0229
14194TIP3    H242540   6.216   5.881   6.454 -0.2740 -0.0311 -0.4659
14195TIP3   OH242541   4.608   4.627   5.577 -0.3822  0.0578 -0.1454
14195TIP3    H142542   4.598   4.594   5.488 -1.9805 -1.5838  0.6252
14195TIP3    H242543   4.651   4.712   5.566 -0.0837 -0.3625 -2.4375
14196TIP3   OH242544   4.915   2.038   1.125 -0.2269  0.0910  0.0316
14196TIP3    H142545   4.905   2.025   1.219 -0.2338  0.4081  0.0756
14196TIP3    H242546   4.991   2.097   1.117  1.6725 -2.3295 -0.2924
14197TIP3   OH242547   1.522   4.177   0.299  0.3935 -0.9203 -0.3479
14197TIP3    H142548   1.533   4.191   0.393 -0.7577 -1.2087 -0.1601
14197TIP3    H242549   1.609   4.194   0.262  0.3410  1.3178  0.5014
14198TIP3   OH242550   3.364   1.685   0.988 -0.8885 -0.9411  0.5701
14198TIP3    H142551   3.421   1.719   0.919 -1.5330  0.8024  0.8561
14198TIP3    H242552   3.367   1.590   0.978  1.4692 -0.8334  0.1233
14199TIP3   OH242553   4.915   1.147   0.189 -0.1738  0.4919  0.1231
14199TIP3    H142554   5.002   1.181   0.211  0.4843 -1.3108  0.3974
14199TIP3    H242555   4.912   1.149   0.094  0.5572 -0.3791  0.0789
14200TIP3   OH242556   2.253   7.966   0.064 -0.2996 -0.0371  0.3494
14200TIP3    H142557   2.276   8.059   0.058 -0.8719  0.1002  0.3185
14200TIP3    H242558   2.308   7.924  -0.003 -0.3229  0.3310  0.0952
14201TIP3   OH242559   4.885   7.341   6.214 -0.2075 -0.6090  0.6644
14201TIP3    H142560   4.968   7.311   6.252  0.7527  1.1610 -0.0162
14201TIP3    H242561   4.891   7.319   6.121 -0.2109  0.1858  0.4792
14202TIP3   OH242562   5.232   5.504   6.693 -0.5964 -0.3734 -0.3752
14202TIP3    H142563   5.310   5.472   6.647 -0.1264 -0.0155  0.1717
14202TIP3    H242564   5.168   5.433   6.684 -0.4046 -0.4378 -1.3136
14203TIP3   OH242565   7.604   6.427   6.631 -0.5912  0.1409  0.2615
14203TIP3    H142566   7.533   6.441   6.569 -0.1659  1.4014  0.0450
14203TIP3    H242567   7.559   6.418   6.716 -1.0304  0.7616  0.1053
14204TIP3   OH242568   0.944   6.815   6.175 -0.4545  0.2536  0.3847
14204TIP3    H142569   0.937   6.910   6.186  1.2011  0.6567 -1.7094
14204TIP3    H242570   0.857   6.787   6.148 -0.9769  1.1642  1.1134
14205TIP3   OH242571   6.958   5.190   6.297 -0.1472 -0.2047 -0.4942
14205TIP3    H142572   6.872   5.230   6.286  0.1006 -0.0197 -1.8799
14205TIP3    H242573   7.019   5.255   6.262  0.6022 -0.1338  0.9172
14206TIP3   OH242574   6.025   6.051   6.151  1.5318  0.5972 -0.3400
14206TIP3    H142575   5.949   6.055   6.094  0.4292  0.5467  1.0797
14206TIP3    H242576   6.100   6.040   6.092  0.5466  1.6504 -1.8184
14207TIP3   OH242577   4.660   2.827   0.592  0.1794 -0.0262  0.0663
14207TIP3    H142578   4.712   2.890   0.640  0.6949 -0.8364  0.5865
14207TIP3    H242579   4.721   2.756   0.571 -0.5541 -0.6843  0.1295
14208TIP3   OH242580   5.455   1.591   0.518  0.4607 -0.1758 -0.0938
14208TIP3    H142581   5.482   1.511   0.472  2.0113  0.7195 -0.7725
14208TIP3    H242582   5.393   1.633   0.459  1.4417  0.3082 -0.7794
14209TIP3   OH242583   4.706   0.346   0.743  0.2236 -0.2498  0.0503
14209TIP3    H142584   4.635   0.410   0.750 -0.0207 -0.3033 -1.6725
14209TIP3    H242585   4.662   0.261   0.743  0.5598 -0.4508  2.5042
14210TIP3   OH242586   0.620   6.303   1.679 -0.4552 -0.0944  0.4546
14210TIP3    H142587   0.639   6.395   1.695 -1.4424  0.4449 -1.2619
14210TIP3    H242588   0.687   6.255   1.727  2.7096  1.6175 -2.0359
14211TIP3   OH242589   0.137   5.876   6.360  0.3676  0.0418  0.4935
14211TIP3    H142590   0.058   5.902   6.408  1.0880 -0.2924  1.8917
14211TIP3    H242591   0.189   5.828   6.424  2.2609  1.3084 -0.0598
14212TIP3   OH242592   8.314   5.668   6.338  0.2153 -0.2474  0.8975
14212TIP3    H142593   8.393   5.615   6.351  0.5054  0.3105  1.4520
14212TIP3    H242594   8.268   5.625   6.265  0.2262 -1.5030  1.6134
14213TIP3   OH242595   3.133   3.761   0.371 -0.4083  0.1583 -0.0910
14213TIP3    H142596   3.061   3.709   0.335 -0.9105 -0.0994  1.2641
14213TIP3    H242597   3.192   3.697   0.411 -0.7340  0.5616  1.0671
14214TIP3   OH242598   5.433   5.997   6.564 -0.0595 -0.2349 -0.6472
14214TIP3    H142599   5.406   5.906   6.573 -0.8561 -0.1184 -1.7874
14214TIP3    H242600   5.523   5.992   6.531 -0.3086 -0.6069 -1.2713
14215TIP3   OH242601   5.163   0.786   1.392  1.3376 -0.2371  0.4583
14215TIP3    H142602   5.171   0.872   1.352  0.0342  0.0636  0.8236
14215TIP3    H242603   5.072   0.761   1.376  1.7693 -1.6567  0.1342
14216TIP3   OH242604   5.328   0.852   0.241 -0.3603  0.3288  0.0129
14216TIP3    H142605   5.284   0.823   0.321  0.0163 -0.8023 -0.1714
14216TIP3    H242606   5.330   0.947   0.247  3.1333  0.1690  3.2259
14217TIP3   OH242607   8.106   6.498   6.149 -0.3227 -0.0149 -0.4584
14217TIP3    H142608   8.087   6.577   6.200 -1.7836 -1.2038  0.8884
14217TIP3    H242609   8.199   6.481   6.164 -0.3262  0.6590  0.3651
14218TIP3   OH242610   7.676   5.195   6.562  0.5578  0.1087 -0.9830
14218TIP3    H142611   7.582   5.187   6.577  0.4716  0.7349 -1.2209
14218TIP3    H242612   7.692   5.289   6.553  1.4346  0.1341  0.6227
14219TIP3   OH242613   0.999   7.043   1.039 -0.2489 -0.0086 -0.2429
14219TIP3    H142614   0.967   6.954   1.048 -2.0806  0.7816  1.6503
14219TIP3    H242615   0.920   7.096   1.024 -0.1760  2.1095  5.4185
14220TIP3   OH242616   3.873   2.178   0.142 -0.0447 -0.1426 -0.1890
14220TIP3    H142617   3.940   2.236   0.176  1.8775 -3.0131  1.1500
14220TIP3    H242618   3.791   2.208   0.182  0.8891  1.6131  0.4220
14221TIP3   OH242619   6.458   1.644   0.613 -0.2876  0.3754  0.1112
14221TIP3    H142620   6.495   1.558   0.632 -0.6911 -0.2602 -1.8958
14221TIP3    H242621   6.514   1.679   0.543 -1.5987  0.7190 -0.7683
14222TIP3   OH242622   4.551   2.648   0.787 -0.3699  0.4266  0.2709
14222TIP3    H142623   4.486   2.708   0.749 -0.7807 -0.0890  0.1582
14222TIP3    H242624   4.634   2.692   0.774 -0.5956  0.6272 -0.4941
14223TIP3   OH242625   0.019   6.512   4.918  0.0115  0.0273 -0.2795
14223TIP3    H142626   0.054   6.458   4.847  1.8058  0.6757  0.0687
14223TIP3    H242627   0.031   6.458   4.996 -0.8953 -0.2301 -0.3205
14224TIP3   OH242628   5.323   3.140   0.806  0.1347  0.0478  0.3329
14224TIP3    H142629   5.271   3.114   0.882 -0.6984  2.6836  0.7032
14224TIP3    H242630   5.413   3.119   0.831 -0.4244 -1.6563  0.9339
14225TIP3   OH242631   4.760   3.351   0.580  0.4421  0.5455 -0.3853
14225TIP3    H142632   4.845   3.309   0.577  0.3663  0.2885  0.9233
14225TIP3    H242633   4.702   3.293   0.531  1.4625  1.8263 -3.2339
14226TIP3   OH242634   2.782   7.838   0.725  0.2255 -0.1055 -0.1828
14226TIP3    H142635   2.780   7.847   0.630 -0.2734  0.6334 -0.0993
14226TIP3    H242636   2.869   7.870   0.750  0.2397 -0.0059 -0.3582
14227TIP3   OH242637   5.133   3.127   5.380 -0.0314 -0.0192  0.6025
14227TIP3    H142638   5.217   3.144   5.338  0.2038 -1.3689  0.5198
14227TIP3    H242639   5.143   3.041   5.421 -1.6415 -0.5918 -0.1507
14228TIP3   OH242640   4.576   1.827   1.357 -0.0950  0.2050  0.5882
14228TIP3    H142641   4.594   1.809   1.450 -1.2731 -1.0669  0.5867
14228TIP3    H242642   4.491   1.872   1.358  0.3140  1.0077  0.1757
14229TIP3   OH242643   3.239   2.820   0.381 -0.1388  0.1944 -0.6048
14229TIP3    H142644   3.193   2.891   0.336 -0.6656  0.3001  0.0911
14229TIP3    H242645   3.227   2.838   0.474  0.1599 -0.5212 -0.4213
14230TIP3   OH242646   6.341   5.631   6.609 -0.3218  0.0174 -0.1111
14230TIP3    H142647   6.262   5.601   6.564 -0.5748  1.5700 -0.7469
14230TIP3    H242648   6.324   5.616   6.702 -0.5065 -1.6012 -0.3913
14231TIP3   OH242649   6.766   6.734   5.749  0.2762  0.1089  0.3707
14231TIP3    H142650   6.832   6.715   5.682  2.5288 -1.3093  2.9289
14231TIP3    H242651   6.815   6.754   5.828 -2.3336  2.7092  1.4340
14232TIP3   OH242652   5.874   7.488   6.702 -0.1179 -0.0308 -0.8113
14232TIP3    H142653   5.824   7.478   6.621 -1.2097 -0.7661 -0.0638
14232TIP3    H242654   5.873   7.401   6.741 -0.1880  0.4843  0.3428
14233TIP3   OH242655   5.315   7.184   5.088 -0.6163 -0.6145 -0.4523
14233TIP3    H142656   5.294   7.263   5.139  0.4673  0.3707 -1.5169
14233TIP3    H242657   5.380   7.138   5.140  1.1677  0.8518 -1.3431
14234TIP3   OH242658   7.007   5.345   5.998  0.3187 -0.5034 -0.0626
14234TIP3    H142659   7.065   5.344   6.074 -2.3571  1.3172  2.1395
14234TIP3    H242660   7.006   5.437   5.970 -1.3806 -0.5078 -0.0889
14235TIP3   OH242661   5.056   2.647   6.479  0.2618  0.0540  0.1331
14235TIP3    H142662   5.108   2.641   6.398 -0.2392  0.8433 -0.2564
14235TIP3    H242663   5.009   2.564   6.484  0.5753 -0.1468 -0.1970
14236TIP3   OH242664   5.929   5.363   6.392  0.2387 -0.7655  0.5373
14236TIP3    H142665   5.880   5.402   6.464 -0.9761 -1.1718 -0.0401
14236TIP3    H242666   5.863   5.312   6.344  0.6115  0.9839 -1.9295
14237TIP3   OH242667   4.630   7.224   0.483  0.6825  0.3046  0.7269
14237TIP3    H142668   4.564   7.243   0.549 -0.3018 -0.7286  0.0706
14237TIP3    H242669   4.673   7.143   0.514  1.4724  0.8270  1.0203
14238TIP3   OH242670   7.195   4.084   6.120  0.0772 -0.2761 -0.1939
14238TIP3    H142671   7.237   4.158   6.077  0.0756  0.3828  0.9278
14238TIP3    H242672   7.122   4.122   6.168  0.3938 -0.9239  0.8219
14239TIP3   OH242673   2.920   1.125   1.189  0.1111  0.2205  0.4316
14239TIP3    H142674   2.992   1.158   1.244  0.0505  1.5913 -0.2935
14239TIP3    H242675   2.960   1.055   1.137  0.0171 -1.5544  2.6463
14240TIP3   OH242676   7.861   6.117   5.304  0.0203  0.0652 -0.2012
14240TIP3    H142677   7.823   6.126   5.217 -0.8178 -1.1010  0.0273
14240TIP3    H242678   7.837   6.198   5.349 -0.8760  0.0057 -0.5589
14241TIP3   OH242679   7.484   7.848   5.198 -0.1460  0.0041  0.0962
14241TIP3    H142680   7.578   7.846   5.214 -0.2489 -0.8685  0.6450
14241TIP3    H242681   7.468   7.931   5.153  0.9627 -0.1115 -0.5094
14242TIP3   OH242682   7.133   5.615   6.360  0.2123 -0.1982 -0.1487
14242TIP3    H142683   7.203   5.612   6.425 -0.7004 -0.3950  0.8552
14242TIP3    H242684   7.165   5.674   6.292  0.4563  1.4706  1.3822
14243TIP3   OH242685   5.903   6.370   6.084  0.4108 -0.5220  0.1612
14243TIP3    H142686   5.903   6.385   6.178 -0.4634  0.4691  0.0122
14243TIP3    H242687   5.980   6.316   6.068  2.3839  1.9467  1.0208
14244TIP3   OH242688   5.649   4.600   5.461 -0.5451  0.1873  0.4385
14244TIP3    H142689   5.718   4.661   5.432 -0.6257  0.0618 -0.0153
14244TIP3    H242690   5.634   4.543   5.386 -0.5105 -0.3616  0.8451
14245TIP3   OH242691   2.407   0.199   0.383  0.5254  0.0434 -0.1593
14245TIP3    H142692   2.338   0.189   0.449  1.5986 -0.6094  0.8991
14245TIP3    H242693   2.399   0.121   0.328 -0.4925  0.6796 -0.9313
14246TIP3   OH242694   6.713   5.866   6.397  0.5832  0.4287 -0.0666
14246TIP3    H142695   6.767   5.789   6.418  0.1650  0.0115 -0.5180
14246TIP3    H242696   6.767   5.916   6.336  1.2724  1.0059  1.0043
14247TIP3   OH242697   1.503   3.154   5.121  0.4042  0.0327  0.0371
14247TIP3    H142698   1.462   3.236   5.093 -2.3724 -1.5386 -0.7302
14247TIP3    H242699   1.521   3.107   5.039 -1.1461 -1.5179  0.5358
14248TIP3   OH242700   8.308   6.294   0.534 -0.0762  0.8160 -0.2526
14248TIP3    H142701   8.349   6.379   0.517  1.8815  0.1357  1.0198
14248TIP3    H242702   8.338   6.238   0.462  1.6671  0.1744  0.9630
14249TIP3   OH242703   3.921   3.712   0.278  0.1663 -0.1570 -0.2396
14249TIP3    H142704   3.910   3.780   0.345 -1.2251 -1.8249  1.2797
14249TIP3    H242705   4.011   3.722   0.248 -0.0696  2.4468 -0.1470
14250TIP3   OH242706   7.988   5.446   6.892  0.3443 -0.1253  0.1742
14250TIP3    H142707   7.965   5.392   6.967 -0.9737 -2.2169 -1.6815
14250TIP3    H242708   8.049   5.393   6.841  1.7144  1.5162  0.0751
14251TIP3   OH242709   4.310   2.973   1.617 -0.3491 -0.0911 -0.5235
14251TIP3    H142710   4.252   2.955   1.692 -0.6629  1.2898 -0.4198
14251TIP3    H242711   4.252   3.008   1.549  0.1487  0.0108 -0.8994
14252TIP3   OH242712   6.645   5.919   5.323  0.0890  0.1212  0.3779
14252TIP3    H142713   6.732   5.903   5.359  1.0941 -0.0154 -2.0822
14252TIP3    H242714   6.630   5.847   5.262 -0.3976  1.8846 -1.6339
14253TIP3   OH242715   7.660   5.883   6.269  0.2671  0.4882  0.4592
14253TIP3    H142716   7.740   5.851   6.310  1.8917  1.6090 -1.7366
14253TIP3    H242717   7.671   5.978   6.262  0.4273  0.2757 -3.2021
14254TIP3   OH242718   0.430   6.294   3.228  0.0810  0.5251 -1.1714
14254TIP3    H142719   0.507   6.307   3.172  0.0231 -0.0385 -1.3809
14254TIP3    H242720   0.373   6.368   3.207  1.5477  2.2501  0.6568
14255TIP3   OH242721   3.367   1.400   0.950  0.4717  0.2622 -0.3923
14255TIP3    H142722   3.461   1.416   0.939  0.7186  0.0282  1.2957
14255TIP3    H242723   3.340   1.360   0.867  1.8926  0.1925 -0.8362
14256TIP3   OH242724   8.191   7.892   6.556 -0.8423 -0.2722 -0.2546
14256TIP3    H142725   8.230   7.927   6.475 -0.9927 -0.3579 -0.3646
14256TIP3    H242726   8.238   7.810   6.572 -2.3519 -1.4095 -1.5028
14257TIP3   OH242727   2.995   3.196   3.096 -0.4133 -0.0460 -0.0551
14257TIP3    H142728   2.909   3.153   3.089 -0.6027  0.3121  0.0581
14257TIP3    H242729   3.051   3.130   3.136 -0.2056 -0.8875 -1.6895
14258TIP3   OH242730   0.275   7.060   6.625  0.2929  0.5172 -0.2599
14258TIP3    H142731   0.193   7.011   6.636  1.0587 -0.8556 -0.5120
14258TIP3    H242732   0.248   7.144   6.590 -0.9876 -0.0515 -0.6870
14259TIP3   OH242733   4.683   1.133   0.787 -0.5165 -0.0673 -0.0550
14259TIP3    H142734   4.778   1.133   0.785 -0.3770  3.3328  1.7021
14259TIP3    H242735   4.661   1.086   0.867 -0.1977  0.7325  0.5174
14260TIP3   OH242736   5.733   4.510   0.492  0.3309  0.2983 -0.3835
14260TIP3    H142737   5.787   4.442   0.533  1.3733  0.7537 -0.9681
14260TIP3    H242738   5.643   4.488   0.517  0.9302  0.5062  2.0531
14261TIP3   OH242739   8.166   5.832   5.934  0.1914  0.0160  0.1995
14261TIP3    H142740   8.075   5.860   5.927  0.8086  2.1673  0.1513
14261TIP3    H242741   8.199   5.878   6.011  1.1113 -1.1220  0.5016
14262TIP3   OH242742   8.440   6.928   5.924 -0.4467  0.2110  0.2031
14262TIP3    H142743   8.534   6.923   5.941 -0.4639 -2.3710 -0.3320
14262TIP3    H242744   8.422   7.022   5.915  1.7371  0.8596  2.1433
14263TIP3   OH242745   6.654   3.041   4.473 -0.1237 -0.0029  0.2211
14263TIP3    H142746   6.565   3.073   4.485 -0.1307 -0.0646  0.3367
14263TIP3    H242747   6.649   2.948   4.494 -0.0913 -0.0673 -0.0562
14264TIP3   OH242748   7.726   6.021   6.579 -0.0015  0.1137  0.0578
14264TIP3    H142749   7.777   6.082   6.526  0.3751  0.1647  0.4829
14264TIP3    H242750   7.686   6.075   6.647 -0.1833 -0.0146  0.0557
14265TIP3   OH242751   7.536   4.227   0.247 -0.3974  0.3758 -0.3961
14265TIP3    H142752   7.462   4.178   0.282 -0.7770  1.1856 -0.0670
14265TIP3    H242753   7.524   4.223   0.152  0.2341 -1.1873 -0.4296
14266TIP3   OH242754   4.940   1.863   0.154  0.0852 -0.1557 -0.2251
14266TIP3    H142755   4.906   1.953   0.162 -0.9650 -0.5029 -0.7566
14266TIP3    H242756   4.886   1.823   0.087  1.8653 -0.5909 -1.4305
14267TIP3   OH242757   7.514   6.981   6.388 -0.1974  0.1781 -0.2057
14267TIP3    H142758   7.593   6.978   6.441  0.7774 -0.6216 -1.6731
14267TIP3    H242759   7.461   7.050   6.428  2.0931  2.1194 -0.3925
14268TIP3   OH242760   3.226   1.691   1.415 -0.1957 -1.0279 -0.2041
14268TIP3    H142761   3.149   1.650   1.376 -1.0030 -0.0905  0.3779
14268TIP3    H242762   3.255   1.755   1.350 -1.9478  1.0186  0.9662
14269TIP3   OH242763   6.393   0.764   0.656 -0.4744  0.6008  0.3747
14269TIP3    H142764   6.467   0.749   0.715 -0.2789 -1.2914 -0.2887
14269TIP3    H242765   6.327   0.807   0.710  0.3526  0.4851  1.5054
14270TIP3   OH242766   4.389   2.334   1.704  0.3694 -0.4134 -0.0846
14270TIP3    H142767   4.324   2.333   1.634  0.3241  2.8725 -0.1922
14270TIP3    H242768   4.378   2.420   1.745  4.6785  0.2860 -0.1605
14271TIP3   OH242769   7.243   6.031   4.930 -0.3065  0.3266  0.4001
14271TIP3    H142770   7.150   6.033   4.954 -0.5100 -0.3767 -0.3232
14271TIP3    H242771   7.256   6.111   4.879 -0.3605  0.7481  1.0329
14272TIP3   OH242772   4.736   6.951   5.739 -0.0282  0.2960 -0.7522
14272TIP3    H142773   4.733   6.964   5.833 -0.1194 -0.9840 -0.5660
14272TIP3    H242774   4.649   6.976   5.708 -0.3884 -0.4261 -0.3337
14273TIP3   OH242775   7.206   5.936   5.710  0.3178  0.2694  0.1946
14273TIP3    H142776   7.202   6.028   5.736 -2.4155  0.4992 -0.9022
14273TIP3    H242777   7.127   5.897   5.747  0.4263 -1.1849 -1.0550
14274TIP3   OH242778   4.476   6.151   5.038 -0.0510  0.1019 -0.0337
14274TIP3    H142779   4.560   6.197   5.032 -0.1395  0.5783  1.9840
14274TIP3    H242780   4.486   6.075   4.982  2.2482 -0.5848  1.2356
14275TIP3   OH242781   5.442   4.942   6.055  0.1012 -0.1976 -0.4156
14275TIP3    H142782   5.423   4.867   5.999  0.8293 -1.3196  0.8138
14275TIP3    H242783   5.441   4.906   6.144 -2.0077  1.7340  0.3989
14276TIP3   OH242784   0.938   6.782   0.987  0.9272 -0.0316  0.5844
14276TIP3    H142785   0.878   6.767   0.913  1.2984  2.3790 -0.2540
14276TIP3    H242786   1.015   6.729   0.967 -0.3377 -2.0673  0.9722
14277TIP3   OH242787   3.492   1.752   1.729 -0.2364 -0.0809 -0.3565
14277TIP3    H142788   3.479   1.734   1.823 -1.5335 -0.5577 -0.6270
14277TIP3    H242789   3.585   1.775   1.723  0.4688 -2.4779  0.6771
14278TIP3   OH242790   5.869   1.936   2.026  0.1502  0.0583 -0.2058
14278TIP3    H142791   5.900   1.996   2.093  0.4551 -0.9149  0.5347
14278TIP3    H242792   5.830   1.992   1.959 -1.1566  0.9666  1.2947
14279TIP3   OH242793   5.235   6.871   6.249  0.4381  0.4754 -0.4459
14279TIP3    H142794   5.250   6.944   6.308 -1.7038 -0.2783  1.0975
14279TIP3    H242795   5.308   6.811   6.266 -0.6957 -0.2269  2.3003
14280TIP3   OH242796   5.158   4.120   0.073 -0.0225  0.5253 -0.2550
14280TIP3    H142797   5.121   4.036   0.102 -0.2918  1.6082  2.6802
14280TIP3    H242798   5.123   4.184   0.134 -0.3947  2.9380 -2.9036
14281TIP3   OH242799   5.370   3.407   0.238  0.1802 -0.0664 -0.0298
14281TIP3    H142800   5.339   3.419   0.328 -0.4053  0.3391 -0.2792
14281TIP3    H242801   5.384   3.313   0.229 -0.1965 -0.1597  0.3508
14282TIP3   OH242802   2.615   2.677   0.467 -0.0724  0.4843  0.0634
14282TIP3    H142803   2.652   2.594   0.495 -1.7936  0.4037  2.2089
14282TIP3    H242804   2.533   2.654   0.424 -0.8997  1.1049  1.2829
14283TIP3   OH242805   6.468   4.137   6.701  0.6220 -0.0167 -0.1248
14283TIP3    H142806   6.556   4.115   6.731  1.0059  0.9291 -0.5390
14283TIP3    H242807   6.479   4.219   6.653 -0.1067 -1.0625 -2.1401
14284TIP3   OH242808   7.921   5.218   6.133  0.1669  0.1724 -0.2241
14284TIP3    H142809   8.007   5.241   6.169 -0.6538  2.5731  0.2392
14284TIP3    H242810   7.923   5.253   6.044  0.0682 -0.7739 -0.6071
14285TIP3   OH242811   0.463   6.680   6.181 -0.3955 -0.0255  0.5030
14285TIP3    H142812   0.399   6.740   6.217 -1.2158 -1.1011  0.8550
14285TIP3    H242813   0.417   6.634   6.110 -0.2597 -1.3193  1.2293
14286TIP3   OH242814   7.808   4.663   5.666  0.4029 -0.3485  0.0956
14286TIP3    H142815   7.850   4.642   5.749 -0.0990 -0.1865  0.3895
14286TIP3    H242816   7.864   4.731   5.627 -0.4480  1.0197  1.2124
14287TIP3   OH242817   7.818   5.668   4.458  0.0476 -0.0691 -0.2446
14287TIP3    H142818   7.767   5.743   4.427 -3.3502 -2.2857 -0.2166
14287TIP3    H242819   7.803   5.665   4.552  1.1191 -0.1074 -0.0698
14288TIP3   OH242820   3.765   3.426   0.288  0.7053  0.0838  0.0958
14288TIP3    H142821   3.861   3.428   0.284  0.7807 -0.2731  1.4853
14288TIP3    H242822   3.738   3.509   0.248  1.5705 -0.1102 -0.9103
14289TIP3   OH242823   7.158   6.629   6.077 -0.2410  0.4097 -0.4260
14289TIP3    H142824   7.185   6.622   5.985 -0.8229  0.3257 -0.5948
14289TIP3    H242825   7.148   6.723   6.091 -1.3302  0.3619 -0.8048
14290TIP3   OH242826   3.923   1.523   0.676 -0.1324 -0.3424  0.0147
14290TIP3    H142827   3.909   1.596   0.736 -2.1046 -1.3849  0.8752
14290TIP3    H242828   4.017   1.505   0.682  0.0801  1.0220  1.0748
14291TIP3   OH242829   8.379   5.911   6.537 -0.5442 -0.5660 -0.1800
14291TIP3    H142830   8.304   5.967   6.520 -0.0648 -0.3563 -1.6467
14291TIP3    H242831   8.352   5.824   6.507 -0.3459 -0.5723 -0.3447
14292TIP3   OH242832   1.582   3.668   6.686  0.0445 -0.2260 -0.0275
14292TIP3    H142833   1.492   3.651   6.657  1.1819 -1.9928 -2.7631
14292TIP3    H242834   1.611   3.741   6.631  1.0044 -1.1468 -0.7600
14293TIP3   OH242835   2.257   7.345   0.868 -0.1449 -0.0660 -0.3830
14293TIP3    H142836   2.199   7.269   0.861 -0.5865  0.4342 -2.5502
14293TIP3    H242837   2.208   7.416   0.825  0.2007  1.4962  1.7322
14294TIP3   OH242838   2.827   1.219   1.680  0.7583  0.1180  0.6997
14294TIP3    H142839   2.787   1.225   1.593 -1.4886 -2.1965  1.5265
14294TIP3    H242840   2.915   1.184   1.663 -0.4188 -2.3854 -0.5100
14295TIP3   OH242841   7.367   5.023   6.854 -0.4072 -0.1404 -0.1206
14295TIP3    H142842   7.366   5.088   6.783  2.4058  0.7318  0.5804
14295TIP3    H242843   7.371   5.075   6.934  0.4584 -1.1489  0.5038
14296TIP3   OH242844   5.508   0.370   0.720 -0.3184  0.0811 -0.2178
14296TIP3    H142845   5.534   0.408   0.804 -3.0029  0.2109  0.5967
14296TIP3    H242846   5.501   0.276   0.738  0.1726 -0.0293 -0.5941
14297TIP3   OH242847   0.196   2.576   5.334 -0.5316  0.5432  0.5360
14297TIP3    H142848   0.273   2.537   5.374  0.6558  1.2796 -0.9506
14297TIP3    H242849   0.122   2.538   5.380  0.6537 -1.8006  0.5661
14298TIP3   OH242850   3.398   2.825   0.933 -0.5966  0.9959  0.2324
14298TIP3    H142851   3.394   2.903   0.877 -0.1278  1.2433  0.5434
14298TIP3    H242852   3.491   2.812   0.949 -0.6740  0.3651  0.1783
14299TIP3   OH242853   3.708   0.908  -0.015 -0.2854  0.0757 -0.0125
14299TIP3    H142854   3.709   0.890   0.079 -2.6612  1.6275  0.3548
14299TIP3    H242855   3.713   0.822  -0.057  1.3085 -0.5901  1.5159
14300TIP3   OH242856   6.114   6.007   6.814  0.1349 -0.3548  0.2926
14300TIP3    H142857   6.109   6.076   6.749  0.8541 -0.0663  0.5410
14300TIP3    H242858   6.193   5.958   6.792  0.3904 -0.2466  0.9491
14301TIP3   OH242859   6.404   6.047   6.265  0.0846  0.1771  0.2810
14301TIP3    H142860   6.392   5.977   6.329 -2.5864  0.6105  0.2891
14301TIP3    H242861   6.373   6.010   6.183 -1.8927  1.5200  0.3984
14302TIP3   OH242862   6.526   2.524   0.757 -0.0893  0.0455  0.0300
14302TIP3    H142863   6.448   2.474   0.783 -0.4626  0.7772  0.3434
14302TIP3    H242864   6.564   2.553   0.840  0.1907  0.1790 -0.1450
14303TIP3   OH242865   6.082   5.831   5.909 -0.4181 -0.1774 -0.1088
14303TIP3    H142866   6.143   5.760   5.885  0.9422  0.2936  1.8299
14303TIP3    H242867   6.006   5.786   5.946 -0.6206 -0.7092 -1.1486
14304TIP3   OH242868   7.213   2.546   6.688  0.2192  0.0069 -0.3491
14304TIP3    H142869   7.208   2.452   6.704 -0.3703 -0.1873 -1.6190
14304TIP3    H242870   7.262   2.554   6.606  1.6539  0.8933  0.5656
14305TIP3   OH242871   3.043   7.085   1.611 -0.1831  0.0115 -0.3034
14305TIP3    H142872   2.958   7.120   1.637  0.0776 -0.5538  1.4131
14305TIP3    H242873   3.027   6.991   1.598 -0.3736  0.3332 -2.5577
14306TIP3   OH242874   2.675   7.209   0.148 -0.0811 -0.2181 -0.0824
14306TIP3    H142875   2.676   7.304   0.135 -0.1604 -0.1387  0.4588
14306TIP3    H242876   2.587   7.182   0.123  0.4849 -0.3962 -1.8977
14307TIP3   OH242877   4.108   3.345   1.240 -0.0196 -0.1871  0.3199
14307TIP3    H142878   4.132   3.293   1.163  0.0047 -0.8363  0.7678
14307TIP3    H242879   4.014   3.329   1.250 -0.4216  1.4007 -0.7111
14308TIP3   OH242880   7.708   4.455   6.042  0.0453  0.3710 -0.6524
14308TIP3    H142881   7.748   4.540   6.063  0.3353 -0.3991  2.0275
14308TIP3    H242882   7.760   4.392   6.090 -1.7684 -1.0921 -0.5773
14309TIP3   OH242883   7.599   4.960   6.324 -0.2303 -0.3246 -0.5387
14309TIP3    H142884   7.556   5.016   6.260 -1.3342  1.7376  1.8978
14309TIP3    H242885   7.688   4.993   6.329  0.0429 -0.8975 -1.4250
14310TIP3   OH242886   4.902   0.985   0.473  0.3417  0.1179 -0.2784
14310TIP3    H142887   4.857   1.055   0.522 -0.9445  1.2457 -2.9637
14310TIP3    H242888   4.983   1.026   0.442  2.1750 -1.2092  2.5428
14311TIP3   OH242889   3.560   6.202   0.490  0.2277 -0.2827  0.0523
14311TIP3    H142890   3.615   6.124   0.493  1.1546  0.3827  0.9302
14311TIP3    H242891   3.549   6.221   0.397  0.3405 -1.2092 -0.1569
14312TIP3   OH242892   2.537   1.035   0.282  0.2335 -0.1308 -0.0606
14312TIP3    H142893   2.487   0.980   0.222 -0.3550  0.2437  0.0871
14312TIP3    H242894   2.610   1.067   0.229 -0.5527  0.5911 -0.7156
14313TIP3   OH242895   6.948   4.895   6.804  0.1233  0.3673 -0.1620
14313TIP3    H142896   6.869   4.843   6.814 -0.3103  0.8875 -0.8166
14313TIP3    H242897   6.953   4.947   6.885 -0.0830  0.1754 -0.0269
14314TIP3   OH242898   3.902   1.571   0.394  0.3257 -0.0653  0.1118
14314TIP3    H142899   3.819   1.606   0.361 -0.5367 -1.2037  0.9853
14314TIP3    H242900   3.891   1.573   0.490  1.1857 -0.4870  0.2195
14315TIP3   OH242901   5.570   3.311   5.327 -0.1146 -0.3231 -0.0742
14315TIP3    H142902   5.579   3.272   5.414 -3.0414 -1.1002 -0.0444
14315TIP3    H242903   5.497   3.263   5.288  0.7138  0.4931 -2.7068
14316TIP3   OH242904   7.389   6.513   2.270 -0.1700  0.0640  0.3271
14316TIP3    H142905   7.469   6.462   2.282  0.1364  0.5462  0.3484
14316TIP3    H242906   7.318   6.449   2.277  0.0902 -0.0339  2.6217
14317TIP3   OH242907   2.948   1.847   1.571  0.2014 -1.0297  0.1326
14317TIP3    H142908   3.029   1.863   1.618  0.8901  0.5404 -1.5554
14317TIP3    H242909   2.879   1.882   1.628  0.8805 -0.5530  0.6582
14318TIP3   OH242910   4.542   2.405   0.847 -0.2453  0.8435 -0.4075
14318TIP3    H142911   4.636   2.390   0.838 -0.3758  0.2536 -0.8293
14318TIP3    H242912   4.531   2.498   0.830  0.3469  1.0596  0.3556
14319TIP3   OH242913   6.535   2.797   0.029 -0.2058  0.6186 -0.2511
14319TIP3    H142914   6.474   2.825  -0.039  0.1923  3.7397  0.6076
14319TIP3    H242915   6.479   2.776   0.104 -0.4925 -0.7525 -0.8332
14320TIP3   OH242916   7.217   1.256   0.324  0.2091 -1.0232 -0.0923
14320TIP3    H142917   7.271   1.303   0.260 -0.2357 -0.4962 -0.0825
14320TIP3    H242918   7.279   1.231   0.393  0.4466 -0.4117 -0.0791
14321TIP3   OH242919   0.368   6.606   6.763  0.2149  0.5185 -0.1762
14321TIP3    H142920   0.398   6.657   6.838  0.2544 -0.0023  0.1587
14321TIP3    H242921   0.444   6.602   6.705  0.9690 -1.2506  0.9102
14322TIP3   OH242922   3.921   7.747   0.344 -0.0124 -0.4336 -0.0840
14322TIP3    H142923   4.012   7.759   0.319  0.3621 -0.9916  0.9725
14322TIP3    H242924   3.925   7.699   0.427 -1.2418  0.2853  0.4016
14323TIP3   OH242925   0.344   5.826   0.068 -0.2447  0.1275 -0.5931
14323TIP3    H142926   0.291   5.903   0.087  0.4178  0.1926  1.1072
14323TIP3    H242927   0.283   5.763   0.029 -1.5928  0.1948  1.3727
14324TIP3   OH242928   8.041   2.995   5.288 -0.4288 -0.1334 -0.3028
14324TIP3    H142929   8.064   3.072   5.341  0.4393  0.3381 -1.3457
14324TIP3    H242930   8.125   2.954   5.269 -0.8175 -0.8193 -0.5270
14325TIP3   OH242931   6.301   6.389   4.891  0.0806  0.5108 -0.5919
14325TIP3    H142932   6.272   6.462   4.945  0.3520 -0.6719  1.2166
14325TIP3    H242933   6.366   6.427   4.831  0.8154  1.5965  0.8729
14326TIP3   OH242934   3.155   0.991   0.446 -0.3883  0.3663  0.0874
14326TIP3    H142935   3.181   1.057   0.511  0.1713 -0.5541  0.8237
14326TIP3    H242936   3.228   0.988   0.384 -0.0988 -0.0520  0.4456
14327TIP3   OH242937   6.832   3.862   6.918 -0.2855 -0.2952 -0.2493
14327TIP3    H142938   6.854   3.869   6.825 -0.3734  2.1186 -0.1292
14327TIP3    H242939   6.745   3.823   6.919 -0.6270  0.4048 -1.2549
14328TIP3   OH242940   7.154   6.913   5.710  0.4264 -1.2253  0.2465
14328TIP3    H142941   7.213   6.919   5.635  0.8038 -0.1581  0.6166
14328TIP3    H242942   7.102   6.993   5.706  0.0009 -1.4714  0.7502
14329TIP3   OH242943   1.670   7.100   0.105 -0.0038 -0.5024  0.4971
14329TIP3    H142944   1.680   7.059   0.191 -0.6172 -1.8955 -0.0895
14329TIP3    H242945   1.605   7.047   0.060 -0.7408  1.0617 -0.3318
14330TIP3   OH242946   7.318   3.211   5.565  0.2371 -0.2444  0.4919
14330TIP3    H142947   7.330   3.306   5.565  3.4466 -0.5856  0.9974
14330TIP3    H242948   7.368   3.181   5.641  0.2310 -2.4464 -0.3444
14331TIP3   OH242949   3.372   2.642   0.213  0.1026 -0.7283  0.1334
14331TIP3    H142950   3.356   2.680   0.126 -2.1931 -1.2664  0.2804
14331TIP3    H242951   3.343   2.710   0.274  0.6118 -0.8149  0.4779
14332TIP3   OH242952   6.560   2.104   0.221  0.0306  0.0926 -0.6877
14332TIP3    H142953   6.558   2.106   0.317 -1.9808  0.0872 -0.7114
14332TIP3    H242954   6.622   2.172   0.197  0.2853  0.3382  0.6035
14333TIP3   OH242955   6.622   4.999   5.720 -0.0114  0.6883 -0.2895
14333TIP3    H142956   6.550   5.043   5.674 -0.3164  0.0049 -0.4640
14333TIP3    H242957   6.620   5.037   5.808 -1.2593 -0.0874  0.0223
14334TIP3   OH242958   8.287   7.204   0.058 -0.6763 -0.5017  0.2553
14334TIP3    H142959   8.240   7.172   0.135 -0.7848 -0.9070  0.0206
14334TIP3    H242960   8.346   7.271   0.093 -0.4558 -0.9455  0.7474
14335TIP3   OH242961   0.085   5.265   6.481  0.0391 -0.0406 -0.2241
14335TIP3    H142962  -0.003   5.300   6.468  0.8707  2.5461  0.7747
14335TIP3    H242963   0.096   5.201   6.411 -1.7614  1.3267 -1.8082
14336TIP3   OH242964   4.037   0.734   0.251  0.1216  0.0505  0.9412
14336TIP3    H142965   3.993   0.649   0.263 -0.2912  0.2777  1.0218
14336TIP3    H242966   4.120   0.711   0.209 -1.0530 -0.1746 -1.3577
14337TIP3   OH242967   7.456   0.302   0.816 -0.1881  0.7813  0.0618
14337TIP3    H142968   7.510   0.230   0.848 -0.6834  0.8858  1.1855
14337TIP3    H242969   7.376   0.296   0.868 -0.6249  1.5455 -0.5199
14338TIP3   OH242970   3.575   1.847   0.848  0.8904  0.8077 -0.2389
14338TIP3    H142971   3.557   1.885   0.762  0.5191  1.0232 -0.0675
14338TIP3    H242972   3.588   1.922   0.906  2.6357  0.6515 -0.4123
14339TIP3   OH242973   0.846   3.494   6.375 -0.2947 -0.2310  0.0212
14339TIP3    H142974   0.861   3.437   6.451  1.1920  0.1600  0.0333
14339TIP3    H242975   0.925   3.547   6.369 -1.2200  1.0961 -0.6465
14340TIP3   OH242976   0.326   5.101   5.730  0.1929 -0.1631 -0.1363
14340TIP3    H142977   0.414   5.068   5.747  0.3939  1.2777  1.8964
14340TIP3    H242978   0.340   5.189   5.694 -0.3980 -0.2732 -0.6422
14341TIP3   OH242979   5.473   1.216   0.653  0.3711  0.1013 -0.0469
14341TIP3    H142980   5.531   1.204   0.728 -0.0528  0.2571  0.3118
14341TIP3    H242981   5.392   1.249   0.691 -0.1205 -0.5870 -0.4815
14342TIP3   OH242982   2.931   7.912   1.121 -0.0732  0.0423  0.0995
14342TIP3    H142983   2.876   7.838   1.147 -0.7193  0.3935 -0.2608
14342TIP3    H242984   3.019   7.889   1.153 -0.3489 -0.6968  0.3337
14343TIP3   OH242985   8.053   5.649   6.508  0.1552 -0.6808  0.5384
14343TIP3    H142986   8.086   5.636   6.597  0.0574  1.0905  0.8674
14343TIP3    H242987   8.131   5.667   6.456  0.0132  0.5025  0.7191
14344TIP3   OH242988   3.397   1.841   0.362 -0.2862 -0.3354  0.1542
14344TIP3    H142989   3.430   1.907   0.301  0.6960 -1.2826 -0.3584
14344TIP3    H242990   3.305   1.831   0.338  0.1696 -0.9475 -1.4354
14345TIP3   OH242991   8.438   3.335   5.994 -0.3162 -0.2358 -0.3404
14345TIP3    H142992   8.346   3.339   6.020 -1.0893 -2.4782 -2.5164
14345TIP3    H242993   8.464   3.427   5.984 -2.4350  0.4190 -0.1085
14346TIP3   OH242994   5.615   5.759   5.951  0.2073 -0.3561  0.4961
14346TIP3    H142995   5.544   5.695   5.944  1.1667 -1.3215 -0.7635
14346TIP3    H242996   5.607   5.813   5.872  2.2112 -1.9279 -0.8527
14347TIP3   OH242997   7.049   6.683   6.713 -0.2886 -0.2363  0.5454
14347TIP3    H142998   7.095   6.637   6.643  1.1357  0.9079  0.7176
14347TIP3    H242999   7.059   6.626   6.790 -0.2443 -0.5885  0.2788
14348TIP3   OH243000   4.790   1.596   0.538  0.3727  0.0475 -0.1345
14348TIP3    H143001   4.769   1.587   0.445  1.3857  0.2299 -0.3921
14348TIP3    H243002   4.789   1.690   0.553 -1.0690 -0.0354  0.3554
14349TIP3   OH243003   7.898   7.359   6.237  0.0297  0.0388  0.0652
14349TIP3    H143004   7.831   7.356   6.306  0.1387  0.0939  0.1739
14349TIP3    H243005   7.976   7.322   6.279 -0.4444 -1.7944 -0.6352
14350TIP3   OH243006   8.443   7.622   5.998 -0.0709 -0.5300  0.4409
14350TIP3    H143007   8.443   7.651   6.089  1.4128 -2.0202  0.9434
14350TIP3    H243008   8.536   7.609   5.977 -0.3182  0.6486 -1.5692
14351TIP3   OH243009   7.597   5.966   5.949 -0.1038 -0.6515  0.3613
14351TIP3    H143010   7.638   5.886   5.917 -0.6833 -0.4034 -1.0367
14351TIP3    H243011   7.518   5.936   5.994  0.3543 -0.9516  0.9784
14352TIP3   OH243012   5.976   0.848   0.224  0.1179  0.3836 -0.1426
14352TIP3    H143013   5.987   0.759   0.190  0.2868  0.3420  0.0214
14352TIP3    H243014   6.016   0.904   0.157  0.3350  0.3107 -0.0755
14353TIP3   OH243015   7.907   5.531   4.942 -0.0678 -0.1190 -0.0221
14353TIP3    H143016   7.868   5.445   4.956 -2.1063  0.7380 -0.3003
14353TIP3    H243017   7.997   5.512   4.913 -0.1282 -2.1103  1.0343
14354TIP3   OH243018   7.241   7.214   4.538  0.6283  0.2992 -0.5004
14354TIP3    H143019   7.212   7.125   4.559 -1.2221  0.8827 -0.4502
14354TIP3    H243020   7.244   7.259   4.623  0.9399  0.4552 -0.5936
14355TIP3   OH243021   6.203   4.433   6.675  0.7081  0.2975 -0.0064
14355TIP3    H143022   6.219   4.522   6.641  1.9163  0.1774  0.2382
14355TIP3    H243023   6.247   4.431   6.760 -0.1967 -0.2145  0.4586
14356TIP3   OH243024   8.037   5.022   6.528 -0.2639  0.9432 -0.5962
14356TIP3    H143025   7.978   4.980   6.591  1.6994 -1.6607 -0.4183
14356TIP3    H243026   7.979   5.048   6.456 -1.8412 -0.3621  0.1663
14357TIP3   OH243027   5.764   0.143   1.321 -0.1434  0.0447  0.0856
14357TIP3    H143028   5.733   0.072   1.264 -0.8643 -0.0563  0.6044
14357TIP3    H243029   5.858   0.125   1.331 -0.5321 -1.4681  1.1004
14358TIP3   OH243030   3.922   2.643   0.797  0.8260  0.2948  0.2735
14358TIP3    H143031   3.915   2.633   0.702 -1.7053  1.5961  0.2859
14358TIP3    H243032   3.976   2.720   0.810  1.3146  0.0163 -0.1003
14359TIP3   OH243033   1.530   7.159   6.531 -0.0067 -0.1223 -0.4062
14359TIP3    H143034   1.556   7.149   6.440 -0.0845 -0.2884 -0.4112
14359TIP3    H243035   1.520   7.253   6.544  1.2127 -0.0133 -0.2307
14360TIP3   OH243036   7.160   6.524   5.398  0.1769  0.4132  0.1660
14360TIP3    H143037   7.100   6.543   5.470 -0.5625 -1.5841  0.0880
14360TIP3    H243038   7.108   6.475   5.335  1.8185 -1.1197 -0.0302
14361TIP3   OH243039   0.561   3.305   1.098  0.4982 -0.0175  0.5615
14361TIP3    H143040   0.612   3.252   1.037  1.1857 -0.0756  1.1813
14361TIP3    H243041   0.475   3.263   1.100  0.9210 -0.8932  0.7467
14362TIP3   OH243042   8.206   2.256   2.917 -0.1411 -0.0106  0.0025
14362TIP3    H143043   8.159   2.336   2.894 -0.4927 -0.6704 -1.5878
14362TIP3    H243044   8.277   2.250   2.853  0.1334 -0.7503  0.3717
14363TIP3   OH243045   8.356   1.114   1.056 -0.4335 -0.2217 -0.1474
14363TIP3    H143046   8.278   1.059   1.060  0.0822 -0.8680  1.1834
14363TIP3    H243047   8.381   1.114   0.963 -1.9014 -0.1450 -0.5577
14364TIP3   OH243048   6.914   4.751   0.791  0.3458 -0.1824  0.3313
14364TIP3    H143049   6.964   4.740   0.872  0.4159 -0.7593  0.2043
14364TIP3    H243050   6.921   4.845   0.772 -0.5280  0.1618  1.5555
14365TIP3   OH243051   6.514   3.143   2.739  0.2683 -0.0630 -0.0779
14365TIP3    H143052   6.599   3.103   2.725  0.2440 -0.5086  0.9577
14365TIP3    H243053   6.474   3.147   2.652  1.6546  0.8844 -0.6842
14366TIP3   OH243054   8.002   2.148   2.079 -0.3177 -0.2141  0.1753
14366TIP3    H143055   8.083   2.142   2.029 -1.3486  2.4417 -1.8991
14366TIP3    H243056   7.941   2.195   2.022 -2.3691  0.5295  2.8541
14367TIP3   OH243057   0.996   1.566   0.055  0.1247  0.3321 -0.1927
14367TIP3    H143058   0.967   1.499  -0.007 -0.2169 -0.8667  1.2383
14367TIP3    H243059   1.085   1.539   0.080  0.6078  1.3033 -0.8284
14368TIP3   OH243060   2.576   4.623   6.591  0.0764  0.0476 -0.9277
14368TIP3    H143061   2.551   4.531   6.586 -1.1831  0.3274  0.0172
14368TIP3    H243062   2.604   4.645   6.503 -0.1716 -1.0782 -1.2981
14369TIP3   OH243063   2.446   7.702   5.588 -0.5302 -0.3592  0.3348
14369TIP3    H143064   2.513   7.754   5.631 -0.7299 -0.2687  0.5387
14369TIP3    H243065   2.432   7.745   5.504 -0.3619 -0.3546  0.3102
14370TIP3   OH243066   6.612   3.083   0.793  0.0568  0.3056 -0.4412
14370TIP3    H143067   6.518   3.070   0.784  0.1441  1.3375 -3.7234
14370TIP3    H243068   6.620   3.163   0.845 -0.8211 -0.4645  0.9123
14371TIP3   OH243069   1.907   6.735   6.787  0.3871 -0.6917  0.4163
14371TIP3    H143070   1.923   6.647   6.821  2.0722 -0.0539  1.2779
14371TIP3    H243071   1.971   6.791   6.830 -1.0117  1.0753  0.2772
14372TIP3   OH243072   8.414   2.379   1.180 -0.1433 -0.3717  1.1391
14372TIP3    H143073   8.359   2.313   1.139 -1.0896  0.5848  0.8434
14372TIP3    H243074   8.358   2.417   1.248  0.7364 -0.5652  1.9871
14373TIP3   OH243075   7.064   3.523   1.496 -0.2504 -0.2261  0.0532
14373TIP3    H143076   7.001   3.461   1.534  0.5557 -1.6308 -0.8411
14373TIP3    H243077   7.035   3.532   1.405 -0.2929  0.6402  0.1495
14374TIP3   OH243078   6.795   2.573   0.759 -0.1344 -0.1067  0.1979
14374TIP3    H143079   6.706   2.569   0.725  0.0812 -0.9361 -0.3073
14374TIP3    H243080   6.842   2.506   0.709  0.2948 -1.0642  1.8544
14375TIP3   OH243081   7.013   4.393   0.016 -0.4240 -0.3976  0.6782
14375TIP3    H143082   6.977   4.475   0.050  2.5174  0.7576  1.2045
14375TIP3    H243083   7.024   4.338   0.094  0.4656 -0.1206  0.7512
14376TIP3   OH243084   5.230   1.218   6.195  0.4486  0.0746  0.1886
14376TIP3    H143085   5.314   1.262   6.179  0.7475 -0.7896 -0.7244
14376TIP3    H243086   5.253   1.144   6.251  0.2449  0.0202  0.1989
14377TIP3   OH243087   7.263   3.943   2.892 -0.3866 -0.0035 -0.3239
14377TIP3    H143088   7.204   3.938   2.967  0.4026 -0.5986  0.2674
14377TIP3    H243089   7.330   3.877   2.909  0.8478  1.1397 -0.6448
14378TIP3   OH243090   2.240   7.924   5.608 -0.1891  0.3032 -0.3577
14378TIP3    H143091   2.172   7.952   5.547  0.2712  1.1698 -0.4909
14378TIP3    H243092   2.319   7.917   5.554  0.5750  2.5916  0.3919
14379TIP3   OH243093   7.233   2.404   1.028 -0.3913 -0.2107 -0.0656
14379TIP3    H143094   7.222   2.445   0.943 -0.3482 -0.8415 -0.3826
14379TIP3    H243095   7.160   2.437   1.081  0.0742  0.8476 -0.0774
14380TIP3   OH243096   6.531   0.906   0.333  0.7417  0.5205 -0.1091
14380TIP3    H143097   6.527   0.853   0.413  1.3454 -0.9598 -1.0306
14380TIP3    H243098   6.536   0.996   0.365  1.2562 -0.0534  1.5329
14381TIP3   OH243099   1.748   4.628   6.590  0.5168 -0.3871 -0.2705
14381TIP3    H143100   1.675   4.567   6.603 -0.0495  0.0121 -1.4697
14381TIP3    H243101   1.804   4.584   6.526  0.6190 -0.0881 -0.3838
14382TIP3   OH243102   7.822   0.068   2.174 -0.2659 -0.4952 -0.1506
14382TIP3    H143103   7.819  -0.028   2.174  0.7213 -0.5355 -1.4328
14382TIP3    H243104   7.738   0.095   2.137 -0.6611 -0.8408  0.4657
14383TIP3   OH243105   1.764   7.713   5.700 -0.3335  0.1451 -0.4818
14383TIP3    H143106   1.675   7.698   5.731 -0.4669  0.2025 -0.8393
14383TIP3    H243107   1.795   7.787   5.751 -0.2631 -0.2788  0.1004
14384TIP3   OH243108   7.978   1.725   1.333  0.5599 -0.1162 -0.0372
14384TIP3    H143109   7.930   1.789   1.385 -0.5632 -1.1684  0.2483
14384TIP3    H243110   7.938   1.730   1.246  1.3323  0.4695 -0.3661
14385TIP3   OH243111   3.683   6.841   6.563  0.0594 -0.4281 -0.0756
14385TIP3    H143112   3.647   6.775   6.622  0.0730 -0.6762 -0.3408
14385TIP3    H243113   3.710   6.791   6.486  0.8631 -0.2267  0.0741
14386TIP3   OH243114   6.407   3.820   3.519  0.0028 -0.2349 -0.1037
14386TIP3    H143115   6.399   3.735   3.562 -0.0109 -0.7562 -1.1225
14386TIP3    H243116   6.472   3.806   3.450 -0.8497  0.2778 -1.0185
14387TIP3   OH243117   7.729   2.811   0.309 -0.3709  0.0327 -0.6668
14387TIP3    H143118   7.730   2.743   0.241  0.8297  0.6650 -1.2920
14387TIP3    H243119   7.643   2.852   0.299 -0.3679 -0.1499 -1.5531
14388TIP3   OH243120   1.753   5.375   5.249 -0.5323  0.5946  0.3239
14388TIP3    H143121   1.698   5.346   5.321 -0.1240 -0.5334  0.1893
14388TIP3    H243122   1.696   5.429   5.195 -1.5652 -0.7316  0.0702
14389TIP3   OH243123   7.278   2.721   0.993  0.1177 -0.2357  0.2477
14389TIP3    H143124   7.336   2.649   0.970 -2.0054 -1.4500 -1.4782
14389TIP3    H243125   7.327   2.800   0.972  1.3488 -1.2152 -0.6102
14390TIP3   OH243126   5.002   0.294   6.786  0.6164 -0.2726  0.2508
14390TIP3    H143127   4.922   0.282   6.734 -0.5993  1.2403  1.6944
14390TIP3    H243128   5.038   0.206   6.795 -1.8145 -1.2361  0.9758
14391TIP3   OH243129   7.121   3.882   0.672 -0.3801 -0.1946 -0.0527
14391TIP3    H143130   7.175   3.961   0.683 -2.1227  0.6620  2.9868
14391TIP3    H243131   7.159   3.818   0.732 -2.6233  0.4204  2.1214
14392TIP3   OH243132   6.338   2.114   0.719  0.2650  0.3396  0.6931
14392TIP3    H143133   6.336   2.036   0.664  0.2265  0.9260 -0.1387
14392TIP3    H243134   6.323   2.187   0.659 -4.3825  0.7021  2.0675
14393TIP3   OH243135   2.689   4.727   6.820 -0.2706 -0.1638  0.0057
14393TIP3    H143136   2.646   4.685   6.746 -0.3951 -0.2893  0.1477
14393TIP3    H243137   2.657   4.679   6.896 -0.8685  0.5640  0.2234
14394TIP3   OH243138   3.478   5.821   4.876 -0.2678 -0.1317 -0.1319
14394TIP3    H143139   3.396   5.868   4.860 -0.3138 -1.0267 -2.6659
14394TIP3    H243140   3.452   5.729   4.886  0.4999 -0.5518 -1.8514
14395TIP3   OH243141   7.415   2.199   1.105 -0.0385 -0.3115  0.0650
14395TIP3    H143142   7.378   2.274   1.059 -0.5055 -1.2875 -1.1751
14395TIP3    H243143   7.360   2.190   1.183  0.0018  0.6168  0.1997
14396TIP3   OH243144   8.495   3.712   2.484  0.4662 -0.3001  0.1902
14396TIP3    H143145   8.530   3.624   2.469 -0.2344 -0.6077  0.3843
14396TIP3    H243146   8.463   3.739   2.398  0.5154 -0.3086  0.1696
14397TIP3   OH243147   7.212   1.277   1.839  0.5913 -0.5525 -0.7979
14397TIP3    H143148   7.212   1.260   1.933  1.8869 -1.6849 -0.9882
14397TIP3    H243149   7.293   1.237   1.807 -0.3091 -1.0275 -2.5389
14398TIP3   OH243150   2.297   5.081   6.920  0.1964 -0.3114 -0.3520
14398TIP3    H143151   2.235   5.056   6.851 -0.8599 -0.8897  0.7782
14398TIP3    H243152   2.381   5.044   6.893 -0.0601  0.0579 -1.6576
14399TIP3   OH243153   6.789   2.289   1.446 -0.4157  0.0069 -0.1467
14399TIP3    H143154   6.851   2.227   1.406 -0.7557 -0.2287 -0.3153
14399TIP3    H243155   6.761   2.345   1.373  0.8048  1.1357  0.2424
14400TIP3   OH243156   2.070   5.444   6.609  0.0716 -0.5014  0.4779
14400TIP3    H143157   2.146   5.493   6.577 -0.8683  0.1963 -0.7055
14400TIP3    H243158   2.031   5.501   6.676 -1.5711  0.8612 -1.5571
14401TIP3   OH243159   7.804   4.373   0.618  0.3737  0.0558  0.0788
14401TIP3    H143160   7.818   4.347   0.527  0.2254  0.5399 -0.0809
14401TIP3    H243161   7.736   4.313   0.649  1.4507 -1.0762  0.3106
14402TIP3   OH243162   3.419   6.255   5.801  0.7148 -0.2558  0.3253
14402TIP3    H143163   3.369   6.174   5.807 -1.3204  0.8467 -1.1774
14402TIP3    H243164   3.366   6.319   5.848  1.6123  0.5490  0.2644
14403TIP3   OH243165   8.165   3.384   0.642  0.1136  0.0187  1.0388
14403TIP3    H143166   8.183   3.303   0.594  0.7536  1.1941 -0.7693
14403TIP3    H243167   8.069   3.389   0.646  0.0072  0.4610 -1.1774
14404TIP3   OH243168   8.450   2.773   2.684 -0.4691 -0.0375 -0.2324
14404TIP3    H143169   8.470   2.807   2.771 -0.7031  0.4516 -0.3737
14404TIP3    H243170   8.368   2.725   2.695  0.4571 -1.5739  0.2266
14405TIP3   OH243171   0.317   4.007   0.800 -0.0399  0.2309  0.4476
14405TIP3    H143172   0.225   4.033   0.794 -0.0117 -0.0555 -1.3985
14405TIP3    H243173   0.318   3.938   0.866 -1.4926 -1.2095 -1.0031
14406TIP3   OH243174   0.596   2.973   1.063  0.5571  0.6110 -0.0226
14406TIP3    H143175   0.571   2.955   1.153  0.8818  0.2844  0.0012
14406TIP3    H243176   0.528   3.033   1.031 -0.5618 -0.6870 -0.1324
14407TIP3   OH243177   1.382   2.284   1.700 -0.5943  0.3148 -0.3607
14407TIP3    H143178   1.386   2.251   1.790 -0.8436  0.2037 -0.3900
14407TIP3    H243179   1.458   2.246   1.657  0.7972  2.1815  0.4050
14408TIP3   OH243180   2.850   6.993   6.564 -0.5499 -0.3009  0.0333
14408TIP3    H143181   2.873   7.015   6.655  1.1829  1.6656 -0.8395
14408TIP3    H243182   2.894   6.910   6.547 -0.1385 -0.2252  0.7060
14409TIP3   OH243183   5.071   7.586   0.646 -0.1183  0.3117  1.0621
14409TIP3    H143184   5.038   7.656   0.590 -0.5688 -1.3957 -0.8781
14409TIP3    H243185   5.002   7.571   0.710 -1.5224 -0.7174 -0.6728
14410TIP3   OH243186   2.346   3.367   1.528  0.0056 -0.2361  0.5463
14410TIP3    H143187   2.423   3.411   1.492  0.0688 -0.3093  0.5901
14410TIP3    H243188   2.272   3.419   1.498  0.1058  0.1465  0.9597
14411TIP3   OH243189   0.062   1.840   0.262 -0.1584 -0.1465  0.3329
14411TIP3    H143190   0.033   1.766   0.209 -2.8609  0.4771  0.8653
14411TIP3    H243191  -0.006   1.850   0.329  0.5991  2.2526  0.8008
14412TIP3   OH243192   1.694   3.944   2.184  0.0853 -0.1217  0.4666
14412TIP3    H143193   1.775   3.914   2.225  1.5894  0.5536 -1.8917
14412TIP3    H243194   1.683   4.033   2.217  1.0917  0.2881 -0.2582
14413TIP3   OH243195   1.172   2.606   0.399 -0.0526 -0.2315  1.1698
14413TIP3    H143196   1.241   2.660   0.361 -1.3750  1.4897  1.1566
14413TIP3    H243197   1.192   2.517   0.369 -0.4976  0.9196 -2.6992
14414TIP3   OH243198   4.772   7.534   2.481  0.0277 -0.2147  0.2856
14414TIP3    H143199   4.763   7.609   2.539 -1.2092  0.6011 -0.9217
14414TIP3    H243200   4.857   7.545   2.438  0.5761 -0.3899  1.3177
14415TIP3   OH243201   7.250   2.231   1.306 -0.1487  0.0125  0.0792
14415TIP3    H143202   7.162   2.194   1.310 -0.8521  1.6485  0.1918
14415TIP3    H243203   7.289   2.209   1.390 -0.5075 -0.5818  0.0948
14416TIP3   OH243204   6.189   4.120   2.053  0.1046 -0.3142 -0.4950
14416TIP3    H143205   6.159   4.116   2.144  1.1703  1.4212 -0.0394
14416TIP3    H243206   6.139   4.192   2.014  1.7107  0.8552 -0.4510
14417TIP3   OH243207   6.146   1.100   1.665 -0.0655 -0.0275  0.5731
14417TIP3    H143208   6.225   1.091   1.611  0.1750 -0.1855  0.9545
14417TIP3    H243209   6.121   1.011   1.687 -0.0745  0.0439  0.8551
14418TIP3   OH243210   7.845   2.695   0.665 -0.8946  0.3870  0.0512
14418TIP3    H143211   7.790   2.772   0.682 -0.2278  0.7075  0.8345
14418TIP3    H243212   7.929   2.732   0.638 -0.2091 -0.0289  1.5427
14419TIP3   OH243213   3.868   6.574   6.602 -0.1967  0.1864 -0.4569
14419TIP3    H143214   3.878   6.535   6.515  0.4838 -1.6924  0.4449
14419TIP3    H243215   3.945   6.630   6.612  1.0150 -1.5081 -0.0999
14420TIP3   OH243216   2.637   0.715   1.913  0.3794  0.5329  0.1441
14420TIP3    H143217   2.557   0.762   1.888  1.1214  1.8027  0.0861
14420TIP3    H243218   2.693   0.783   1.951  2.1003 -0.0175 -1.3607
14421TIP3   OH243219   1.532   3.796   2.378  0.0922 -0.2632 -0.3576
14421TIP3    H143220   1.581   3.832   2.304  0.1884  0.3262 -0.0126
14421TIP3    H243221   1.595   3.796   2.450 -0.6010  1.1214  0.2573
14422TIP3   OH243222   6.448   1.085   6.763 -0.2459 -0.1152  0.1967
14422TIP3    H143223   6.512   1.029   6.807  0.0152 -0.6406 -0.8262
14422TIP3    H243224   6.364   1.042   6.778 -0.1231 -0.4442 -0.0394
14423TIP3   OH243225   1.523   5.042   0.513 -0.2675 -0.5317 -0.1202
14423TIP3    H143226   1.533   4.948   0.500 -2.5956 -0.7942 -0.2166
14423TIP3    H243227   1.466   5.071   0.441 -1.8099  0.4477  1.4452
14424TIP3   OH243228   0.743   3.848   2.404 -0.4915  0.1531 -0.1914
14424TIP3    H143229   0.667   3.897   2.371 -0.8244  0.4477  1.0020
14424TIP3    H243230   0.725   3.758   2.378 -1.4675  0.1501  0.4684
14425TIP3   OH243231   1.834   2.565   0.031 -0.3386  0.2818 -0.2214
14425TIP3    H143232   1.920   2.606   0.037 -0.9001  1.3472  0.7674
14425TIP3    H243233   1.782   2.626  -0.020 -0.8234  0.2084  0.1817
14426TIP3   OH243234   2.883   6.510   6.314 -0.0937  0.0190 -0.6438
14426TIP3    H143235   2.884   6.415   6.301 -0.2091  0.2524 -2.4266
14426TIP3    H243236   2.858   6.546   6.229 -0.3565  1.6432  0.1000
14427TIP3   OH243237   3.297   6.548   6.579 -0.1377 -0.8208 -0.0541
14427TIP3    H143238   3.231   6.605   6.541  1.0403  0.7817  0.2235
14427TIP3    H243239   3.249   6.471   6.607 -1.6820 -0.2215 -0.9758
14428TIP3   OH243240   2.111   2.572   0.343 -0.4693  0.3303  0.1577
14428TIP3    H143241   2.110   2.487   0.388  1.6114  0.5203  0.5907
14428TIP3    H243242   2.095   2.636   0.412  0.7799  0.4829  0.3127
14429TIP3   OH243243   7.599   2.670   1.254 -0.2644  0.3772  0.4708
14429TIP3    H143244   7.539   2.646   1.325 -1.2846  1.0516 -0.1496
14429TIP3    H243245   7.598   2.765   1.253  0.7380  0.3906  0.3779
14430TIP3   OH243246   6.164   4.324   2.288  0.1700 -0.0276 -0.3181
14430TIP3    H143247   6.207   4.408   2.304  0.2154 -0.0279 -0.4447
14430TIP3    H243248   6.074   4.337   2.318  0.4737 -0.2838  0.7260
14431TIP3   OH243249   0.042   2.432   0.766  0.7932 -0.5883 -0.4209
14431TIP3    H143250  -0.014   2.508   0.749  0.5632 -0.8941 -1.0305
14431TIP3    H243251   0.129   2.459   0.738  1.2385  0.3780  1.8069
14432TIP3   OH243252   7.303   3.446   2.370  0.3844 -0.0316  0.2558
14432TIP3    H143253   7.373   3.415   2.313 -1.5661 -1.0071 -1.6978
14432TIP3    H243254   7.272   3.526   2.328 -0.1849 -0.0326  0.6662
14433TIP3   OH243255   1.898   4.013   0.610 -0.1548  0.3621 -0.1729
14433TIP3    H143256   1.899   3.918   0.627 -0.6791  0.0521 -1.7880
14433TIP3    H243257   1.989   4.033   0.586  0.1781  0.4630  1.1364
14434TIP3   OH243258   3.236   6.832   5.686 -0.2220  0.5075  0.0967
14434TIP3    H143259   3.271   6.820   5.598 -0.5507  0.0599  0.0290
14434TIP3    H243260   3.309   6.872   5.735  0.7288 -1.2759  0.1959
14435TIP3   OH243261   1.533   5.716   0.710  0.0850  0.4107 -0.4138
14435TIP3    H143262   1.616   5.679   0.738 -0.6747 -0.2445  1.0213
14435TIP3    H243263   1.518   5.679   0.623  0.5306 -0.7176 -0.0136
14436TIP3   OH243264   0.363   2.268   0.788 -0.7436  0.0199 -0.0262
14436TIP3    H143265   0.318   2.347   0.820 -1.4340 -0.0217 -0.8864
14436TIP3    H243266   0.293   2.213   0.753 -0.1573 -0.5912 -0.2341
14437TIP3   OH243267   0.108   1.662  -0.004  0.1956  0.2756  0.2327
14437TIP3    H143268   0.013   1.661   0.012  0.0800 -1.7397 -0.4394
14437TIP3    H243269   0.135   1.751   0.020 -1.4958  0.2349  2.4227
14438TIP3   OH243270   3.367   7.345   4.075  0.0706 -0.3219  0.3602
14438TIP3    H143271   3.303   7.353   4.004  1.8221  0.9481 -1.1276
14438TIP3    H243272   3.375   7.434   4.111 -0.3840 -0.8454  1.7860
14439TIP3   OH243273   8.404   4.649   1.256 -0.5540  0.1821  0.1094
14439TIP3    H143274   8.466   4.579   1.237 -1.6157 -0.0938 -2.5305
14439TIP3    H243275   8.385   4.640   1.349  0.7342 -1.8536  0.2057
14440TIP3   OH243276   2.134   3.182   0.378  0.3222 -0.0719 -0.0138
14440TIP3    H143277   2.151   3.088   0.378 -1.0438 -0.3461  1.0992
14440TIP3    H243278   2.180   3.215   0.302  2.5623 -1.3228  0.7630
14441TIP3   OH243279   6.550   1.123   5.555  0.3028  0.2219 -0.9075
14441TIP3    H143280   6.528   1.064   5.628  0.3840 -0.3169 -1.3119
14441TIP3    H243281   6.513   1.080   5.478 -0.6571  1.2900 -1.0546
14442TIP3   OH243282   0.387   2.041   2.649 -0.1211  0.1749  0.0337
14442TIP3    H143283   0.358   1.950   2.657 -0.1609  0.2119  0.3243
14442TIP3    H243284   0.342   2.087   2.719  1.7117 -0.0345  1.4019
14443TIP3   OH243285   8.453   2.138   0.159  0.4191 -0.0552 -0.2682
14443TIP3    H143286   8.473   2.167   0.070 -0.8416  0.6891 -0.3331
14443TIP3    H243287   8.507   2.193   0.215  0.7902 -0.1269 -0.5551
14444TIP3   OH243288   8.073   2.940   1.229 -0.0884  0.3319 -0.3400
14444TIP3    H143289   8.048   3.029   1.254  2.3276  0.8106  0.5914
14444TIP3    H243290   8.013   2.884   1.278 -2.0448  1.4432 -1.4168
14445TIP3   OH243291   2.458   1.163   1.435 -0.0845  0.3901 -0.1022
14445TIP3    H143292   2.418   1.174   1.348  2.0378 -0.8662 -1.2850
14445TIP3    H243293   2.524   1.232   1.440 -0.1648  0.4221  0.4809
14446TIP3   OH243294   3.891   7.008   6.870  1.2187  0.0409  0.5743
14446TIP3    H143295   3.797   6.997   6.853  1.5972 -1.4369 -0.7044
14446TIP3    H243296   3.906   6.958   6.950  1.1448 -0.8779  0.0322
14447TIP3   OH243297   1.221   3.432   2.479 -0.1219  0.0547  0.0399
14447TIP3    H143298   1.311   3.460   2.496  0.0675  0.0371 -0.9294
14447TIP3    H243299   1.178   3.509   2.444 -0.2806 -0.1489 -0.2150
14448TIP3   OH243300   7.240   4.154   0.937  0.1310 -0.6289 -0.7055
14448TIP3    H143301   7.214   4.245   0.952  1.3542 -0.5929  1.6140
14448TIP3    H243302   7.163   4.103   0.962 -0.0137 -0.2766 -0.4141
14449TIP3   OH243303   4.107   6.427   6.041  0.1875 -0.1690  0.7695
14449TIP3    H143304   4.037   6.457   6.101  0.0076 -2.3952  1.7256
14449TIP3    H243305   4.096   6.481   5.963 -1.7516  0.4654  1.4411
14450TIP3   OH243306   0.296   2.546   0.755 -0.0847 -0.5440 -0.3532
14450TIP3    H143307   0.343   2.536   0.673 -0.8858 -0.1374 -0.8723
14450TIP3    H243308   0.344   2.613   0.804 -0.9288  0.9117 -1.4835
14451TIP3   OH243309   1.239   3.797   0.737 -0.5114 -0.3069 -0.3236
14451TIP3    H143310   1.186   3.738   0.683  0.6909 -1.9876  0.2739
14451TIP3    H243311   1.181   3.825   0.807 -0.6493 -2.1279  0.3277
14452TIP3   OH243312   0.193   3.081   2.745  0.2005 -0.0956  0.0984
14452TIP3    H143313   0.203   3.019   2.672 -0.8267 -0.8358  0.5729
14452TIP3    H243314   0.119   3.047   2.796 -0.9131  1.9794 -0.0790
14453TIP3   OH243315   1.622   5.817   6.078 -0.4054  0.0085  0.1277
14453TIP3    H143316   1.625   5.886   6.012 -2.8694 -0.5913 -0.6761
14453TIP3    H243317   1.714   5.800   6.100  0.3914  1.1227 -2.1903
14454TIP3   OH243318   0.135   2.844   2.119 -0.0048 -0.3128 -0.3950
14454TIP3    H143319   0.090   2.786   2.059 -0.7793  1.2547 -1.3671
14454TIP3    H243320   0.163   2.788   2.191  0.4792 -2.1045 -1.9678
14455TIP3   OH243321   0.740   4.054   0.548  0.3028  0.6599  0.1646
14455TIP3    H143322   0.687   4.124   0.587 -0.5045 -0.3490  0.9140
14455TIP3    H243323   0.830   4.075   0.572  0.2302  2.1998 -0.8120
14456TIP3   OH243324   8.269   3.295   0.269 -0.8178  0.3053  0.0491
14456TIP3    H143325   8.364   3.288   0.277 -0.6284  3.1636  1.0588
14456TIP3    H243326   8.235   3.214   0.306  1.2125 -0.8434 -0.5064
14457TIP3   OH243327   2.741   5.113   6.276 -0.1705  0.1989  0.5079
14457TIP3    H143328   2.740   5.029   6.322  0.6768  0.0903  0.3288
14457TIP3    H243329   2.831   5.124   6.247 -0.4876  0.7206 -0.3058
14458TIP3   OH243330   2.305   4.678   5.664 -0.0508  0.1824 -0.2260
14458TIP3    H143331   2.317   4.590   5.628  0.8790  1.1713 -2.4320
14458TIP3    H243332   2.381   4.690   5.722 -1.0710 -1.0796  1.4140
14459TIP3   OH243333   0.425   2.492   1.394  0.2546 -0.1940 -0.1093
14459TIP3    H143334   0.332   2.477   1.377  0.0821  0.6632  0.0199
14459TIP3    H243335   0.458   2.533   1.313  0.5714 -0.7075 -0.2420
14460TIP3   OH243336   0.740   2.670   0.692  0.4923 -0.3056 -0.1156
14460TIP3    H143337   0.680   2.600   0.717  1.3114 -0.5496  1.1937
14460TIP3    H243338   0.819   2.624   0.661 -0.2578 -0.0037 -2.6041
14461TIP3   OH243339   6.644   0.429   2.891  0.2294 -0.2249 -0.0029
14461TIP3    H143340   6.739   0.439   2.904 -0.0208 -0.1056  1.9092
14461TIP3    H243341   6.617   0.510   2.847  0.8031  0.3746  0.7211
14462TIP3   OH243342   8.107   1.273   1.361 -0.3187  0.0280  0.4442
14462TIP3    H143343   8.199   1.258   1.337  0.0006 -2.0825  2.7793
14462TIP3    H243344   8.104   1.366   1.385  0.9023  0.4270 -0.8580
14463TIP3   OH243345   3.114   6.547   6.913 -0.2323 -0.1731 -0.0416
14463TIP3    H143346   3.097   6.523   6.822  3.2822  0.0674 -0.8186
14463TIP3    H243347   3.135   6.465   6.957  1.0094  0.0761 -0.1553
14464TIP3   OH243348   2.551   4.896   1.410 -0.1319 -0.3333 -0.4671
14464TIP3    H143349   2.494   4.824   1.436  0.2500 -0.7562 -0.8081
14464TIP3    H243350   2.499   4.975   1.427 -0.5981 -0.6951 -0.2264
14465TIP3   OH243351   8.281   1.952   0.297 -0.4167  0.7981 -0.3825
14465TIP3    H143352   8.227   1.891   0.246  1.9815 -1.0631 -0.7738
14465TIP3    H243353   8.342   1.989   0.234 -0.2454  1.7495  0.3386
14466TIP3   OH243354   7.870   3.596   2.485 -0.4395 -0.5426  0.3977
14466TIP3    H143355   7.936   3.598   2.415 -1.3113 -1.9669 -0.5044
14466TIP3    H243356   7.868   3.504   2.512 -1.5344 -0.3702  0.9152
14467TIP3   OH243357   8.516   3.240   3.869  0.1483  0.2000 -0.2770
14467TIP3    H143358   8.432   3.193   3.874 -0.3712  1.1601  0.0892
14467TIP3    H243359   8.492   3.332   3.876  1.2252  0.4905 -0.3926
14468TIP3   OH243360   8.235   3.855   3.536 -0.0616 -0.2166 -0.1954
14468TIP3    H143361   8.290   3.903   3.475  1.9966 -0.6036  1.2979
14468TIP3    H243362   8.167   3.815   3.481  0.1557  1.6250 -1.8541
14469TIP3   OH243363   2.166   5.070   6.623 -0.0484 -0.4504  0.7559
14469TIP3    H143364   2.236   5.028   6.574 -1.0262 -0.8384 -0.3103
14469TIP3    H243365   2.170   5.162   6.596 -2.4582 -1.1929 -2.3155
14470TIP3   OH243366   3.227   4.868   3.524 -0.4709 -0.6007  0.2398
14470TIP3    H143367   3.154   4.841   3.469 -1.8028 -2.2496  2.7290
14470TIP3    H243368   3.220   4.813   3.602  2.1166  0.7703  1.4944
14471TIP3   OH243369   7.833   5.674   0.060 -0.2296  0.2176 -0.5027
14471TIP3    H143370   7.758   5.614   0.057  0.0275 -0.1183 -0.2982
14471TIP3    H243371   7.866   5.676  -0.029  1.5283 -2.2067  0.0372
14472TIP3   OH243372   8.236   0.536   0.012  0.3265  1.0799 -0.2626
14472TIP3    H143373   8.259   0.482   0.088  0.3278 -0.5586 -1.3984
14472TIP3    H243374   8.159   0.493  -0.025 -0.9845  3.1039  0.0465
14473TIP3   OH243375   1.712   3.105   1.142  0.7086 -0.4521  0.2563
14473TIP3    H143376   1.707   3.013   1.168 -0.7605 -0.4220  0.1101
14473TIP3    H243377   1.722   3.103   1.047 -1.9628 -0.4470 -0.0667
14474TIP3   OH243378   0.448   2.889   1.881 -0.0341  0.3379 -0.1531
14474TIP3    H143379   0.359   2.868   1.910 -0.1239  0.7559 -0.1238
14474TIP3    H243380   0.504   2.840   1.941 -0.2515 -0.5464 -0.6571
14475TIP3   OH243381   5.063   0.188   6.308  0.2059  0.8880 -0.2540
14475TIP3    H143382   5.005   0.151   6.375  0.7865  0.5852  0.0902
14475TIP3    H243383   5.055   0.128   6.234 -0.4634  1.2407 -0.4661
14476TIP3   OH243384   8.529   2.678   3.057 -0.2479  0.8420  0.1857
14476TIP3    H143385   8.480   2.747   3.012  1.1798  1.0537 -1.0390
14476TIP3    H243386   8.482   2.598   3.035 -0.5972  1.1488 -0.2130
14477TIP3   OH243387   3.610   6.956   5.447  0.2080 -0.2137  0.1729
14477TIP3    H143388   3.649   6.870   5.455 -1.6886 -1.1087  0.1079
14477TIP3    H243389   3.634   6.986   5.359  0.9975 -0.5976  0.2592
14478TIP3   OH243390   0.395   3.528   1.205 -0.0524  0.5291 -0.4080
14478TIP3    H143391   0.452   3.479   1.146 -0.6157  0.0008 -0.5307
14478TIP3    H243392   0.412   3.490   1.291  1.1288  1.6351 -0.1460
14479TIP3   OH243393   2.703   5.899   6.498 -0.3625  0.1579  0.1162
14479TIP3    H143394   2.754   5.905   6.417  0.9876  1.9079  1.0644
14479TIP3    H243395   2.742   5.825   6.545 -2.7119 -2.4477 -1.8282
14480TIP3   OH243396   0.437   2.810   0.578 -0.3635 -0.5586 -0.7259
14480TIP3    H143397   0.402   2.793   0.666 -0.2207  0.7259 -0.4077
14480TIP3    H243398   0.523   2.850   0.594 -0.3296 -0.3456 -1.4396
14481TIP3   OH243399   8.424   5.294   1.288 -0.2044  0.2183  0.1673
14481TIP3    H143400   8.512   5.323   1.262 -0.0300 -1.2694 -0.9542
14481TIP3    H243401   8.396   5.237   1.217 -2.0506  0.5972  0.5822
14482TIP3   OH243402   2.950   7.223   5.625  0.5182  0.4118 -0.0345
14482TIP3    H143403   3.000   7.170   5.688  3.3594  0.3938 -2.2013
14482TIP3    H243404   2.869   7.174   5.613  1.5144 -1.5376  0.8125
14483TIP3   OH243405   0.710   3.859   1.684 -0.0962 -0.4524 -0.5574
14483TIP3    H143406   0.788   3.804   1.685  1.7731  2.1267  1.0613
14483TIP3    H243407   0.669   3.845   1.769 -1.9440 -2.4210 -1.7000
14484TIP3   OH243408   2.146   4.089   5.214  0.2246  0.1512 -0.6137
14484TIP3    H143409   2.174   4.011   5.263 -0.2903  0.9264  0.9220
14484TIP3    H243410   2.134   4.057   5.124 -0.6403 -1.6934  0.1336
14485TIP3   OH243411   2.797   3.270   6.159 -0.8180  0.6519  0.0364
14485TIP3    H143412   2.808   3.226   6.074  0.2397  0.2809  0.3551
14485TIP3    H243413   2.870   3.237   6.212 -4.1958 -3.0363  2.7467
14486TIP3   OH243414   0.968   3.992   1.086 -0.2372  0.4443 -0.3658
14486TIP3    H143415   0.927   4.070   1.125 -0.7981  0.1132 -0.2789
14486TIP3    H243416   0.897   3.951   1.036 -0.0533 -0.2309 -0.0754
14487TIP3   OH243417   8.130   5.030   1.619 -0.2392 -0.7429 -0.2206
14487TIP3    H143418   8.224   5.011   1.618  0.1990  1.3907 -1.0040
14487TIP3    H243419   8.113   5.060   1.708  0.3498  1.3106 -0.7771
14488TIP3   OH243420   0.106   2.041   0.895 -0.2650 -0.3014 -0.6406
14488TIP3    H143421   0.017   2.011   0.912 -0.1945  0.4712  1.2696
14488TIP3    H243422   0.123   2.104   0.966  1.4507  0.2538 -1.5342
14489TIP3   OH243423   8.347   2.551   2.319 -0.4399 -0.0544 -0.2186
14489TIP3    H143424   8.310   2.621   2.264 -0.0645  1.0201  0.8672
14489TIP3    H243425   8.433   2.585   2.345  0.5345 -1.7301 -1.1932
14490TIP3   OH243426   1.523   3.862   1.784 -0.2591  0.0076 -0.3089
14490TIP3    H143427   1.614   3.846   1.757 -0.9205 -0.8975 -2.0668
14490TIP3    H243428   1.470   3.815   1.719 -1.9535 -0.8487  1.6535
14491TIP3   OH243429   0.789   2.398   0.947 -0.8222 -0.0223  0.6622
14491TIP3    H143430   0.829   2.485   0.942 -0.4153 -0.1842  1.0305
14491TIP3    H243431   0.778   2.382   1.041  0.6132 -1.0445  0.6652
14492TIP3   OH243432   1.183   2.023   0.989  0.0909 -0.1000 -0.4481
14492TIP3    H143433   1.145   2.110   0.998 -1.7784 -0.7543 -1.6704
14492TIP3    H243434   1.169   1.982   1.075 -0.4586  0.2667 -0.3576
14493TIP3   OH243435   7.457   2.520   0.231  0.4573 -0.7597  0.3588
14493TIP3    H143436   7.383   2.512   0.291 -0.0973 -3.6702 -0.6335
14493TIP3    H243437   7.421   2.563   0.153  0.3811 -0.0186  0.8029
14494TIP3   OH243438   1.617   4.904   6.619 -0.0679 -0.4682  0.0432
14494TIP3    H143439   1.615   4.810   6.603  0.4897 -0.7412  1.4779
14494TIP3    H243440   1.701   4.919   6.662 -0.0669  0.7218 -0.3562
14495TIP3   OH243441   1.727   7.209   4.942 -0.2258  0.8563 -0.6697
14495TIP3    H143442   1.740   7.274   4.873  1.2040  0.2518 -0.9950
14495TIP3    H243443   1.795   7.229   5.007 -0.6733  0.5593 -0.1064
14496TIP3   OH243444   7.307   0.425   3.036 -0.1301  0.3390  0.0209
14496TIP3    H143445   7.306   0.510   3.081 -2.4001  1.0150 -1.2132
14496TIP3    H243446   7.399   0.400   3.034  0.5906  2.7992  0.3608
14497TIP3   OH243447   1.381   1.989   0.342  0.4963  0.0727  0.4712
14497TIP3    H143448   1.310   2.002   0.405 -0.2642 -1.7767  0.0253
14497TIP3    H243449   1.343   1.935   0.273  1.8992  0.3778 -0.5648
14498TIP3   OH243450   3.527   5.651   6.738 -0.0694  0.1642 -0.4286
14498TIP3    H143451   3.562   5.738   6.756  1.1660 -0.1531 -1.2209
14498TIP3    H243452   3.561   5.629   6.651 -2.1957 -0.1890 -1.2114
14499TIP3   OH243453   8.374   5.410   6.052 -0.1746 -0.2824 -0.8306
14499TIP3    H143454   8.432   5.404   5.976  0.7883  0.9742 -0.2093
14499TIP3    H243455   8.345   5.320   6.068  0.8122 -0.7647 -1.7635
14500TIP3   OH243456   3.400   7.384   5.392  0.3939 -0.0344 -0.0230
14500TIP3    H143457   3.341   7.460   5.393 -0.3135 -0.5522 -1.0686
14500TIP3    H243458   3.342   7.309   5.385  1.1886 -0.5185 -1.8859
14501TIP3   OH243459   1.174   2.273   0.381 -0.0198 -0.3348  0.2487
14501TIP3    H143460   1.082   2.250   0.363  0.2202 -1.6351  0.5949
14501TIP3    H243461   1.210   2.194   0.422  0.9356  0.6003  1.2191
14502TIP3   OH243462   0.619   2.870   0.079  0.2580  0.3243 -0.2996
14502TIP3    H143463   0.582   2.836   0.160  0.9907 -0.4740 -0.2963
14502TIP3    H243464   0.612   2.965   0.087 -0.9699  0.2123  0.0834
14503TIP3   OH243465   1.974   5.675   4.777 -0.1825  0.0157  0.3992
14503TIP3    H143466   1.910   5.694   4.708 -1.0791 -1.5353  0.7670
14503TIP3    H243467   1.927   5.617   4.838  0.8682  0.6482  1.8578
14504TIP3   OH243468   6.138   7.804   0.379 -0.4958  0.0600 -0.2210
14504TIP3    H143469   6.146   7.737   0.311  0.5183 -0.5117  0.4522
14504TIP3    H243470   6.227   7.815   0.413 -0.7505  1.3323  0.0735
14505TIP3   OH243471   6.877   0.943   1.113  0.5292 -0.3000  0.3129
14505TIP3    H143472   6.870   0.949   1.017  0.1945  0.3064  0.3699
14505TIP3    H243473   6.926   1.021   1.138  2.8017 -1.7211  0.4230
14506TIP3   OH243474   7.718   2.858   0.993  0.6086  0.1104  0.1576
14506TIP3    H143475   7.795   2.885   0.943  0.2135 -0.8142 -0.9686
14506TIP3    H243476   7.753   2.815   1.071  1.2294  1.4962  0.6497
14507TIP3   OH243477   8.156   2.119   0.738 -0.1684 -0.6651  0.9018
14507TIP3    H143478   8.240   2.161   0.722  1.2373 -2.3312  3.5751
14507TIP3    H243479   8.141   2.065   0.661  1.1763 -0.2860  0.3618
14508TIP3   OH243480   0.518   4.840   2.971  0.0344 -0.3210  0.1619
14508TIP3    H143481   0.612   4.823   2.974  0.1172 -0.0992 -1.0807
14508TIP3    H243482   0.495   4.860   3.062  1.4297  0.8676  0.2820
14509TIP3   OH243483   3.403   7.690   5.594  0.7399 -0.2134  0.1114
14509TIP3    H143484   3.441   7.616   5.642 -3.1008 -0.4738  2.9338
14509TIP3    H243485   3.331   7.652   5.543  1.0581  1.0299 -1.3113
14510TIP3   OH243486   0.298   1.489   0.126  0.2704  0.8360  0.1549
14510TIP3    H143487   0.241   1.562   0.104  1.1848  1.9936  1.5119
14510TIP3    H243488   0.385   1.528   0.132  1.1390 -0.8197 -1.4233
14511TIP3   OH243489   0.691   4.447   2.933  0.2102  0.0393 -0.1857
14511TIP3    H143490   0.668   4.402   2.852 -0.5651 -0.7975  0.4888
14511TIP3    H243491   0.729   4.530   2.905 -0.3449 -0.1154 -1.3952
14512TIP3   OH243492   2.326   3.281   0.994 -0.3306  0.1123 -0.2076
14512TIP3    H143493   2.247   3.333   0.979 -0.1468  0.3071 -0.4971
14512TIP3    H243494   2.301   3.219   1.062 -1.2153 -0.8751 -1.4016
14513TIP3   OH243495   0.265   3.932   0.459 -0.4617 -0.1854 -0.5599
14513TIP3    H143496   0.305   3.846   0.446 -1.9211 -1.1687  1.2257
14513TIP3    H243497   0.252   3.939   0.553  1.4140  2.8540 -0.4544
14514TIP3   OH243498   1.005   2.554   0.981 -0.0884  0.2010 -0.0718
14514TIP3    H143499   1.027   2.622   0.917  2.0272 -1.2307 -0.9055
14514TIP3    H243500   0.995   2.602   1.063  0.1937  1.6741 -0.8759
14515TIP3   OH243501   7.402   4.697   3.896 -0.7067  0.1610 -0.0298
14515TIP3    H143502   7.391   4.607   3.865  0.5987 -0.0354  0.0853
14515TIP3    H243503   7.496   4.710   3.900 -0.8685  0.8782  1.8810
14516TIP3   OH243504   2.505   6.177   6.561 -0.7421  0.0538  0.1324
14516TIP3    H143505   2.540   6.089   6.575  1.0957  0.8499  0.6390
14516TIP3    H243506   2.484   6.180   6.468  0.6265 -0.4175 -0.2030
14517TIP3   OH243507   1.905   4.129   1.613  0.5992  0.4207 -0.1465
14517TIP3    H143508   1.838   4.064   1.591  0.8437  0.3695 -0.7609
14517TIP3    H243509   1.942   4.155   1.528  2.2205 -0.4889  0.2557
14518TIP3   OH243510   1.291   3.975   0.535  0.1972 -0.2332 -0.0461
14518TIP3    H143511   1.266   4.066   0.548 -2.0522 -0.5330 -1.8921
14518TIP3    H243512   1.240   3.927   0.600  1.8903 -0.1165  1.3738
14519TIP3   OH243513   8.320   2.705   1.935  0.1349  0.5178 -0.3534
14519TIP3    H143514   8.281   2.733   1.852  0.2831 -0.2964 -0.7146
14519TIP3    H243515   8.392   2.647   1.908  0.5002  0.6442  0.3365
14520TIP3   OH243516   5.113   5.895   6.217 -0.4782 -0.3451 -0.5185
14520TIP3    H143517   5.041   5.942   6.174  0.1077  0.9570 -0.1115
14520TIP3    H243518   5.141   5.830   6.152 -0.8473  0.3284 -1.3691
14521TIP3   OH243519   1.718   4.641   5.299  0.2958  0.4020  0.9313
14521TIP3    H143520   1.698   4.637   5.206  1.3321  0.6751  0.6938
14521TIP3    H243521   1.737   4.551   5.324  0.2703  0.3677  0.8263
14522TIP3   OH243522   1.930   2.417   1.825 -0.0628  0.1212 -0.4571
14522TIP3    H143523   1.956   2.452   1.740 -1.1982 -0.4408 -1.0416
14522TIP3    H243524   1.834   2.417   1.823 -0.0894 -1.1302  0.3062
14523TIP3   OH243525   0.920   4.479   1.955  0.2880 -0.0493  0.1862
14523TIP3    H143526   0.929   4.574   1.958  1.3652 -0.1650  1.0062
14523TIP3    H243527   0.968   4.453   1.876  0.1310  0.0658  0.0516
14524TIP3   OH243528   2.615   6.760   4.042  0.2938 -0.5197 -0.0544
14524TIP3    H143529   2.552   6.731   4.108  0.4341 -1.5138 -0.3535
14524TIP3    H243530   2.588   6.715   3.962  0.6680 -0.0131 -0.4686
14525TIP3   OH243531   7.980   1.037   0.821 -0.3185 -0.1796 -0.0735
14525TIP3    H143532   8.017   1.081   0.745 -0.2641 -0.2912 -0.1125
14525TIP3    H243533   7.885   1.040   0.806 -0.3360  0.2946  0.1329
14526TIP3   OH243534   6.701   3.201   3.616 -0.6238  0.0484  0.3152
14526TIP3    H143535   6.673   3.116   3.650  1.3390 -0.3724  0.9336
14526TIP3    H243536   6.749   3.241   3.688  0.8267  0.5141 -0.8804
14527TIP3   OH243537   2.116   5.558   5.729 -0.4453  0.5353 -0.1103
14527TIP3    H143538   2.044   5.495   5.723  1.4565 -1.6508 -0.9175
14527TIP3    H243539   2.109   5.594   5.817 -1.6509 -0.7848  0.3528
14528TIP3   OH243540   3.135   3.962   6.437  0.4251  0.1900  0.1283
14528TIP3    H143541   3.056   3.908   6.445  0.6520 -0.1453  0.1500
14528TIP3    H243542   3.109   4.035   6.382  0.2014 -0.1248 -0.1892
14529TIP3   OH243543   6.274   0.055   1.089 -0.2001 -1.1147 -0.2930
14529TIP3    H143544   6.305   0.077   1.176  0.9303 -0.2722 -0.8871
14529TIP3    H243545   6.239  -0.034   1.097  1.7296 -1.8122  0.5635
14530TIP3   OH243546   1.640   5.162   2.598 -0.0002  0.1901  0.1749
14530TIP3    H143547   1.580   5.150   2.524  0.1154 -1.1733  0.2939
14530TIP3    H243548   1.726   5.142   2.561  0.3278  1.5987  0.1464
14531TIP3   OH243549   1.554   3.734   2.047  0.1641 -0.0875 -0.1304
14531TIP3    H143550   1.606   3.805   2.084  1.6355  0.5064 -3.1636
14531TIP3    H243551   1.510   3.773   1.972 -0.5334 -1.8932 -0.6880
14532TIP3   OH243552   0.658   2.156   0.368 -0.2443 -0.4521 -0.0139
14532TIP3    H143553   0.695   2.173   0.281 -0.7761 -0.7447 -0.3001
14532TIP3    H243554   0.646   2.061   0.371 -1.7789 -0.2756 -0.2559
14533TIP3   OH243555   0.125   3.122   1.059 -0.3626  0.0080 -0.1588
14533TIP3    H143556   0.108   3.213   1.085 -1.4085 -0.9310  2.5252
14533TIP3    H243557   0.039   3.082   1.053  0.2377 -1.6165  1.7096
14534TIP3   OH243558   8.415   2.677   0.687 -0.6382  0.1961 -0.3849
14534TIP3    H143559   8.320   2.684   0.684 -0.5580  0.9632 -1.6516
14534TIP3    H243560   8.442   2.745   0.749 -0.8179  1.0464 -1.2363
14535TIP3   OH243561   2.101   4.252   5.418 -0.1969 -0.2515 -0.0387
14535TIP3    H143562   2.173   4.243   5.480 -1.0800  0.7556  1.1448
14535TIP3    H243563   2.110   4.177   5.359  1.1031 -0.7821  0.8345
14536TIP3   OH243564   4.925   4.351   6.522 -0.2628 -0.2431 -0.0473
14536TIP3    H143565   4.927   4.283   6.455  0.7948 -0.0855 -0.1809
14536TIP3    H243566   4.842   4.397   6.507 -0.3496 -0.6402 -0.8099
14537TIP3   OH243567   0.925   2.183   2.014 -0.0603 -0.1474 -0.5142
14537TIP3    H143568   0.964   2.189   1.927  0.4871 -1.6921 -0.3800
14537TIP3    H243569   0.994   2.212   2.074  0.1534 -0.7580 -0.4595
14538TIP3   OH243570   6.418   0.065   5.924 -0.5077 -0.3870 -0.1948
14538TIP3    H143571   6.360   0.117   5.980  0.4916  2.5728 -1.7801
14538TIP3    H243572   6.506   0.096   5.944 -0.1431  0.8777 -3.4475
14539TIP3   OH243573   0.055   1.503   0.872  0.2227  0.2801 -0.3005
14539TIP3    H143574   0.130   1.555   0.903 -0.7837  1.1469  0.7153
14539TIP3    H243575   0.053   1.519   0.778 -0.0851  2.1202 -0.0041
14540TIP3   OH243576   1.851   5.163   6.222 -0.1380 -0.3196  0.3842
14540TIP3    H143577   1.788   5.116   6.277 -1.9806  1.6235  0.0328
14540TIP3    H243578   1.892   5.227   6.280 -0.7524  0.4821 -0.0343
14541TIP3   OH243579   1.643   2.709   2.771  0.1458 -0.0687  0.0992
14541TIP3    H143580   1.587   2.785   2.758  1.7909  1.0765 -0.3876
14541TIP3    H243581   1.598   2.658   2.839 -0.4804  1.8401  1.1635
14542TIP3   OH243582   0.662   3.798   0.488 -0.3544 -0.0699  0.5779
14542TIP3    H143583   0.601   3.809   0.415  0.1284 -0.9993  0.0223
14542TIP3    H243584   0.697   3.886   0.505 -0.8514  0.2308  0.0295
14543TIP3   OH243585   6.985   4.972   3.335 -0.4504  0.2448  0.1632
14543TIP3    H143586   6.954   4.902   3.392 -0.5161 -0.1727 -0.3862
14543TIP3    H243587   6.991   4.932   3.249 -0.4912  0.9144 -0.1531
14544TIP3   OH243588   6.552   4.610   0.060 -0.2022  0.2670  0.5554
14544TIP3    H143589   6.635   4.637   0.022 -0.1871 -1.7323 -0.9086
14544TIP3    H243590   6.520   4.540   0.003 -2.5536  0.5080  1.4892
14545TIP3   OH243591   1.356   4.932   0.016  0.1422  0.0410 -0.1758
14545TIP3    H143592   1.387   4.845   0.038 -0.1921 -1.0769 -3.7575
14545TIP3    H243593   1.429   4.973  -0.030 -0.8601  0.3484 -1.5297
14546TIP3   OH243594   0.807   2.955   2.599 -0.0938  0.0018  0.1465
14546TIP3    H143595   0.769   2.870   2.621  0.4778 -0.2989 -0.0363
14546TIP3    H243596   0.900   2.947   2.619 -0.1182  0.7411  0.5770
14547TIP3   OH243597   3.226   5.179   6.599 -0.1164 -0.0853  0.3679
14547TIP3    H143598   3.263   5.213   6.681  1.5125 -0.7743 -0.0699
14547TIP3    H243599   3.294   5.194   6.534 -2.0827  2.0558 -1.2502
14548TIP3   OH243600   1.810   3.525   2.942 -0.1056  0.2191  0.4585
14548TIP3    H143601   1.898   3.497   2.966  1.2718 -0.0100 -4.3103
14548TIP3    H243602   1.821   3.615   2.910 -1.5559  0.1471 -0.3235
14549TIP3   OH243603   0.264   2.028   0.196  0.6383 -0.2890  0.0504
14549TIP3    H143604   0.187   1.974   0.214  0.5590 -0.3272 -0.4110
14549TIP3    H243605   0.313   2.027   0.278  0.4161 -0.7016  0.1806
14550TIP3   OH243606   1.462   3.063   0.282  0.4444 -0.6481 -0.3847
14550TIP3    H143607   1.558   3.059   0.282  0.4973  0.1900 -2.5597
14550TIP3    H243608   1.437   3.030   0.196 -1.1322  1.2344 -0.6532
14551TIP3   OH243609   1.217   3.024   1.659 -0.5770 -0.6820  0.0511
14551TIP3    H143610   1.163   3.063   1.589  0.0767  0.6209  0.2673
14551TIP3    H243611   1.196   2.931   1.655 -1.3088 -0.4836 -1.2285
14552TIP3   OH243612   2.996   5.748   1.309 -0.4620 -0.3923 -0.3035
14552TIP3    H143613   2.936   5.812   1.347  0.7911  0.4271  0.3281
14552TIP3    H243614   3.075   5.798   1.288  0.6989 -1.7981  0.6095
14553TIP3   OH243615   2.638   1.750   1.458  0.4306  0.3524  0.3379
14553TIP3    H143616   2.672   1.754   1.548 -0.6486  1.5536  0.7168
14553TIP3    H243617   2.715   1.747   1.403  1.1210  0.9179  1.2613
14554TIP3   OH243618   4.819   4.122   2.365 -0.5800  0.0720  0.1579
14554TIP3    H143619   4.730   4.091   2.380 -0.7481  0.4162 -0.1176
14554TIP3    H243620   4.815   4.166   2.280 -0.6226  1.8901  1.0725
14555TIP3   OH243621   3.670   3.911   0.167  0.3800  0.3345 -0.5765
14555TIP3    H143622   3.691   3.818   0.171 -0.8424  0.1353  1.6359
14555TIP3    H243623   3.746   3.954   0.205  0.7673  0.2262 -1.2185
14556TIP3   OH243624   1.768   3.738   0.347 -0.3213  0.1406 -0.3286
14556TIP3    H143625   1.847   3.700   0.384 -0.2645 -0.8557 -1.4356
14556TIP3    H243626   1.703   3.733   0.417 -0.0025 -1.0062 -0.1100
14557TIP3   OH243627   6.012   5.375   5.766 -0.1834 -0.0899 -0.2748
14557TIP3    H143628   6.041   5.305   5.825  0.1872 -0.9227 -1.4370
14557TIP3    H243629   6.044   5.349   5.680 -0.0089  1.5334 -0.7191
14558TIP3   OH243630   0.944   3.202   1.026  0.8522  0.2624  0.2761
14558TIP3    H143631   1.030   3.200   0.984  0.8463  0.5591  0.2515
14558TIP3    H243632   0.883   3.177   0.957  1.1104 -1.9183  0.7841
14559TIP3   OH243633   1.511   4.770   5.950  0.1520 -0.1165  0.2522
14559TIP3    H143634   1.577   4.706   5.923  1.5867  0.7447  1.6597
14559TIP3    H243635   1.429   4.738   5.910  1.4872 -0.9202 -1.9170
14560TIP3   OH243636   1.537   4.612   6.342  0.6022  1.3925  0.3077
14560TIP3    H143637   1.631   4.627   6.335  1.0108 -1.3265 -0.7741
14560TIP3    H243638   1.527   4.562   6.424  0.4736 -0.7219 -0.9528
14561TIP3   OH243639   7.437   0.587   4.273  0.4604 -0.9546 -0.3886
14561TIP3    H143640   7.477   0.671   4.250 -0.8194 -0.4694 -0.8374
14561TIP3    H243641   7.512   0.529   4.288  1.3486  0.0220 -0.9597
14562TIP3   OH243642   2.788   2.576   0.048 -0.2748  0.2757  0.2679
14562TIP3    H143643   2.861   2.522   0.019 -0.6326  0.8077 -1.6651
14562TIP3    H243644   2.817   2.612   0.132  1.8450  0.8016 -0.6584
14563TIP3   OH243645   3.064   6.131   5.854 -0.6042  0.0064  0.5743
14563TIP3    H143646   3.142   6.084   5.825  0.7088  2.1409  0.5024
14563TIP3    H243647   3.097   6.195   5.917 -1.9586  2.3830 -1.0683
14564TIP3   OH243648   1.742   4.226   0.636 -0.1755  0.3717 -0.2216
14564TIP3    H143649   1.772   4.136   0.627 -1.0266 -0.0898  1.4113
14564TIP3    H243650   1.788   4.274   0.567  1.1313 -1.0958 -0.3846
14565TIP3   OH243651   1.241   5.442   2.027  0.2438  0.6205 -0.1666
14565TIP3    H143652   1.332   5.469   2.030 -0.3388  2.6063  0.2320
14565TIP3    H243653   1.192   5.522   2.008 -1.3868 -0.4720 -0.7136
14566TIP3   OH243654   4.953   1.145   6.798  0.2145  0.6287 -0.2636
14566TIP3    H143655   5.021   1.091   6.757  0.6774 -0.5049  1.9362
14566TIP3    H243656   4.980   1.235   6.779  0.7724  0.1490 -1.8492
14567TIP3   OH243657   1.171   2.023   0.526  0.1919  0.4159  0.0063
14567TIP3    H143658   1.081   1.993   0.537 -0.1993  1.3600 -0.5557
14567TIP3    H243659   1.219   1.980   0.596 -0.2833 -1.7637 -0.9602
14568TIP3   OH243660   7.992   7.249   0.545 -0.7986 -0.1927 -0.2072
14568TIP3    H143661   7.971   7.305   0.470 -1.8646 -0.9803 -0.5017
14568TIP3    H243662   8.023   7.310   0.612  0.0551  0.5411 -1.2337
14569TIP3   OH243663   6.231   7.449   6.679 -0.0947  0.0851  0.3487
14569TIP3    H143664   6.218   7.361   6.712 -0.6546 -0.3774 -1.0593
14569TIP3    H243665   6.182   7.452   6.597  1.1268  1.2301 -0.3760
14570TIP3   OH243666   1.454   4.344   1.532 -0.1841 -0.7783 -0.4086
14570TIP3    H143667   1.521   4.374   1.594 -2.0532  1.2892  0.6440
14570TIP3    H243668   1.437   4.253   1.558 -0.1345 -0.2910  1.4113
14571TIP3   OH243669   2.612   4.035   1.143  0.7074  0.0492  0.1196
14571TIP3    H143670   2.620   3.946   1.179  0.3155 -0.6752 -1.5264
14571TIP3    H243671   2.599   4.021   1.049  0.9198  1.8685 -0.1895
14572TIP3   OH243672   3.882   3.021   1.061  0.5381 -0.0874 -0.4982
14572TIP3    H143673   3.820   3.003   0.990 -1.2893 -1.3834  1.3472
14572TIP3    H243674   3.913   2.934   1.088  0.2034  0.2796  1.1367
14573TIP3   OH243675   2.712   2.937   0.144  0.7065  0.1419 -0.6159
14573TIP3    H143676   2.767   2.864   0.173 -0.1036 -0.7079 -1.1668
14573TIP3    H243677   2.632   2.928   0.194  0.3409  0.2485 -1.1734
14574TIP3   OH243678   1.243   3.240   0.804  0.3777  0.7671  0.3806
14574TIP3    H143679   1.237   3.154   0.846  1.9491 -0.2038 -1.2839
14574TIP3    H243680   1.332   3.269   0.821  0.2774  1.4508 -0.2253
14575TIP3   OH243681   1.381   4.059   1.537  0.8851 -0.0355  0.0595
14575TIP3    H143682   1.363   3.996   1.608 -0.5642  1.4173  1.0123
14575TIP3    H243683   1.356   4.013   1.457 -0.5684 -0.5402  0.7873
14576TIP3   OH243684   2.161   2.763   4.436 -0.0392 -0.1110  0.1132
14576TIP3    H143685   2.087   2.710   4.465 -1.5113  1.3038 -0.9806
14576TIP3    H243686   2.220   2.700   4.394 -1.3700 -1.0236 -0.4242
14577TIP3   OH243687   1.120   2.639   0.081  0.1457 -0.1067  0.3327
14577TIP3    H143688   1.172   2.669   0.156  1.1797 -1.6569  0.2584
14577TIP3    H243689   1.066   2.715   0.057  1.9031  1.3275  0.8258
14578TIP3   OH243690   1.770   2.284   0.076 -0.1184 -0.1466 -0.0229
14578TIP3    H143691   1.677   2.279   0.101  0.3825  0.3973  2.0340
14578TIP3    H243692   1.787   2.377   0.067  1.2373  0.0129  3.6510
14579TIP3   OH243693   3.834   7.058   6.490 -0.0101 -0.7650  0.1675
14579TIP3    H143694   3.767   7.015   6.543 -1.5696  2.3563  0.8498
14579TIP3    H243695   3.915   7.045   6.540 -1.1044  0.3483  2.3122
14580TIP3   OH243696   4.088   5.862   4.687 -0.6921 -0.1690 -0.0024
14580TIP3    H143697   4.027   5.788   4.689 -1.7315  0.6609 -0.5048
14580TIP3    H243698   4.058   5.920   4.756 -0.0055 -0.1027  0.2489
14581TIP3   OH243699   3.129   7.857   6.808 -0.0909 -0.7412 -0.1489
14581TIP3    H143700   3.171   7.773   6.790 -0.2109 -0.4942 -1.6562
14581TIP3    H243701   3.082   7.878   6.728  0.7045  1.2280 -0.1295
14582TIP3   OH243702   3.575   4.994   1.074  1.2602 -0.2278 -0.1458
14582TIP3    H143703   3.627   5.054   1.128 -0.0074  0.2723  0.5385
14582TIP3    H243704   3.508   4.960   1.133 -1.3522  1.8215 -1.8407
14583TIP3   OH243705   2.256   2.935   0.037  0.0852 -0.0189 -0.6055
14583TIP3    H143706   2.346   2.938   0.005 -0.2336  0.9923 -1.4272
14583TIP3    H243707   2.212   3.007  -0.008 -0.7937  0.3678  0.8301
14584TIP3   OH243708   1.016   2.181   2.432  0.1558  0.0840 -0.0422
14584TIP3    H143709   1.061   2.222   2.358  0.6894  0.7464  0.6402
14584TIP3    H243710   0.926   2.171   2.402  0.5435 -0.3770 -1.0665
14585TIP3   OH243711   0.759   3.707   0.721  0.1311 -0.0220 -0.1040
14585TIP3    H143712   0.841   3.672   0.687  1.2137  1.2429  1.1201
14585TIP3    H243713   0.731   3.770   0.654  0.2653 -0.3086 -0.4316
14586TIP3   OH243714   2.711   6.876   6.326  0.3553  0.2711  0.1714
14586TIP3    H143715   2.745   6.952   6.279 -0.1408  0.1721 -0.3643
14586TIP3    H243716   2.785   6.843   6.376  1.1922 -0.2989 -1.4306
14587TIP3   OH243717   3.982   7.848   6.001 -0.3245  0.7295 -0.4095
14587TIP3    H143718   3.910   7.785   6.005  0.4976 -0.1103  2.2298
14587TIP3    H243719   4.056   7.797   5.968 -0.6262  1.2834 -1.9456
14588TIP3   OH243720   1.795   3.924   1.910 -0.1358 -0.7687  0.4521
14588TIP3    H143721   1.877   3.974   1.903 -0.1285 -0.8269  0.1480
14588TIP3    H243722   1.742   3.976   1.970  0.0103 -0.5790  0.4197
14589TIP3   OH243723   1.227   2.969   2.172  0.0591  0.1145 -0.1388
14589TIP3    H143724   1.266   2.883   2.189 -0.1966 -0.0181 -0.2198
14589TIP3    H243725   1.292   3.014   2.118 -0.0201 -0.2041 -0.4980
14590TIP3   OH243726   4.234   5.132   5.704 -0.0275 -0.3919 -0.1115
14590TIP3    H143727   4.157   5.116   5.760 -0.5155 -1.5304 -1.0967
14590TIP3    H243728   4.289   5.190   5.757 -1.8579  1.0033  0.3691
14591TIP3   OH243729   2.378   0.922   0.855  0.2466  0.2196 -0.0741
14591TIP3    H143730   2.378   0.865   0.777 -2.2861 -1.1518  0.8880
14591TIP3    H243731   2.286   0.936   0.874  0.8189  3.7178  0.4615
14592TIP3   OH243732   0.242   0.572   6.440 -0.5873 -0.6671  0.3474
14592TIP3    H143733   0.182   0.497   6.446  0.7406 -1.7228  0.6447
14592TIP3    H243734   0.209   0.634   6.505 -0.8552 -1.5911  1.1052
14593TIP3   OH243735   2.928   5.688   5.961 -0.6011  0.2971  0.2935
14593TIP3    H143736   2.847   5.641   5.980 -1.4528  1.9419  0.8163
14593TIP3    H243737   2.901   5.766   5.913  0.5655  1.3014  1.2133
14594TIP3   OH243738   3.196   5.835   6.296 -0.1637 -0.1003  0.1161
14594TIP3    H143739   3.281   5.804   6.326 -0.3250  0.0224  0.7208
14594TIP3    H243740   3.138   5.760   6.310 -0.1617 -0.1654 -0.2419
14595TIP3   OH243741   7.858   1.020   6.698  0.3881 -0.0250  0.1285
14595TIP3    H143742   7.864   0.972   6.781 -2.8044 -0.9053 -0.0557
14595TIP3    H243743   7.838   1.110   6.724 -0.1998 -0.2123  0.3463
14596TIP3   OH243744   5.057   6.554   5.812 -0.0157  0.7010  0.1124
14596TIP3    H143745   5.110   6.625   5.775 -1.7828  2.1130  0.2237
14596TIP3    H243746   5.121   6.489   5.841  1.5533  1.0657 -2.3456
14597TIP3   OH243747   5.725   6.432   5.855 -0.4522  0.4473  0.8811
14597TIP3    H143748   5.773   6.415   5.936 -1.3265  1.8960  1.7111
14597TIP3    H243749   5.659   6.496   5.878  0.1662  1.9475 -1.2904
14598TIP3   OH243750   3.289   5.120   5.866 -0.6977  0.4374 -0.0609
14598TIP3    H143751   3.352   5.116   5.937 -3.0837 -0.6041  2.0722
14598TIP3    H243752   3.314   5.198   5.816  2.9433 -0.5879  0.0013
14599TIP3   OH243753   3.865   3.142   0.411  0.4415 -0.4621  0.6899
14599TIP3    H143754   3.832   3.220   0.367 -0.2209  0.9500  3.5392
14599TIP3    H243755   3.958   3.158   0.424 -0.1403  0.9505  3.3643
14600TIP3   OH243756   5.274   3.981   5.071  0.2220 -0.4496 -0.0789
14600TIP3    H143757   5.363   3.960   5.100  0.2503  2.0342  1.8286
14600TIP3    H243758   5.286   4.048   5.004 -0.1227 -1.7037 -1.3969
14601TIP3   OH243759   0.786   3.227   2.530  0.0750  0.1649 -0.3168
14601TIP3    H143760   0.830   3.149   2.565  0.1073  0.1194 -0.4606
14601TIP3    H243761   0.803   3.225   2.436 -1.5123 -0.6745 -0.5973
14602TIP3   OH243762   0.637   5.359   0.145 -0.3781  1.1378  0.1581
14602TIP3    H143763   0.565   5.302   0.121 -0.2735  0.9315  0.3354
14602TIP3    H243764   0.623   5.439   0.093 -1.5668  1.6866  1.2873
14603TIP3   OH243765   3.789   5.700   5.960  0.2473  0.0197 -0.2396
14603TIP3    H143766   3.811   5.757   5.887  1.3935 -0.7569 -0.5182
14603TIP3    H243767   3.818   5.613   5.932  1.1483 -0.1960  1.3371
14604TIP3   OH243768   4.806   6.927   6.893  0.2885 -0.0825  0.1394
14604TIP3    H143769   4.795   6.963   6.981 -0.2185  0.5953 -0.1934
14604TIP3    H243770   4.886   6.874   6.898 -0.5242 -1.2372  1.3867
14605TIP3   OH243771   3.508   2.505   0.782  0.3261  0.1478 -0.3490
14605TIP3    H143772   3.442   2.442   0.811  0.1758  1.6656  2.8469
14605TIP3    H243773   3.562   2.457   0.720 -2.6003 -1.6969 -1.5665
14606TIP3   OH243774   3.191   5.840   5.997  0.5171 -0.6589  0.7705
14606TIP3    H143775   3.121   5.796   5.950  0.0010  0.4409  0.4765
14606TIP3    H243776   3.156   5.856   6.085  0.3623 -0.0409  0.6011
14607TIP3   OH243777   0.066   2.542   2.574  0.1463  0.5375 -0.2948
14607TIP3    H143778   0.016   2.611   2.617  1.3949  0.6733  0.9759
14607TIP3    H243779   0.006   2.468   2.570 -0.7080  1.2217 -0.3130
14608TIP3   OH243780   0.931   3.679   0.249 -0.2268 -0.5091  0.1269
14608TIP3    H143781   0.914   3.589   0.219  0.4082 -1.5257  2.6541
14608TIP3    H243782   1.026   3.688   0.240 -0.0294 -0.8337  1.7867
14609TIP3   OH243783   1.262   2.290   0.729  0.7240 -0.3418  0.1738
14609TIP3    H143784   1.287   2.211   0.682  0.7835  0.1341 -0.5883
14609TIP3    H243785   1.293   2.363   0.675 -2.1556  0.2623 -0.7433
14610TIP3   OH243786   5.443   5.676   6.722 -0.3926  0.0613  0.2826
14610TIP3    H143787   5.351   5.661   6.744 -0.2793  0.0417  0.7369
14610TIP3    H243788   5.456   5.629   6.639 -1.3014  1.7131 -0.8219
14611TIP3   OH243789   2.469   5.103   5.459  0.7245  0.3786  0.1802
14611TIP3    H143790   2.398   5.047   5.492 -0.3278  1.8975  0.5506
14611TIP3    H243791   2.425   5.182   5.429  2.1793  0.9627 -0.4591
14612TIP3   OH243792   1.967   1.969   1.232  0.0946  0.9274  0.1086
14612TIP3    H143793   1.890   1.938   1.184 -0.2194  0.0413  1.1694
14612TIP3    H243794   1.962   1.924   1.316  0.1537  3.1221  1.3294
14613TIP3   OH243795   5.072   6.254   6.809  0.1018 -0.4763  0.1985
14613TIP3    H143796   5.076   6.279   6.716 -0.1485 -2.0071 -0.2301
14613TIP3    H243797   5.136   6.183   6.818 -0.2401 -0.6739  1.0882
14614TIP3   OH243798   3.735   5.852   6.811  0.0913 -0.1513  0.4580
14614TIP3    H143799   3.814   5.901   6.787  0.6838 -2.2225 -2.0507
14614TIP3    H243800   3.765   5.791   6.879 -0.0037  0.9679  1.5211
14615TIP3   OH243801   4.731   7.227   5.677 -0.6861  0.2709 -0.2241
14615TIP3    H143802   4.644   7.266   5.680 -1.0400 -0.6056  1.4311
14615TIP3    H243803   4.735   7.182   5.592 -1.4185  1.2330 -0.7752
14616TIP3   OH243804   8.425   5.073   1.556 -0.0151 -0.8590 -0.0977
14616TIP3    H143805   8.477   4.997   1.581  1.8276  0.6109  0.6037
14616TIP3    H243806   8.469   5.107   1.478 -2.1776 -1.8266 -1.8079
14617TIP3   OH243807   4.842   6.499   4.657 -0.2080 -0.5873 -0.3304
14617TIP3    H143808   4.881   6.532   4.576  0.2130  2.3265  0.9830
14617TIP3    H243809   4.917   6.477   4.712 -0.4880 -0.9665 -0.0983
14618TIP3   OH243810   2.174   4.235   0.283 -0.2067  0.6064  0.2322
14618TIP3    H143811   2.251   4.248   0.227  0.9994  0.6605  1.8471
14618TIP3    H243812   2.099   4.242   0.224  1.0447  0.2403 -1.4283
14619TIP3   OH243813   3.108   1.995   2.805 -0.2015 -0.1557  0.7292
14619TIP3    H143814   3.178   1.977   2.742 -0.4514 -1.6974  0.8970
14619TIP3    H243815   3.039   1.934   2.782 -0.8046  0.1515  1.7084
14620TIP3   OH243816   3.763   7.421   5.917 -0.0447  0.1497  0.3509
14620TIP3    H143817   3.761   7.513   5.945  0.5240 -0.5598  2.8673
14620TIP3    H243818   3.685   7.382   5.958 -0.3591 -0.4678 -0.8117
14621TIP3   OH243819   2.983   6.801   4.717 -0.2044  0.0261  0.0815
14621TIP3    H143820   3.003   6.754   4.637 -1.4855 -0.1520 -0.1403
14621TIP3    H243821   2.966   6.891   4.689  0.2115  0.1636  0.2622
14622TIP3   OH243822   1.549   3.581   0.054  0.4243  0.3084 -0.0234
14622TIP3    H143823   1.510   3.565   0.141 -0.9303  2.7535 -0.1291
14622TIP3    H243824   1.480   3.555  -0.008  0.7303  0.2187 -0.3241
14623TIP3   OH243825   1.331   3.972   2.460  0.4776 -0.2850  0.1986
14623TIP3    H143826   1.401   3.909   2.446  2.1086  1.3211  0.9177
14623TIP3    H243827   1.376   4.053   2.484 -1.7132  0.1665  3.0039
14624TIP3   OH243828   1.422   5.360   1.373  0.4219 -0.1374 -0.4383
14624TIP3    H143829   1.363   5.316   1.434  0.0577 -1.3378 -1.6067
14624TIP3    H243830   1.375   5.439   1.346  0.4945  0.2829  0.6518
14625TIP3   OH243831   2.237   6.281   5.634  0.5948  0.2108 -0.1654
14625TIP3    H143832   2.211   6.371   5.612  1.9412  0.3822 -1.1512
14625TIP3    H243833   2.285   6.289   5.716 -0.1371  0.2586  0.2575
14626TIP3   OH243834   4.320   7.831   6.894  0.4465  0.2696  0.1465
14626TIP3    H143835   4.326   7.893   6.966 -0.5724  1.5879 -0.8968
14626TIP3    H243836   4.365   7.753   6.927  1.1759  1.3146  1.6985
14627TIP3   OH243837   2.928   1.616   3.064 -0.9293 -0.2382  0.3086
14627TIP3    H143838   2.844   1.644   3.099 -1.3953 -0.5824 -0.5146
14627TIP3    H243839   2.962   1.555   3.129 -1.0794  0.2802  0.8815
14628TIP3   OH243840   1.599   1.816   0.497  0.3008  0.1745  0.2204
14628TIP3    H143841   1.547   1.897   0.498 -0.0580  0.0009 -1.8950
14628TIP3    H243842   1.547   1.756   0.444  0.5688 -1.4594  1.7831
14629TIP3   OH243843   0.019   5.210   3.520  0.0149  0.4079 -0.2792
14629TIP3    H143844  -0.002   5.117   3.509 -2.6603  0.6659  1.9109
14629TIP3    H243845   0.093   5.211   3.580  0.8594 -0.3509 -1.3060
14630TIP3   OH243846   8.430   5.065   3.760 -0.6721  0.0663 -0.1414
14630TIP3    H143847   8.420   5.005   3.833 -1.3751  2.6970  2.0227
14630TIP3    H243848   8.360   5.130   3.773 -1.6932 -0.1617 -3.9203
14631TIP3   OH243849   2.024   0.541   0.372 -0.6080  0.4313  0.1242
14631TIP3    H143850   2.073   0.462   0.348 -0.4690  0.2589  0.9826
14631TIP3    H243851   2.090   0.599   0.411 -0.6625  1.0644 -0.7095
14632TIP3   OH243852   8.455   4.497   0.892 -0.4850 -0.2673 -0.1640
14632TIP3    H143853   8.455   4.484   0.987 -0.7320 -0.1047 -0.1413
14632TIP3    H243854   8.518   4.433   0.859 -1.5974 -1.4100 -0.0525
14633TIP3   OH243855   3.548   6.628   6.709  0.4480  0.1727  0.4478
14633TIP3    H143856   3.466   6.622   6.659  1.0816  0.2643 -0.6083
14633TIP3    H243857   3.535   6.568   6.782 -0.8008  0.6348  0.6295
14634TIP3   OH243858   4.749   5.529   5.632 -0.2543  0.3089  0.1705
14634TIP3    H143859   4.780   5.570   5.713  1.0574  0.0100 -0.1661
14634TIP3    H243860   4.818   5.548   5.568 -0.7192 -0.4634 -0.5680
14635TIP3   OH243861   1.855   3.255   0.548  0.0882  0.1710  0.2555
14635TIP3    H143862   1.808   3.335   0.566  0.1121  0.3271 -0.3559
14635TIP3    H243863   1.910   3.241   0.625  0.9771  1.3842 -0.1500
14636TIP3   OH243864   5.449   7.473   6.623  0.3473 -0.1676  0.3527
14636TIP3    H143865   5.388   7.405   6.597 -0.4696  0.5673  0.2971
14636TIP3    H243866   5.416   7.504   6.708  1.2138 -0.4399  0.8006
14637TIP3   OH243867   4.095   5.245   6.016 -0.3320 -0.2624  0.2292
14637TIP3    H143868   4.176   5.206   6.049  0.6843  2.6606  1.2605
14637TIP3    H243869   4.025   5.190   6.053  1.0528 -1.0751  1.6801
14638TIP3   OH243870   2.596   2.282   1.981 -0.1305 -0.2175  0.2709
14638TIP3    H143871   2.652   2.358   1.968  0.7233 -0.7561  0.7386
14638TIP3    H243872   2.537   2.307   2.051 -1.8778  1.1131 -1.6171
14639TIP3   OH243873   1.828   2.329   1.265 -0.0615  0.0304 -0.8001
14639TIP3    H143874   1.898   2.331   1.199 -1.6774  0.7954 -2.5382
14639TIP3    H243875   1.758   2.381   1.226 -0.6687  1.3794  2.0015
14640TIP3   OH243876   2.511   4.368   5.803  0.3245 -0.3948  0.4018
14640TIP3    H143877   2.576   4.304   5.831 -0.5083 -0.5238  2.0869
14640TIP3    H243878   2.490   4.344   5.713  2.3336 -0.5651 -0.0364
14641TIP3   OH243879   8.127   4.150   0.442  0.1793 -0.4212 -0.4317
14641TIP3    H143880   8.189   4.095   0.490  0.3612 -0.3405 -0.5706
14641TIP3    H243881   8.113   4.104   0.359 -1.2082 -1.2618  0.2653
14642TIP3   OH243882   7.683   3.157   0.849  0.6823  0.0991 -0.1697
14642TIP3    H143883   7.763   3.183   0.895 -0.3095 -0.9881  2.3011
14642TIP3    H243884   7.624   3.231   0.860  0.0473 -0.6086  1.3783
14643TIP3   OH243885   3.916   7.764   5.661 -0.1169  0.0815 -0.1543
14643TIP3    H143886   3.878   7.777   5.748 -0.1540  0.3307 -0.2077
14643TIP3    H243887   4.003   7.803   5.668  0.0219 -0.2350 -0.1169
14644TIP3   OH243888   0.429   3.729   0.310  0.6059  0.5978 -0.3045
14644TIP3    H143889   0.471   3.671   0.247  0.5453  2.4206 -2.0534
14644TIP3    H243890   0.367   3.780   0.258  1.8890  3.4430  0.8779
14645TIP3   OH243891   1.355   3.912   1.303 -0.8621 -0.1108  0.1759
14645TIP3    H143892   1.312   3.828   1.292 -0.1477 -0.5894  0.9750
14645TIP3    H243893   1.388   3.934   1.215 -0.5098 -0.9611  0.0921
14646TIP3   OH243894   2.545   1.407   1.319  0.5169 -0.0368  0.1066
14646TIP3    H143895   2.489   1.479   1.351  0.1253 -0.5519  0.5935
14646TIP3    H243896   2.493   1.366   1.250  0.0904 -0.8163  0.8892
14647TIP3   OH243897   1.422   1.652   0.351  0.4947  0.2001 -0.2930
14647TIP3    H143898   1.399   1.649   0.259 -0.2761 -1.6332 -0.0638
14647TIP3    H243899   1.338   1.642   0.397  0.9679  0.2686  0.5997
14648TIP3   OH243900   3.873   7.490   5.647 -0.2817  0.3094 -0.1350
14648TIP3    H143901   3.886   7.583   5.667 -0.1367  0.3407 -0.3815
14648TIP3    H243902   3.858   7.450   5.733  0.5667  0.4118  0.0629
14649TIP3   OH243903   1.859   3.871   2.404  0.2935 -0.0763  0.2076
14649TIP3    H143904   1.941   3.920   2.415 -0.1251  0.3091  1.7659
14649TIP3    H243905   1.822   3.867   2.492 -0.7960 -1.2621 -0.2927
14650TIP3   OH243906   4.526   4.294   5.922 -0.5808  0.4956  0.2035
14650TIP3    H143907   4.436   4.324   5.910 -0.4675 -0.6339 -4.0286
14650TIP3    H243908   4.519   4.199   5.928  0.4846  0.2759 -1.8811
14651TIP3   OH243909   1.899   5.825   0.608  1.1768  0.0416  0.2092
14651TIP3    H143910   1.985   5.809   0.569  1.4946 -0.9759  1.3315
14651TIP3    H243911   1.906   5.792   0.697  0.1503  1.5075  0.8521
14652TIP3   OH243912   8.101   2.526   0.672 -0.0570  0.0005 -0.3308
14652TIP3    H143913   8.094   2.610   0.626 -0.1406  1.3443  2.0825
14652TIP3    H243914   8.078   2.461   0.605 -0.1344  1.8859 -2.2030
14653TIP3   OH243915   6.388   5.103   6.399 -0.2703 -0.2266  0.1966
14653TIP3    H143916   6.308   5.141   6.363 -0.9585 -1.8353  0.0104
14653TIP3    H243917   6.416   5.039   6.333  0.4281 -0.6484  0.8939
14654TIP3   OH243918   3.465   5.105   6.075  0.0781  0.2345  0.1674
14654TIP3    H143919   3.516   5.175   6.115  0.5261 -0.2889  0.5150
14654TIP3    H243920   3.443   5.047   6.148  0.3923 -0.4136 -0.2550
14655TIP3   OH243921   1.268   3.361   1.954 -0.3570  0.3921  0.4681
14655TIP3    H143922   1.320   3.280   1.952 -0.1429  0.5435 -0.4914
14655TIP3    H243923   1.313   3.417   2.017  0.3834  0.3531 -0.0211
14656TIP3   OH243924   2.186   3.819   0.796  0.5702 -0.1028  0.4465
14656TIP3    H143925   2.258   3.798   0.856  1.1954 -2.4649 -1.0614
14656TIP3    H243926   2.229   3.864   0.723  0.4128 -0.8024 -0.0802
14657TIP3   OH243927   2.438   4.089   0.857 -0.6337 -0.6034  0.1295
14657TIP3    H143928   2.479   4.089   0.771 -2.0439  1.7723 -0.5826
14657TIP3    H243929   2.416   3.997   0.873  0.4510 -1.1957 -1.6260
14658TIP3   OH243930   0.500   3.757   0.857 -0.6760  0.4003  0.0525
14658TIP3    H143931   0.474   3.762   0.765 -0.5497  0.9508  0.0440
14658TIP3    H243932   0.554   3.678   0.863 -0.2262  0.6633 -0.4625
14659TIP3   OH243933   7.515   7.609   2.677  0.2726  0.4986  0.1248
14659TIP3    H143934   7.553   7.671   2.615  1.0897 -2.4961 -2.5556
14659TIP3    H243935   7.420   7.613   2.660  0.0632  2.6631  1.6421
14660TIP3   OH243936   2.116   1.647   0.111 -0.1041  0.1634 -0.0641
14660TIP3    H143937   2.083   1.560   0.089 -1.0797  0.5334 -0.0984
14660TIP3    H243938   2.043   1.706   0.092 -0.0526  0.7906  1.5925
14661TIP3   OH243939   1.392   4.750   1.276  0.3311 -0.0802  0.0026
14661TIP3    H143940   1.394   4.736   1.181 -1.1741 -1.2223  0.1240
14661TIP3    H243941   1.396   4.845   1.286 -0.1051  0.0827 -1.2289
14662TIP3   OH243942   7.996   2.506   1.111 -0.6001  0.1903 -0.1345
14662TIP3    H143943   7.931   2.467   1.054  0.3230 -0.7792 -0.5356
14662TIP3    H243944   8.075   2.514   1.057  0.4363 -1.2219  1.1211
14663TIP3   OH243945   2.583   3.458   6.201  0.9609 -0.3194 -0.0806
14663TIP3    H143946   2.640   3.381   6.200  0.0900 -0.9657 -0.3215
14663TIP3    H243947   2.508   3.433   6.148  0.5373  0.6010  0.0753
14664TIP3   OH243948   2.150   4.494   2.062 -0.9163  0.0521  0.6961
14664TIP3    H143949   2.143   4.559   2.131  0.1643  1.0626 -0.1197
14664TIP3    H243950   2.146   4.545   1.981 -0.6068 -0.9508  0.0411
14665TIP3   OH243951   0.405   0.145   6.554  0.3177  0.1152  0.3041
14665TIP3    H143952   0.439   0.232   6.532 -0.0193  0.2033  0.1285
14665TIP3    H243953   0.405   0.142   6.649 -0.6383  0.6922  0.3288
14666TIP3   OH243954   5.897   7.202   6.752  0.2138  0.0173 -0.4995
14666TIP3    H143955   5.870   7.117   6.717  1.8750 -0.5985 -0.2965
14666TIP3    H243956   5.990   7.209   6.731  0.4798  1.0611  0.9417
14667TIP3   OH243957   3.360   2.379   1.948 -0.0719  0.3604 -0.3280
14667TIP3    H143958   3.357   2.474   1.955  0.8659  0.3328  0.4505
14667TIP3    H243959   3.422   2.362   1.877 -1.6965  0.3682 -1.7800
14668TIP3   OH243960   3.202   3.177   1.480  0.2173  0.7005  0.4016
14668TIP3    H143961   3.120   3.172   1.529  0.4030 -0.8637  0.5711
14668TIP3    H243962   3.271   3.176   1.547  0.4261 -0.1061  0.1897
14669TIP3   OH243963   4.095   5.505   6.399 -0.4718  0.4982 -0.4702
14669TIP3    H143964   4.014   5.549   6.373 -0.5194 -0.3997 -1.9658
14669TIP3    H243965   4.087   5.492   6.493 -0.9450  2.6432 -0.2005
14670TIP3   OH243966   4.337   6.267   5.237  0.0810 -0.6210  0.4141
14670TIP3    H143967   4.310   6.195   5.294 -2.2133 -0.9863 -1.0496
14670TIP3    H243968   4.403   6.229   5.180  1.9917 -0.3988  2.4037
14671TIP3   OH243969   2.959   6.795   5.571  0.4020  0.3946  0.1243
14671TIP3    H143970   3.051   6.810   5.593  0.2093  0.9543  0.5571
14671TIP3    H243971   2.917   6.880   5.582 -0.3211 -0.0318  0.7055
14672TIP3   OH243972   2.926   2.517   2.117  0.2488 -0.0380 -0.5111
14672TIP3    H143973   2.830   2.524   2.115  0.4752  3.8385 -2.3869
14672TIP3    H243974   2.949   2.474   2.035  0.2539  1.9934 -1.5964
14673TIP3   OH243975   8.470   4.590   3.291 -0.2969 -0.9880  0.0754
14673TIP3    H143976   8.461   4.556   3.202 -1.4004 -0.5365  0.0092
14673TIP3    H243977   8.469   4.512   3.347 -0.8736 -1.1953 -0.2208
14674TIP3   OH243978   4.558   1.944   0.064  0.5084  0.2209  0.0273
14674TIP3    H143979   4.641   1.961   0.109  0.8295  0.4460 -0.6384
14674TIP3    H243980   4.569   1.856   0.028 -0.5698 -0.8140  2.1895
14675TIP3   OH243981   0.677   1.916   0.186  0.5804  0.0416 -0.1081
14675TIP3    H143982   0.724   1.835   0.206 -1.3191 -1.3596 -1.1604
14675TIP3    H243983   0.586   1.897   0.205 -0.0662  1.5618 -1.4548
14676TIP3   OH243984   3.327   1.565   0.165  0.1049  0.5431  0.5471
14676TIP3    H143985   3.402   1.517   0.200 -1.0934 -0.3908  1.8978
14676TIP3    H243986   3.262   1.564   0.236 -0.9493  1.8634 -0.3713
14677TIP3   OH243987   5.768   5.818   6.649 -0.1997 -0.0286 -0.5508
14677TIP3    H143988   5.711   5.743   6.663  1.2257 -1.1560 -0.7660
14677TIP3    H243989   5.743   5.851   6.563 -1.3885  0.2605 -0.1093
14678TIP3   OH243990   5.489   6.742   6.277 -0.5934  0.1471  0.0950
14678TIP3    H143991   5.442   6.669   6.319 -2.5053  0.1540 -1.9372
14678TIP3    H243992   5.576   6.707   6.258 -0.8877 -1.0006  0.7930
14679TIP3   OH243993   2.833   0.908   0.892  0.2650 -0.5680 -0.7711
14679TIP3    H143994   2.857   0.822   0.857  0.2748 -1.9054  2.2923
14679TIP3    H243995   2.893   0.922   0.965  0.2960  2.1009 -1.2584
14680TIP3   OH243996   4.398   6.585   6.634 -0.8748  0.0206 -0.4143
14680TIP3    H143997   4.369   6.659   6.686  1.3648  0.4733  0.2221
14680TIP3    H243998   4.448   6.624   6.562 -0.5169 -0.8134 -0.6252
14681TIP3   OH243999   4.584   2.108   0.830  0.2391 -0.1426 -0.0438
14681TIP3    H144000   4.553   2.054   0.902  2.9961 -0.4801  0.9776
14681TIP3    H244001   4.540   2.192   0.841  2.4434  0.6654  3.6007
14682TIP3   OH244002   8.331   3.703   0.055 -0.2887 -0.5754 -0.0217
14682TIP3    H144003   8.412   3.730   0.098 -1.0983  1.3651  0.3218
14682TIP3    H244004   8.350   3.706  -0.038 -0.1853  0.5844  0.0367
14683TIP3   OH244005   6.772   0.720   5.170 -0.1757 -0.2548 -0.3357
14683TIP3    H144006   6.782   0.785   5.239  1.1176 -0.3978 -0.3643
14683TIP3    H244007   6.793   0.767   5.089  1.5470 -0.8627 -0.2775
14684TIP3   OH244008   4.147   7.275   6.820 -0.3759  0.6087 -0.3681
14684TIP3    H144009   4.209   7.203   6.815 -0.2323  0.7860 -1.3053
14684TIP3    H244010   4.109   7.280   6.732  0.8875  2.7726 -0.8530
14685TIP3   OH244011   6.145   7.300   6.219 -0.2419  0.1373  0.2043
14685TIP3    H144012   6.230   7.274   6.183  0.1720 -0.3703  1.5182
14685TIP3    H244013   6.110   7.361   6.154  1.0323  0.1952 -0.4614
14686TIP3   OH244014   5.311   4.288   6.803 -0.4345 -0.7806 -0.2934
14686TIP3    H144015   5.297   4.241   6.885  0.1757 -0.0113  0.2547
14686TIP3    H244016   5.397   4.258   6.773  0.5681  0.9441  0.7363
14687TIP3   OH244017   5.273   5.739   6.022  0.2561  0.0572 -0.0876
14687TIP3    H144018   5.305   5.722   5.934 -2.3900 -1.1018 -0.8667
14687TIP3    H244019   5.336   5.696   6.079  0.1847 -2.0690 -1.5635
14688TIP3   OH244020   4.876   4.216   1.135  0.1329 -0.0805 -0.5323
14688TIP3    H144021   4.952   4.160   1.118  0.7033  0.6029 -0.2738
14688TIP3    H244022   4.848   4.246   1.049  1.8596  1.8665 -0.4570
14689TIP3   OH244023   1.742   6.515   5.600  0.6594  0.6672  0.2953
14689TIP3    H144024   1.829   6.553   5.614 -0.2676  1.9781  2.7358
14689TIP3    H244025   1.744   6.432   5.648  1.0468 -0.0537 -0.9379
14690TIP3   OH244026   3.406   5.567   5.333 -0.3970  0.4308  0.1683
14690TIP3    H144027   3.319   5.527   5.338 -0.0854 -0.2605  0.1007
14690TIP3    H244028   3.394   5.641   5.274 -0.8815  0.1727 -0.0678
14691TIP3   OH244029   4.969   5.773   5.639 -0.0067  0.3396 -0.1473
14691TIP3    H144030   4.895   5.799   5.583 -0.5996  0.2365  0.5858
14691TIP3    H244031   4.958   5.824   5.719 -0.1085 -0.7520  0.5462
14692TIP3   OH244032   5.419   7.590   6.875  0.4692 -0.5455  0.2059
14692TIP3    H144033   5.341   7.563   6.923  0.2354  0.3941  0.3643
14692TIP3    H244034   5.491   7.576   6.937  0.3292 -0.6294  0.3507
14693TIP3   OH244035   1.033   2.564   0.661 -0.3615 -0.5456  0.1153
14693TIP3    H144036   1.007   2.472   0.674 -0.1305 -0.6097  0.1361
14693TIP3    H244037   1.060   2.568   0.570 -0.2419 -0.5310  0.1514
14694TIP3   OH244038   0.979   4.417   0.713  0.7213 -0.2146  0.8638
14694TIP3    H144039   0.972   4.509   0.687  0.8050 -0.3447  0.3754
14694TIP3    H244040   0.889   4.388   0.723  0.6652 -0.4278 -0.2210
14695TIP3   OH244041   2.670   3.120   1.096  0.0350 -0.0036  0.3262
14695TIP3    H144042   2.679   3.198   1.041  2.0303 -0.7608 -0.4641
14695TIP3    H244043   2.653   3.155   1.184 -2.2360  1.2293 -0.5530
14696TIP3   OH244044   4.844   7.753   6.459 -0.1323 -0.7055 -0.4380
14696TIP3    H144045   4.839   7.667   6.417 -0.2191  0.0021 -1.9323
14696TIP3    H244046   4.903   7.804   6.403 -1.4489  0.7303 -0.5559
14697TIP3   OH244047   5.799   1.220   5.054  0.0708  0.6963  0.4169
14697TIP3    H144048   5.787   1.304   5.100  2.3555  1.1440  0.2700
14697TIP3    H244049   5.875   1.235   4.997 -1.2954 -0.5736 -1.8117
14698TIP3   OH244050   2.406   5.614   0.806 -0.4671  0.8109  0.1241
14698TIP3    H144051   2.394   5.533   0.758 -3.7179  0.8983  0.6438
14698TIP3    H244052   2.403   5.588   0.898  1.5431  1.1579  0.3024
14699TIP3   OH244053   4.531   4.946   6.472  0.1641  0.0194 -0.0562
14699TIP3    H144054   4.534   5.042   6.464 -0.4067  0.3022  2.4633
14699TIP3    H244055   4.464   4.931   6.539 -0.1559 -2.1913 -0.8468
14700TIP3   OH244056   4.490   4.856   5.862  0.5275 -0.2530  0.1943
14700TIP3    H144057   4.535   4.784   5.907 -1.3931 -1.2440  0.5639
14700TIP3    H244058   4.399   4.827   5.854  0.1363  1.3053 -1.4169
14701TIP3   OH244059   3.990   7.098   5.513  0.9487 -0.2108 -0.2486
14701TIP3    H144060   4.033   7.021   5.551  2.0578  1.5432  2.2361
14701TIP3    H244061   3.912   7.110   5.567 -0.9451 -1.4368 -2.6572
14702TIP3   OH244062   6.860   7.064   5.556 -0.0172 -0.2228 -0.4933
14702TIP3    H144063   6.906   7.066   5.471  1.8359 -0.8401  0.4624
14702TIP3    H244064   6.907   7.128   5.609  0.1122 -1.2902  0.6934
14703TIP3   OH244065   2.817   3.119   1.880  0.6337 -0.1995 -0.2951
14703TIP3    H144066   2.767   3.181   1.932  1.5243  0.0456  0.2802
14703TIP3    H244067   2.823   3.041   1.936  1.1690 -0.1107 -0.2293
14704TIP3   OH244068   7.349   5.625   6.517  0.4216  0.7087  0.1041
14704TIP3    H144069   7.386   5.692   6.574  3.1349 -0.6442  0.0589
14704TIP3    H244070   7.387   5.643   6.431  0.6572 -0.4505 -0.0467
14705TIP3   OH244071   3.641   1.179   0.336  0.1005  0.2585  0.0542
14705TIP3    H144072   3.602   1.251   0.286  1.2638 -0.0369 -1.3130
14705TIP3    H244073   3.734   1.202   0.343  0.3826 -0.8620  0.0654
14706TIP3   OH244074   2.894   2.866   2.100 -0.2893  0.6373 -0.4887
14706TIP3    H144075   2.910   2.793   2.040 -0.9255  1.4894 -1.7166
14706TIP3    H244076   2.836   2.830   2.167  0.9907 -0.5151  0.0096
14707TIP3   OH244077   6.760   5.377   5.877  0.5317  0.0690 -0.1713
14707TIP3    H144078   6.822   5.340   5.941  1.5587  0.7582 -0.7466
14707TIP3    H244079   6.706   5.437   5.928  0.8474  0.0436  0.1969
14708TIP3   OH244080   5.016   7.724   6.682 -0.3288 -0.0504 -0.1461
14708TIP3    H144081   5.093   7.772   6.651  0.0099 -0.3912  0.1615
14708TIP3    H244082   4.950   7.739   6.614  0.9078 -2.0863 -1.8839
14709TIP3   OH244083   2.449   1.464   0.058 -0.4531  0.1972 -0.9306
14709TIP3    H144084   2.543   1.452   0.053 -0.3195  0.1585  1.4167
14709TIP3    H244085   2.430   1.530  -0.009  1.0540 -0.6429 -2.2205
14710TIP3   OH244086   0.299   6.069   5.280  0.3112  0.0688 -0.9635
14710TIP3    H144087   0.296   6.131   5.207  1.2382 -0.0281 -1.1003
14710TIP3    H244088   0.390   6.037   5.280  0.3281  0.0945  0.2555
14711TIP3   OH244089   7.756   5.179   6.840 -0.3121 -0.0995  0.6620
14711TIP3    H144090   7.778   5.169   6.747  1.1744 -0.1270  1.0096
14711TIP3    H244091   7.669   5.221   6.839  0.3585  1.3340 -0.7351
14712TIP3   OH244092   7.670   0.268   6.917 -0.7955 -0.2878 -0.1781
14712TIP3    H144093   7.757   0.277   6.879 -0.8130 -0.0160 -0.1527
14712TIP3    H244094   7.629   0.354   6.906 -1.3624 -0.6508 -0.9268
14713TIP3   OH244095   8.040   6.161   5.728 -0.3650 -0.0655  0.7431
14713TIP3    H144096   7.991   6.233   5.689  0.1261  0.1252  0.4664
14713TIP3    H244097   7.974   6.096   5.750 -0.5849 -0.4766 -1.0710
14714TIP3   OH244098   3.440   2.212   1.296 -0.2675 -0.0932 -0.4098
14714TIP3    H144099   3.528   2.227   1.262 -0.2278  0.9358  0.1353
14714TIP3    H244100   3.447   2.130   1.345  0.0984 -0.6455 -1.3779
14715TIP3   OH244101   1.472   0.725   6.004 -0.1218  0.0494 -0.3045
14715TIP3    H144102   1.548   0.699   6.057 -2.9272 -1.3511  3.2293
14715TIP3    H244103   1.510   0.761   5.924  4.2586 -0.6208  1.3304
14716TIP3   OH244104   5.870   4.946   6.118  0.0981 -0.0320 -0.1239
14716TIP3    H144105   5.920   4.899   6.051 -1.0866  0.0537 -1.0793
14716TIP3    H244106   5.810   4.880   6.154 -0.5498  0.3874 -0.4399
14717TIP3   OH244107   4.470   6.311   5.739 -0.2914  0.0395 -0.1163
14717TIP3    H144108   4.422   6.324   5.821 -0.6025  1.7337 -0.5434
14717TIP3    H244109   4.541   6.374   5.742 -0.4616  0.3030 -1.2731
14718TIP3   OH244110   1.634   3.441   0.482 -0.3217  0.4579  0.3570
14718TIP3    H144111   1.637   3.469   0.390 -0.3130  1.8638  0.7745
14718TIP3    H244112   1.561   3.380   0.486 -1.2231  1.4816 -0.2939
14719TIP3   OH244113   7.642   6.622   4.663 -0.4263  0.2394  0.8707
14719TIP3    H144114   7.612   6.615   4.573  0.0836  0.2798  0.6946
14719TIP3    H244115   7.574   6.578   4.715 -0.0121 -1.0514  0.3213
14720TIP3   OH244116   6.270   7.709   6.381  0.5023 -0.6327 -0.0015
14720TIP3    H144117   6.282   7.678   6.291  0.2171 -0.8857  0.0473
14720TIP3    H244118   6.229   7.795   6.372  0.1900 -0.7922 -0.1068
14721TIP3   OH244119   3.477   1.679  -0.032 -0.1966  0.0812  0.2932
14721TIP3    H144120   3.484   1.771  -0.005  0.2045  0.4209 -0.9527
14721TIP3    H244121   3.437   1.636   0.044  0.4316  1.1082  1.2354
14722TIP3   OH244122   4.856   6.523   5.583  0.4189  0.3557  0.3523
14722TIP3    H144123   4.934   6.520   5.638  0.8720  0.0179 -0.3033
14722TIP3    H244124   4.855   6.611   5.546 -0.2609  0.8129  1.4261
14723TIP3   OH244125   5.578   6.651   0.343  0.2745  0.8260 -0.4423
14723TIP3    H144126   5.607   6.704   0.418  1.2745  0.4876 -0.5759
14723TIP3    H244127   5.657   6.606   0.315 -0.4582 -0.3474 -0.6518
14724TIP3   OH244128   5.100   3.332   1.197 -0.2284  0.9119  0.4633
14724TIP3    H144129   5.136   3.402   1.142  0.5427  0.5826  0.5487
14724TIP3    H244130   5.078   3.376   1.279 -1.1489  1.3527  0.0007
14725TIP3   OH244131   3.731   3.136   0.660  0.0298 -0.5093 -0.2669
14725TIP3    H144132   3.718   3.225   0.628 -1.8456 -0.0002  1.8729
14725TIP3    H244133   3.763   3.088   0.583 -0.2691  1.6646 -1.7926
14726TIP3   OH244134   4.523   3.504   0.463  0.2107 -0.0370 -0.1266
14726TIP3    H144135   4.608   3.502   0.507 -0.5871 -0.3025  1.4330
14726TIP3    H244136   4.459   3.500   0.534 -1.1139 -1.9770 -1.3845
14727TIP3   OH244137   2.390   0.421   6.492  0.0358  0.1293  0.0891
14727TIP3    H144138   2.339   0.340   6.491  1.9510 -1.1065  0.2615
14727TIP3    H244139   2.379   0.455   6.581 -0.4554 -0.1285  0.1290
14728TIP3   OH244140   1.867   2.361   0.823  0.3047 -0.0034 -0.2189
14728TIP3    H144141   1.871   2.265   0.825 -2.0574 -0.1132 -0.1495
14728TIP3    H244142   1.870   2.383   0.730 -1.7790 -0.2840 -0.3670
14729TIP3   OH244143   3.326   1.947   2.085  0.0554  0.5019  0.2454
14729TIP3    H144144   3.362   1.888   2.019  1.8210  0.1366  1.4682
14729TIP3    H244145   3.278   2.013   2.036  0.1270 -0.5779 -1.2974
14730TIP3   OH244146   7.470   0.268   4.502  0.1252 -0.0810  0.5841
14730TIP3    H144147   7.425   0.313   4.430 -0.4392 -0.3190  0.7860
14730TIP3    H244148   7.417   0.288   4.579  0.2831 -0.4909  0.7997
14731TIP3   OH244149   0.066   6.001   6.916  0.6034  0.3429 -0.2697
14731TIP3    H144150   0.096   5.962   6.835 -0.2177  0.6243 -0.7101
14731TIP3    H244151   0.001   5.940   6.950  0.7024  0.3910  0.0149
14732TIP3   OH244152   2.263   3.124   1.202 -0.0561 -1.0469 -0.3659
14732TIP3    H144153   2.239   3.033   1.186 -2.4270 -0.5202  0.0505
14732TIP3    H244154   2.303   3.122   1.289 -0.7493 -1.5989 -0.0445
14733TIP3   OH244155   1.181   0.428   4.992  0.2711 -0.0061  0.0133
14733TIP3    H144156   1.099   0.430   5.042  0.0075  0.1009 -0.4223
14733TIP3    H244157   1.165   0.364   4.922  0.4523  0.2510 -0.2623
14734TIP3   OH244158   6.489   6.759   6.126  0.3546  0.7035 -0.2459
14734TIP3    H144159   6.523   6.774   6.214  1.0443  0.2596 -0.4387
14734TIP3    H244160   6.501   6.666   6.111 -2.0174  0.3076  0.1315
14735TIP3   OH244161   7.389   1.668   0.053 -0.2595 -0.5145 -0.0466
14735TIP3    H144162   7.386   1.764   0.060  0.7459 -0.5772  1.6956
14735TIP3    H244163   7.299   1.640   0.072 -0.3101  0.0415  0.5676
14736TIP3   OH244164   5.804   7.765   6.825  0.0589  0.2407  0.3089
14736TIP3    H144165   5.759   7.750   6.909  1.1730  0.6724  0.9959
14736TIP3    H244166   5.736   7.798   6.767 -0.6743  0.1987  1.1334
14737TIP3   OH244167   3.692   4.650   0.708 -0.5701 -0.3471  0.1078
14737TIP3    H144168   3.622   4.617   0.653  0.0535 -0.4214 -0.6556
14737TIP3    H244169   3.654   4.726   0.752 -1.3537 -0.8305  0.2789
14738TIP3   OH244170   3.937   2.584   2.059 -0.1689  0.4581  0.2687
14738TIP3    H144171   3.867   2.553   2.117 -0.3252  0.2106 -0.0500
14738TIP3    H244172   4.008   2.521   2.073 -0.3776  0.1284 -0.1569
14739TIP3   OH244173   4.088   4.338   6.206 -0.2918 -0.3072  0.0247
14739TIP3    H144174   4.066   4.386   6.286 -3.4978  0.2612 -1.1016
14739TIP3    H244175   4.176   4.367   6.185 -1.0542  2.9815  0.9443
14740TIP3   OH244176   2.544   4.335   1.005 -0.6684  0.4391  0.0660
14740TIP3    H144177   2.461   4.299   0.973 -0.9353  0.5412  0.6417
14740TIP3    H244178   2.572   4.396   0.937  0.0658 -1.2371 -1.1905
14741TIP3   OH244179   4.090   2.588   0.257 -0.1021 -0.3411 -0.0882
14741TIP3    H144180   4.147   2.528   0.305 -0.7145  0.0148  1.0954
14741TIP3    H244181   4.135   2.602   0.174  0.6510 -1.4689  0.1212
14742TIP3   OH244182   4.111   2.193   0.556 -0.1546  0.8069 -0.4693
14742TIP3    H144183   4.038   2.157   0.505 -0.5931  0.7085  0.2232
14742TIP3    H244184   4.179   2.127   0.551 -0.0731  0.9387 -1.1982
14743TIP3   OH244185   6.504   6.185   5.642  0.2077  0.4984  0.3571
14743TIP3    H144186   6.445   6.190   5.566  1.1523  1.2349 -0.3464
14743TIP3    H244187   6.450   6.151   5.712 -0.8576  0.4111 -0.4912
14744TIP3   OH244188   3.697   2.796   1.157 -0.5306 -0.5437  0.2492
14744TIP3    H144189   3.655   2.752   1.231  1.2283 -1.2157  0.8638
14744TIP3    H244190   3.669   2.745   1.081 -2.4091  0.1959  0.4209
14745TIP3   OH244191   0.022   7.738   0.461  0.0390 -0.3210 -0.3264
14745TIP3    H144192  -0.009   7.648   0.453 -0.1731 -0.3296  0.5309
14745TIP3    H244193   0.104   7.731   0.510  0.3432 -0.1088 -0.8089
14746TIP3   OH244194   4.292   1.675   0.735 -0.1637  0.0171 -0.1583
14746TIP3    H144195   4.284   1.642   0.824  2.9728 -2.5549 -0.7221
14746TIP3    H244196   4.232   1.621   0.684 -0.7552  0.3913  0.1459
14747TIP3   OH244197   6.193   7.547   5.918  0.4219 -0.1187  0.5143
14747TIP3    H144198   6.248   7.542   5.839  1.1883 -1.8439  1.1370
14747TIP3    H244199   6.119   7.490   5.899  0.8057 -0.8513  1.1771
14748TIP3   OH244200   4.119   2.286   0.205  0.1887  0.8497 -0.1185
14748TIP3    H144201   4.186   2.220   0.191 -0.5534 -0.2326  1.3315
14748TIP3    H244202   4.137   2.320   0.293 -0.2365  1.6310 -0.3275
14749TIP3   OH244203   4.125   2.342   0.840  0.0759  0.3817  0.0908
14749TIP3    H144204   4.048   2.397   0.855  1.6846  2.2956  1.5287
14749TIP3    H244205   4.120   2.318   0.747 -1.7373  1.2741 -0.0523
14750TIP3   OH244206   5.969   4.704   0.024  0.2047  0.0435 -0.9258
14750TIP3    H144207   5.926   4.766  -0.036  0.8586  0.7797 -0.6458
14750TIP3    H244208   5.913   4.705   0.102  0.7583  1.0585 -0.5319
14751TIP3   OH244209   2.055   3.274   0.803 -0.6543  0.2932  0.1089
14751TIP3    H144210   1.987   3.250   0.867  0.5273  1.4801  1.8850
14751TIP3    H244211   2.106   3.194   0.790 -0.1013  0.3693  1.7014
14752TIP3   OH244212   6.349   1.668   5.969  0.3448  0.1245 -0.2422
14752TIP3    H144213   6.354   1.597   5.905  1.4754  0.9049 -1.0283
14752TIP3    H244214   6.339   1.624   6.053 -1.0839 -0.9130 -0.9286
14753TIP3   OH244215   0.638   4.303   2.033 -0.0498  0.6351  0.5499
14753TIP3    H144216   0.724   4.321   1.997  0.0417 -0.3881  0.2338
14753TIP3    H244217   0.581   4.296   1.956  0.3239 -2.5093  0.5017
14754TIP3   OH244218   6.883   2.040   4.933  0.2983 -0.3100 -0.6972
14754TIP3    H144219   6.815   2.066   4.871  0.7944  0.1586 -1.0441
14754TIP3    H244220   6.961   2.026   4.879  0.8823  0.6544 -0.1072
14755TIP3   OH244221   6.814   1.518   6.903 -0.3747  0.0259  0.4820
14755TIP3    H144222   6.734   1.494   6.949 -0.0175  1.1414  1.7098
14755TIP3    H244223   6.784   1.547   6.816 -1.4744  1.8953  1.4463
14756TIP3   OH244224   1.944   7.139   6.725 -0.2666  0.1622  0.2124
14756TIP3    H144225   1.852   7.114   6.725 -0.4297  0.7460 -0.5574
14756TIP3    H244226   1.991   7.058   6.744 -0.9648  0.0014  1.3126
14757TIP3   OH244227   2.928   1.501   6.634 -0.0001 -0.5205  0.1660
14757TIP3    H144228   2.947   1.455   6.553 -0.9216 -0.4836 -0.0812
14757TIP3    H244229   3.013   1.529   6.667  0.6211 -2.7666  0.5396
14758TIP3   OH244230   5.988   2.327   5.683  0.1997  0.6457 -0.2020
14758TIP3    H144231   5.939   2.358   5.606  1.4406  1.5684 -0.6541
14758TIP3    H244232   6.018   2.240   5.658 -2.3450 -0.5060  0.6206
14759TIP3   OH244233   6.175   0.585   6.838 -0.0429  0.0565  0.1870
14759TIP3    H144234   6.086   0.615   6.857  0.3037 -0.5851  3.0731
14759TIP3    H244235   6.167   0.490   6.833  0.3024  0.0668 -0.5319
14760TIP3   OH244236   1.549   3.915   0.228  0.0119  0.0310  0.0015
14760TIP3    H144237   1.553   3.856   0.303 -2.4917 -1.2217 -0.7966
14760TIP3    H244238   1.499   3.990   0.259 -0.6385 -0.2849 -0.2779
14761TIP3   OH244239   0.129   4.846   0.747 -0.2695 -0.7467  0.0105
14761TIP3    H144240   0.080   4.821   0.826  1.0557 -0.5644  0.9166
14761TIP3    H244241   0.200   4.782   0.741  0.3545 -0.0445 -0.3351
14762TIP3   OH244242   0.650   3.087   1.781 -0.0262  0.5304 -0.3799
14762TIP3    H144243   0.583   3.020   1.791  0.3764  0.0248 -1.0537
14762TIP3    H244244   0.663   3.122   1.869  1.3457 -1.7865  0.3521
14763TIP3   OH244245   8.275   5.949   2.204  0.4747 -0.1563 -0.2109
14763TIP3    H144246   8.241   5.930   2.292  2.1935 -0.8727  0.3165
14763TIP3    H244247   8.244   5.877   2.150  2.1633 -1.4800  0.5405
14764TIP3   OH244248   3.079   6.721   6.682 -0.0906 -0.2194 -0.6684
14764TIP3    H144249   3.117   6.765   6.758  2.1220 -1.8271 -0.8081
14764TIP3    H244250   3.046   6.637   6.716 -2.3705  0.5819 -0.8081
14765TIP3   OH244251   6.426   0.756   6.364 -0.3451  0.0063  0.3703
14765TIP3    H144252   6.440   0.849   6.347 -2.0852  0.7524  2.7713
14765TIP3    H244253   6.496   0.731   6.424  0.9430 -0.6024 -1.3540
14766TIP3   OH244254   6.110   0.073   6.845  0.3047 -0.4925 -0.5109
14766TIP3    H144255   6.055   0.005   6.808 -0.4990  0.1735 -0.5525
14766TIP3    H244256   6.143   0.037   6.927  0.8811 -1.3995 -1.1346
14767TIP3   OH244257   7.978   2.833   2.335 -0.2088  0.0692 -0.1653
14767TIP3    H144258   7.903   2.792   2.377  0.2784 -1.1721 -0.4839
14767TIP3    H244259   7.986   2.918   2.379 -0.4728 -0.6745  1.3789
14768TIP3   OH244260   7.203   5.503   0.397  0.2437 -0.3775 -0.3880
14768TIP3    H144261   7.235   5.433   0.453  0.2124 -0.5717 -0.6128
14768TIP3    H244262   7.243   5.582   0.432 -2.0748 -0.0878  1.7580
14769TIP3   OH244263   8.437   5.928   1.888 -0.2154 -0.0951 -0.3213
14769TIP3    H144264   8.411   5.857   1.829 -0.6318 -1.2445  1.2084
14769TIP3    H244265   8.369   5.994   1.877 -1.6320 -1.3625  0.6799
14770TIP3   OH244266   0.659   3.805   2.933 -0.3735  0.2493 -0.1171
14770TIP3    H144267   0.629   3.750   2.861  0.2910 -0.5955  0.2439
14770TIP3    H244268   0.696   3.744   2.996  0.8113  1.1431  0.0828
14771TIP3   OH244269   1.115   4.413   0.949  0.2161 -0.0565  0.0887
14771TIP3    H144270   1.197   4.365   0.937  1.2796  1.6277  0.3666
14771TIP3    H244271   1.059   4.385   0.877  0.6021 -2.0876  0.5393
14772TIP3   OH244272   0.798   0.597   3.789 -0.1934  0.8441 -0.1571
14772TIP3    H144273   0.815   0.660   3.860 -0.2757  0.0768  0.5521
14772TIP3    H244274   0.706   0.572   3.802 -0.2688  0.8562 -0.6703
14773TIP3   OH244275   0.669   5.001   0.712 -0.1024 -0.0682  0.0346
14773TIP3    H144276   0.738   5.058   0.746 -0.6181  0.8934 -0.5120
14773TIP3    H244277   0.662   5.024   0.619 -0.8809 -0.4418 -0.0045
14774TIP3   OH244278   2.427   7.856   5.336 -0.3184  0.4351 -0.1358
14774TIP3    H144279   2.333   7.841   5.335 -0.2051 -0.6464  2.1457
14774TIP3    H244280   2.465   7.775   5.301 -0.2710  1.2306 -1.9271
14775TIP3   OH244281   6.761   0.915   5.352 -0.0851 -0.5326 -0.1946
14775TIP3    H144282   6.670   0.941   5.364 -0.4843 -1.6263 -0.7053
14775TIP3    H244283   6.794   0.971   5.281  0.1611  1.0441  1.1515
14776TIP3   OH244284   3.139   5.637   2.201  0.2856 -0.3087 -0.3925
14776TIP3    H144285   3.161   5.589   2.281  2.5932  0.6785 -0.4152
14776TIP3    H244286   3.067   5.695   2.227 -0.0017 -1.0749  0.5634
14777TIP3   OH244287   0.196   0.371   5.881  0.4059 -0.2828  0.0258
14777TIP3    H144288   0.194   0.360   5.785 -2.4482 -1.3125  0.1584
14777TIP3    H244289   0.178   0.464   5.894 -2.0684 -0.6544 -0.4152
14778TIP3   OH244290   5.432   0.576   5.475  0.2210  0.8004 -0.2536
14778TIP3    H144291   5.423   0.509   5.407 -2.3640  1.0210 -0.1825
14778TIP3    H244292   5.488   0.536   5.541 -0.7902 -1.0824 -0.4946
14779TIP3   OH244293   0.674   5.025   0.427  0.0356 -0.0135  0.1140
14779TIP3    H144294   0.727   5.028   0.347 -1.0287  1.5726 -0.5657
14779TIP3    H244295   0.626   4.942   0.420  0.4171 -0.1835 -0.5805
14780TIP3   OH244296   7.658   0.394   4.309  0.0109 -0.0524 -0.1619
14780TIP3    H144297   7.657   0.328   4.379  0.2543  0.3282  0.1998
14780TIP3    H244298   7.745   0.435   4.315 -0.5695  1.1081  0.3646
14781TIP3   OH244299   2.190   5.816   0.821 -0.1011  0.2321 -0.2887
14781TIP3    H144300   2.270   5.766   0.811 -0.4259 -0.4560  0.5312
14781TIP3    H244301   2.211   5.884   0.885  0.0200  0.4580 -0.5693
14782TIP3   OH244302   2.189   4.985   0.656 -0.0234 -0.0966 -0.3875
14782TIP3    H144303   2.264   5.016   0.705 -0.6273  1.1825 -0.2514
14782TIP3    H244304   2.119   5.047   0.676 -0.8712 -0.7635 -1.1949
14783TIP3   OH244305   2.439   3.817   0.923  0.1852 -0.1943  0.5049
14783TIP3    H144306   2.400   3.739   0.961  0.7405 -0.7321 -0.0227
14783TIP3    H244307   2.518   3.786   0.878 -0.0619  0.5341 -0.4682
14784TIP3   OH244308   4.432   6.621   6.162  0.4967  0.0403 -0.1869
14784TIP3    H144309   4.410   6.615   6.069 -1.7551  0.1461  0.3271
14784TIP3    H244310   4.408   6.535   6.198 -0.5287  0.7010  0.7022
14785TIP3   OH244311   3.349   4.700   0.625  0.1687  0.4530  0.9403
14785TIP3    H144312   3.362   4.788   0.591  0.4970  0.0597  0.0388
14785TIP3    H244313   3.336   4.713   0.719 -0.6839  1.5405  0.6971
14786TIP3   OH244314   8.253   0.374   5.657  0.4586 -0.2186 -0.1813
14786TIP3    H144315   8.183   0.356   5.594 -0.4097 -1.3170  1.0684
14786TIP3    H244316   8.291   0.288   5.675  1.6852  0.2856 -0.3168
14787TIP3   OH244317   5.749   0.667   6.835  0.5387  0.2521  0.3654
14787TIP3    H144318   5.669   0.618   6.816 -0.0244  1.3385 -0.1328
14787TIP3    H244319   5.803   0.658   6.757  0.2155  0.8463  0.0710
14788TIP3   OH244320   0.743   5.639   1.002  0.2471  0.2662 -0.3203
14788TIP3    H144321   0.831   5.602   0.993 -0.2059 -0.5195 -1.6335
14788TIP3    H244322   0.757   5.725   1.041  1.6289  0.2847 -0.8486
14789TIP3   OH244323   0.260   3.942   3.144 -0.1900  0.0647  0.4722
14789TIP3    H144324   0.330   3.927   3.081 -0.0442 -1.2818  0.9411
14789TIP3    H244325   0.288   3.896   3.223 -2.1174 -1.4956  0.2904
14790TIP3   OH244326   1.139   2.854   4.536  0.3211 -0.6080 -0.1778
14790TIP3    H144327   1.053   2.893   4.552  1.1725  1.3293 -0.1484
14790TIP3    H244328   1.196   2.895   4.602  1.6984 -0.2634 -1.5391
14791TIP3   OH244329   1.696   4.956   2.248  0.0851 -0.5831 -0.1232
14791TIP3    H144330   1.611   4.972   2.206  0.2702  1.5504  0.2524
14791TIP3    H244331   1.753   5.025   2.215  1.3453 -1.2817  0.5508
14792TIP3   OH244332   1.614   4.525   0.316  0.3251 -0.3347 -0.5368
14792TIP3    H144333   1.709   4.523   0.327  0.1816  0.1107  0.8739
14792TIP3    H244334   1.581   4.462   0.380 -0.3963  0.5536 -0.0130
14793TIP3   OH244335   0.058   4.087   0.864 -0.0073 -0.4537 -0.0957
14793TIP3    H144336  -0.020   4.059   0.817 -1.6832  1.7677  1.2565
14793TIP3    H244337   0.053   4.041   0.948 -0.6057  0.7041  0.5189
14794TIP3   OH244338   0.708   3.412   0.790 -0.8667  0.2133 -0.2555
14794TIP3    H144339   0.703   3.439   0.698 -1.6866  0.5735 -0.1046
14794TIP3    H244340   0.744   3.323   0.786  0.2690  0.6887 -0.8524
14795TIP3   OH244341   1.348   5.541   0.193 -0.0632 -0.3925 -1.0003
14795TIP3    H144342   1.335   5.511   0.103  1.1236  0.4141 -1.4535
14795TIP3    H244343   1.421   5.603   0.187  1.1619 -1.6165  0.7863
14796TIP3   OH244344   1.040   0.235   5.540  0.3215  0.0995 -0.1625
14796TIP3    H144345   1.032   0.300   5.610  1.9698 -0.1529  0.2913
14796TIP3    H244346   1.053   0.287   5.461  2.5097  0.3375  0.3275
14797TIP3   OH244347   5.518   1.241   6.197  0.3015  0.2940  0.1405
14797TIP3    H144348   5.577   1.316   6.203 -0.5830  0.8486  2.1975
14797TIP3    H244349   5.530   1.194   6.279 -2.6812  0.8547  0.9656
14798TIP3   OH244350   2.468   4.321   0.671  0.1155 -0.2322  0.2630
14798TIP3    H144351   2.385   4.281   0.696  0.0818 -1.2757 -1.4211
14798TIP3    H244352   2.449   4.366   0.589  0.4830  2.1488  1.4479
14799TIP3   OH244353   7.996   1.365   6.452 -0.2443  0.4679  0.2079
14799TIP3    H144354   7.956   1.373   6.539  0.9639  0.0047  0.8201
14799TIP3    H244355   7.942   1.420   6.396  0.0207  2.2421  1.6341
14800TIP3   OH244356   2.854   3.076   1.363  0.4312 -0.2864  0.3014
14800TIP3    H144357   2.876   3.099   1.453 -2.0691  0.8828  0.6451
14800TIP3    H244358   2.815   3.156   1.326 -1.2895 -1.6280 -0.8847
14801TIP3   OH244359   6.388   7.532   6.132 -0.2400  0.1132 -0.3348
14801TIP3    H144360   6.415   7.440   6.137 -1.5163 -0.2964 -0.7057
14801TIP3    H244361   6.316   7.532   6.069  0.0439  1.4411 -0.6685
14802TIP3   OH244362   0.018   5.680   0.650  0.4391 -0.6998 -0.0296
14802TIP3    H144363  -0.001   5.631   0.730  2.4619 -0.2049  0.7699
14802TIP3    H244364   0.044   5.614   0.586  1.1967 -0.8525  0.4412
14803TIP3   OH244365   8.176   4.894   1.008  0.1001 -0.2467 -0.0948
14803TIP3    H144366   8.133   4.860   0.930  0.9792 -0.6270 -0.4269
14803TIP3    H244367   8.118   4.871   1.080 -0.7631  0.1905 -0.6456
14804TIP3   OH244368   6.184   7.964   6.409 -0.2197  0.8325 -0.2031
14804TIP3    H144369   6.142   8.038   6.453 -1.9264  0.8636 -1.8453
14804TIP3    H244370   6.232   8.004   6.336 -2.4556  0.2142 -2.0695
14805TIP3   OH244371   2.108   3.454   0.988 -0.3050 -0.4375 -0.2858
14805TIP3    H144372   2.085   3.388   0.922 -1.2963  0.7170 -1.1254
14805TIP3    H244373   2.024   3.483   1.023 -0.0079  1.6772 -1.2337
14806TIP3   OH244374   0.585   3.800   1.985  0.4395  0.1318 -0.1009
14806TIP3    H144375   0.514   3.853   1.950  1.4367  0.2067 -2.0846
14806TIP3    H244376   0.568   3.712   1.952  0.5512 -0.1275  0.5188
14807TIP3   OH244377   7.779   0.178   5.777 -0.4615 -0.3092 -0.4212
14807TIP3    H144378   7.689   0.145   5.782 -1.2495  1.5013 -1.9808
14807TIP3    H244379   7.825   0.111   5.725 -1.0965 -0.8767 -0.2672
14808TIP3   OH244380   2.953   7.756   6.329  0.3800  0.2641 -0.4088
14808TIP3    H144381   2.894   7.710   6.270 -2.7220  1.6589  1.4618
14808TIP3    H244382   2.955   7.846   6.296  0.2306  0.5772  0.4251
14809TIP3   OH244383   0.725   4.622   1.507  0.2710  0.0353 -0.1539
14809TIP3    H144384   0.752   4.668   1.428  2.5817  0.2004  0.6977
14809TIP3    H244385   0.712   4.691   1.572  1.0531 -0.2920  0.3595
14810TIP3   OH244386   1.548   4.955   1.080  0.5364 -0.0847  0.2905
14810TIP3    H144387   1.472   5.008   1.105  0.3451  1.8638 -3.9176
14810TIP3    H244388   1.523   4.918   0.995  3.6355 -0.8417 -0.3366
14811TIP3   OH244389   2.660   5.801   0.231  0.5872 -0.7955  0.0481
14811TIP3    H144390   2.727   5.757   0.282  1.1004  1.1571  1.1137
14811TIP3    H244391   2.681   5.894   0.239 -1.1122 -0.2762 -1.2101
14812TIP3   OH244392   3.216   6.855   6.872 -0.4316  0.0742 -0.7921
14812TIP3    H144393   3.272   6.852   6.950 -0.3776  0.6864 -0.8048
14812TIP3    H244394   3.271   6.895   6.805 -0.1345 -1.3838 -1.4368
14813TIP3   OH244395   3.594   7.948   5.659  0.8048 -0.2620  0.4932
14813TIP3    H144396   3.565   7.984   5.743  0.3779 -0.5576  0.4742
14813TIP3    H244397   3.539   7.871   5.645 -0.5501  0.9576 -1.0577
14814TIP3   OH244398   6.261   1.293   4.232  0.3243  0.2251  0.3547
14814TIP3    H144399   6.255   1.286   4.328 -0.6405  1.7787  0.4149
14814TIP3    H244400   6.269   1.202   4.203  0.7395 -0.2658  1.9177
14815TIP3   OH244401   1.753   6.557   1.412 -0.1320  0.8891  0.2933
14815TIP3    H144402   1.725   6.628   1.355  1.1339 -0.4578 -2.0702
14815TIP3    H244403   1.675   6.503   1.423 -0.4187  1.2334 -0.0266
14816TIP3   OH244404   1.851   4.957   1.640  0.5276 -0.5569 -0.5274
14816TIP3    H144405   1.834   4.876   1.592 -1.6043  0.0686 -0.8748
14816TIP3    H244406   1.774   5.011   1.624  1.8116  1.4558 -0.0828
14817TIP3   OH244407   6.986   0.768   6.032  0.1217 -0.1527  0.0096
14817TIP3    H144408   6.983   0.859   6.002 -0.5654  0.1329  0.9219
14817TIP3    H244409   7.079   0.751   6.045  0.1934  0.7279  0.7321
14818TIP3   OH244410   7.965   1.818   6.948 -0.1898 -0.4341 -0.9599
14818TIP3    H144411   7.947   1.724   6.948 -1.1031 -0.2624  0.7713
14818TIP3    H244412   8.023   1.831   6.872 -0.6127 -2.2709 -1.6152
14819TIP3   OH244413   4.293   7.879   5.170  0.2759 -0.0600  0.3454
14819TIP3    H144414   4.354   7.913   5.104 -0.5751 -0.8302 -0.8636
14819TIP3    H244415   4.307   7.934   5.247  0.7064  1.4001 -0.7586
14820TIP3   OH244416   7.992   0.780   6.636  0.1141  0.1884 -0.6327
14820TIP3    H144417   8.057   0.793   6.568  0.6673  0.8713  0.0113
14820TIP3    H244418   7.972   0.869   6.667  0.5586 -0.1628  0.7169
14821TIP3   OH244419   0.329   4.280   0.977 -0.4406 -0.2495 -0.7108
14821TIP3    H144420   0.412   4.260   1.020  0.2397  2.3841 -0.7442
14821TIP3    H244421   0.328   4.225   0.899  1.6775  0.3095 -1.1534
14822TIP3   OH244422   8.075   0.504   5.858 -0.0599 -0.3642  0.1357
14822TIP3    H144423   8.052   0.436   5.921  2.0257 -1.4422 -0.2175
14822TIP3    H244424   8.143   0.464   5.804  0.4015  1.6352 -0.8004
14823TIP3   OH244425   2.221   4.524   0.740  0.5467  0.3348  0.0605
14823TIP3    H144426   2.155   4.588   0.766  1.7300  1.4866  0.2940
14823TIP3    H244427   2.171   4.448   0.710 -0.8572  0.3609  2.2613
14824TIP3   OH244428   2.208   2.855   1.202  0.7872 -0.1779 -0.2093
14824TIP3    H144429   2.187   2.769   1.237  0.1838  0.1230  0.1707
14824TIP3    H244430   2.196   2.846   1.107 -2.6487  0.4040  0.1084
14825TIP3   OH244431   1.516   3.722   2.745 -0.1152 -0.4834 -0.2785
14825TIP3    H144432   1.422   3.731   2.765  0.5737  1.8965  2.1699
14825TIP3    H244433   1.549   3.662   2.812  0.6872  1.2159  0.8806
14826TIP3   OH244434   1.113   3.779   1.154  0.3329  0.1475  0.2232
14826TIP3    H144435   1.093   3.861   1.108  2.1148  0.4287 -0.0620
14826TIP3    H244436   1.085   3.710   1.093 -0.3772  0.5347  0.1075
14827TIP3   OH244437   6.498   6.606   6.703  0.5037  0.5327  0.4703
14827TIP3    H144438   6.504   6.517   6.669  0.0051  1.0165 -0.9432
14827TIP3    H244439   6.427   6.646   6.652  2.4873  2.5527 -0.7830
14828TIP3   OH244440   2.690   3.757   0.743 -0.0015  0.2931 -0.0796
14828TIP3    H144441   2.780   3.730   0.759  0.0760  0.7220  0.1938
14828TIP3    H244442   2.697   3.841   0.698 -0.2547  0.0828 -0.5160
14829TIP3   OH244443   6.351   0.731   6.052 -0.0074  0.3356 -0.0682
14829TIP3    H144444   6.307   0.739   5.967 -0.9369  0.6681  0.4327
14829TIP3    H244445   6.298   0.785   6.111  1.1819  0.8592  0.5185
14830TIP3   OH244446   6.203   3.838   6.383  0.0840  0.3118 -0.5920
14830TIP3    H144447   6.129   3.883   6.424 -0.4381 -0.9690 -0.0969
14830TIP3    H244448   6.174   3.747   6.375  1.8429 -0.3520  0.2314
14831TIP3   OH244449   5.078   0.827   5.931  0.0439  0.1850  0.3286
14831TIP3    H144450   4.998   0.844   5.981 -0.9378 -1.6336 -0.5553
14831TIP3    H244451   5.078   0.895   5.863 -0.8231  0.1378  0.2699
14832TIP3   OH244452   2.863   0.455   3.438  0.4193 -0.1672 -0.0836
14832TIP3    H144453   2.837   0.536   3.483  1.1077  0.0310 -0.0423
14832TIP3    H244454   2.800   0.390   3.468 -0.0535  0.3214 -0.0026
14833TIP3   OH244455   5.494   6.982   6.083 -0.4493 -0.2471  0.4377
14833TIP3    H144456   5.494   6.906   6.141  0.6526  1.0057  2.0951
14833TIP3    H244457   5.533   6.949   6.002 -1.2847 -1.7983  0.6344
14834TIP3   OH244458   0.230   1.489   5.915 -0.0311 -0.2822  0.3778
14834TIP3    H144459   0.317   1.477   5.878 -0.1077 -1.6521  0.6198
14834TIP3    H244460   0.208   1.580   5.894  2.4475  0.8718  2.4052
14835TIP3   OH244461   7.775   2.241   4.882  0.0463 -0.7734 -0.4714
14835TIP3    H144462   7.712   2.187   4.928  0.4786 -1.2319 -0.4211
14835TIP3    H244463   7.739   2.330   4.888 -0.2489 -0.9325  0.1388
14836TIP3   OH244464   5.497   4.585   0.203 -0.0432 -0.5493  0.1110
14836TIP3    H144465   5.565   4.528   0.166  1.3651 -0.5299  2.5396
14836TIP3    H244466   5.433   4.525   0.241  0.8798 -0.5643  1.6935
14837TIP3   OH244467   7.154   0.310   5.373  0.0449 -0.4743  0.2624
14837TIP3    H144468   7.095   0.255   5.322  0.2568 -0.8585  0.4269
14837TIP3    H244469   7.135   0.399   5.343  1.7819 -0.8616 -2.2090
   8.50000   8.01388   6.94022   0.00000   0.00000  -2.83333   0.00000  -2.83333  -4.00694
