Title
19942
    1ASP      N    1   1.655   2.491   2.816  0.0247 -0.7206 -0.1684
    1ASP    HT1    2   1.595   2.575   2.829  1.4500  0.3305 -0.1811
    1ASP    HT2    3   1.754   2.519   2.798  0.5377 -3.2147 -1.7582
    1ASP    HT3    4   1.641   2.425   2.896 -0.9673  1.6452  1.7653
    1ASP     CA    5   1.613   2.427   2.689  0.9335 -0.6570  0.3755
    1ASP     HA    6   1.607   2.492   2.602 -3.0189 -1.5700 -0.2225
    1ASP     CB    7   1.708   2.311   2.656  0.0845 -0.1244 -0.1985
    1ASP    HB1    8   1.675   2.264   2.560  2.7199 -1.1965 -0.6734
    1ASP    HB2    9   1.716   2.231   2.732  0.2614  0.8791  0.8526
    1ASP     CG   10   1.846   2.356   2.624  0.4162  0.1646  0.3289
    1ASP    OD1   11   1.878   2.479   2.620 -0.1801 -0.5762 -0.2974
    1ASP    OD2   12   1.934   2.268   2.587  0.0734  0.0888 -0.4044
    1ASP      C   13   1.464   2.382   2.691 -0.2265  0.3213  0.7159
    1ASP      O   14   1.420   2.343   2.797  0.3285  0.5317  0.0119
    2ALA      N   15   1.391   2.377   2.583  0.8409  0.6435  0.5296
    2ALA     HN   16   1.419   2.385   2.488 -1.8560  1.6314 -0.2810
    2ALA     CA   17   1.246   2.350   2.588  0.3936 -0.2587  0.4586
    2ALA     HA   18   1.199   2.370   2.684 -1.8615  1.7068 -0.9288
    2ALA     CB   19   1.183   2.447   2.490 -0.0087 -0.4989 -0.0807
    2ALA    HB1   20   1.178   2.551   2.530 -1.8210 -0.6060  0.0828
    2ALA    HB2   21   1.084   2.410   2.457 -0.5028  0.9391 -0.2946
    2ALA    HB3   22   1.244   2.462   2.399  0.3808  1.4123  0.4465
    2ALA      C   23   1.211   2.212   2.533 -0.7291  1.4534 -0.2864
    2ALA      O   24   1.279   2.152   2.447  0.1112  0.2108 -0.4426
    3ASP      N   25   1.114   2.146   2.602 -0.2589  0.3415 -0.3918
    3ASP     HN   26   1.053   2.187   2.668  0.7784 -0.3790  1.0612
    3ASP     CA   27   1.080   2.005   2.563  0.1764 -0.5564 -0.0293
    3ASP     HA   28   1.166   1.954   2.525  2.4551  0.1712  3.6679
    3ASP     CB   29   1.031   1.918   2.681 -0.0455  0.2214 -0.2478
    3ASP    HB1   30   1.119   1.900   2.747  0.8722  0.2701 -1.4247
    3ASP    HB2   31   1.008   1.819   2.635  2.2181 -0.7160  0.4866
    3ASP     CG   32   0.919   1.971   2.769  1.0232  0.1132 -0.3589
    3ASP    OD1   33   0.901   2.092   2.790 -0.1862 -1.0933  0.5335
    3ASP    OD2   34   0.851   1.887   2.841 -0.3041 -1.1707  0.2941
    3ASP      C   35   0.976   1.998   2.451  0.8344  0.0215  0.5074
    3ASP      O   36   0.907   2.097   2.429  0.2748  0.0516  0.0063
    4GLY      N   37   0.960   1.883   2.376  0.0579  0.1783  0.0132
    4GLY     HN   38   1.021   1.805   2.392  0.8815  0.9642  0.8211
    4GLY     CA   39   0.872   1.859   2.257 -0.8932  0.8121 -0.2002
    4GLY    HA1   40   0.874   1.753   2.237  0.6063  0.7367  0.1873
    4GLY    HA2   41   0.921   1.919   2.181  3.1933 -1.7879  0.0600
    4GLY      C   42   0.729   1.912   2.263 -0.0444 -0.5519  0.5891
    4GLY      O   43   0.677   1.970   2.357 -0.2318 -0.6147 -0.0442
    5PRO      N   44   0.662   1.891   2.149 -0.4468 -0.0408 -0.1666
    5PRO     CD   45   0.712   1.822   2.027 -0.5779 -0.1625 -0.4004
    5PRO    HD1   46   0.728   1.715   2.056 -1.1108 -0.4171 -1.0245
    5PRO    HD2   47   0.808   1.870   2.000 -0.3687 -0.7694 -0.7589
    5PRO     CA   48   0.515   1.899   2.135  0.1719  0.1015 -0.1309
    5PRO     HA   49   0.494   2.004   2.127  1.0134  0.3565  0.8303
    5PRO     CB   50   0.485   1.814   2.013  0.7005 -0.3593  1.1037
    5PRO    HB1   51   0.389   1.842   1.964  0.9111 -1.2224  0.1814
    5PRO    HB2   52   0.480   1.707   2.044  0.0985 -1.0628 -1.2664
    5PRO     CG   53   0.603   1.840   1.928  0.5208  0.5843  0.4892
    5PRO    HG1   54   0.602   1.770   1.841  0.4774  2.6166 -1.2279
    5PRO    HG2   55   0.611   1.942   1.883  1.1571  0.4125  0.2062
    5PRO      C   56   0.422   1.851   2.246 -0.2022 -0.5193 -1.2204
    5PRO      O   57   0.431   1.736   2.292 -0.2276 -0.2132 -0.0670
    6GLY      N   58   0.325   1.933   2.295  0.1311  0.3887  0.5474
    6GLY     HN   59   0.322   2.025   2.257 -1.3189  1.0407  2.1193
    6GLY     CA   60   0.211   1.895   2.373  0.3952 -0.5118  0.0167
    6GLY    HA1   61   0.156   1.986   2.391 -0.3321 -0.9883  0.2244
    6GLY    HA2   62   0.242   1.852   2.467 -0.1227  1.3118  1.0721
    6GLY      C   63   0.122   1.791   2.318  1.2304  0.1552 -0.2991
    6GLY      O   64   0.158   1.710   2.235  0.3186  0.0994 -0.2987
    7ASP      N   65  -0.007   1.780   2.362 -0.6084 -0.6290 -0.5497
    7ASP     HN   66  -0.027   1.835   2.443  2.1281  0.2077 -0.3313
    7ASP     CA   67  -0.105   1.685   2.317  0.4174  0.3661 -0.7539
    7ASP     HA   68  -0.050   1.595   2.297  2.2123  1.4401 -0.9227
    7ASP     CB   69  -0.220   1.663   2.432 -0.3027  0.2031  0.0332
    7ASP    HB1   70  -0.309   1.610   2.391  1.3750 -2.6784 -0.1464
    7ASP    HB2   71  -0.237   1.767   2.466 -1.3937  0.3081 -0.7715
    7ASP     CG   72  -0.166   1.574   2.543  0.0108  0.7367  0.5292
    7ASP    OD1   73  -0.223   1.587   2.654  0.2509 -0.4216 -0.6000
    7ASP    OD2   74  -0.083   1.483   2.520  0.3280 -0.1380 -0.0710
    7ASP      C   75  -0.170   1.747   2.193 -0.2072 -0.2338 -0.4821
    7ASP      O   76  -0.194   1.868   2.191  0.0776 -0.4074  0.0363
    8PRO      N   77  -0.182   1.669   2.086  0.6570  0.4349  0.0091
    8PRO     CD   78  -0.159   1.521   2.087  0.2317 -0.4175  0.2986
    8PRO    HD1   79  -0.208   1.467   2.171 -0.3726  2.1111  1.6886
    8PRO    HD2   80  -0.051   1.511   2.109  0.2680  0.5674  0.6212
    8PRO     CA   81  -0.197   1.719   1.951  0.1203  0.1694 -0.3222
    8PRO     HA   82  -0.120   1.790   1.925 -0.6348  0.8897 -0.6285
    8PRO     CB   83  -0.173   1.596   1.859 -0.0653 -0.0001  0.0471
    8PRO    HB1   84  -0.064   1.588   1.837 -0.2714 -0.4088 -0.8663
    8PRO    HB2   85  -0.228   1.592   1.763  0.5924  1.3743 -0.4132
    8PRO     CG   86  -0.208   1.475   1.946  0.3906 -0.5081 -0.3280
    8PRO    HG1   87  -0.316   1.454   1.957  0.3287  0.9958  3.1070
    8PRO    HG2   88  -0.158   1.383   1.909  2.4970  0.2066  0.5426
    8PRO      C   89  -0.332   1.780   1.938  0.5239  0.1269  0.2566
    8PRO      O   90  -0.353   1.882   1.876  0.1836  0.2850 -0.1089
    9ASP      N   91  -0.428   1.708   2.004 -0.4976 -1.1143  0.1776
    9ASP     HN   92  -0.398   1.621   2.041 -0.2330 -0.2668  2.0755
    9ASP     CA   93  -0.565   1.748   2.020  0.0933  0.6435 -0.2847
    9ASP     HA   94  -0.603   1.780   1.924  1.1361 -1.0555 -1.3186
    9ASP     CB   95  -0.658   1.624   2.056  0.3403 -0.2458  0.2875
    9ASP    HB1   96  -0.764   1.653   2.074 -0.1827 -2.3782  0.9823
    9ASP    HB2   97  -0.630   1.566   2.147  1.8184  1.6853  1.1182
    9ASP     CG   98  -0.661   1.526   1.927 -0.4660 -0.9334 -1.5274
    9ASP    OD1   99  -0.703   1.415   1.943  0.8527  0.3751  0.2408
    9ASP    OD2  100  -0.633   1.571   1.811 -0.8167 -0.1368  0.3911
    9ASP      C  101  -0.587   1.856   2.130  0.5473 -0.0442 -0.6031
    9ASP      O  102  -0.554   1.835   2.248  0.4445 -0.0448  0.0325
   10ALA      N  103  -0.647   1.971   2.097  0.1976  0.0041  0.3820
   10ALA     HN  104  -0.662   1.996   2.002  1.6479 -0.4574  0.0054
   10ALA     CA  105  -0.668   2.088   2.180  0.1293  0.3455  0.2877
   10ALA     HA  106  -0.564   2.116   2.191  0.2782  0.1040 -0.4332
   10ALA     CB  107  -0.729   2.199   2.089  0.0358  0.1746 -0.2914
   10ALA    HB1  108  -0.735   2.295   2.144  0.9235  0.8092 -1.2810
   10ALA    HB2  109  -0.830   2.179   2.048 -0.6197  0.8890  0.9020
   10ALA    HB3  110  -0.659   2.212   2.004  0.5892  1.0254  0.2731
   10ALA      C  111  -0.735   2.075   2.311 -0.1592  0.4268 -0.5466
   10ALA      O  112  -0.827   1.995   2.316  0.0800  0.0020 -0.1820
   11GLY      N  113  -0.704   2.160   2.415 -0.4045  0.3348  0.2295
   11GLY     HN  114  -0.627   2.221   2.399 -2.5875  2.7516 -1.8493
   11GLY     CA  115  -0.759   2.153   2.542  0.1320  0.0193  1.4903
   11GLY    HA1  116  -0.863   2.124   2.541  0.1130  0.0367  0.2553
   11GLY    HA2  117  -0.763   2.258   2.564 -0.5050  1.1129 -2.9089
   11GLY      C  118  -0.692   2.070   2.645  0.4478 -0.1754  0.0043
   11GLY    OT1  119  -0.751   1.968   2.691 -0.0568  0.2843  0.0316
   11GLY    OT2  120  -0.574   2.097   2.686 -0.7222  0.2067 -0.1991
   12LIT    LIT  121   5.265   4.665   1.532 -0.0391 -0.2337  0.2408
   13LIT    LIT  122   4.585   3.403   3.298 -1.0864  1.0224 -0.0182
   14LIT    LIT  123   0.351   0.394   4.795  0.3375 -0.2465  0.3959
   15LIT    LIT  124   3.780   3.968   4.528 -0.2478 -0.1234 -1.0515
   16LIT    LIT  125   4.780   1.598   4.664  0.8127  0.3194  1.1864
   17LIT    LIT  126   3.771   1.223   0.478  0.7652 -0.4055 -0.4477
   18LIT    LIT  127   4.643   5.431   5.061 -0.3286  0.6410  0.1406
   19LIT    LIT  128   5.634   1.410   1.742 -0.4582 -0.4464  1.1163
   20LIT    LIT  129   4.489   3.043   4.923 -0.6550  0.5375 -0.1712
   21LIT    LIT  130   1.786   1.227   1.608 -0.7102 -0.6124  0.2316
   22LIT    LIT  131   0.082   5.961   4.842  0.7497  0.4018 -0.1461
   23LIT    LIT  132   2.800   1.885   2.064  0.0846 -0.0714 -0.1856
   24LIT    LIT  133   5.700   1.193   3.543 -0.0335 -0.3281 -0.0991
   25LIT    LIT  134   0.548   0.982   4.251  0.2638 -1.6030 -1.1344
   26LIT    LIT  135   1.804   0.427   2.201  0.5314  0.4010  0.2308
   27LIT    LIT  136   2.700   5.655   1.831  0.1008 -0.1425 -0.3060
   28LIT    LIT  137   0.797   2.047   2.961  0.0265 -0.1147  0.5749
   29LIT    LIT  138   3.920   0.936   2.965  0.5729 -0.0359  0.2793
   30LIT    LIT  139   3.153   4.724   0.380  0.5109  0.3032 -1.0989
   31LIT    LIT  140   1.979   1.698   2.360 -0.2033  1.1701  0.1515
   32LIT    LIT  141   1.758   4.727   0.956 -0.2315 -0.6867 -0.4833
   33LIT    LIT  142   5.238   1.227   3.901 -0.3505 -0.6838  0.6169
   34CLA    CLA  143   0.459   5.048   1.189 -0.0032 -0.1716 -0.1545
   35CLA    CLA  144   4.094   4.260   5.117 -0.0303  0.2889 -0.2731
   36CLA    CLA  145   5.924   2.521   4.660 -0.0720 -0.3747 -0.1251
   37CLA    CLA  146   4.185   2.547   3.714 -0.0977 -0.2870 -0.2838
   38CLA    CLA  147   3.703   1.563   3.787  0.0633 -0.2227 -0.1827
   39CLA    CLA  148   2.190   4.548   3.964  0.1170  0.1222 -0.1910
   40CLA    CLA  149   0.564   5.693   4.422  0.0803 -0.6172 -0.0344
   41CLA    CLA  150   4.734   0.554   1.676  0.0762  0.3830  0.0348
   42CLA    CLA  151   4.624   0.103   2.102  0.0496 -0.1915 -0.1694
   43CLA    CLA  152   2.400   4.339   2.733  0.0111 -0.0354 -0.2567
   44CLA    CLA  153   3.595   0.940   3.922 -0.4396  0.4540  0.1184
   45CLA    CLA  154   2.378   1.676   4.647  0.0007 -0.3698 -0.6231
   46CLA    CLA  155   3.106   2.179   1.602 -0.0189  0.3274 -0.1087
   47CLA    CLA  156   2.900   4.732   2.198  0.5633  0.0275  0.3864
   48CLA    CLA  157   4.944   3.634   3.112 -0.0228 -0.0934  0.4294
   49CLA    CLA  158   0.990   3.043   1.224  0.2620 -0.0765  0.2497
   50CLA    CLA  159   1.426   0.642   3.519 -0.3941  0.2360  0.3496
   51CLA    CLA  160   3.614   4.120   4.590  0.2138  0.0744  0.0712
   52TIP3   OH2  161   1.274   1.428   3.102  0.0271  0.2705 -0.0279
   52TIP3    H1  162   1.258   1.390   3.188  0.0945  0.0570 -0.1100
   52TIP3    H2  163   1.366   1.454   3.103  0.0732  0.1115 -0.0959
   53TIP3   OH2  164   4.629   5.456   1.872  0.4838  0.2327  0.0111
   53TIP3    H1  165   4.632   5.544   1.834 -0.3485  1.1789  2.0180
   53TIP3    H2  166   4.603   5.469   1.963  1.7948 -1.9882  0.7924
   54TIP3   OH2  167   3.769   2.047   2.946 -0.7187  0.0295  0.0847
   54TIP3    H1  168   3.693   1.990   2.955 -0.6594 -0.2198 -0.8861
   54TIP3    H2  169   3.844   1.989   2.960 -0.6727 -0.0267 -0.3810
   55TIP3   OH2  170   2.590   3.161   3.808  0.1181  1.0859  0.1488
   55TIP3    H1  171   2.581   3.254   3.788 -1.0452  1.4321  2.0633
   55TIP3    H2  172   2.502   3.125   3.796  0.9324 -0.2620 -2.5605
   56TIP3   OH2  173   5.297   4.365   2.345  0.0261  0.3961  0.4727
   56TIP3    H1  174   5.246   4.349   2.424 -1.0051 -0.1762 -0.2768
   56TIP3    H2  175   5.383   4.326   2.363 -0.7344 -1.2774  0.6894
   57TIP3   OH2  176   4.940   1.127   4.759  0.1288 -0.3249  0.0171
   57TIP3    H1  177   4.922   1.162   4.846  0.9346  0.4116 -0.0976
   57TIP3    H2  178   4.853   1.118   4.719 -0.2032 -0.0081  0.6435
   58TIP3   OH2  179   3.309   4.153   2.231 -0.7310 -0.3354 -0.2773
   58TIP3    H1  180   3.307   4.247   2.247  0.7244 -0.4374  0.7505
   58TIP3    H2  181   3.356   4.145   2.147 -1.2747 -0.1374 -0.6062
   59TIP3   OH2  182   1.156   3.277   1.372  0.9447  0.7654 -0.2886
   59TIP3    H1  183   1.097   3.218   1.325  1.7913 -0.4369  0.1382
   59TIP3    H2  184   1.098   3.344   1.409  0.0738  0.7673 -1.5643
   60TIP3   OH2  185   5.915   3.776   1.062  0.4497 -0.0414  0.1511
   60TIP3    H1  186   5.974   3.700   1.058 -0.3107 -0.6007 -0.7909
   60TIP3    H2  187   5.880   3.785   0.973 -1.7611 -0.4409  0.9161
   61TIP3   OH2  188   0.255   1.553   2.037 -0.1973 -0.6595  0.2158
   61TIP3    H1  189   0.235   1.632   2.087  1.6122 -0.0256 -0.0006
   61TIP3    H2  190   0.202   1.485   2.078  0.7993 -0.0527  2.6756
   62TIP3   OH2  191   3.367   0.889   1.016 -0.1268  0.6029 -0.8275
   62TIP3    H1  192   3.441   0.897   1.076 -2.1290  1.3694  1.7433
   62TIP3    H2  193   3.329   0.803   1.036 -1.2931  1.2029 -0.3602
   63TIP3   OH2  194   0.127   3.229   4.912  0.1032 -0.1809  0.1521
   63TIP3    H1  195   0.101   3.138   4.925 -0.8315 -0.1905 -1.4907
   63TIP3    H2  196   0.223   3.227   4.919  0.0319 -1.0709  1.2233
   64TIP3   OH2  197   1.654   0.064   1.001  0.5839 -0.3622 -0.6586
   64TIP3    H1  198   1.595   0.124   1.047  0.2317 -0.5226 -0.8940
   64TIP3    H2  199   1.635   0.079   0.908  1.1008 -0.2281 -0.7411
   65TIP3   OH2  200   1.664   1.165   2.375  0.1618 -0.2062  0.1313
   65TIP3    H1  201   1.626   1.119   2.450 -0.6242  2.2165  1.3283
   65TIP3    H2  202   1.588   1.197   2.325  0.6360  0.6358 -0.0894
   66TIP3   OH2  203   5.848   0.127   1.224  0.1238  0.1354  0.0162
   66TIP3    H1  204   5.768   0.137   1.174  0.4433  0.3719 -0.4598
   66TIP3    H2  205   5.841   0.192   1.294  0.3337  0.8481 -0.6112
   67TIP3   OH2  206   1.890   5.000   4.594  0.7984  0.5823  0.3702
   67TIP3    H1  207   1.896   5.007   4.690 -0.1209  0.0517  0.4784
   67TIP3    H2  208   1.806   5.040   4.573 -0.3846 -1.8890  0.1075
   68TIP3   OH2  209   0.271   0.784   0.224  0.6259  0.1094  0.1703
   68TIP3    H1  210   0.337   0.766   0.156  1.1396  1.2225  0.3637
   68TIP3    H2  211   0.245   0.875   0.210 -0.5351 -0.1717  0.3974
   69TIP3   OH2  212   0.624   1.472   1.740 -0.1564  0.3943  0.2719
   69TIP3    H1  213   0.573   1.455   1.819  0.4808  0.4861  0.7073
   69TIP3    H2  214   0.559   1.498   1.675 -0.6220  0.9990  0.9587
   70TIP3   OH2  215   0.626   4.886   3.103 -0.0060  0.0176 -0.1027
   70TIP3    H1  216   0.646   4.979   3.104  1.4854 -0.2845 -0.3011
   70TIP3    H2  217   0.543   4.879   3.151 -0.3003  1.4608 -0.3566
   71TIP3   OH2  218   3.266   5.977   3.759 -0.0222 -0.3036 -0.2030
   71TIP3    H1  219   3.275   5.906   3.695  2.0557 -0.3469  0.0756
   71TIP3    H2  220   3.323   5.952   3.832  1.1093  1.8161 -0.2749
   72TIP3   OH2  221   4.842   1.447   3.080  0.1366 -0.5037  0.1853
   72TIP3    H1  222   4.779   1.394   3.031  0.8960 -1.1987 -0.0566
   72TIP3    H2  223   4.909   1.385   3.108 -0.2823 -0.1266  2.1581
   73TIP3   OH2  224   0.127   3.132   0.965  0.3532 -0.2536  0.5919
   73TIP3    H1  225   0.069   3.111   1.038  0.1745  0.4596  0.6586
   73TIP3    H2  226   0.188   3.196   1.000  0.9190 -0.6779  0.3970
   74TIP3   OH2  227   4.843   3.762   2.231 -0.0208  0.6346 -0.0791
   74TIP3    H1  228   4.824   3.734   2.321  0.7412  0.6882  0.1066
   74TIP3    H2  229   4.829   3.857   2.231 -0.4869  0.5682 -0.1453
   75TIP3   OH2  230   1.371   5.793   2.780 -0.7900 -0.3997 -0.2671
   75TIP3    H1  231   1.408   5.828   2.698  0.2907  0.9010  0.7152
   75TIP3    H2  232   1.340   5.870   2.827 -0.8775 -1.0616  0.7937
   76TIP3   OH2  233   0.539   4.257   3.897  0.4103 -0.1036  0.1971
   76TIP3    H1  234   0.514   4.232   3.986  0.5240  0.1294  0.2975
   76TIP3    H2  235   0.466   4.229   3.842 -0.1246  0.6644  0.4986
   77TIP3   OH2  236   1.285   4.302   1.563  0.3796  0.6405 -0.1782
   77TIP3    H1  237   1.357   4.264   1.512 -0.3031 -1.3495  0.2504
   77TIP3    H2  238   1.273   4.389   1.526  1.2734  0.0297 -2.0301
   78TIP3   OH2  239   1.590   1.715   1.060 -0.2178  0.3537  0.0580
   78TIP3    H1  240   1.585   1.775   0.986 -0.3142  0.3227  0.0384
   78TIP3    H2  241   1.499   1.709   1.092 -0.2357  0.0945 -0.0399
   79TIP3   OH2  242   3.659   0.587   0.714 -0.1947 -0.0910  0.2413
   79TIP3    H1  243   3.640   0.658   0.654  0.0189 -0.6754 -0.5249
   79TIP3    H2  244   3.574   0.565   0.753 -0.5344 -0.4951 -0.7207
   80TIP3   OH2  245   5.087   5.030   3.924  0.6616  0.5232 -0.0472
   80TIP3    H1  246   5.101   5.104   3.983 -1.9175 -0.3184  1.7997
   80TIP3    H2  247   5.139   4.959   3.963  1.8409  0.8914 -0.9006
   81TIP3   OH2  248   5.772   5.193   0.985  0.4398 -0.3392 -0.2337
   81TIP3    H1  249   5.792   5.133   1.057  0.3533  0.5112  0.5356
   81TIP3    H2  250   5.845   5.183   0.924  1.2598 -0.0608  0.6693
   82TIP3   OH2  251   1.591   2.736   3.133  0.1849  0.0009 -0.0112
   82TIP3    H1  252   1.527   2.776   3.193  0.5218 -0.5126  0.7038
   82TIP3    H2  253   1.656   2.696   3.191  1.7248  1.3886 -0.7307
   83TIP3   OH2  254   4.354   0.047   0.280 -0.1444 -0.4826  0.0774
   83TIP3    H1  255   4.386   0.065   0.369  2.0377 -0.4506 -0.6620
   83TIP3    H2  256   4.262   0.072   0.283 -0.3478 -1.1954  2.5340
   84TIP3   OH2  257   5.087   4.798   1.191  0.4206 -0.0657 -0.0366
   84TIP3    H1  258   5.094   4.780   1.098  0.6334  0.6908 -0.1711
   84TIP3    H2  259   5.128   4.884   1.203  1.0280 -0.4543  0.8603
   85TIP3   OH2  260   2.257   4.092   1.159 -0.3601 -0.6327 -0.2896
   85TIP3    H1  261   2.262   4.099   1.064 -1.2646 -0.7961 -0.3627
   85TIP3    H2  262   2.338   4.132   1.191  0.4674 -1.5563 -1.1640
   86TIP3   OH2  263   3.582   1.823   4.472  0.0133  0.4850 -0.0227
   86TIP3    H1  264   3.586   1.879   4.550 -0.8924  0.7818 -0.1724
   86TIP3    H2  265   3.650   1.757   4.486  1.3815  1.8443 -0.0192
   87TIP3   OH2  266   3.814   5.908   4.006  0.0297 -0.3190  0.2867
   87TIP3    H1  267   3.739   5.960   4.034 -0.9381 -1.0879 -0.7750
   87TIP3    H2  268   3.876   5.913   4.079 -0.8156  0.7798  0.9523
   88TIP3   OH2  269   3.849   4.746   2.448  0.0805  0.0324 -0.5560
   88TIP3    H1  270   3.923   4.804   2.428  2.7100 -2.7350  0.3837
   88TIP3    H2  271   3.854   4.734   2.543 -1.6744 -0.1879 -0.4635
   89TIP3   OH2  272   3.215   5.609   2.598 -0.3540  0.9642  0.4816
   89TIP3    H1  273   3.210   5.687   2.544 -1.3789  0.1340 -0.6698
   89TIP3    H2  274   3.150   5.549   2.561  2.2625 -1.5403 -0.4466
   90TIP3   OH2  275   3.691   2.385   0.473  0.3906  0.3907 -0.0927
   90TIP3    H1  276   3.745   2.371   0.551 -1.0405 -0.6759  0.7433
   90TIP3    H2  277   3.720   2.317   0.412 -0.5557 -0.7375  0.6786
   91TIP3   OH2  278   3.483   5.597   3.188 -0.5988  0.0057  0.7344
   91TIP3    H1  279   3.463   5.684   3.153  1.2035 -0.2830 -1.1802
   91TIP3    H2  280   3.489   5.540   3.111 -2.2882 -1.9941  1.9772
   92TIP3   OH2  281   0.775   1.567   2.470 -0.1633  0.0653 -0.8290
   92TIP3    H1  282   0.739   1.479   2.482  1.4492 -0.4499  0.6676
   92TIP3    H2  283   0.755   1.612   2.552  0.6685  0.4565 -0.8288
   93TIP3   OH2  284   4.965   0.718   2.131 -0.3061  0.4798 -0.2360
   93TIP3    H1  285   5.043   0.752   2.088  2.0696 -0.6175  2.8052
   93TIP3    H2  286   4.937   0.645   2.075  1.7623 -0.0354 -0.6845
   94TIP3   OH2  287   5.888   3.574   2.341 -0.6695  0.8906  0.7271
   94TIP3    H1  288   5.796   3.591   2.321 -0.8833  1.1205  1.8470
   94TIP3    H2  289   5.890   3.483   2.371 -0.3387  0.5277 -0.3114
   95TIP3   OH2  290   1.439   0.967   3.543 -0.1758  0.4733 -0.0956
   95TIP3    H1  291   1.415   0.876   3.525  0.6159  0.4077 -0.8571
   95TIP3    H2  292   1.391   0.988   3.623 -1.5554 -0.1309 -0.7308
   96TIP3   OH2  293   5.452   3.750   4.527 -0.7105  0.1296 -0.4516
   96TIP3    H1  294   5.461   3.780   4.617  0.9330 -0.9695 -0.2066
   96TIP3    H2  295   5.364   3.711   4.523 -0.5165 -0.4767  0.8761
   97TIP3   OH2  296   1.187   1.848   4.104  0.0443 -0.0611  0.0288
   97TIP3    H1  297   1.194   1.943   4.102 -1.3254  0.0449 -1.2382
   97TIP3    H2  298   1.277   1.817   4.111  0.4475  1.3153  1.6538
   98TIP3   OH2  299   2.151   1.328   3.058  0.1549  0.4710 -0.4615
   98TIP3    H1  300   2.083   1.270   3.022 -0.7848  0.2590  1.5305
   98TIP3    H2  301   2.103   1.402   3.094  0.6604 -0.6725  2.9080
   99TIP3   OH2  302   5.992   5.214   3.797  0.0421  0.7453  0.0855
   99TIP3    H1  303   6.008   5.269   3.720  3.3894  1.1979  0.9748
   99TIP3    H2  304   6.005   5.124   3.765  0.1115  0.8384 -0.1528
  100TIP3   OH2  305   2.554   0.929   0.172 -0.0046  0.2187 -0.4602
  100TIP3    H1  306   2.461   0.910   0.160 -0.4056 -0.8284  3.0489
  100TIP3    H2  307   2.599   0.868   0.114 -1.4819 -0.1108 -1.3097
  101TIP3   OH2  308   5.736   2.912   2.590 -0.7266  0.0606 -0.1324
  101TIP3    H1  309   5.767   2.993   2.631  0.0708 -0.4039  0.2043
  101TIP3    H2  310   5.814   2.858   2.580 -1.1927 -0.5371 -0.6741
  102TIP3   OH2  311   6.069   5.473   3.672 -0.1466  0.1611 -0.1017
  102TIP3    H1  312   6.045   5.433   3.588  0.2074 -0.6891  0.1918
  102TIP3    H2  313   6.021   5.556   3.674 -0.8907 -0.2473 -0.7238
  103TIP3   OH2  314   2.726   0.981   3.022 -0.5179 -0.6972 -0.1376
  103TIP3    H1  315   2.695   0.937   2.942 -2.4809 -0.3047  0.3461
  103TIP3    H2  316   2.800   0.928   3.052 -1.6628 -2.6390 -0.5684
  104TIP3   OH2  317   3.432   0.336   1.050 -0.1598  0.1362  0.1748
  104TIP3    H1  318   3.408   0.254   1.006  2.7461 -2.2564  2.5692
  104TIP3    H2  319   3.382   0.334   1.132  0.9972 -0.0587  0.8999
  105TIP3   OH2  320   2.647   3.332   0.607  0.2535 -0.1023 -0.4678
  105TIP3    H1  321   2.684   3.386   0.677  1.8913  1.4041 -2.3725
  105TIP3    H2  322   2.704   3.255   0.604  2.4645  1.4562 -2.3131
  106TIP3   OH2  323   5.247   2.487   4.041  0.2576 -0.7549  0.3969
  106TIP3    H1  324   5.258   2.404   4.088  0.1862 -0.8324  0.2788
  106TIP3    H2  325   5.192   2.540   4.099 -0.7091 -1.2346 -0.0545
  107TIP3   OH2  326   2.849   0.557   0.626  0.4154  0.3273 -0.2029
  107TIP3    H1  327   2.819   0.605   0.549 -1.9414  0.5266  0.7469
  107TIP3    H2  328   2.771   0.546   0.680  1.3918 -2.2778  0.8781
  108TIP3   OH2  329   0.835   2.690   0.369  0.2472 -0.1764  0.3425
  108TIP3    H1  330   0.831   2.690   0.273  0.3155  0.3009  0.3354
  108TIP3    H2  331   0.918   2.733   0.389  0.1426 -0.1013  0.6178
  109TIP3   OH2  332   2.972   4.385   3.875 -0.6593  0.1820  0.3934
  109TIP3    H1  333   3.035   4.358   3.942  0.5674  0.9981 -0.4068
  109TIP3    H2  334   3.014   4.458   3.830 -1.7512  0.0954 -0.8210
  110TIP3   OH2  335   2.725   1.136   0.300 -0.3489 -0.4135  0.1283
  110TIP3    H1  336   2.677   1.083   0.237  0.8712 -1.6421  0.1954
  110TIP3    H2  337   2.759   1.073   0.364  1.1377  0.4323  0.2071
  111TIP3   OH2  338   3.284   1.023   2.586 -0.4444  0.6896  0.2074
  111TIP3    H1  339   3.285   0.939   2.541 -1.2358  0.4142  0.6983
  111TIP3    H2  340   3.244   1.005   2.671 -0.8646  1.6138  0.2143
  112TIP3   OH2  341   0.475   1.026   4.061 -0.1255 -0.1189 -0.0038
  112TIP3    H1  342   0.443   0.954   4.007  1.0538 -0.6523 -0.0201
  112TIP3    H2  343   0.443   1.105   4.017  0.7147 -0.5421 -1.4657
  113TIP3   OH2  344   5.612   0.166   0.344 -0.0129 -0.0121 -0.3585
  113TIP3    H1  345   5.662   0.105   0.290 -1.7050 -0.3117 -1.6483
  113TIP3    H2  346   5.530   0.121   0.362 -0.7799  1.3638 -0.2529
  114TIP3   OH2  347   3.671   2.732   1.097  0.1308 -0.3582 -0.3199
  114TIP3    H1  348   3.647   2.765   1.184 -1.9327 -1.7181 -0.2973
  114TIP3    H2  349   3.704   2.643   1.114  0.4330 -0.3542 -0.8613
  115TIP3   OH2  350   4.056   4.491   1.109  0.0770  0.2240 -0.3575
  115TIP3    H1  351   4.119   4.420   1.099  0.1277  0.3095 -0.6348
  115TIP3    H2  352   3.979   4.449   1.148 -0.4508 -0.2941 -1.8671
  116TIP3   OH2  353   4.675   4.412   0.397 -0.1163 -0.3886 -0.3288
  116TIP3    H1  354   4.692   4.444   0.308 -1.0439  1.8734  0.2416
  116TIP3    H2  355   4.722   4.328   0.401  0.5864 -0.1949 -2.6786
  117TIP3   OH2  356   0.172   5.332   3.721  0.3950  0.3077  0.5454
  117TIP3    H1  357   0.204   5.384   3.648 -1.0417 -0.6877 -0.8405
  117TIP3    H2  358   0.107   5.388   3.764 -1.5940 -0.4471 -1.3008
  118TIP3   OH2  359   5.962   5.081   4.239 -0.5073 -0.4587 -0.1112
  118TIP3    H1  360   6.051   5.059   4.265  0.9050  2.6828 -1.7544
  118TIP3    H2  361   5.935   5.008   4.184  1.0691 -1.4184  0.3074
  119TIP3   OH2  362   3.261   1.598   3.675 -0.1941  0.0418 -0.1602
  119TIP3    H1  363   3.285   1.558   3.592  1.0672 -0.1378  0.2752
  119TIP3    H2  364   3.324   1.669   3.688 -1.1372  0.8590  0.0653
  120TIP3   OH2  365   4.342   4.994   1.137 -0.1394 -0.7054 -0.1649
  120TIP3    H1  366   4.419   5.051   1.145  0.0425 -1.0121  0.3010
  120TIP3    H2  367   4.325   4.964   1.226 -1.9484  0.8420  0.0680
  121TIP3   OH2  368   1.904   1.735   3.912  0.2942  0.5323  0.1371
  121TIP3    H1  369   1.954   1.668   3.865  1.8855  2.1861 -0.6454
  121TIP3    H2  370   1.960   1.812   3.910 -1.9806  2.2763 -0.0667
  122TIP3   OH2  371   4.766   3.419   0.803 -0.4464 -0.0018  0.0144
  122TIP3    H1  372   4.820   3.457   0.734 -1.2485  0.1758 -0.5186
  122TIP3    H2  373   4.679   3.454   0.789 -0.9759 -1.1969  0.1533
  123TIP3   OH2  374   0.502   2.391   1.538 -0.4260  0.1107 -0.4904
  123TIP3    H1  375   0.522   2.328   1.608  0.9351 -0.0185 -0.9767
  123TIP3    H2  376   0.502   2.476   1.582  1.1174  0.1038 -0.4210
  124TIP3   OH2  377   1.700   0.970   4.843  0.7453  0.0620 -0.5954
  124TIP3    H1  378   1.660   0.902   4.788  1.6959  0.6677 -2.0844
  124TIP3    H2  379   1.681   1.052   4.798  2.3813  0.4885 -0.5670
  125TIP3   OH2  380   1.214   3.901   4.365  0.2591  0.7872  0.3339
  125TIP3    H1  381   1.233   3.896   4.458 -1.8426 -1.3067  0.7268
  125TIP3    H2  382   1.167   3.984   4.354  0.4467  1.0055  1.1251
  126TIP3   OH2  383   3.758   1.065   3.341 -0.4983  0.4265  0.5917
  126TIP3    H1  384   3.747   1.154   3.306 -0.4543 -0.1590 -1.0146
  126TIP3    H2  385   3.852   1.058   3.357 -0.5696  0.8334  1.2211
  127TIP3   OH2  386   3.273   3.788   1.259  0.3384 -0.0204  0.5459
  127TIP3    H1  387   3.283   3.719   1.194 -2.0108 -0.6831  0.7844
  127TIP3    H2  388   3.236   3.743   1.336 -0.1915  1.3005  1.0946
  128TIP3   OH2  389   4.068   2.372   2.753 -0.1514  0.0175  0.2333
  128TIP3    H1  390   4.164   2.370   2.743 -0.2873  1.8353 -2.5921
  128TIP3    H2  391   4.054   2.394   2.846  2.1324 -0.8273  0.8461
  129TIP3   OH2  392   6.228   3.849   1.698 -0.1294 -0.2185 -0.0337
  129TIP3    H1  393   6.214   3.808   1.783 -2.7375  3.0332  1.3503
  129TIP3    H2  394   6.208   3.941   1.713 -0.4581  0.5497 -4.1207
  130TIP3   OH2  395   1.683   2.590   4.347 -0.1010  0.2429  0.1486
  130TIP3    H1  396   1.597   2.623   4.371 -0.4052  0.1996 -0.8158
  130TIP3    H2  397   1.712   2.538   4.422 -0.6719  0.7060  0.6974
  131TIP3   OH2  398   5.403   4.111   5.032 -0.3211 -0.3873  1.0131
  131TIP3    H1  399   5.341   4.144   4.967 -1.6398 -0.7053  2.0780
  131TIP3    H2  400   5.378   4.020   5.045  0.3267 -0.4981  1.5197
  132TIP3   OH2  401   3.914   3.477   2.087  0.7112 -0.8010  0.7163
  132TIP3    H1  402   3.976   3.547   2.068  0.2480 -1.1574 -2.9058
  132TIP3    H2  403   3.960   3.397   2.061 -0.2823 -1.3559  0.6354
  133TIP3   OH2  404   5.355   5.696   2.584  0.1795 -0.4177 -0.3955
  133TIP3    H1  405   5.320   5.783   2.605  0.4392  0.1422 -2.1204
  133TIP3    H2  406   5.320   5.639   2.652  0.1579  1.0670  0.8835
  134TIP3   OH2  407   2.999   5.106   3.871  0.2817 -0.5099  0.5004
  134TIP3    H1  408   3.012   5.076   3.961  0.9894 -2.7140 -0.2659
  134TIP3    H2  409   3.084   5.142   3.846  0.0140  0.3316  0.7696
  135TIP3   OH2  410   5.895   2.049   5.079 -0.3797 -0.3569  0.3601
  135TIP3    H1  411   5.947   1.969   5.083 -0.2466 -0.2406  1.4709
  135TIP3    H2  412   5.832   2.035   5.009 -0.4227 -1.4727  0.6132
  136TIP3   OH2  413   3.344   2.456   3.291 -0.4910 -0.4804  0.3433
  136TIP3    H1  414   3.330   2.550   3.301 -0.7477 -0.4773 -0.0081
  136TIP3    H2  415   3.386   2.429   3.372 -0.8860 -0.1511  0.6602
  137TIP3   OH2  416   3.390   4.541   4.798 -0.5555 -0.1691 -0.3779
  137TIP3    H1  417   3.367   4.449   4.815  0.8766 -0.2570  1.3132
  137TIP3    H2  418   3.378   4.585   4.882 -2.8000  1.6208 -1.5041
  138TIP3   OH2  419   5.259   5.294   2.318 -0.3289  0.3115  0.6537
  138TIP3    H1  420   5.241   5.281   2.225  2.4986 -0.5747  0.1375
  138TIP3    H2  421   5.238   5.386   2.334 -0.0534  0.7155 -1.0920
  139TIP3   OH2  422   0.152   2.770   3.427  0.1567 -0.3736 -0.5613
  139TIP3    H1  423   0.104   2.835   3.376  0.5190  2.1620  2.0002
  139TIP3    H2  424   0.086   2.733   3.487  0.7052  0.8481  0.8621
  140TIP3   OH2  425   3.889   1.238   5.083  0.1419 -0.0706 -0.5477
  140TIP3    H1  426   3.799   1.265   5.098  0.3193 -0.1416  0.6894
  140TIP3    H2  427   3.898   1.155   5.129  1.3032  0.7447  0.7735
  141TIP3   OH2  428   5.006   4.884   0.679 -0.0580  0.1118  0.6830
  141TIP3    H1  429   4.918   4.851   0.697 -0.3410  0.9298  0.8528
  141TIP3    H2  430   5.009   4.896   0.584  0.1017 -0.5439  0.6034
  142TIP3   OH2  431   2.194   1.620   1.593  0.4283 -0.1941 -0.0772
  142TIP3    H1  432   2.173   1.533   1.559  0.1033 -0.7296  1.4354
  142TIP3    H2  433   2.284   1.612   1.626  0.0075 -0.2869  1.0777
  143TIP3   OH2  434   5.863   5.249   1.460  0.3705  0.0117  0.8910
  143TIP3    H1  435   5.875   5.213   1.372  0.4370  1.8113  0.1115
  143TIP3    H2  436   5.927   5.320   1.465 -1.3102  1.5515  1.4366
  144TIP3   OH2  437   4.390   5.503   3.352  0.1833  0.0210  0.1868
  144TIP3    H1  438   4.453   5.540   3.290  0.5693  0.5856  0.9054
  144TIP3    H2  439   4.348   5.432   3.303  0.1464  0.7454 -0.8821
  145TIP3   OH2  440   0.930   4.102   3.348 -0.3067 -0.0759  0.7286
  145TIP3    H1  441   0.939   4.056   3.431  0.2561  1.0568  1.3200
  145TIP3    H2  442   0.997   4.171   3.351 -0.4331  0.1301 -0.5589
  146TIP3   OH2  443   1.490   3.008   3.028 -0.0705 -0.0360  0.4819
  146TIP3    H1  444   1.551   3.061   2.975  0.1682 -1.8400 -1.1429
  146TIP3    H2  445   1.545   2.939   3.065 -0.8282 -0.6521  0.4581
  147TIP3   OH2  446   2.694   2.138   0.690  0.0428 -0.7243  0.1032
  147TIP3    H1  447   2.622   2.092   0.734 -1.1538  0.4252 -0.5909
  147TIP3    H2  448   2.752   2.165   0.761  0.2771 -2.4284  0.6029
  148TIP3   OH2  449   2.340   5.362   0.552  0.8146  0.2587  0.2263
  148TIP3    H1  450   2.307   5.350   0.463 -0.3656 -1.3917  0.8296
  148TIP3    H2  451   2.426   5.319   0.552 -0.2066 -1.9130  0.4385
  149TIP3   OH2  452   2.878   4.866   4.867 -0.1553  0.4397  0.3684
  149TIP3    H1  453   2.810   4.882   4.802  0.4146 -3.1025 -1.3058
  149TIP3    H2  454   2.956   4.844   4.816  0.5068 -1.8292  2.1583
  150TIP3   OH2  455   1.447   0.050   0.270 -0.6084 -0.3074 -0.4390
  150TIP3    H1  456   1.477   0.024   0.183  0.8820 -2.2805  0.5651
  150TIP3    H2  457   1.368   0.100   0.254 -0.7451 -1.1607 -2.9044
  151TIP3   OH2  458   2.801   0.107   0.833  0.1016 -0.5888 -0.0568
  151TIP3    H1  459   2.884   0.154   0.836  0.7426 -1.6720 -0.0767
  151TIP3    H2  460   2.754   0.145   0.758  0.1270  0.7251  0.5682
  152TIP3   OH2  461   1.528   5.534   2.010  0.4012 -0.2663 -0.0697
  152TIP3    H1  462   1.529   5.463   1.945  0.9364  0.4539 -0.8695
  152TIP3    H2  463   1.587   5.504   2.079 -0.5622 -1.2640  0.3595
  153TIP3   OH2  464   3.426   3.754   2.542  0.3460  0.5739  0.0503
  153TIP3    H1  465   3.424   3.678   2.484 -1.4026 -0.9629  1.9680
  153TIP3    H2  466   3.508   3.746   2.591  2.0571  2.1191 -2.3124
  154TIP3   OH2  467   1.373   5.362   3.769  0.0956  0.0027 -0.0651
  154TIP3    H1  468   1.437   5.432   3.781  0.4490 -0.3154 -0.0836
  154TIP3    H2  469   1.413   5.304   3.704 -0.9427  0.6772 -1.3454
  155TIP3   OH2  470   4.177   1.608   0.334 -0.2686 -0.1341 -0.2727
  155TIP3    H1  471   4.204   1.590   0.424  0.4349  2.7313  0.1727
  155TIP3    H2  472   4.127   1.689   0.339 -2.0943 -1.0340 -2.2345
  156TIP3   OH2  473   5.783   5.851   5.087 -0.5084 -0.0614  0.6411
  156TIP3    H1  474   5.690   5.860   5.109 -0.6707 -0.6090  0.1876
  156TIP3    H2  475   5.788   5.772   5.034 -0.2613  1.5887 -1.9872
  157TIP3   OH2  476   5.808   1.417   2.903 -0.1557 -0.1478 -0.6792
  157TIP3    H1  477   5.766   1.332   2.891  0.1398 -0.3192 -0.5100
  157TIP3    H2  478   5.809   1.455   2.815 -2.1434  0.5761 -0.4340
  158TIP3   OH2  479   2.988   4.736   4.011 -0.3622 -0.3325  0.0511
  158TIP3    H1  480   3.007   4.794   4.084  2.1588 -1.7200  0.6208
  158TIP3    H2  481   3.055   4.757   3.945 -0.2376 -1.6583 -0.2732
  159TIP3   OH2  482   1.943   5.672   1.037  0.2510 -0.3047 -0.3855
  159TIP3    H1  483   1.985   5.626   0.964  1.9323  1.8194 -0.8523
  159TIP3    H2  484   1.869   5.718   0.997  0.0605 -0.6029 -0.3823
  160TIP3   OH2  485   2.605   2.564   3.623 -0.3124 -0.0820  0.1313
  160TIP3    H1  486   2.601   2.641   3.680 -0.6460  0.4011 -0.5336
  160TIP3    H2  487   2.680   2.515   3.656 -1.7880 -0.9946  2.4384
  161TIP3   OH2  488   0.242   5.234   1.315 -0.4645  0.4690  0.3245
  161TIP3    H1  489   0.301   5.167   1.279  0.7053 -0.1886  3.1869
  161TIP3    H2  490   0.299   5.308   1.334 -0.7042  0.2598  2.0487
  162TIP3   OH2  491   3.048   2.956   5.022  0.2739 -0.4915  0.5977
  162TIP3    H1  492   3.009   2.972   4.936  1.0958  0.0394  0.3019
  162TIP3    H2  493   2.992   2.891   5.063 -0.9912  0.3666  0.2661
  163TIP3   OH2  494   6.057   5.737   0.808  0.2654  0.2778  0.1963
  163TIP3    H1  495   6.149   5.753   0.826  0.3938 -0.0588 -0.1663
  163TIP3    H2  496   6.042   5.774   0.721 -0.2701  1.5841  0.8159
  164TIP3   OH2  497   4.244   4.836   4.129  0.2828 -0.3645 -0.1906
  164TIP3    H1  498   4.190   4.796   4.060  1.2899 -2.5970  0.2064
  164TIP3    H2  499   4.327   4.855   4.085 -0.0102  0.8315 -0.2388
  165TIP3   OH2  500   3.274   4.957   3.651  0.1065 -0.5605 -0.2265
  165TIP3    H1  501   3.185   4.965   3.687  0.8211  0.2107  1.4740
  165TIP3    H2  502   3.274   5.014   3.574 -0.7120 -0.1374  0.0762
  166TIP3   OH2  503   5.943   2.721   2.024  0.4265 -0.2487 -0.6247
  166TIP3    H1  504   6.026   2.683   1.995  1.2537  0.2009  1.0475
  166TIP3    H2  505   5.933   2.801   1.971  1.5542  0.2124 -0.1627
  167TIP3   OH2  506   4.101   3.386   3.416 -0.2180  0.7168  0.0098
  167TIP3    H1  507   4.118   3.375   3.510 -0.1452  1.2290  0.0571
  167TIP3    H2  508   4.182   3.423   3.381 -0.0388 -0.0072 -0.3624
  168TIP3   OH2  509   4.703   1.849   1.186  0.0417  0.2740 -0.0118
  168TIP3    H1  510   4.755   1.848   1.266  0.5954 -0.3297 -0.3659
  168TIP3    H2  511   4.750   1.908   1.127 -1.6478  2.6732  0.9021
  169TIP3   OH2  512   3.149   4.003   1.150  0.2868  0.0394  0.5517
  169TIP3    H1  513   3.058   3.977   1.163 -0.0587  0.1729 -1.3295
  169TIP3    H2  514   3.200   3.935   1.194 -0.6986 -0.4074  1.0282
  170TIP3   OH2  515   0.314   2.393   3.842 -0.1864 -0.3430  0.7631
  170TIP3    H1  516   0.341   2.443   3.765  0.3869 -1.0604  0.4857
  170TIP3    H2  517   0.218   2.396   3.840 -0.1648  0.3660  0.5132
  171TIP3   OH2  518   5.240   4.179   0.251 -0.4503 -0.1346 -1.0165
  171TIP3    H1  519   5.230   4.253   0.190  1.3133 -0.5056 -1.8317
  171TIP3    H2  520   5.331   4.183   0.279 -0.5815 -1.4411 -0.3105
  172TIP3   OH2  521   4.772   2.732   1.182  0.2453  0.8089  0.0347
  172TIP3    H1  522   4.730   2.795   1.123  0.9088  0.6752 -0.5837
  172TIP3    H2  523   4.736   2.648   1.156 -0.0250  0.8320  0.3233
  173TIP3   OH2  524   1.034   4.105   2.451  0.3543 -0.4953 -0.3317
  173TIP3    H1  525   0.946   4.139   2.467 -0.2290 -2.8143  2.0733
  173TIP3    H2  526   1.089   4.146   2.518  0.2473 -1.9187  0.6734
  174TIP3   OH2  527   0.863   3.463   3.089 -0.5214 -0.4883 -0.6743
  174TIP3    H1  528   0.771   3.440   3.104 -0.0292 -2.2770 -0.2102
  174TIP3    H2  529   0.881   3.433   3.000 -0.1592 -0.8843 -0.4649
  175TIP3   OH2  530   3.050   5.378   2.508  0.3241  0.3562 -0.0313
  175TIP3    H1  531   2.991   5.445   2.474  0.6142  0.8446  0.4171
  175TIP3    H2  532   2.994   5.303   2.528 -0.2009  0.9437  0.7349
  176TIP3   OH2  533   0.794   2.542   3.651 -0.0292 -0.0864 -0.0052
  176TIP3    H1  534   0.802   2.561   3.558 -2.2288 -1.1857 -0.4916
  176TIP3    H2  535   0.859   2.474   3.668  1.1124  0.8675 -0.4609
  177TIP3   OH2  536   1.308   5.300   2.231  0.3931 -0.3008  0.4071
  177TIP3    H1  537   1.278   5.279   2.319  0.0849  0.8373  0.5846
  177TIP3    H2  538   1.377   5.365   2.244  1.6333 -1.4496 -0.1054
  178TIP3   OH2  539   3.675   5.083   2.116 -0.7456 -0.5521  0.5001
  178TIP3    H1  540   3.669   5.031   2.196  1.8317 -1.2322  0.3349
  178TIP3    H2  541   3.696   5.020   2.047  2.3541  0.5430  0.2840
  179TIP3   OH2  542   5.455   5.056   0.942 -0.1802 -0.4166  0.0462
  179TIP3    H1  543   5.469   5.138   0.989 -0.3592  0.2828 -1.1055
  179TIP3    H2  544   5.422   5.082   0.856 -1.9765 -1.7371  0.2683
  180TIP3   OH2  545   1.492   4.273   5.142 -0.9403  0.2421  0.0979
  180TIP3    H1  546   1.508   4.331   5.068  1.7242  0.7268  0.9414
  180TIP3    H2  547   1.545   4.196   5.125 -1.0835 -0.0731  0.9957
  181TIP3   OH2  548   3.682   0.660   4.014  0.1297 -0.1218  0.4159
  181TIP3    H1  549   3.630   0.583   3.990 -0.5654  0.5466 -0.2565
  181TIP3    H2  550   3.634   0.734   3.977  1.5927  0.5126 -0.2961
  182TIP3   OH2  551   3.311   2.477   2.011 -0.1676  0.2133  0.0815
  182TIP3    H1  552   3.296   2.454   2.103 -0.0986 -3.5862 -0.6931
  182TIP3    H2  553   3.238   2.436   1.964  0.9962  0.1632 -1.7739
  183TIP3   OH2  554   4.306   0.882   0.192  0.4284  0.2632 -0.0705
  183TIP3    H1  555   4.253   0.823   0.246 -1.8088  0.7728 -1.5929
  183TIP3    H2  556   4.358   0.824   0.137 -1.4347 -0.3704 -1.2549
  184TIP3   OH2  557   1.211   0.046   2.152  0.2860  0.4745 -0.0778
  184TIP3    H1  558   1.196  -0.035   2.103  0.2394  0.0490  0.6321
  184TIP3    H2  559   1.274   0.022   2.219 -1.6951  0.3288  1.8523
  185TIP3   OH2  560   3.033   2.061   4.850 -0.2373 -0.3139  0.2146
  185TIP3    H1  561   3.055   2.154   4.852 -0.8017 -0.1511 -0.7764
  185TIP3    H2  562   3.088   2.023   4.919  0.4144  0.6555  0.2594
  186TIP3   OH2  563   6.184   5.836   2.383  0.2268  0.4003  0.4981
  186TIP3    H1  564   6.145   5.923   2.391 -0.3984  0.1594  0.1886
  186TIP3    H2  565   6.277   5.852   2.367  0.1676  1.0017  0.7268
  187TIP3   OH2  566   3.202   3.000   4.060  0.6225 -0.5481  0.0541
  187TIP3    H1  567   3.126   2.950   4.029 -0.3257  1.0601 -0.3130
  187TIP3    H2  568   3.178   3.026   4.149  0.9526 -0.4139  0.1050
  188TIP3   OH2  569   2.437   2.804   2.540 -0.5909 -0.1835  0.1065
  188TIP3    H1  570   2.362   2.798   2.481 -1.2497  0.5231  0.8562
  188TIP3    H2  571   2.449   2.898   2.553 -0.1110 -0.3220  0.6803
  189TIP3   OH2  572   4.305   1.348   4.343  0.0205  0.1918  0.3895
  189TIP3    H1  573   4.257   1.381   4.267 -0.3689 -1.3349 -0.0753
  189TIP3    H2  574   4.381   1.304   4.305 -0.2250 -0.6599  0.8665
  190TIP3   OH2  575   2.453   3.055   2.601  0.4958 -0.1174 -0.3997
  190TIP3    H1  576   2.545   3.059   2.624  0.6882  2.9853 -1.2549
  190TIP3    H2  577   2.408   3.035   2.683  1.8040  0.3456  0.4551
  191TIP3   OH2  578   2.692   4.220   1.100 -0.2090  0.5762  0.1196
  191TIP3    H1  579   2.729   4.135   1.126  1.0345  0.2359 -2.4201
  191TIP3    H2  580   2.597   4.207   1.106 -0.0604 -1.0896 -0.3592
  192TIP3   OH2  581   6.330   2.463   2.971 -0.0575  0.0676 -0.2589
  192TIP3    H1  582   6.330   2.508   2.887 -1.0589 -0.4950 -0.5828
  192TIP3    H2  583   6.249   2.412   2.971  0.0673 -0.1702  0.9285
  193TIP3   OH2  584   2.495   4.731   0.162 -0.3647  0.1918  0.1258
  193TIP3    H1  585   2.415   4.768   0.125 -0.7424 -0.8899 -0.1605
  193TIP3    H2  586   2.549   4.708   0.086 -0.0008  0.4143  0.3085
  194TIP3   OH2  587   5.163   0.827   2.991  0.4978  0.2057  0.1843
  194TIP3    H1  588   5.134   0.739   3.014  1.5731  0.3202  2.1353
  194TIP3    H2  589   5.226   0.814   2.920 -0.9131 -0.3847 -1.0103
  195TIP3   OH2  590   1.246   2.536   4.932  0.0599  0.5612  0.2491
  195TIP3    H1  591   1.267   2.469   4.868  1.3935  1.7011 -0.5558
  195TIP3    H2  592   1.295   2.512   5.010 -0.5918 -0.1578  0.4454
  196TIP3   OH2  593   0.840   0.051   0.785  0.3440 -0.2074 -0.0955
  196TIP3    H1  594   0.802   0.047   0.697 -1.4603 -0.5573  0.6551
  196TIP3    H2  595   0.781   0.109   0.834  1.2315 -0.1333  0.9278
  197TIP3   OH2  596   1.580   5.263   4.819 -0.2341  0.0905  0.7451
  197TIP3    H1  597   1.589   5.168   4.808  0.7082  0.1526  0.9045
  197TIP3    H2  598   1.659   5.290   4.865  0.7050  1.3016 -1.4091
  198TIP3   OH2  599   3.477   5.031   0.068  0.1861  0.0343 -0.4031
  198TIP3    H1  600   3.465   5.126   0.073 -0.6461  0.0617 -1.9723
  198TIP3    H2  601   3.397   5.000   0.024  0.2160 -1.4616  0.5444
  199TIP3   OH2  602   0.590   1.693   1.194  0.2917 -0.5600  0.2263
  199TIP3    H1  603   0.579   1.601   1.166  2.0303 -0.6691 -0.1682
  199TIP3    H2  604   0.624   1.737   1.116  0.1036  0.2925  0.6233
  200TIP3   OH2  605   3.380   1.160   3.988 -0.1835  0.2175 -0.4259
  200TIP3    H1  606   3.340   1.158   4.075  1.0315 -0.0165  0.1575
  200TIP3    H2  607   3.420   1.074   3.978  1.9676  1.0897 -0.0569
  201TIP3   OH2  608   4.060  -0.011   4.677  0.1990  0.2205 -0.0709
  201TIP3    H1  609   4.023   0.077   4.672 -0.5087 -0.1212 -3.2510
  201TIP3    H2  610   4.066  -0.040   4.586 -1.4175 -3.7709  0.8569
  202TIP3   OH2  611   2.269   3.575   1.836 -0.1584  0.2495 -0.8415
  202TIP3    H1  612   2.351   3.620   1.815 -0.3542  1.0130 -0.0449
  202TIP3    H2  613   2.213   3.591   1.760  0.4020 -0.2352 -1.3719
  203TIP3   OH2  614   5.436   2.455   1.128 -0.0203  0.4903 -0.1499
  203TIP3    H1  615   5.524   2.493   1.137  0.8081 -1.3418  0.0816
  203TIP3    H2  616   5.452   2.361   1.115 -1.9476  0.1648 -0.5113
  204TIP3   OH2  617   5.603   4.636   4.283 -0.1084  0.3927  0.0306
  204TIP3    H1  618   5.685   4.675   4.313 -0.4770  0.7070  0.6505
  204TIP3    H2  619   5.618   4.618   4.190  0.3533  1.2852 -0.0805
  205TIP3   OH2  620   1.968   4.590   3.740 -0.5103 -0.5337 -0.0886
  205TIP3    H1  621   1.946   4.677   3.771  1.8525  1.2043 -2.7670
  205TIP3    H2  622   2.039   4.560   3.797 -0.4584 -0.1275  0.0583
  206TIP3   OH2  623   4.522   0.459   4.561 -0.3494  0.4724  0.6477
  206TIP3    H1  624   4.573   0.501   4.492  2.2911 -2.3791  0.6437
  206TIP3    H2  625   4.565   0.486   4.642 -0.3854 -0.0067  0.8278
  207TIP3   OH2  626   5.918   5.924   2.750  0.9136  0.0147  0.1163
  207TIP3    H1  627   6.013   5.918   2.763  0.9349 -1.3518 -0.4745
  207TIP3    H2  628   5.890   5.833   2.738 -0.3607  0.4666 -0.4784
  208TIP3   OH2  629   2.424   5.988   4.606 -0.0686 -0.0504 -0.6740
  208TIP3    H1  630   2.418   5.908   4.658 -0.4109  0.1884 -0.3472
  208TIP3    H2  631   2.335   6.002   4.574 -0.8515  2.0959  2.0910
  209TIP3   OH2  632   5.093   5.284   4.787 -0.1813  0.7706  0.0954
  209TIP3    H1  633   5.180   5.257   4.817 -0.7233 -0.9962  0.2185
  209TIP3    H2  634   5.033   5.222   4.830 -1.7208  3.0939  1.5758
  210TIP3   OH2  635   3.594   2.932   4.299 -0.3758 -0.0811  0.2600
  210TIP3    H1  636   3.674   2.981   4.321 -0.2234  1.6849 -3.4673
  210TIP3    H2  637   3.625   2.856   4.250 -0.9069 -0.2644  0.2061
  211TIP3   OH2  638   0.137   5.374   1.608  0.1511  0.3129  0.1922
  211TIP3    H1  639   0.092   5.291   1.626  0.2845  0.1433 -0.2336
  211TIP3    H2  640   0.078   5.421   1.550 -0.1131  0.6999  0.7626
  212TIP3   OH2  641   4.107   1.617   2.628 -0.1141  0.1212  0.1964
  212TIP3    H1  642   4.068   1.700   2.655 -0.7987  0.3683 -1.4262
  212TIP3    H2  643   4.033   1.566   2.594  0.5570 -0.4976 -0.3522
  213TIP3   OH2  644   2.237   0.455   3.775  0.2064 -0.2939  0.1202
  213TIP3    H1  645   2.316   0.430   3.822  0.5852  1.6435  0.6119
  213TIP3    H2  646   2.259   0.443   3.682  1.1422  0.3436  0.2415
  214TIP3   OH2  647   2.515   4.601   1.943 -0.2632 -0.0734  0.0533
  214TIP3    H1  648   2.514   4.670   2.009  0.8141  0.0057  0.0025
  214TIP3    H2  649   2.584   4.541   1.972  0.6648  0.2970 -1.3326
  215TIP3   OH2  650   2.304   2.769   1.145 -0.0412 -0.0891  0.2492
  215TIP3    H1  651   2.336   2.746   1.232 -1.1199  2.0254  1.2925
  215TIP3    H2  652   2.312   2.864   1.141 -1.0227 -0.0344 -1.5543
  216TIP3   OH2  653   0.433   2.130   3.922 -0.4281 -0.3268  0.0151
  216TIP3    H1  654   0.388   2.209   3.892  0.9958  0.4317 -0.2280
  216TIP3    H2  655   0.517   2.132   3.875  0.2273 -1.2066  1.1145
  217TIP3   OH2  656   3.293   4.430   4.237  0.5297 -0.4579 -0.0189
  217TIP3    H1  657   3.331   4.375   4.306  0.0840  0.4048  0.9268
  217TIP3    H2  658   3.282   4.516   4.277 -2.3223 -0.6199 -0.2629
  218TIP3   OH2  659   1.083   1.412   0.701  0.6484  0.1828 -0.1275
  218TIP3    H1  660   1.045   1.433   0.616 -0.8355 -2.2722 -0.2039
  218TIP3    H2  661   1.018   1.443   0.764  0.4871 -0.2842 -0.0544
  219TIP3   OH2  662   3.999   3.093   3.051  1.1707  0.3180 -0.4744
  219TIP3    H1  663   4.058   3.065   3.121  1.2925  0.7259 -0.4056
  219TIP3    H2  664   3.998   3.189   3.059  0.3909  0.3019 -0.3876
  220TIP3   OH2  665   1.228   5.296   3.551 -0.3972 -0.0332  0.2197
  220TIP3    H1  666   1.171   5.355   3.502 -0.8685 -1.3899 -0.9459
  220TIP3    H2  667   1.281   5.354   3.606  0.0860  1.5866 -1.8061
  221TIP3   OH2  668   0.782   1.040   0.451 -0.5048  0.0371  0.5536
  221TIP3    H1  669   0.690   1.027   0.472 -0.7329  1.0705  0.2630
  221TIP3    H2  670   0.786   1.129   0.415  0.5664 -0.0801  0.3481
  222TIP3   OH2  671   3.800   3.291   0.122  0.6445 -0.3460 -0.0615
  222TIP3    H1  672   3.757   3.235   0.057 -1.6243  0.3468  0.7146
  222TIP3    H2  673   3.768   3.259   0.206  2.3286 -0.2590  0.6511
  223TIP3   OH2  674   1.341   0.775   2.643 -0.1604 -0.2944  0.0352
  223TIP3    H1  675   1.264   0.740   2.689 -0.8271 -0.7348 -1.3689
  223TIP3    H2  676   1.383   0.698   2.605  1.7259 -0.2186  1.8253
  224TIP3   OH2  677   0.453   2.957   3.404  0.3075 -0.0484 -0.1089
  224TIP3    H1  678   0.429   2.936   3.494  1.5623  0.1800  0.2963
  224TIP3    H2  679   0.443   2.874   3.357 -0.4577 -0.1452  0.2019
  225TIP3   OH2  680   2.638   2.083   4.776 -0.2688 -0.3382 -0.1197
  225TIP3    H1  681   2.596   2.001   4.799 -0.3160 -0.6146 -1.1227
  225TIP3    H2  682   2.640   2.083   4.680  2.9121 -0.7942 -0.1582
  226TIP3   OH2  683   2.850   0.819   4.904 -0.2700  0.2300 -0.5359
  226TIP3    H1  684   2.840   0.747   4.843  0.4898 -0.0995 -0.2782
  226TIP3    H2  685   2.905   0.784   4.974 -0.0385  1.0038 -0.3212
  227TIP3   OH2  686   1.480   2.916   2.077  0.3289 -0.5617 -0.1457
  227TIP3    H1  687   1.474   2.923   1.981  0.3826 -1.8571 -0.2651
  227TIP3    H2  688   1.393   2.939   2.108 -0.0369 -1.3015 -0.5961
  228TIP3   OH2  689   4.297   1.773   3.743  0.3239  0.7454  0.0966
  228TIP3    H1  690   4.320   1.748   3.654 -1.4949 -0.2790 -0.1309
  228TIP3    H2  691   4.328   1.702   3.798  0.6162  0.9308  0.1722
  229TIP3   OH2  692   5.740   2.739   1.730  0.3715  0.0837  0.9952
  229TIP3    H1  693   5.682   2.725   1.805 -0.2523 -0.4478  0.4391
  229TIP3    H2  694   5.816   2.684   1.747  0.6916  0.7457  1.7126
  230TIP3   OH2  695   0.898   1.541   0.879  0.1879  0.0365 -0.0095
  230TIP3    H1  696   0.811   1.523   0.917 -0.4468  0.5160 -1.1869
  230TIP3    H2  697   0.898   1.636   0.864  0.6219 -0.0760 -0.7260
  231TIP3   OH2  698   3.724   5.353   3.652 -0.3911  0.1179 -0.8056
  231TIP3    H1  699   3.719   5.372   3.558 -0.8776 -3.2944 -1.6180
  231TIP3    H2  700   3.746   5.260   3.656 -1.4699 -0.1286  2.4649
  232TIP3   OH2  701   3.519   2.617   2.694  0.4422  0.0752 -0.2101
  232TIP3    H1  702   3.494   2.658   2.777 -0.7675  0.0930 -0.5736
  232TIP3    H2  703   3.614   2.606   2.701  0.6986  2.1777  0.2491
  233TIP3   OH2  704   0.190   4.247   3.734  0.7403 -0.2848  0.1211
  233TIP3    H1  705   0.249   4.175   3.711  1.8439  0.8734 -0.8587
  233TIP3    H2  706   0.199   4.309   3.661 -1.3762  0.1528  0.1639
  234TIP3   OH2  707   3.501   1.139   2.897 -0.6562  0.3841 -0.2844
  234TIP3    H1  708   3.434   1.102   2.840 -0.5444 -0.1537 -0.0800
  234TIP3    H2  709   3.459   1.214   2.939 -1.4188 -0.4394  0.4790
  235TIP3   OH2  710   1.678   5.249   1.014  0.4124 -0.0923  0.1977
  235TIP3    H1  711   1.652   5.220   1.102 -0.3791 -0.3046 -0.0954
  235TIP3    H2  712   1.675   5.345   1.018 -2.8983 -0.0422 -0.4695
  236TIP3   OH2  713   0.165   3.212   3.535 -0.1366  0.2975  0.5537
  236TIP3    H1  714   0.226   3.198   3.608  0.7742 -2.5738 -0.6060
  236TIP3    H2  715   0.099   3.143   3.546 -0.3239  0.2070 -0.9524
  237TIP3   OH2  716   4.019   1.726   1.987  0.1758 -0.2238  0.3350
  237TIP3    H1  717   4.059   1.778   1.918  1.3956 -0.5899  0.7298
  237TIP3    H2  718   4.012   1.638   1.951 -0.2407 -0.1695  0.2819
  238TIP3   OH2  719   3.454   5.332   0.302 -0.1284 -0.6588  0.0748
  238TIP3    H1  720   3.404   5.254   0.279  0.2042 -1.0713  0.7069
  238TIP3    H2  721   3.535   5.298   0.340 -0.0989 -0.0066  0.6125
  239TIP3   OH2  722   2.535   1.964   2.871  0.2316  0.0169 -0.0837
  239TIP3    H1  723   2.492   2.040   2.832  0.9136  0.5950  0.2724
  239TIP3    H2  724   2.559   1.910   2.796  0.6045  0.6245 -0.4130
  240TIP3   OH2  725   5.619   3.558   2.233 -0.2469 -0.2680  0.1091
  240TIP3    H1  726   5.566   3.621   2.185 -0.3549  1.1474  1.9595
  240TIP3    H2  727   5.567   3.537   2.311 -0.2829 -2.8342 -0.5087
  241TIP3   OH2  728   4.911   3.139   1.601  0.0362  0.2361 -0.0521
  241TIP3    H1  729   4.929   3.064   1.659 -1.6025 -1.3734 -1.4961
  241TIP3    H2  730   4.995   3.185   1.595  1.2294 -1.7060  0.5815
  242TIP3   OH2  731   2.802   5.513   3.304 -0.1440  0.6160 -0.2735
  242TIP3    H1  732   2.832   5.479   3.220 -1.1846 -1.1167 -0.0005
  242TIP3    H2  733   2.730   5.572   3.282 -0.7398 -0.2081 -0.6094
  243TIP3   OH2  734   2.653   4.143   3.924 -0.3712 -0.2449  0.2161
  243TIP3    H1  735   2.603   4.219   3.955 -2.2371 -1.5508  0.6199
  243TIP3    H2  736   2.615   4.122   3.839 -0.0955 -0.8954  0.2430
  244TIP3   OH2  737   3.168   1.767   1.689 -0.4532  0.1876 -0.0568
  244TIP3    H1  738   3.206   1.683   1.714 -1.3107  0.1513  1.2513
  244TIP3    H2  739   3.159   1.762   1.594 -0.6506 -1.2771  0.0099
  245TIP3   OH2  740   6.300   5.169   1.593  0.1255 -0.4940  0.0263
  245TIP3    H1  741   6.301   5.073   1.588 -1.4878 -0.5563  0.4017
  245TIP3    H2  742   6.298   5.199   1.502  0.7805 -0.7929 -0.0952
  246TIP3   OH2  743   5.140   1.824   2.424  0.2480 -0.2279 -0.3225
  246TIP3    H1  744   5.071   1.809   2.489 -0.0725  1.0486 -0.3528
  246TIP3    H2  745   5.206   1.757   2.444 -0.8776 -1.3182 -0.1433
  247TIP3   OH2  746   3.635   2.716   4.096  0.0919  0.1566  0.3313
  247TIP3    H1  747   3.632   2.647   4.163 -1.3135 -0.3035 -0.1827
  247TIP3    H2  748   3.600   2.675   4.017  1.3346  0.8223 -0.6091
  248TIP3   OH2  749   1.118   3.580   3.368 -0.5415  0.2816 -0.0250
  248TIP3    H1  750   1.086   3.623   3.289 -1.4915 -1.3621 -0.5878
  248TIP3    H2  751   1.048   3.592   3.432 -0.2851  0.5897  0.2026
  249TIP3   OH2  752   3.534   0.940   1.463  0.0097 -0.0987 -0.2476
  249TIP3    H1  753   3.456   0.885   1.457 -0.3771  0.3317  0.6000
  249TIP3    H2  754   3.583   0.922   1.383 -1.1011 -0.1785 -0.9213
  250TIP3   OH2  755   0.063   5.230   1.873 -0.2552 -0.3695  0.3096
  250TIP3    H1  756   0.014   5.182   1.940  0.4271  0.2567  1.2807
  250TIP3    H2  757   0.075   5.167   1.802  0.6361 -1.6442  1.5526
  251TIP3   OH2  758   0.167   0.071   4.557  0.0714 -0.1937  0.0695
  251TIP3    H1  759   0.157   0.078   4.652 -1.8533  0.5076 -0.1342
  251TIP3    H2  760   0.245   0.123   4.537 -0.0742  0.4743  1.1675
  252TIP3   OH2  761   2.387   5.529   3.818 -0.5615 -0.4315 -0.2600
  252TIP3    H1  762   2.293   5.538   3.803 -1.1153 -0.4584  2.6289
  252TIP3    H2  763   2.415   5.615   3.849  0.6231 -0.1272 -2.0732
  253TIP3   OH2  764   4.920   2.600   2.393 -0.5001  0.5723  0.0840
  253TIP3    H1  765   4.934   2.693   2.408  1.3956  0.1487  1.2725
  253TIP3    H2  766   5.004   2.559   2.414 -0.6839 -1.2321 -2.2252
  254TIP3   OH2  767   2.074   1.388   0.754  0.1489  0.4417  0.4151
  254TIP3    H1  768   2.166   1.410   0.765 -0.3628  1.6648  2.8486
  254TIP3    H2  769   2.042   1.451   0.690  1.0234 -0.1418 -0.6234
  255TIP3   OH2  770   2.610   3.172   3.427  0.2337  0.6200 -0.4788
  255TIP3    H1  771   2.591   3.262   3.453  1.6609  0.5152  1.0590
  255TIP3    H2  772   2.661   3.136   3.499  0.1067 -1.2891 -1.2788
  256TIP3   OH2  773   2.574   1.018   3.674  0.0930 -0.1452 -0.0564
  256TIP3    H1  774   2.639   1.076   3.633 -1.1029  1.6712  0.4771
  256TIP3    H2  775   2.563   0.947   3.612  0.7282  0.8387 -1.3504
  257TIP3   OH2  776   3.970   0.778   5.091  0.0630 -0.0153 -0.5597
  257TIP3    H1  777   4.015   0.862   5.089  1.3461 -0.5433  1.8832
  257TIP3    H2  778   4.010   0.727   5.020  2.1999  0.1217  0.4617
  258TIP3   OH2  779   1.337   4.664   2.298  0.0042  0.4865  0.4946
  258TIP3    H1  780   1.355   4.712   2.217  1.5837 -0.5922  0.1612
  258TIP3    H2  781   1.286   4.588   2.270 -1.7856  1.4685  0.9168
  259TIP3   OH2  782   0.330   5.161   2.141  0.1426 -0.1220 -0.0705
  259TIP3    H1  783   0.373   5.089   2.188  5.0627  2.1931 -0.4291
  259TIP3    H2  784   0.325   5.131   2.051  0.4453 -0.7112  0.1015
  260TIP3   OH2  785   0.629   2.983   2.677  0.1962 -0.2622 -0.3099
  260TIP3    H1  786   0.700   2.922   2.694 -0.5957 -0.4062  3.0850
  260TIP3    H2  787   0.601   3.013   2.763 -3.2392  0.5307 -1.5290
  261TIP3   OH2  788   5.486   1.229   2.277  0.1087  0.3239 -0.4679
  261TIP3    H1  789   5.406   1.280   2.264 -0.5158 -0.8481 -1.4772
  261TIP3    H2  790   5.470   1.179   2.358  0.9950  2.1455  0.9044
  262TIP3   OH2  791   1.206   5.172   0.560 -0.0129  0.6452  0.7854
  262TIP3    H1  792   1.170   5.259   0.576 -1.5891  0.0105  0.8568
  262TIP3    H2  793   1.130   5.118   0.539  1.1335 -0.2631 -1.3302
  263TIP3   OH2  794   4.511   1.204   0.162 -0.1101  0.4834  0.1715
  263TIP3    H1  795   4.520   1.279   0.221 -1.8044  0.0923  1.0009
  263TIP3    H2  796   4.536   1.238   0.076  0.7608  1.5312  0.8092
  264TIP3   OH2  797   1.250   1.265   4.226 -0.5167 -0.0850 -0.4310
  264TIP3    H1  798   1.206   1.201   4.170 -0.3526 -0.0025 -0.6527
  264TIP3    H2  799   1.222   1.350   4.194 -2.4362 -0.0336  1.2024
  265TIP3   OH2  800   0.730   1.218   4.987 -0.9698 -0.0983  0.3969
  265TIP3    H1  801   0.692   1.303   5.008 -0.3750  0.6137 -1.1939
  265TIP3    H2  802   0.663   1.173   4.935  0.0071  0.8983 -1.8526
  266TIP3   OH2  803   6.242   3.643   1.490 -0.4782  0.3676  0.9393
  266TIP3    H1  804   6.300   3.684   1.427 -0.6854  0.6069  0.9023
  266TIP3    H2  805   6.261   3.686   1.573  1.1806 -1.2795  1.4744
  267TIP3   OH2  806   2.061   4.704   0.113  0.0820 -0.0127 -0.5668
  267TIP3    H1  807   2.009   4.726   0.036  0.6287  1.8982 -0.4511
  267TIP3    H2  808   2.087   4.613   0.100 -2.5503 -0.7730 -1.0168
  268TIP3   OH2  809   3.195   1.302   4.185  0.3460  0.2609  0.2107
  268TIP3    H1  810   3.156   1.296   4.273 -1.8324  2.6937 -0.4700
  268TIP3    H2  811   3.265   1.367   4.195  1.0191 -0.4664  0.3784
  269TIP3   OH2  812   5.179   1.270   4.836 -0.1017 -0.1057 -0.3594
  269TIP3    H1  813   5.125   1.213   4.781  1.5313 -0.8701 -1.2710
  269TIP3    H2  814   5.166   1.238   4.925  0.2935 -1.5485 -0.7869
  270TIP3   OH2  815   5.468   4.511   3.139  0.2478 -0.8501  0.2390
  270TIP3    H1  816   5.509   4.528   3.054  0.9843  0.3759  0.8161
  270TIP3    H2  817   5.378   4.487   3.118 -0.2256  1.5878 -0.8030
  271TIP3   OH2  818   3.278   3.241   0.582 -0.0159 -0.1122 -0.7395
  271TIP3    H1  819   3.263   3.174   0.650 -1.1145  2.2164  1.4575
  271TIP3    H2  820   3.191   3.274   0.561  0.5611  1.2459 -1.1056
  272TIP3   OH2  821   3.055   5.031   2.120  0.3487  0.5151  0.5512
  272TIP3    H1  822   3.011   5.116   2.118 -0.1515  0.2761  1.0454
  272TIP3    H2  823   2.984   4.967   2.121  0.7125  0.0304 -1.1494
  273TIP3   OH2  824   1.754   1.751   3.368 -0.2633  0.0265  0.2200
  273TIP3    H1  825   1.714   1.791   3.445  0.2196  0.0045  0.4880
  273TIP3    H2  826   1.846   1.777   3.373  0.9940 -3.9244  2.3690
  274TIP3   OH2  827   2.682   4.919   0.363 -0.9111  0.9735 -0.3930
  274TIP3    H1  828   2.772   4.947   0.380 -0.2109  0.4448 -2.8226
  274TIP3    H2  829   2.681   4.894   0.271 -3.0832 -0.8738  0.0109
  275TIP3   OH2  830   5.988   4.297   1.243  0.3679  0.2963 -0.2338
  275TIP3    H1  831   6.021   4.343   1.166  1.2428 -0.5313 -0.3722
  275TIP3    H2  832   6.022   4.347   1.318 -1.6577  1.9440 -0.3200
  276TIP3   OH2  833   1.886   0.670   3.339 -0.7783  0.4133 -1.0828
  276TIP3    H1  834   1.937   0.668   3.258 -1.1295  0.7142 -1.3146
  276TIP3    H2  835   1.795   0.664   3.310 -0.8624 -0.5984 -0.6440
  277TIP3   OH2  836   2.190   3.272   0.366 -0.8137 -0.6357  0.3102
  277TIP3    H1  837   2.214   3.189   0.408 -1.9059 -0.0212  2.2750
  277TIP3    H2  838   2.175   3.249   0.275  2.4636 -1.8998 -0.0761
  278TIP3   OH2  839   5.655   0.340   3.469 -0.1656 -0.7222  0.5573
  278TIP3    H1  840   5.636   0.353   3.561 -1.7218 -0.5546  0.2277
  278TIP3    H2  841   5.750   0.327   3.466 -0.0301 -0.2391  2.1087
  279TIP3   OH2  842   4.921   1.976   1.911  0.4334 -0.3740 -0.0012
  279TIP3    H1  843   4.889   1.898   1.956  0.3668  0.1924  0.9744
  279TIP3    H2  844   4.849   2.039   1.918  0.3206 -0.3475 -1.1450
  280TIP3   OH2  845   3.878   5.277   2.723 -0.0102 -0.3346  0.0158
  280TIP3    H1  846   3.938   5.204   2.731 -0.8918 -1.0479  0.3158
  280TIP3    H2  847   3.913   5.343   2.783 -0.0999 -1.1450  0.9826
  281TIP3   OH2  848   2.169   1.699   2.442  0.2330 -0.8878  0.2072
  281TIP3    H1  849   2.243   1.650   2.478  0.4208 -0.0444  1.0078
  281TIP3    H2  850   2.184   1.789   2.470 -1.3311 -0.7653  0.7922
  282TIP3   OH2  851   0.295   3.926   3.629  0.2128 -0.1356 -0.0457
  282TIP3    H1  852   0.345   3.884   3.698  0.1453  0.4203  0.3461
  282TIP3    H2  853   0.214   3.875   3.624 -0.7921  1.1558  1.8622
  283TIP3   OH2  854   1.743   2.469   0.909 -0.2187  0.1666 -0.1562
  283TIP3    H1  855   1.675   2.482   0.976 -1.3992 -2.0418 -0.8258
  283TIP3    H2  856   1.823   2.457   0.960 -0.4937  1.6357  0.7000
  284TIP3   OH2  857   0.776   5.323   0.165  0.4429  0.1475 -0.0895
  284TIP3    H1  858   0.789   5.417   0.154 -0.4282  0.5426  1.7789
  284TIP3    H2  859   0.695   5.304   0.117 -2.6729  1.5960  3.9201
  285TIP3   OH2  860   0.878   5.165   4.517  0.4229  0.1001 -0.0618
  285TIP3    H1  861   0.891   5.070   4.519  0.6314  0.1315  0.0812
  285TIP3    H2  862   0.798   5.177   4.466 -1.2030 -0.3070  2.2535
  286TIP3   OH2  863   2.595   3.614   2.326 -0.2064 -0.1143 -0.6477
  286TIP3    H1  864   2.625   3.533   2.284 -2.5793 -1.3226 -0.1769
  286TIP3    H2  865   2.544   3.585   2.401 -0.0442  1.8965  0.3108
  287TIP3   OH2  866   6.020   0.507   3.092  0.2240  0.1560  0.2626
  287TIP3    H1  867   5.969   0.427   3.100 -1.3049  1.0655  0.0830
  287TIP3    H2  868   5.961   0.569   3.050  1.5094  1.2635 -0.0075
  288TIP3   OH2  869   0.396   0.264   0.539 -0.4676 -0.2171  0.7034
  288TIP3    H1  870   0.403   0.359   0.553 -1.6260  0.4760 -2.4698
  288TIP3    H2  871   0.326   0.256   0.473  0.4843 -3.1814 -0.0593
  289TIP3   OH2  872   3.563   4.214   0.204  0.3995 -0.1458 -0.2376
  289TIP3    H1  873   3.574   4.158   0.127 -2.1789 -2.6863  1.0340
  289TIP3    H2  874   3.494   4.276   0.180  1.1197  0.5115 -0.6456
  290TIP3   OH2  875   0.587   3.440   1.746  0.3859 -0.1786 -0.7111
  290TIP3    H1  876   0.614   3.485   1.666  0.4471 -0.2033 -0.7051
  290TIP3    H2  877   0.495   3.419   1.732  0.5558 -0.7404 -1.0398
  291TIP3   OH2  878   0.416   5.330   0.352 -0.3926 -0.3222 -0.3934
  291TIP3    H1  879   0.393   5.255   0.408 -0.7752 -1.7086 -2.3089
  291TIP3    H2  880   0.345   5.392   0.366 -0.7644 -0.8678  0.2450
  292TIP3   OH2  881   5.360   5.269   0.434  0.5399  0.3111  0.2192
  292TIP3    H1  882   5.436   5.318   0.402 -0.3226  0.8936 -1.0429
  292TIP3    H2  883   5.364   5.186   0.388  1.5667 -0.5547  1.7751
  293TIP3   OH2  884   5.198   4.563   1.687 -0.9754 -0.1796 -0.5324
  293TIP3    H1  885   5.114   4.571   1.731 -0.7484 -0.7995  0.0194
  293TIP3    H2  886   5.231   4.477   1.711  0.1902  0.3667 -0.0720
  294TIP3   OH2  887   2.575   0.224   2.363 -0.8937  0.6174  0.0872
  294TIP3    H1  888   2.530   0.306   2.341  0.7329  1.4794 -0.1854
  294TIP3    H2  889   2.641   0.249   2.428  0.8719 -0.0711 -1.3443
  295TIP3   OH2  890   0.126   1.306   2.260 -0.5726 -0.0862  0.1119
  295TIP3    H1  891   0.208   1.304   2.308  0.7632  0.9686 -1.9772
  295TIP3    H2  892   0.064   1.260   2.317  1.4778 -1.0982  1.6782
  296TIP3   OH2  893   5.876   0.506   3.728 -0.6227 -0.7689 -0.0015
  296TIP3    H1  894   5.802   0.558   3.698 -0.8667 -0.5345  0.9512
  296TIP3    H2  895   5.936   0.503   3.654 -1.5315 -0.8705 -0.7527
  297TIP3   OH2  896   4.745   3.015   3.381 -0.1611 -0.5307  0.0610
  297TIP3    H1  897   4.670   2.987   3.330 -1.2642  0.8051  0.8792
  297TIP3    H2  898   4.813   2.950   3.362 -1.3085 -1.4189 -1.1692
  298TIP3   OH2  899   2.116   0.643   4.384  0.0382  0.3122  0.3647
  298TIP3    H1  900   2.075   0.727   4.404  3.0984  2.0847 -0.0946
  298TIP3    H2  901   2.064   0.606   4.313 -1.0810  2.0643  0.2300
  299TIP3   OH2  902   1.003   2.086   3.842  0.1072  0.3163 -0.0156
  299TIP3    H1  903   1.004   2.012   3.781  1.8593 -0.5853  1.0226
  299TIP3    H2  904   1.096   2.101   3.862 -0.3889  0.8208  2.1078
  300TIP3   OH2  905   4.675   4.300   1.399  0.0962 -0.8148  0.2607
  300TIP3    H1  906   4.652   4.221   1.350  0.5021 -0.5816 -0.3117
  300TIP3    H2  907   4.715   4.267   1.480  0.0155 -1.1937  0.1496
  301TIP3   OH2  908   6.353   1.051   1.989  0.2190 -0.3759 -0.4697
  301TIP3    H1  909   6.360   0.990   2.062 -1.1021  0.2576  0.2241
  301TIP3    H2  910   6.261   1.046   1.962  0.1616  1.0652 -0.6027
  302TIP3   OH2  911   6.118   4.118   1.690  0.2342  0.8511 -0.5515
  302TIP3    H1  912   6.130   4.173   1.767  1.0637  1.3953 -1.0562
  302TIP3    H2  913   6.028   4.088   1.696  0.9023 -0.9859  1.8473
  303TIP3   OH2  914   4.275   2.596   2.372  0.3604  0.1561  0.4560
  303TIP3    H1  915   4.183   2.612   2.393  0.7563 -0.1125  2.6535
  303TIP3    H2  916   4.300   2.670   2.318 -1.1542  0.1962 -0.2429
  304TIP3   OH2  917   3.739   5.723   1.813  0.2666 -0.1250  0.0553
  304TIP3    H1  918   3.796   5.658   1.854  0.0890 -0.0949  0.3568
  304TIP3    H2  919   3.791   5.759   1.741  1.0708  0.7324  1.0267
  305TIP3   OH2  920   3.615   5.098   0.366 -0.0196  0.1031 -0.5909
  305TIP3    H1  921   3.703   5.124   0.336 -0.0255 -0.8906 -1.5405
  305TIP3    H2  922   3.602   5.147   0.447  1.5315  0.0587 -0.2775
  306TIP3   OH2  923   0.580   3.196   0.716  0.5665  0.3700  0.0476
  306TIP3    H1  924   0.598   3.253   0.642 -0.8206  0.2565 -0.4129
  306TIP3    H2  925   0.666   3.180   0.755  1.2060  1.2393 -0.9268
  307TIP3   OH2  926   3.682   1.356   2.654  0.0864 -0.0327  0.1725
  307TIP3    H1  927   3.694   1.428   2.716  1.1611 -0.3383  0.3410
  307TIP3    H2  928   3.588   1.355   2.636 -0.2828  0.0087  1.8827
  308TIP3   OH2  929   1.962   2.482   4.130 -0.4955  0.6386 -0.1437
  308TIP3    H1  930   1.994   2.465   4.219  0.0621  1.5166 -0.1716
  308TIP3    H2  931   1.882   2.430   4.123  0.9636 -1.7508 -0.1217
  309TIP3   OH2  932   2.104   3.904   3.077  0.4559 -0.5016 -0.5367
  309TIP3    H1  933   2.195   3.875   3.090  0.5922  0.5764  1.1644
  309TIP3    H2  934   2.100   3.990   3.119 -1.4772 -0.7442 -0.1496
  310TIP3   OH2  935   1.510   3.444   0.538  0.4572  0.1365  0.3161
  310TIP3    H1  936   1.446   3.485   0.597 -1.9232 -0.9498 -1.3356
  310TIP3    H2  937   1.530   3.359   0.578  0.9766  0.5274  0.8947
  311TIP3   OH2  938   3.674   5.365   2.158 -0.1099  0.0551 -0.4899
  311TIP3    H1  939   3.712   5.278   2.170 -0.3556 -0.2944 -2.0524
  311TIP3    H2  940   3.743   5.425   2.188 -0.4608 -0.6422  1.9650
  312TIP3   OH2  941   2.883   5.056   1.208  0.2064  0.5513  0.1742
  312TIP3    H1  942   2.835   5.060   1.126 -0.0932 -1.6421  0.1781
  312TIP3    H2  943   2.815   5.058   1.276  0.4644  2.6976  0.4629
  313TIP3   OH2  944   4.630   0.157   1.193 -0.4076  0.4145 -0.1480
  313TIP3    H1  945   4.553   0.116   1.232 -0.6191  1.7776  0.9814
  313TIP3    H2  946   4.675   0.198   1.267  1.9747 -1.1616 -0.6255
  314TIP3   OH2  947   1.884   5.404   4.826 -0.1752  0.0283  0.8102
  314TIP3    H1  948   1.823   5.477   4.817 -1.4070 -0.8238  1.8856
  314TIP3    H2  949   1.942   5.430   4.897  2.2591  1.8116 -1.6289
  315TIP3   OH2  950   6.353   2.987   4.925  0.6150  0.3797 -0.4381
  315TIP3    H1  951   6.382   2.936   5.000  0.1008 -0.3322 -0.7041
  315TIP3    H2  952   6.257   2.988   4.933  0.6514  2.5963  0.3829
  316TIP3   OH2  953   5.545   0.367   2.859  0.0900  0.0596  0.5955
  316TIP3    H1  954   5.570   0.455   2.887 -0.5494  0.6921 -0.7153
  316TIP3    H2  955   5.487   0.381   2.784  0.9462 -1.4904 -0.4327
  317TIP3   OH2  956   5.320   1.481   3.101  0.1368 -0.1676  0.0710
  317TIP3    H1  957   5.358   1.565   3.075  0.5313  0.5776  2.7465
  317TIP3    H2  958   5.328   1.480   3.197  0.2825 -3.3313  0.1254
  318TIP3   OH2  959   4.748   5.812   0.973  0.2213 -0.0508 -0.2450
  318TIP3    H1  960   4.725   5.892   0.927 -0.1666  0.4982  0.8690
  318TIP3    H2  961   4.680   5.749   0.947  0.0110  0.2526 -0.4349
  319TIP3   OH2  962   1.579   3.489   1.384  0.1692  0.0760  0.1386
  319TIP3    H1  963   1.511   3.440   1.338  1.6027 -1.2431 -0.6794
  319TIP3    H2  964   1.560   3.476   1.477  0.3601 -1.8917 -0.0528
  320TIP3   OH2  965   3.474   5.545   0.161  0.0926 -0.1477  0.4075
  320TIP3    H1  966   3.503   5.515   0.075  1.2478  0.4045  0.5847
  320TIP3    H2  967   3.475   5.467   0.215 -0.9456 -0.5603 -0.1466
  321TIP3   OH2  968   4.926   0.107   5.043  0.3404 -0.0550  0.3193
  321TIP3    H1  969   4.979   0.185   5.029  1.0308 -0.3380  1.2582
  321TIP3    H2  970   4.892   0.085   4.956 -0.3306  1.5935  0.1214
  322TIP3   OH2  971   2.212   4.158   1.986 -0.0045  0.0867 -0.2239
  322TIP3    H1  972   2.225   4.076   1.938  0.5137  1.0252 -1.7251
  322TIP3    H2  973   2.290   4.166   2.041 -0.3041 -0.6674  0.3355
  323TIP3   OH2  974   1.327   0.639   4.296 -0.3757  0.2980 -0.0330
  323TIP3    H1  975   1.421   0.622   4.291 -0.3776  0.5040 -1.1002
  323TIP3    H2  976   1.296   0.628   4.206 -1.7197 -1.6858  0.6114
  324TIP3   OH2  977   2.281   1.338   3.600 -0.0483 -0.6442 -0.0452
  324TIP3    H1  978   2.332   1.348   3.520  0.1471  0.2742  0.1790
  324TIP3    H2  979   2.192   1.320   3.570  0.4179 -2.4790 -0.4414
  325TIP3   OH2  980   4.358   3.316   4.663 -0.4255 -0.4173 -0.6406
  325TIP3    H1  981   4.273   3.323   4.707 -0.2153  0.5818 -0.3607
  325TIP3    H2  982   4.421   3.346   4.728  0.3003 -2.2469 -0.4501
  326TIP3   OH2  983   0.031   4.900   1.503 -0.3506  0.0568 -0.2477
  326TIP3    H1  984   0.056   4.817   1.542 -2.3088 -0.7158 -0.5320
  326TIP3    H2  985   0.020   4.881   1.410  2.1397  1.3754 -0.8958
  327TIP3   OH2  986   0.811   0.083   4.505 -0.2158  0.0263  0.2080
  327TIP3    H1  987   0.755   0.136   4.448 -2.4340 -0.5868  1.7336
  327TIP3    H2  988   0.779   0.100   4.593  2.9430  0.7143  1.3607
  328TIP3   OH2  989   0.792   2.518   0.090  0.4686  0.3239  0.6287
  328TIP3    H1  990   0.810   2.478   0.175 -0.0518 -0.5916  0.3303
  328TIP3    H2  991   0.878   2.540   0.055  0.9105 -1.7770  0.2446
  329TIP3   OH2  992   4.691   3.971   3.780 -0.6203 -0.0776  0.1180
  329TIP3    H1  993   4.766   3.930   3.737 -0.9744  0.4932 -1.0977
  329TIP3    H2  994   4.729   4.027   3.847  0.0079 -0.2118 -0.1218
  330TIP3   OH2  995   2.714   3.141   4.054 -0.7466 -0.5791  0.3434
  330TIP3    H1  996   2.669   3.137   3.970 -0.2080  1.6550 -0.1070
  330TIP3    H2  997   2.645   3.126   4.119 -1.1497 -2.4296 -0.4422
  331TIP3   OH2  998   3.383   3.048   4.472 -0.2277  0.9710 -0.3369
  331TIP3    H1  999   3.297   3.022   4.437  0.7892 -1.2872 -1.3151
  331TIP3    H2 1000   3.446   3.006   4.415  1.5738  2.4039  0.5103
  332TIP3   OH2 1001   5.459   0.643   2.180  0.1397  0.7150  1.1947
  332TIP3    H1 1002   5.381   0.617   2.229 -1.3368  2.5713 -0.0646
  332TIP3    H2 1003   5.527   0.582   2.210 -1.8843 -1.2998  1.9589
  333TIP3   OH2 1004   3.295   2.675   4.067  0.2795  0.4863  0.5566
  333TIP3    H1 1005   3.252   2.691   3.983 -1.7696  1.9264  1.7900
  333TIP3    H2 1006   3.382   2.713   4.057  0.3008  0.0822 -1.0821
  334TIP3   OH2 1007   0.047   5.281   4.069  0.0133  0.1140 -0.9104
  334TIP3    H1 1008  -0.045   5.288   4.042 -1.1922 -1.2686  2.3189
  334TIP3    H2 1009   0.071   5.190   4.052  0.6568  0.3414 -1.2721
  335TIP3   OH2 1010   4.163   3.584   0.881 -0.6690 -0.0697 -0.5890
  335TIP3    H1 1011   4.231   3.606   0.818 -1.3276  1.4954 -0.7847
  335TIP3    H2 1012   4.210   3.562   0.961  0.0701  0.8249 -0.7725
  336TIP3   OH2 1013   4.168   5.516   0.742 -0.4640 -0.0524  0.6113
  336TIP3    H1 1014   4.231   5.522   0.670  0.3896  0.0674  1.3513
  336TIP3    H2 1015   4.129   5.429   0.734 -1.1706  0.3592 -0.6345
  337TIP3   OH2 1016   0.011   1.577   0.531 -0.4046  0.1559  0.1221
  337TIP3    H1 1017   0.062   1.580   0.450  1.4750 -1.5645  1.1555
  337TIP3    H2 1018   0.072   1.542   0.596 -2.5855 -0.9282  1.6998
  338TIP3   OH2 1019   5.231   5.023   1.920  0.6436  0.1519  0.6358
  338TIP3    H1 1020   5.196   4.957   1.981 -1.4955 -0.3795 -1.0273
  338TIP3    H2 1021   5.303   4.979   1.875 -0.5908 -1.0371 -0.2649
  339TIP3   OH2 1022   0.626   2.756   0.637 -0.2767 -0.1532 -0.1438
  339TIP3    H1 1023   0.639   2.684   0.576  3.1189 -0.7985  1.1113
  339TIP3    H2 1024   0.548   2.732   0.686 -0.9767 -1.4031 -1.7827
  340TIP3   OH2 1025   5.496   5.016   1.798  0.0346  0.3674 -0.0656
  340TIP3    H1 1026   5.584   5.037   1.767 -0.1573  0.2847 -0.6675
  340TIP3    H2 1027   5.446   5.000   1.719 -0.7509  1.2911  0.2305
  341TIP3   OH2 1028   6.384   1.208   0.459 -0.0871  0.3354  0.2096
  341TIP3    H1 1029   6.360   1.242   0.373 -0.4075  1.7921  0.8462
  341TIP3    H2 1030   6.308   1.225   0.514  0.2894 -0.1438  0.8941
  342TIP3   OH2 1031   0.146   0.833   0.759  0.2626 -0.0484  0.1983
  342TIP3    H1 1032   0.095   0.810   0.682  0.6335  1.4080 -0.5191
  342TIP3    H2 1033   0.190   0.752   0.784  0.7975 -0.3507 -1.6180
  343TIP3   OH2 1034   2.091   3.857   4.469 -0.0074  0.0035 -0.2199
  343TIP3    H1 1035   2.090   3.942   4.513 -1.6541  0.1749 -0.5234
  343TIP3    H2 1036   2.154   3.867   4.398  2.6329 -0.2416  1.9012
  344TIP3   OH2 1037   3.989   5.785   0.894 -0.5193  0.0203 -0.0006
  344TIP3    H1 1038   4.068   5.830   0.865  1.3796 -1.5487  2.3454
  344TIP3    H2 1039   3.974   5.818   0.982 -1.1228 -1.3768  0.4453
  345TIP3   OH2 1040   4.853   4.326   4.803  0.2051 -0.2431 -0.0775
  345TIP3    H1 1041   4.778   4.267   4.800  1.1773 -1.5004 -0.7529
  345TIP3    H2 1042   4.899   4.302   4.884 -0.8453  1.5147  1.1112
  346TIP3   OH2 1043   0.606   1.543   4.523  0.2615 -0.1193 -0.1243
  346TIP3    H1 1044   0.511   1.529   4.522  0.2827 -1.3264  3.2116
  346TIP3    H2 1045   0.643   1.456   4.510  0.8972  0.2151 -0.5532
  347TIP3   OH2 1046   0.165   2.828   4.300  0.2434  0.1287  0.1842
  347TIP3    H1 1047   0.240   2.773   4.276  1.4793  0.7226  2.3631
  347TIP3    H2 1048   0.169   2.902   4.239  0.4891 -0.6211 -0.7180
  348TIP3   OH2 1049   0.730   0.383   4.715 -0.0495 -0.2346 -0.4074
  348TIP3    H1 1050   0.783   0.422   4.784 -0.2926 -1.6340  0.6074
  348TIP3    H2 1051   0.753   0.290   4.716 -1.6657 -0.6690 -0.7067
  349TIP3   OH2 1052   3.403   1.319   2.084 -0.0417  0.3033 -0.5746
  349TIP3    H1 1053   3.310   1.333   2.068 -0.7021 -1.2908  1.4403
  349TIP3    H2 1054   3.417   1.349   2.174  1.6676  1.4962 -1.1730
  350TIP3   OH2 1055   4.828   1.856   1.452 -0.3396  0.1161  0.2910
  350TIP3    H1 1056   4.824   1.936   1.505  2.6543 -0.5674  1.7420
  350TIP3    H2 1057   4.835   1.785   1.515  0.4343 -0.9959 -0.9806
  351TIP3   OH2 1058   2.442   1.652   1.676 -0.1253 -0.0232  0.3479
  351TIP3    H1 1059   2.401   1.662   1.761  0.0071 -1.1736  0.5535
  351TIP3    H2 1060   2.493   1.733   1.665  0.7234 -0.3136  1.8417
  352TIP3   OH2 1061   0.620   1.708   5.144 -0.0478  0.1501 -0.6615
  352TIP3    H1 1062   0.614   1.766   5.068 -0.0431 -0.4433 -1.1213
  352TIP3    H2 1063   0.607   1.621   5.108 -1.5676 -0.0171  0.2415
  353TIP3   OH2 1064   2.514   1.777   1.384 -0.4831  0.4671  0.2905
  353TIP3    H1 1065   2.526   1.841   1.454 -1.3596  0.7119  0.2190
  353TIP3    H2 1066   2.480   1.699   1.429 -0.3929  0.3913  0.2286
  354TIP3   OH2 1067   6.269   5.043   2.009 -0.0239  0.4962 -0.3471
  354TIP3    H1 1068   6.209   5.100   2.058  0.4631 -1.3285  2.6435
  354TIP3    H2 1069   6.214   5.002   1.943 -1.4995  0.8128  0.6326
  355TIP3   OH2 1070   0.623   3.683   0.681  0.2909 -0.9494  0.5110
  355TIP3    H1 1071   0.675   3.655   0.756 -0.6450 -0.8249  1.2275
  355TIP3    H2 1072   0.574   3.605   0.655 -0.0100 -0.7804  0.5613
  356TIP3   OH2 1073   1.015   0.063   3.696 -0.4613  0.9274  0.5474
  356TIP3    H1 1074   0.976   0.005   3.761 -0.0627  0.2427  0.1799
  356TIP3    H2 1075   0.941   0.115   3.664 -0.9365  0.1766  0.4077
  357TIP3   OH2 1076   3.490   0.253   1.899  0.3062  0.1636  0.2844
  357TIP3    H1 1077   3.552   0.323   1.919 -1.1259  0.8895  2.5135
  357TIP3    H2 1078   3.461   0.220   1.984  0.9190 -3.2232 -0.6523
  358TIP3   OH2 1079   1.078   0.273   5.145  0.4602 -0.3431 -0.3507
  358TIP3    H1 1080   1.071   0.275   5.240  1.5319  1.6255 -0.2744
  358TIP3    H2 1081   1.169   0.295   5.126  0.3574 -1.0481 -1.8394
  359TIP3   OH2 1082   1.965   0.331   0.861  0.0993 -0.1158  0.3467
  359TIP3    H1 1083   1.911   0.405   0.834 -2.0576 -1.8223 -0.4267
  359TIP3    H2 1084   1.958   0.269   0.789 -0.0468 -1.9680  1.8599
  360TIP3   OH2 1085   3.418   5.133   5.025 -0.6969  0.1470  0.1741
  360TIP3    H1 1086   3.361   5.198   4.982 -0.4877 -0.4134 -0.9942
  360TIP3    H2 1087   3.424   5.061   4.962  2.7474  0.9093 -0.5859
  361TIP3   OH2 1088   3.193   4.978   3.010 -0.3739  0.6334  0.4161
  361TIP3    H1 1089   3.104   4.964   2.979  0.3185 -1.8916 -0.6972
  361TIP3    H2 1090   3.216   4.898   3.056  2.6796 -0.7117 -2.9498
  362TIP3   OH2 1091   3.451   1.692   2.069 -0.4088 -0.0289 -0.0707
  362TIP3    H1 1092   3.538   1.686   2.108  0.0944 -0.6358 -1.2579
  362TIP3    H2 1093   3.466   1.707   1.976 -1.5961  1.2419 -0.0899
  363TIP3   OH2 1094   4.688   5.553   0.422  0.5679 -0.0921 -0.0461
  363TIP3    H1 1095   4.737   5.474   0.401  1.0262 -0.2361  1.4478
  363TIP3    H2 1096   4.613   5.552   0.363  1.0020 -1.2092 -0.5944
  364TIP3   OH2 1097   1.335   4.998   4.059 -0.0538  0.2566  0.0872
  364TIP3    H1 1098   1.351   4.917   4.011 -2.3613 -0.1941 -0.0281
  364TIP3    H2 1099   1.294   4.970   4.141  0.7319  1.2223  0.8376
  365TIP3   OH2 1100   2.085   2.893   0.903 -0.2266  0.5684 -0.3234
  365TIP3    H1 1101   2.116   2.982   0.921  0.4520  0.0651  1.1385
  365TIP3    H2 1102   2.006   2.884   0.956 -1.1438  0.7692 -1.6067
  366TIP3   OH2 1103   4.068   5.079   3.351  0.1941  0.1413  0.5510
  366TIP3    H1 1104   4.115   5.162   3.351 -0.0660  0.2942  1.2842
  366TIP3    H2 1105   4.114   5.024   3.414 -0.4543  0.2044  1.0840
  367TIP3   OH2 1106   3.623   5.181   4.258  0.2219  0.5477  0.1283
  367TIP3    H1 1107   3.582   5.121   4.195  0.4314  1.3211 -0.7679
  367TIP3    H2 1108   3.553   5.239   4.286  0.2467  0.5454  0.1956
  368TIP3   OH2 1109   1.944   2.574   1.811 -0.1898 -0.4231 -0.3822
  368TIP3    H1 1110   1.878   2.639   1.788 -0.2490 -0.4504 -0.2921
  368TIP3    H2 1111   1.895   2.506   1.857 -0.0566 -0.3085 -0.0649
  369TIP3   OH2 1112   1.761   1.073   1.726 -0.3193  0.4638  0.0456
  369TIP3    H1 1113   1.677   1.049   1.766 -0.5694 -0.0747 -0.7731
  369TIP3    H2 1114   1.826   1.020   1.772 -0.7132 -0.8495 -0.8633
  370TIP3   OH2 1115   2.805   0.310   0.274  0.1231 -0.1487  1.1134
  370TIP3    H1 1116   2.739   0.367   0.314  1.6384  1.0607  2.0282
  370TIP3    H2 1117   2.860   0.283   0.347  0.5711 -1.2321  0.3905
  371TIP3   OH2 1118   2.678   5.469   5.084 -0.3309  0.7691  0.7261
  371TIP3    H1 1119   2.711   5.516   5.008 -1.2529  0.9855  0.4554
  371TIP3    H2 1120   2.755   5.460   5.141  0.9269 -1.3432 -1.1454
  372TIP3   OH2 1121   0.504   0.786   4.261  0.3668  0.4605 -0.2524
  372TIP3    H1 1122   0.419   0.749   4.238 -1.0076  3.4681 -0.3721
  372TIP3    H2 1123   0.523   0.750   4.347 -0.2244 -1.4662 -0.8635
  373TIP3   OH2 1124   4.993   4.383   2.821 -0.3038 -0.3101  0.4204
  373TIP3    H1 1125   4.927   4.450   2.802 -0.8296 -0.6752  0.9441
  373TIP3    H2 1126   4.947   4.318   2.874  0.4682 -0.5942  0.7479
  374TIP3   OH2 1127   3.594   4.141   3.664  0.1675  0.3467  0.2727
  374TIP3    H1 1128   3.535   4.157   3.737 -0.3695  0.6791 -0.2263
  374TIP3    H2 1129   3.652   4.217   3.663  0.0108  0.4663  0.1988
  375TIP3   OH2 1130   5.498   1.296   0.136 -0.1750 -0.7042 -0.0583
  375TIP3    H1 1131   5.497   1.380   0.182 -0.2438 -0.6632 -0.1359
  375TIP3    H2 1132   5.573   1.303   0.076 -2.4189  0.8073 -2.9069
  376TIP3   OH2 1133   3.556   1.989   2.525 -0.7449  0.2335 -0.0261
  376TIP3    H1 1134   3.554   2.073   2.570  0.4034  0.0044  0.4834
  376TIP3    H2 1135   3.631   1.943   2.562  1.8717  0.9700 -3.7831
  377TIP3   OH2 1136   3.878   0.684   0.879  0.3033 -0.4431  0.2687
  377TIP3    H1 1137   3.794   0.646   0.851  0.3469 -0.5873  0.3280
  377TIP3    H2 1138   3.912   0.621   0.943  1.3808 -1.3882 -1.1723
  378TIP3   OH2 1139   5.201   5.059   1.143 -0.2046  0.0585  0.3107
  378TIP3    H1 1140   5.169   5.131   1.196  1.1626  1.4038 -0.5895
  378TIP3    H2 1141   5.295   5.053   1.164  0.3053  0.4174 -1.6500
  379TIP3   OH2 1142   0.822   0.307   0.495  0.1395  0.6519 -0.7960
  379TIP3    H1 1143   0.754   0.256   0.540 -0.6278  0.1776 -2.4030
  379TIP3    H2 1144   0.890   0.243   0.474  0.8866  1.0328  0.3784
  380TIP3   OH2 1145   1.108   0.417   3.008  0.0725 -0.0874 -0.1144
  380TIP3    H1 1146   1.125   0.406   3.101  1.2550 -1.6763 -0.4646
  380TIP3    H2 1147   1.186   0.462   2.975 -2.3002  4.9521  0.3279
  381TIP3   OH2 1148   2.269   2.136   0.304  0.4574  0.1048 -0.3792
  381TIP3    H1 1149   2.178   2.143   0.277  0.7101  0.9210 -1.0835
  381TIP3    H2 1150   2.290   2.222   0.341  1.0320  0.0546 -0.5627
  382TIP3   OH2 1151   2.083   0.118   4.759 -0.3369 -0.5345  0.2932
  382TIP3    H1 1152   1.995   0.117   4.721 -0.7562  0.5501  1.2052
  382TIP3    H2 1153   2.103   0.210   4.770  1.1467 -0.7483 -0.3705
  383TIP3   OH2 1154   4.688   1.057   1.329  0.3256 -0.0149 -0.1523
  383TIP3    H1 1155   4.667   1.039   1.421  2.4803 -1.0581  0.2037
  383TIP3    H2 1156   4.697   1.152   1.324 -1.3203  0.1952  0.3249
  384TIP3   OH2 1157   0.009   4.431   1.561 -0.0114 -0.4152 -0.6770
  384TIP3    H1 1158   0.026   4.424   1.655 -1.8580 -0.8650 -0.3250
  384TIP3    H2 1159   0.082   4.385   1.520  0.6143 -0.5662  0.5484
  385TIP3   OH2 1160   0.211   3.426   5.152 -0.2741 -0.0881 -0.2745
  385TIP3    H1 1161   0.133   3.431   5.096 -2.1852 -1.0081  2.1464
  385TIP3    H2 1162   0.273   3.374   5.101 -0.8825  1.2724 -2.5881
  386TIP3   OH2 1163   1.044   1.685   1.915 -0.5587  0.4934  0.2277
  386TIP3    H1 1164   1.016   1.770   1.881  0.0190  0.1342 -1.1956
  386TIP3    H2 1165   1.139   1.694   1.928 -0.6301  0.3364  0.9008
  387TIP3   OH2 1166   5.988   0.545   4.420 -0.0727  0.2239  0.0642
  387TIP3    H1 1167   5.942   0.619   4.459  1.3733  1.1838  0.0654
  387TIP3    H2 1168   6.040   0.584   4.349  0.1114 -0.9179 -0.4573
  388TIP3   OH2 1169   4.152   5.385   2.337 -0.2263  0.1216 -0.1995
  388TIP3    H1 1170   4.200   5.454   2.292  1.2674 -0.3781  0.5478
  388TIP3    H2 1171   4.107   5.430   2.408 -0.8217  0.5882 -0.8622
  389TIP3   OH2 1172   3.324   0.294   3.452 -0.6154  0.1902  0.1442
  389TIP3    H1 1173   3.360   0.213   3.417  1.8281  1.7114 -1.1919
  389TIP3    H2 1174   3.325   0.282   3.547 -1.5171 -1.7599 -0.0452
  390TIP3   OH2 1175   4.946   2.014   2.255  0.1222  0.6900  0.3521
  390TIP3    H1 1176   5.018   2.015   2.192  0.7712  1.3563  1.0855
  390TIP3    H2 1177   4.960   1.934   2.307  2.0889  2.2463  2.4169
  391TIP3   OH2 1178   5.331   5.884   5.108 -0.2243 -0.0456 -0.3444
  391TIP3    H1 1179   5.367   5.859   5.023  1.6036 -0.5074  0.5085
  391TIP3    H2 1180   5.280   5.963   5.090  0.1349 -0.1232 -1.8645
  392TIP3   OH2 1181   6.008   1.515   0.938  0.3104 -0.0985  0.2061
  392TIP3    H1 1182   5.979   1.479   1.022  2.8049 -1.0481  0.7317
  392TIP3    H2 1183   6.008   1.610   0.951 -1.1143 -0.1212  0.6065
  393TIP3   OH2 1184   2.702   3.560   3.203  0.1955  0.0500 -0.1846
  393TIP3    H1 1185   2.753   3.541   3.124  1.3705  1.4151  0.1939
  393TIP3    H2 1186   2.643   3.486   3.212  1.3383 -1.0520 -1.2886
  394TIP3   OH2 1187   6.234   1.375   3.043  0.0838  0.1844  0.6062
  394TIP3    H1 1188   6.324   1.402   3.027  0.3082  0.9408  2.8219
  394TIP3    H2 1189   6.197   1.362   2.956  1.3269  3.1782 -0.5068
  395TIP3   OH2 1190   1.764   1.761   1.828  0.3039 -0.1101  0.5135
  395TIP3    H1 1191   1.793   1.851   1.817  1.6539 -0.3950  1.3979
  395TIP3    H2 1192   1.816   1.711   1.765 -1.2310 -0.1520 -0.7471
  396TIP3   OH2 1193   3.080   3.721   0.277 -0.4253  0.3548  0.0877
  396TIP3    H1 1194   3.135   3.711   0.355 -0.7643  0.8513  0.3963
  396TIP3    H2 1195   3.134   3.772   0.217 -0.0993 -0.1697 -0.0700
  397TIP3   OH2 1196   0.795   4.048   4.817 -0.6883 -0.0362 -0.6020
  397TIP3    H1 1197   0.846   4.110   4.869 -3.1966  1.8163 -0.1343
  397TIP3    H2 1198   0.778   3.975   4.876  0.2946 -0.0703 -0.3519
  398TIP3   OH2 1199   2.791   1.693   0.337  0.0695  0.0090 -0.1334
  398TIP3    H1 1200   2.873   1.648   0.356 -0.3651 -0.9086 -0.3791
  398TIP3    H2 1201   2.741   1.686   0.418  0.5662  1.3651  0.3244
  399TIP3   OH2 1202   3.359   2.272   0.369 -0.4625 -0.5106  0.3519
  399TIP3    H1 1203   3.324   2.327   0.298 -1.6256 -2.8174 -0.9793
  399TIP3    H2 1204   3.283   2.223   0.400  0.5547 -1.4578  1.4089
  400TIP3   OH2 1205   2.681   1.906   0.522  0.4797 -0.5444  0.4499
  400TIP3    H1 1206   2.666   1.830   0.578 -1.5083  0.4298  1.2996
  400TIP3    H2 1207   2.675   1.981   0.580 -0.0180  0.4069 -0.7785
  401TIP3   OH2 1208   0.989   3.735   3.943  0.4822 -0.8062 -0.5487
  401TIP3    H1 1209   1.054   3.681   3.899  0.5662 -1.2196  0.0831
  401TIP3    H2 1210   1.035   3.817   3.961  0.1018 -0.1651 -2.2827
  402TIP3   OH2 1211   5.341   0.973   0.472  0.2298  0.8584  0.1385
  402TIP3    H1 1212   5.355   0.883   0.501 -2.3122  0.6253  0.8545
  402TIP3    H2 1213   5.294   0.964   0.389  0.4402  1.5301 -0.0573
  403TIP3   OH2 1214   0.297   2.052   0.941  0.2862  0.4856  0.1770
  403TIP3    H1 1215   0.308   2.080   1.032 -1.6989  0.1910  0.5414
  403TIP3    H2 1216   0.365   1.986   0.928 -0.2930 -0.5143  1.9238
  404TIP3   OH2 1217   0.916   4.573   1.973 -0.3627 -0.2336  0.2073
  404TIP3    H1 1218   0.922   4.481   1.997 -0.6392 -0.9401 -2.2025
  404TIP3    H2 1219   0.826   4.583   1.940 -0.2764  0.8580  0.2657
  405TIP3   OH2 1220   2.375   3.486   2.783  0.5155 -0.0531 -0.4771
  405TIP3    H1 1221   2.321   3.413   2.753  0.9951 -0.5486 -0.1592
  405TIP3    H2 1222   2.333   3.514   2.865  1.2420 -1.0354  0.2560
  406TIP3   OH2 1223   2.410   2.489   1.144 -0.1859 -0.9053  0.0432
  406TIP3    H1 1224   2.436   2.580   1.142  0.1605 -0.9517  1.4181
  406TIP3    H2 1225   2.450   2.450   1.066  0.3273 -0.0636 -0.1229
  407TIP3   OH2 1226   4.117   0.734   3.416  0.6973 -0.2475  0.0488
  407TIP3    H1 1227   4.138   0.707   3.505  1.4338 -0.1698 -0.0952
  407TIP3    H2 1228   4.067   0.660   3.380  0.1114 -0.1400  0.6256
  408TIP3   OH2 1229   0.376   0.787   2.529  0.2022  0.0656 -0.4001
  408TIP3    H1 1230   0.359   0.714   2.469 -1.7745 -0.8424  1.1698
  408TIP3    H2 1231   0.374   0.864   2.473  2.7155 -0.9983 -2.1776
  409TIP3   OH2 1232   3.447   4.457   1.694 -0.5343 -0.0045 -0.2211
  409TIP3    H1 1233   3.503   4.416   1.627  1.9920  1.2093  0.9858
  409TIP3    H2 1234   3.426   4.385   1.754 -0.8585 -0.6313 -1.0692
  410TIP3   OH2 1235   3.304   3.071   3.809 -0.0485 -0.0086 -0.6102
  410TIP3    H1 1236   3.270   3.045   3.894  2.2955  0.1327  0.4374
  410TIP3    H2 1237   3.326   3.164   3.818  1.0289 -0.1969 -1.0402
  411TIP3   OH2 1238   3.160   4.413   3.508  0.5464  0.4109 -0.5065
  411TIP3    H1 1239   3.131   4.454   3.589  0.6833  1.8753 -1.1604
  411TIP3    H2 1240   3.132   4.322   3.515 -0.6687  0.8451  0.5907
  412TIP3   OH2 1241   0.760   1.015   0.740  0.5421 -0.1798  0.0456
  412TIP3    H1 1242   0.821   1.015   0.666 -1.6624  1.8454 -1.9099
  412TIP3    H2 1243   0.705   0.938   0.726  1.7010 -1.2628  1.1000
  413TIP3   OH2 1244   1.430   4.617   1.399  0.1200  0.1036  0.4742
  413TIP3    H1 1245   1.345   4.595   1.361  0.8306 -2.3562  0.0668
  413TIP3    H2 1246   1.493   4.565   1.348  1.7875  1.2880  1.2217
  414TIP3   OH2 1247   4.751   5.033   3.388  0.3090 -0.2447  0.6826
  414TIP3    H1 1248   4.832   5.080   3.406 -0.5194  1.1833  0.7990
  414TIP3    H2 1249   4.683   5.100   3.390 -0.6863 -1.1432 -1.0179
  415TIP3   OH2 1250   5.763   0.856   1.914 -0.0727  0.7505  0.5172
  415TIP3    H1 1251   5.790   0.798   1.985  1.3153  1.2902  0.4662
  415TIP3    H2 1252   5.794   0.813   1.835 -0.3731  0.8222  0.3624
  416TIP3   OH2 1253   2.431   4.268   2.145  0.4616 -0.8170 -0.3946
  416TIP3    H1 1254   2.512   4.279   2.195  2.2692 -2.9147 -2.6349
  416TIP3    H2 1255   2.372   4.223   2.205  1.1698  0.0641  1.0322
  417TIP3   OH2 1256   5.056   5.177   1.768 -0.3701 -0.3743 -0.5368
  417TIP3    H1 1257   5.110   5.118   1.820  0.6407 -1.0498 -2.2780
  417TIP3    H2 1258   5.059   5.141   1.680 -3.7207 -0.4708 -0.7367
  418TIP3   OH2 1259   2.845   4.380   3.442 -0.8147 -0.6843  0.5361
  418TIP3    H1 1260   2.781   4.311   3.462  0.5762 -2.1692  0.0192
  418TIP3    H2 1261   2.833   4.398   3.349 -1.0871 -0.3139  0.6417
  419TIP3   OH2 1262   3.867   3.367   0.844  0.1513  0.2547  0.3247
  419TIP3    H1 1263   3.897   3.278   0.824  2.2958  0.7768  0.8884
  419TIP3    H2 1264   3.843   3.403   0.758 -1.6823 -1.1196  0.1959
  420TIP3   OH2 1265   0.815   2.335   0.309  0.0609  0.2411  0.2564
  420TIP3    H1 1266   0.723   2.334   0.283 -0.2662  0.5847  1.3397
  420TIP3    H2 1267   0.831   2.246   0.341 -0.0657  0.3538  0.6335
  421TIP3   OH2 1268   6.166   1.113   4.267  0.5341 -0.2086  0.1977
  421TIP3    H1 1269   6.198   1.150   4.185  0.1040 -2.4954 -1.0959
  421TIP3    H2 1270   6.218   1.034   4.280  0.3690 -0.0660  1.9837
  422TIP3   OH2 1271   1.097   1.300   1.491 -0.0842 -0.0285  0.7596
  422TIP3    H1 1272   1.144   1.355   1.428 -0.8483  1.7587  1.6737
  422TIP3    H2 1273   1.036   1.360   1.535 -2.7815 -2.0906  0.1115
  423TIP3   OH2 1274   0.972   3.702   3.175 -0.5195  0.2542 -0.2224
  423TIP3    H1 1275   0.916   3.632   3.141 -0.8131 -0.0184  0.7939
  423TIP3    H2 1276   0.919   3.782   3.166 -0.2449  0.3381 -1.2305
  424TIP3   OH2 1277   6.137   0.772   2.036 -0.1606 -0.0085  0.9360
  424TIP3    H1 1278   6.208   0.714   2.008 -0.8559 -0.1625 -0.6104
  424TIP3    H2 1279   6.112   0.819   1.957 -0.3259  1.6586  1.9357
  425TIP3   OH2 1280   1.731   5.445   3.995  0.1195 -0.4487 -0.2416
  425TIP3    H1 1281   1.696   5.434   4.083 -0.4728  1.6683 -0.1560
  425TIP3    H2 1282   1.826   5.456   4.008 -0.2056  2.1480  0.4394
  426TIP3   OH2 1283   0.162   5.875   3.462  0.4732 -0.2444 -0.3054
  426TIP3    H1 1284   0.079   5.827   3.471  0.7666 -0.6432  0.4004
  426TIP3    H2 1285   0.224   5.809   3.431  0.9463 -0.4150  0.9342
  427TIP3   OH2 1286   4.083   0.449   1.252 -0.5046  0.2436 -1.1180
  427TIP3    H1 1287   4.164   0.497   1.238  0.9054 -1.9071 -0.8399
  427TIP3    H2 1288   4.016   0.499   1.205  1.2452  1.2806 -2.6167
  428TIP3   OH2 1289   0.626   5.661   1.553  0.2801  0.0242 -0.1290
  428TIP3    H1 1290   0.698   5.607   1.586 -0.2212 -0.8524 -0.4524
  428TIP3    H2 1291   0.549   5.630   1.600  0.0922  0.9335  0.1841
  429TIP3   OH2 1292   2.485   4.212   1.293 -0.0579  0.9368  0.1736
  429TIP3    H1 1293   2.439   4.285   1.334  0.0964  1.8972 -1.3200
  429TIP3    H2 1294   2.522   4.163   1.367 -3.5445 -0.0200  1.4927
  430TIP3   OH2 1295   2.009   4.106   2.848 -0.7072 -0.3901  0.6231
  430TIP3    H1 1296   1.935   4.048   2.868 -0.7812 -0.0753  1.3072
  430TIP3    H2 1297   1.969   4.193   2.840 -0.4513 -0.2684  0.6854
  431TIP3   OH2 1298   3.192   0.813   1.870 -0.2889  0.4748  0.0363
  431TIP3    H1 1299   3.230   0.739   1.823  0.8668  0.2663  1.2269
  431TIP3    H2 1300   3.266   0.852   1.917 -1.5596 -0.1935  2.8037
  432TIP3   OH2 1301   4.861   5.546   3.345 -0.2760  0.4207  0.2353
  432TIP3    H1 1302   4.831   5.488   3.414 -0.3487  1.5751  1.2058
  432TIP3    H2 1303   4.810   5.626   3.357  0.1841  0.8752 -0.7459
  433TIP3   OH2 1304   5.181   3.194   1.232 -0.0992  0.3998  0.0255
  433TIP3    H1 1305   5.238   3.150   1.295 -0.7555 -3.6095 -1.9133
  433TIP3    H2 1306   5.115   3.238   1.286 -0.0113 -1.9654  2.2133
  434TIP3   OH2 1307   1.479   5.315   4.177 -0.9909  0.0031 -0.4553
  434TIP3    H1 1308   1.546   5.247   4.168  0.4347  1.2792  0.0467
  434TIP3    H2 1309   1.399   5.273   4.147 -0.0750 -1.7397 -0.6318
  435TIP3   OH2 1310   4.782   4.930   2.627 -0.5885 -0.4486  0.7528
  435TIP3    H1 1311   4.716   4.969   2.683  1.2129  0.1771  2.5804
  435TIP3    H2 1312   4.733   4.888   2.556 -2.8228  1.1143  1.2818
  436TIP3   OH2 1313   4.180   1.479   1.511 -0.2367 -0.2505 -0.1917
  436TIP3    H1 1314   4.130   1.527   1.445  2.4337  1.0453 -1.4172
  436TIP3    H2 1315   4.209   1.546   1.573 -1.3986 -1.2367  1.5266
  437TIP3   OH2 1316   0.947   4.104   3.654  0.1142  0.0187  0.2593
  437TIP3    H1 1317   0.996   4.109   3.736  0.0523 -1.8733  0.4382
  437TIP3    H2 1318   0.925   4.196   3.635  0.5672  0.5600  2.0756
  438TIP3   OH2 1319   3.923   4.368   0.600  0.3194 -0.2709  0.1466
  438TIP3    H1 1320   3.875   4.373   0.683 -0.3207 -1.5440 -0.1191
  438TIP3    H2 1321   3.855   4.361   0.533  0.7659 -3.1185 -0.1737
  439TIP3   OH2 1322   4.183   5.460   4.000  0.1074  0.6943 -0.0326
  439TIP3    H1 1323   4.249   5.502   4.055  0.0520  0.8930 -0.1155
  439TIP3    H2 1324   4.232   5.400   3.944  0.1898  0.6591  0.0790
  440TIP3   OH2 1325   3.402   3.844   1.831  0.3617 -0.2522 -0.2389
  440TIP3    H1 1326   3.454   3.844   1.912  0.1229 -0.1384 -0.0829
  440TIP3    H2 1327   3.320   3.801   1.856 -0.4683  1.4221  0.0770
  441TIP3   OH2 1328   2.891   3.623   0.850 -0.0410 -0.1934 -0.3929
  441TIP3    H1 1329   2.968   3.567   0.858 -0.4259 -0.5227  1.3885
  441TIP3    H2 1330   2.881   3.637   0.756  0.7442 -2.1642 -0.8180
  442TIP3   OH2 1331   3.023   5.263   5.013  0.5277  0.1736 -0.0660
  442TIP3    H1 1332   2.968   5.185   5.017 -0.5989  0.9281 -0.3954
  442TIP3    H2 1333   3.061   5.270   5.101 -0.7522  0.2164  0.5067
  443TIP3   OH2 1334   5.213   0.089   3.954  0.1452 -0.1710 -0.2333
  443TIP3    H1 1335   5.256   0.063   3.872 -0.9590 -0.5879 -0.6999
  443TIP3    H2 1336   5.136   0.032   3.960  0.0719  0.0242  0.9766
  444TIP3   OH2 1337   0.713   5.464   0.500 -0.4290 -0.5043  0.0753
  444TIP3    H1 1338   0.670   5.417   0.571  1.4018 -1.4231  0.6482
  444TIP3    H2 1339   0.789   5.410   0.479 -1.5799 -0.9618 -3.5032
  445TIP3   OH2 1340   3.833   5.015   4.397  0.0404  0.3358 -1.0688
  445TIP3    H1 1341   3.828   5.050   4.486 -2.1555 -1.8166 -0.2413
  445TIP3    H2 1342   3.780   5.075   4.345  1.1152  1.4570 -0.9047
  446TIP3   OH2 1343   4.292   0.135   4.163 -0.5168 -0.3124 -0.2406
  446TIP3    H1 1344   4.330   0.162   4.079 -0.5179 -1.1923 -0.5263
  446TIP3    H2 1345   4.198   0.134   4.147 -0.6404  1.0400  0.2295
  447TIP3   OH2 1346   3.742   1.602   2.113 -0.3398 -0.8128  0.1719
  447TIP3    H1 1347   3.770   1.511   2.116 -0.0228 -0.9916 -3.3828
  447TIP3    H2 1348   3.818   1.650   2.078 -0.4783  0.8717  1.9973
  448TIP3   OH2 1349   0.314   5.647   4.606  0.6617 -0.9759  0.1632
  448TIP3    H1 1350   0.341   5.669   4.696  0.1924  1.5692 -0.2390
  448TIP3    H2 1351   0.396   5.646   4.557  0.9091 -2.2659  0.5780
  449TIP3   OH2 1352   1.863   3.631   3.684 -0.3430  0.2527 -0.1858
  449TIP3    H1 1353   1.824   3.686   3.616  1.4825 -0.0808 -1.5762
  449TIP3    H2 1354   1.826   3.544   3.669  0.4957  0.0485 -1.1718
  450TIP3   OH2 1355   0.900   5.712   2.164  0.0617 -0.5236 -0.4994
  450TIP3    H1 1356   0.953   5.774   2.114  1.2893 -0.8493  0.3317
  450TIP3    H2 1357   0.907   5.743   2.255  0.9703 -2.0370 -0.0192
  451TIP3   OH2 1358   3.347   0.279   2.210 -0.0826  0.1720 -0.1361
  451TIP3    H1 1359   3.263   0.260   2.168 -0.3269  0.4165  0.2392
  451TIP3    H2 1360   3.325   0.293   2.302  0.6051 -1.6151  0.3368
  452TIP3   OH2 1361   5.429   2.273   4.863 -0.2600  0.2582  0.2055
  452TIP3    H1 1362   5.438   2.359   4.904  0.3185  0.7024 -0.8049
  452TIP3    H2 1363   5.464   2.212   4.927 -1.2568  0.7021  1.1905
  453TIP3   OH2 1364   0.039   3.953   4.051 -0.5495  0.1053 -0.5043
  453TIP3    H1 1365  -0.005   3.992   3.974 -2.7543 -0.4887  0.3716
  453TIP3    H2 1366  -0.025   3.963   4.122 -0.5358 -3.4716  0.1777
  454TIP3   OH2 1367   3.034   2.769   4.679  0.3007  0.0928 -0.0115
  454TIP3    H1 1368   3.059   2.823   4.754  0.2061  1.0944 -0.6741
  454TIP3    H2 1369   3.005   2.687   4.717 -0.1548  0.7300  1.0810
  455TIP3   OH2 1370   0.327   4.814   1.569  0.1918  0.2676  0.3952
  455TIP3    H1 1371   0.291   4.796   1.656 -0.3266 -0.2531  0.0818
  455TIP3    H2 1372   0.325   4.909   1.560  1.8033  0.4618  1.6018
  456TIP3   OH2 1373   1.106   3.006   2.513  0.5479  0.1512 -0.7825
  456TIP3    H1 1374   1.028   3.032   2.464 -0.3104 -1.3425 -0.2451
  456TIP3    H2 1375   1.121   2.915   2.490  0.1419 -0.6131  1.6441
  457TIP3   OH2 1376   2.753   5.605   0.807  0.4795 -0.4790 -0.4466
  457TIP3    H1 1377   2.783   5.552   0.881  1.3205 -0.4248 -0.7436
  457TIP3    H2 1378   2.776   5.695   0.831 -0.2336 -0.3288 -0.2949
  458TIP3   OH2 1379   2.945   3.391   3.358 -0.0145  0.1267 -0.4021
  458TIP3    H1 1380   2.922   3.453   3.427  0.9966 -0.9980  1.0247
  458TIP3    H2 1381   2.980   3.315   3.406  1.5138 -0.3569 -2.1917
  459TIP3   OH2 1382   4.433   0.813   2.738 -0.1602 -0.0899  0.3356
  459TIP3    H1 1383   4.447   0.836   2.830 -0.2560  1.0990  0.0788
  459TIP3    H2 1384   4.501   0.861   2.690 -0.8186  0.2438 -0.3013
  460TIP3   OH2 1385   6.089   5.646   1.732 -0.1761  0.6710 -0.0312
  460TIP3    H1 1386   6.149   5.663   1.805 -0.0174  0.4411 -0.1070
  460TIP3    H2 1387   6.104   5.719   1.672 -1.5370  1.7998  0.9473
  461TIP3   OH2 1388   1.131   1.021   2.474  0.2510 -0.0840  0.0696
  461TIP3    H1 1389   1.211   1.073   2.483  0.1585  0.2708 -1.0835
  461TIP3    H2 1390   1.070   1.078   2.428 -0.9778 -0.0367  1.6696
  462TIP3   OH2 1391   4.681   1.517   1.569  0.2927 -0.2062 -0.1478
  462TIP3    H1 1392   4.608   1.578   1.575  1.3087  0.9569  0.9647
  462TIP3    H2 1393   4.759   1.572   1.575  1.3238 -1.2780 -2.6297
  463TIP3   OH2 1394   2.392   4.811   1.412  0.6040  0.6952  0.1154
  463TIP3    H1 1395   2.357   4.752   1.478 -1.7903 -1.4736 -2.8225
  463TIP3    H2 1396   2.455   4.758   1.363  1.6414  1.9445  0.0449
  464TIP3   OH2 1397   2.885   3.583   1.116  0.5441  0.1409 -0.5784
  464TIP3    H1 1398   2.876   3.598   1.022  0.9405 -0.2125 -0.6726
  464TIP3    H2 1399   2.938   3.504   1.123  0.4802  0.1424 -0.0564
  465TIP3   OH2 1400   2.924   4.521   0.131  0.0155 -0.1422  0.2407
  465TIP3    H1 1401   2.916   4.496   0.223 -1.3525 -1.7777 -0.2765
  465TIP3    H2 1402   2.834   4.536   0.102  0.3473 -0.5587 -1.0702
  466TIP3   OH2 1403   1.178   1.189   3.044  0.3513 -0.3655 -0.6100
  466TIP3    H1 1404   1.170   1.185   2.948 -1.0644 -0.0913 -0.5283
  466TIP3    H2 1405   1.219   1.273   3.062 -1.6011  0.7157 -0.9105
  467TIP3   OH2 1406   0.272   5.075   4.499 -0.2999  0.1559  0.3274
  467TIP3    H1 1407   0.232   5.146   4.449 -3.1317 -0.1589  1.8936
  467TIP3    H2 1408   0.263   4.997   4.443  3.2063  0.9090 -1.5797
  468TIP3   OH2 1409   0.030   0.502   0.071  0.4027  0.1262 -0.1133
  468TIP3    H1 1410   0.118   0.468   0.091  1.1340  2.2439  0.5541
  468TIP3    H2 1411   0.004   0.548   0.151 -1.4393 -0.6371 -0.2369
  469TIP3   OH2 1412   1.831   5.952   3.478  0.2834  0.7192 -0.3912
  469TIP3    H1 1413   1.842   5.969   3.572  0.7860 -0.1146 -0.2926
  469TIP3    H2 1414   1.737   5.935   3.468  0.1448  1.2998 -0.1273
  470TIP3   OH2 1415   1.842   1.048   0.110  0.2193  0.1818 -0.7837
  470TIP3    H1 1416   1.808   0.977   0.055  1.5177 -0.5639 -0.6729
  470TIP3    H2 1417   1.865   1.117   0.047 -0.8826  0.4545 -0.9071
  471TIP3   OH2 1418   1.196   5.694   5.070  0.4918  0.0598  0.1308
  471TIP3    H1 1419   1.111   5.664   5.103  0.0282  0.6618 -0.4894
  471TIP3    H2 1420   1.260   5.639   5.116 -0.2691 -1.0198 -0.0531
  472TIP3   OH2 1421   1.841   5.581   1.288  0.0043  0.0817  0.3349
  472TIP3    H1 1422   1.919   5.560   1.338  0.1074 -0.5067 -0.0603
  472TIP3    H2 1423   1.864   5.562   1.197 -0.3488  0.6341  0.1187
  473TIP3   OH2 1424   5.407   0.343   4.187 -0.7020  0.2117 -0.3732
  473TIP3    H1 1425   5.454   0.423   4.208 -0.8357  0.2653 -0.2806
  473TIP3    H2 1426   5.332   0.372   4.135 -2.4886  0.4977  2.1898
  474TIP3   OH2 1427   3.011   0.356   3.682 -0.5987 -0.2745  0.5788
  474TIP3    H1 1428   2.990   0.329   3.593 -0.6924  1.0447  0.1728
  474TIP3    H2 1429   3.097   0.318   3.700  0.5355  1.4041 -1.0017
  475TIP3   OH2 1430   4.661   0.051   3.511  0.5958  0.3367  0.1773
  475TIP3    H1 1431   4.577   0.005   3.504  1.2168 -0.6143 -1.4814
  475TIP3    H2 1432   4.655   0.099   3.594 -1.4235 -0.0184  0.2840
  476TIP3   OH2 1433   1.980   4.219   3.520  0.5022 -0.6868 -0.2403
  476TIP3    H1 1434   2.005   4.127   3.520 -0.3632 -0.9276 -0.8380
  476TIP3    H2 1435   1.925   4.229   3.597 -0.5802 -1.0043 -0.9612
  477TIP3   OH2 1436   1.845   4.984   4.303 -0.3941  0.3693 -0.3940
  477TIP3    H1 1437   1.844   4.996   4.398  0.6009 -0.1520 -0.3043
  477TIP3    H2 1438   1.768   5.031   4.272 -0.3272  1.1539  0.5976
  478TIP3   OH2 1439   5.050   5.423   5.102  0.6873  0.4148 -0.0747
  478TIP3    H1 1440   5.024   5.492   5.163 -3.1489 -1.1958  0.4380
  478TIP3    H2 1441   5.028   5.458   5.015  0.8236  0.6353 -0.0207
  479TIP3   OH2 1442   2.132   0.406   2.765  0.1760 -0.1902 -0.0980
  479TIP3    H1 1443   2.116   0.484   2.818  1.1744  1.3568 -1.9198
  479TIP3    H2 1444   2.218   0.375   2.793 -0.3125 -0.8014  0.7745
  480TIP3   OH2 1445   4.670   1.323   4.368  0.4106 -0.1204  0.0455
  480TIP3    H1 1446   4.715   1.386   4.311  0.7992  1.0642  1.5820
  480TIP3    H2 1447   4.588   1.304   4.323  0.3376  1.4131 -0.5360
  481TIP3   OH2 1448   2.240   0.383   0.135  0.0073 -0.1684  0.3790
  481TIP3    H1 1449   2.296   0.305   0.134 -0.3780 -0.4502 -0.3972
  481TIP3    H2 1450   2.301   0.456   0.141  0.8150 -0.2493 -3.7529
  482TIP3   OH2 1451   1.841   3.131   4.201 -0.2164 -0.1783 -0.0933
  482TIP3    H1 1452   1.926   3.091   4.219 -0.0641 -0.0902 -0.5910
  482TIP3    H2 1453   1.804   3.077   4.131 -0.1393  0.3673 -0.5631
  483TIP3   OH2 1454   4.537   4.354   4.968 -0.0950 -0.3282 -0.0394
  483TIP3    H1 1455   4.613   4.313   5.008  0.1188 -0.3471 -0.4638
  483TIP3    H2 1456   4.466   4.290   4.979 -1.2195  1.2961  4.1727
  484TIP3   OH2 1457   0.927   0.845   4.581  0.4226 -0.1130  0.2983
  484TIP3    H1 1458   0.909   0.929   4.622  1.0201 -0.2984  0.9487
  484TIP3    H2 1459   0.982   0.798   4.644  0.7546 -0.6839 -0.4042
  485TIP3   OH2 1460   1.709   4.898   1.999 -0.6321  0.0820 -0.2976
  485TIP3    H1 1461   1.621   4.903   2.035 -0.1882  0.1641  0.7976
  485TIP3    H2 1462   1.721   4.805   1.979 -0.0634 -0.3804  1.9378
  486TIP3   OH2 1463   2.882   1.474   2.247 -0.2388 -0.2911  0.3596
  486TIP3    H1 1464   2.935   1.501   2.322  1.0584  0.1504 -0.6869
  486TIP3    H2 1465   2.862   1.382   2.264  2.1196 -0.9240  0.1212
  487TIP3   OH2 1466   3.943   4.902   0.173 -0.1274 -0.0554  0.2097
  487TIP3    H1 1467   4.012   4.841   0.147 -0.3251 -0.1127 -0.1817
  487TIP3    H2 1468   3.937   4.891   0.268  1.6447  1.2647  0.5250
  488TIP3   OH2 1469   2.061   5.450   5.026  0.6638  0.2526 -0.3783
  488TIP3    H1 1470   2.026   5.535   5.051 -0.4396 -0.9897  2.9073
  488TIP3    H2 1471   2.123   5.428   5.096 -1.5132 -2.9344  0.7933
  489TIP3   OH2 1472   0.841   2.068   0.384  0.3394  0.1484 -0.2972
  489TIP3    H1 1473   0.889   2.028   0.457  0.6592 -0.9642 -1.0786
  489TIP3    H2 1474   0.802   1.993   0.339 -0.1099  0.8481 -1.0779
  490TIP3   OH2 1475   5.914   3.636   4.076 -0.2714  0.1485  0.2254
  490TIP3    H1 1476   5.960   3.700   4.023 -0.8043 -0.0283 -0.4732
  490TIP3    H2 1477   5.902   3.679   4.161  1.7018 -0.0418  0.6429
  491TIP3   OH2 1478   3.769   0.963   4.921  0.1328 -0.5069 -0.0656
  491TIP3    H1 1479   3.723   0.969   5.005  0.3941 -1.2239  0.1337
  491TIP3    H2 1480   3.761   0.871   4.896 -0.0014 -0.2840 -0.8654
  492TIP3   OH2 1481   6.070   5.215   2.108 -0.2119 -0.5321 -0.0980
  492TIP3    H1 1482   6.047   5.302   2.073  0.6994 -0.7298 -1.2724
  492TIP3    H2 1483   5.986   5.174   2.128 -0.6380  0.9510  1.3653
  493TIP3   OH2 1484   6.227   0.470   1.260  0.0379 -0.2772  0.2466
  493TIP3    H1 1485   6.311   0.446   1.299  0.4468 -0.3744 -0.6662
  493TIP3    H2 1486   6.184   0.386   1.241 -0.4873 -0.2260  1.1529
  494TIP3   OH2 1487   3.917   3.550   1.049 -0.0753 -0.2441 -0.4262
  494TIP3    H1 1488   3.885   3.500   0.973  0.6339 -0.5043 -0.5553
  494TIP3    H2 1489   3.963   3.486   1.102  0.3698  0.1623 -0.3182
  495TIP3   OH2 1490   5.468   5.068   4.543  0.0017 -0.0990  0.4014
  495TIP3    H1 1491   5.391   5.089   4.490  1.6425  0.0109 -2.0506
  495TIP3    H2 1492   5.456   4.976   4.567 -0.6176 -0.2551 -0.4472
  496TIP3   OH2 1493   3.661   1.594   4.953 -0.2695  0.3210 -0.1305
  496TIP3    H1 1494   3.650   1.509   4.911  0.2662  1.2350 -2.2247
  496TIP3    H2 1495   3.584   1.644   4.927  0.4833  1.1802 -0.7892
  497TIP3   OH2 1496   5.392   5.669   0.024 -0.6219  0.1621  0.1836
  497TIP3    H1 1497   5.357   5.684   0.112 -2.1032  0.8165 -0.4961
  497TIP3    H2 1498   5.486   5.656   0.038 -1.1432 -2.2561  2.1203
  498TIP3   OH2 1499   3.990   4.746   1.193  0.6870  0.2861  0.1302
  498TIP3    H1 1500   3.993   4.660   1.151 -0.7676  0.1269  0.3301
  498TIP3    H2 1501   3.949   4.803   1.128  0.9659  0.6693  0.2863
  499TIP3   OH2 1502   0.757   5.367   2.941 -0.1719 -0.2360  0.3550
  499TIP3    H1 1503   0.690   5.347   2.876  0.4961  0.4618 -0.5719
  499TIP3    H2 1504   0.832   5.314   2.916 -0.1499 -0.5250  1.0068
  500TIP3   OH2 1505   0.227   4.430   3.128 -0.2915  0.2023  0.0746
  500TIP3    H1 1506   0.277   4.372   3.070 -0.0697 -1.7054  2.0193
  500TIP3    H2 1507   0.190   4.371   3.194  0.0101  2.2736  2.2416
  501TIP3   OH2 1508   2.118   0.604   1.302 -0.3418  0.4460  0.2998
  501TIP3    H1 1509   2.100   0.563   1.218  0.3724 -0.2495  0.4732
  501TIP3    H2 1510   2.033   0.636   1.333 -0.3830  2.2148 -1.4354
  502TIP3   OH2 1511   5.354   0.799   3.489  0.3106 -0.0801 -0.1269
  502TIP3    H1 1512   5.318   0.837   3.409 -1.8322 -1.4172  0.1385
  502TIP3    H2 1513   5.405   0.724   3.459 -2.5679 -2.1565 -0.2233
  503TIP3   OH2 1514   1.176   2.176   0.373  0.1296 -0.1483 -0.5595
  503TIP3    H1 1515   1.126   2.257   0.365  0.6775  0.2460 -0.1080
  503TIP3    H2 1516   1.207   2.158   0.284 -2.5187 -1.5655 -1.2992
  504TIP3   OH2 1517   6.068   5.662   1.374  0.5562 -0.4006 -0.2554
  504TIP3    H1 1518   6.056   5.723   1.302 -0.3664  0.8219  0.8807
  504TIP3    H2 1519   6.030   5.580   1.341 -0.8575  0.4241 -0.8023
  505TIP3   OH2 1520   0.451   1.108   3.135  0.2546  0.3905 -0.0299
  505TIP3    H1 1521   0.506   1.150   3.069 -0.8718  0.8751 -0.6891
  505TIP3    H2 1522   0.397   1.179   3.170 -0.4443 -0.1938  0.1032
  506TIP3   OH2 1523   5.871   5.403   4.959  0.0283 -0.2644 -0.5714
  506TIP3    H1 1524   5.929   5.367   4.892 -0.3579 -0.7341 -0.6597
  506TIP3    H2 1525   5.784   5.397   4.921 -0.2050 -0.6421  0.0210
  507TIP3   OH2 1526   0.205   3.962   1.347 -0.2381  0.0043  0.5193
  507TIP3    H1 1527   0.133   3.984   1.407  0.7553 -0.5517  1.9703
  507TIP3    H2 1528   0.212   3.867   1.353  0.3621  0.0225  0.0901
  508TIP3   OH2 1529   2.364   3.247   2.257 -0.2577  0.2660  0.0684
  508TIP3    H1 1530   2.299   3.209   2.316  0.4649 -0.8914  0.1584
  508TIP3    H2 1531   2.313   3.290   2.188 -1.1036  0.4708  0.8095
  509TIP3   OH2 1532   5.107   2.210   1.507  0.2297  0.1378  0.2941
  509TIP3    H1 1533   5.157   2.173   1.434 -0.6353  0.0341 -0.2646
  509TIP3    H2 1534   5.108   2.141   1.574 -0.8870 -0.6962 -0.5195
  510TIP3   OH2 1535   3.479   3.380   2.753 -0.0124 -0.1888  0.4763
  510TIP3    H1 1536   3.388   3.409   2.749  0.4027  1.4535  1.9179
  510TIP3    H2 1537   3.473   3.289   2.783 -1.2428 -1.0157 -1.9946
  511TIP3   OH2 1538   5.355   0.479   1.901 -0.4455 -0.0959  0.5010
  511TIP3    H1 1539   5.448   0.465   1.883 -0.3481  0.3849  0.6215
  511TIP3    H2 1540   5.343   0.451   1.992 -0.3619  0.0908  0.5702
  512TIP3   OH2 1541   4.005   4.595   0.437  0.1198 -0.0981  0.2850
  512TIP3    H1 1542   4.005   4.504   0.466  1.1912 -0.0421  0.5250
  512TIP3    H2 1543   4.038   4.591   0.346  1.6107  0.1503  0.7781
  513TIP3   OH2 1544   4.257   2.971   3.122  0.4038  0.0634  0.2084
  513TIP3    H1 1545   4.268   2.923   3.040 -1.6109  0.8732 -0.6097
  513TIP3    H2 1546   4.341   3.015   3.136  0.9973 -0.6174 -1.0583
  514TIP3   OH2 1547   4.159   2.923   0.827  0.1207 -0.0764 -0.3697
  514TIP3    H1 1548   4.144   2.919   0.733  0.7401 -0.6235 -0.4471
  514TIP3    H2 1549   4.254   2.929   0.837  0.0435  0.4013  0.2118
  515TIP3   OH2 1550   4.559   3.697   1.089  0.0269 -0.2044  0.3798
  515TIP3    H1 1551   4.598   3.610   1.092  0.0373 -0.2632 -0.7769
  515TIP3    H2 1552   4.609   3.743   1.022 -0.4797  0.4280  0.4299
  516TIP3   OH2 1553   2.143   3.203   4.575  0.1811 -0.0194 -0.1652
  516TIP3    H1 1554   2.069   3.149   4.547 -0.2722  1.0591 -1.0888
  516TIP3    H2 1555   2.135   3.284   4.525  1.0593  0.7776  0.9191
  517TIP3   OH2 1556   4.986   5.837   3.027 -0.2580  0.5825  0.2441
  517TIP3    H1 1557   4.990   5.838   2.932  1.3458 -1.5144  0.2081
  517TIP3    H2 1558   4.892   5.832   3.047 -0.5699 -1.4034 -1.3576
  518TIP3   OH2 1559   2.854   5.865   0.900  0.7692  0.2954  0.0889
  518TIP3    H1 1560   2.844   5.958   0.923  0.2900 -0.1424  1.7522
  518TIP3    H2 1561   2.941   5.842   0.931  0.7502  0.1000 -0.0033
  519TIP3   OH2 1562   5.077   2.634   1.842  0.0061  0.4169  0.3520
  519TIP3    H1 1563   4.984   2.623   1.859 -0.0306  2.1051  1.4811
  519TIP3    H2 1564   5.082   2.662   1.750 -0.5001 -0.5310  0.0239
  520TIP3   OH2 1565   6.209   1.717   1.159 -0.1584  0.4398  0.5062
  520TIP3    H1 1566   6.165   1.681   1.236  0.8071  0.3925  1.0517
  520TIP3    H2 1567   6.138   1.750   1.104 -1.0265 -1.4528  0.4083
  521TIP3   OH2 1568   5.379   4.063   4.427 -0.2092 -0.0412 -0.4369
  521TIP3    H1 1569   5.428   4.137   4.392  0.7159 -1.3410 -2.0201
  521TIP3    H2 1570   5.395   3.991   4.365  0.2126 -2.0336  1.8154
  522TIP3   OH2 1571   5.828   5.656   4.647 -0.6173 -0.4367 -0.1219
  522TIP3    H1 1572   5.786   5.575   4.619  1.3051 -0.8690 -2.0069
  522TIP3    H2 1573   5.922   5.637   4.645 -0.1797  1.3656  0.9643
  523TIP3   OH2 1574   2.765   5.498   3.588  0.1752  0.1053 -0.1380
  523TIP3    H1 1575   2.801   5.410   3.599 -2.5442 -0.9971  0.7268
  523TIP3    H2 1576   2.772   5.515   3.494  2.7157 -0.0437 -0.0563
  524TIP3   OH2 1577   5.034   2.193   2.684  0.0696  0.9249 -0.2376
  524TIP3    H1 1578   5.095   2.264   2.702 -0.6022  1.4320  0.0809
  524TIP3    H2 1579   5.029   2.145   2.767 -0.8779  1.6007  0.1099
  525TIP3   OH2 1580   2.333   1.121   0.740  0.2210 -0.2888  0.1470
  525TIP3    H1 1581   2.351   1.073   0.821 -0.6994 -0.2397  0.3971
  525TIP3    H2 1582   2.351   1.213   0.762  0.8054 -0.3759  0.0348
  526TIP3   OH2 1583   6.086   5.282   4.037 -0.0634 -0.4899  0.2783
  526TIP3    H1 1584   6.058   5.260   3.947  0.1477 -1.7449  0.4968
  526TIP3    H2 1585   6.052   5.210   4.090  2.5780 -1.4805  0.7364
  527TIP3   OH2 1586   5.372   0.624   1.598  0.4502 -0.1699  0.2611
  527TIP3    H1 1587   5.371   0.529   1.612 -1.5055 -0.4823 -1.3854
  527TIP3    H2 1588   5.286   0.653   1.629 -0.3023  0.4824 -2.2304
  528TIP3   OH2 1589   1.616   3.866   1.669  0.0381 -0.1000  0.7820
  528TIP3    H1 1590   1.665   3.881   1.589 -2.6450 -0.8967 -1.1644
  528TIP3    H2 1591   1.625   3.947   1.719  0.6956  0.9452 -0.9462
  529TIP3   OH2 1592   1.741   5.805   0.929 -0.2168 -0.0772  0.2360
  529TIP3    H1 1593   1.721   5.841   1.015 -1.0601  0.6391 -0.2499
  529TIP3    H2 1594   1.656   5.789   0.888  0.1640  0.9025 -1.0065
  530TIP3   OH2 1595   1.596   1.172   5.083 -0.6247 -0.0330  0.2362
  530TIP3    H1 1596   1.578   1.144   4.994 -1.5719 -1.5506  0.8620
  530TIP3    H2 1597   1.558   1.103   5.138 -2.4250  2.1163  1.8687
  531TIP3   OH2 1598   3.795   0.112   0.642 -0.6494 -0.0749 -0.6366
  531TIP3    H1 1599   3.889   0.122   0.655 -0.8611 -0.5117  1.5939
  531TIP3    H2 1600   3.761   0.202   0.638 -0.2606  0.0854 -0.3615
  532TIP3   OH2 1601   2.071   3.736   1.962  0.2269 -0.4328  0.2099
  532TIP3    H1 1602   2.127   3.813   1.963  1.3400 -1.2202  0.8878
  532TIP3    H2 1603   2.122   3.669   1.915 -0.5223 -0.9088  0.0442
  533TIP3   OH2 1604   4.481   2.684   1.828 -0.1620  0.4405 -0.1264
  533TIP3    H1 1605   4.514   2.697   1.916 -0.1064 -0.7207  0.0368
  533TIP3    H2 1606   4.437   2.599   1.831  1.0339 -0.2662 -1.5590
  534TIP3   OH2 1607   2.304   4.714   4.518  0.0398 -0.4791  0.0148
  534TIP3    H1 1608   2.309   4.643   4.582  0.3057 -0.7976 -0.3567
  534TIP3    H2 1609   2.247   4.680   4.449  0.8012 -0.6392 -0.5468
  535TIP3   OH2 1610   0.813   0.564   4.937 -0.1027 -0.3146  0.0735
  535TIP3    H1 1611   0.772   0.542   5.021  0.2610 -0.4743  0.2117
  535TIP3    H2 1612   0.833   0.657   4.944 -0.2622 -0.2801  0.0811
  536TIP3   OH2 1613   4.809   2.959   3.836  0.0692 -0.1589 -0.3223
  536TIP3    H1 1614   4.793   2.917   3.920  0.4748 -0.0038 -0.1689
  536TIP3    H2 1615   4.723   2.994   3.810 -0.1244 -0.4882 -0.1322
  537TIP3   OH2 1616   1.253   1.080   1.037  0.1250 -0.4586  0.0116
  537TIP3    H1 1617   1.285   1.118   1.118  1.1460 -1.3529  0.0614
  537TIP3    H2 1618   1.280   1.142   0.969  1.6300 -0.9567  0.1040
  538TIP3   OH2 1619   0.326   4.178   0.382 -0.1942  0.0631 -0.4310
  538TIP3    H1 1620   0.314   4.087   0.410  0.6690 -0.0827 -0.5208
  538TIP3    H2 1621   0.417   4.183   0.352 -0.0495  1.1118  0.1393
  539TIP3   OH2 1622   4.953   0.833   0.689  0.4436  0.6761 -0.1727
  539TIP3    H1 1623   4.990   0.909   0.734 -1.3271 -0.7638  4.3068
  539TIP3    H2 1624   4.863   0.859   0.669  0.0497  0.0939  0.7390
  540TIP3   OH2 1625   0.861   0.406   3.203 -0.3045  0.0223  0.2962
  540TIP3    H1 1626   0.899   0.463   3.136  0.2338  0.5426  1.0325
  540TIP3    H2 1627   0.935   0.357   3.239 -0.6017 -0.3239  0.4461
  541TIP3   OH2 1628   3.955   0.674   2.312 -0.5859 -0.4090  0.2792
  541TIP3    H1 1629   3.894   0.694   2.240 -0.4433  0.1095  0.2952
  541TIP3    H2 1630   3.901   0.679   2.391 -0.0950  2.4826  0.5487
  542TIP3   OH2 1631   6.234   2.522   0.698 -0.7313 -0.3051 -0.2617
  542TIP3    H1 1632   6.266   2.591   0.639 -1.1683 -0.0980 -0.2651
  542TIP3    H2 1633   6.191   2.459   0.640 -1.0753 -0.1506 -0.1810
  543TIP3   OH2 1634   4.881   3.032   4.636 -0.2041  0.0169  0.1509
  543TIP3    H1 1635   4.828   3.076   4.569  2.3610  1.9677 -0.7593
  543TIP3    H2 1636   4.886   3.094   4.708  0.8736 -0.0653  0.1690
  544TIP3   OH2 1637   3.340   1.422   5.068 -0.0087 -0.1422 -0.1151
  544TIP3    H1 1638   3.286   1.472   5.008 -0.2095 -0.8264 -0.5106
  544TIP3    H2 1639   3.428   1.424   5.029 -0.3843 -1.6194 -1.0984
  545TIP3   OH2 1640   2.266   2.216   4.469 -0.8610  0.3302 -0.3087
  545TIP3    H1 1641   2.215   2.264   4.534  0.8096  1.4912  0.2052
  545TIP3    H2 1642   2.357   2.230   4.494 -0.2339 -0.8085 -1.7933
  546TIP3   OH2 1643   3.357   0.223   2.738 -0.0654 -0.4529 -0.3042
  546TIP3    H1 1644   3.449   0.202   2.728  0.0607 -0.0437 -0.0369
  546TIP3    H2 1645   3.312   0.168   2.674  0.4848  0.2940 -1.3604
  547TIP3   OH2 1646   0.628   1.097   2.491 -0.2577 -0.2014 -0.0974
  547TIP3    H1 1647   0.680   1.027   2.531 -0.2154 -0.1154  0.0003
  547TIP3    H2 1648   0.577   1.054   2.423  0.3498 -0.2023 -0.5651
  548TIP3   OH2 1649   4.851   4.837   3.215  0.5285  0.2822  0.3352
  548TIP3    H1 1650   4.913   4.804   3.281 -0.0324 -0.6353  0.4278
  548TIP3    H2 1651   4.818   4.919   3.252 -0.6685 -0.7934  1.8110
  549TIP3   OH2 1652   0.529   3.686   3.493  0.2619 -0.3859  0.6939
  549TIP3    H1 1653   0.582   3.671   3.572 -1.0093 -0.9968  1.4463
  549TIP3    H2 1654   0.474   3.608   3.485 -0.0657 -0.0549 -0.4575
  550TIP3   OH2 1655   4.560   5.359   2.235 -0.4684  0.8841  0.7188
  550TIP3    H1 1656   4.607   5.320   2.161 -0.7793  0.9253  0.4957
  550TIP3    H2 1657   4.554   5.452   2.213 -1.0091  0.8138  0.5482
  551TIP3   OH2 1658   6.282   5.596   3.155 -0.1879 -0.2245  0.0042
  551TIP3    H1 1659   6.304   5.504   3.166  0.1504 -0.4511 -2.2232
  551TIP3    H2 1660   6.219   5.614   3.225  0.5064 -1.8501  1.0996
  552TIP3   OH2 1661   2.638   2.545   4.249  0.2470  0.4462  0.0936
  552TIP3    H1 1662   2.631   2.581   4.337 -3.1046 -0.6329  0.4130
  552TIP3    H2 1663   2.687   2.610   4.199  0.3033  2.1237  2.2178
  553TIP3   OH2 1664   0.052   1.830   0.675 -0.3437  0.0813 -1.0259
  553TIP3    H1 1665   0.134   1.784   0.691  0.2977  1.3518 -0.5416
  553TIP3    H2 1666  -0.009   1.761   0.649  0.4674 -1.0948  0.0455
  554TIP3   OH2 1667   0.657   4.364   2.829  0.0924  0.1802 -0.4539
  554TIP3    H1 1668   0.748   4.392   2.842  0.6096 -1.2583 -0.7822
  554TIP3    H2 1669   0.616   4.373   2.915  1.7466 -3.1805  0.8847
  555TIP3   OH2 1670   6.019   0.257   4.384  0.3573  0.4124  0.8208
  555TIP3    H1 1671   6.006   0.344   4.421  0.4667  0.4598  0.7464
  555TIP3    H2 1672   6.077   0.212   4.446 -1.5684 -0.4249  2.1365
  556TIP3   OH2 1673   0.285   1.686   4.262  0.1692 -0.1687 -0.5112
  556TIP3    H1 1674   0.228   1.616   4.293  1.4045 -0.5508  1.0339
  556TIP3    H2 1675   0.234   1.731   4.195 -1.3011 -1.4844 -0.3242
  557TIP3   OH2 1676   4.223   1.223   3.138 -0.2673 -0.0218  0.2945
  557TIP3    H1 1677   4.198   1.257   3.224  0.7091 -2.6542  1.7503
  557TIP3    H2 1678   4.318   1.212   3.143 -0.0626  0.6971 -1.5139
  558TIP3   OH2 1679   0.928   4.025   4.387  0.0881 -0.2219 -0.3008
  558TIP3    H1 1680   0.943   4.109   4.430 -0.8829 -0.9627  1.6197
  558TIP3    H2 1681   0.863   4.043   4.320  0.0047  0.5916 -0.0091
  559TIP3   OH2 1682   4.367   3.176   4.404  0.1560  0.0982  0.4748
  559TIP3    H1 1683   4.361   3.246   4.339 -0.2148  0.9852  1.4282
  559TIP3    H2 1684   4.388   3.222   4.486 -1.2162 -0.7754  1.3592
  560TIP3   OH2 1685   1.529   3.936   1.097  0.0577  0.0901  0.2326
  560TIP3    H1 1686   1.503   3.866   1.157  0.6296 -0.6019 -0.3211
  560TIP3    H2 1687   1.621   3.953   1.118  0.3841 -0.4541 -0.7431
  561TIP3   OH2 1688   0.377   1.269   2.367 -0.4890  0.3334  0.0314
  561TIP3    H1 1689   0.430   1.231   2.297 -0.8286  0.8956 -0.5278
  561TIP3    H2 1690   0.420   1.239   2.447 -0.0520 -0.2431 -0.4106
  562TIP3   OH2 1691   5.903   4.607   0.678  0.4633 -0.2965 -0.3668
  562TIP3    H1 1692   5.825   4.653   0.646 -0.2274 -0.2436  1.2590
  562TIP3    H2 1693   5.890   4.603   0.773  1.2468 -2.5138 -0.3134
  563TIP3   OH2 1694   2.592   2.843   4.275  0.5204 -0.0684 -1.0594
  563TIP3    H1 1695   2.623   2.809   4.359 -0.2863  0.0968 -0.6829
  563TIP3    H2 1696   2.593   2.938   4.286 -0.2855 -0.0668 -0.9737
  564TIP3   OH2 1697   5.087   5.646   1.669  0.1920 -0.8236 -0.3247
  564TIP3    H1 1698   5.001   5.635   1.628 -0.1422  0.7367 -0.0819
  564TIP3    H2 1699   5.093   5.573   1.731 -1.5048 -0.2832  0.5483
  565TIP3   OH2 1700   5.652   0.129   2.988 -0.0092 -0.2858  0.3782
  565TIP3    H1 1701   5.617   0.207   2.945  1.9783  1.4957  1.8033
  565TIP3    H2 1702   5.667   0.156   3.078 -0.3915 -2.7273  1.2418
  566TIP3   OH2 1703   0.661   4.292   4.660  0.5662 -0.0222 -0.3435
  566TIP3    H1 1704   0.662   4.350   4.736 -0.4247 -1.2511  0.6600
  566TIP3    H2 1705   0.731   4.230   4.676  0.5184 -0.1356 -0.5679
  567TIP3   OH2 1706   2.194   0.700   0.008  0.4081  0.1804  0.1046
  567TIP3    H1 1707   2.150   0.755  -0.057  3.2156  1.0604 -1.1894
  567TIP3    H2 1708   2.122   0.654   0.052 -1.7131  0.4741 -2.7349
  568TIP3   OH2 1709   1.747   4.624   4.498  0.1274 -0.1159 -0.9500
  568TIP3    H1 1710   1.808   4.698   4.506  0.7945 -0.6487 -1.0332
  568TIP3    H2 1711   1.763   4.571   4.576 -1.0281  0.3085 -0.4047
  569TIP3   OH2 1712   3.791   0.513   5.032  0.2084  0.1957  0.2763
  569TIP3    H1 1713   3.827   0.600   5.016 -0.3516  0.2133 -0.9670
  569TIP3    H2 1714   3.696   0.526   5.037  0.2514  0.1103  3.2380
  570TIP3   OH2 1715   1.670   4.525   1.269  0.3043 -0.2745  0.3455
  570TIP3    H1 1716   1.668   4.440   1.225  0.6816 -0.0351 -0.1480
  570TIP3    H2 1717   1.749   4.567   1.236  1.0074 -0.3797  1.8333
  571TIP3   OH2 1718   1.275   0.576   4.015  0.2680 -0.1336 -0.2369
  571TIP3    H1 1719   1.276   0.529   3.931 -0.9014 -0.2574 -0.1954
  571TIP3    H2 1720   1.188   0.615   4.019  0.8711  1.1982  0.2087
  572TIP3   OH2 1721   5.619   5.115   4.145  0.1849  0.0425 -0.1029
  572TIP3    H1 1722   5.687   5.051   4.166  1.3270  1.9067  2.4529
  572TIP3    H2 1723   5.652   5.159   4.066 -0.8134 -2.6259 -2.1356
  573TIP3   OH2 1724   5.508   3.335   0.968 -0.3749  0.2366  0.1306
  573TIP3    H1 1725   5.536   3.313   0.879 -0.2946 -0.9025  0.4246
  573TIP3    H2 1726   5.442   3.270   0.990 -1.5465  1.4508  0.3461
  574TIP3   OH2 1727   0.795   4.828   2.161  0.0705 -0.3522  0.6580
  574TIP3    H1 1728   0.714   4.877   2.170 -0.4874 -1.1294 -0.0445
  574TIP3    H2 1729   0.785   4.777   2.081  0.7488 -1.3783  1.1883
  575TIP3   OH2 1730   2.454   5.133   3.863 -0.2027 -0.4324 -0.0595
  575TIP3    H1 1731   2.424   5.134   3.772 -0.4768 -1.9447  0.0015
  575TIP3    H2 1732   2.509   5.056   3.870 -0.1879 -0.3344  1.0687
  576TIP3   OH2 1733   0.561   5.893   3.675  0.1840 -0.8025  0.2796
  576TIP3    H1 1734   0.576   5.804   3.705  0.7431 -0.3637  1.3488
  576TIP3    H2 1735   0.637   5.942   3.706 -0.3092  0.1325  0.0575
  577TIP3   OH2 1736   6.232   1.341   0.886 -0.2318 -0.3894  0.7370
  577TIP3    H1 1737   6.239   1.290   0.967 -0.6832 -0.6242  0.6340
  577TIP3    H2 1738   6.166   1.407   0.906 -1.4557 -1.3732  0.1003
  578TIP3   OH2 1739   3.180   5.630   0.690  0.5059 -0.2879 -0.5859
  578TIP3    H1 1740   3.253   5.567   0.688  0.3200 -0.6226  1.1750
  578TIP3    H2 1741   3.222   5.716   0.692  0.8477 -0.4598 -0.2020
  579TIP3   OH2 1742   0.580   2.495   1.191  0.6177  0.0047 -0.1402
  579TIP3    H1 1743   0.498   2.453   1.215  1.2857 -0.3119  1.6976
  579TIP3    H2 1744   0.646   2.425   1.199  1.0417  0.1328 -2.0097
  580TIP3   OH2 1745   0.958   3.849   4.889  0.3079  0.1365 -0.2375
  580TIP3    H1 1746   0.972   3.763   4.849  0.3241  0.5185 -1.0613
  580TIP3    H2 1747   0.981   3.912   4.821 -1.2958  0.7943 -0.2183
  581TIP3   OH2 1748   3.381   2.291   4.173  0.3800  0.1229 -0.6158
  581TIP3    H1 1749   3.404   2.375   4.212 -0.6875  0.5693 -0.9021
  581TIP3    H2 1750   3.442   2.228   4.213  0.9909  0.9728 -0.1743
  582TIP3   OH2 1751   5.650   4.056   1.466  0.6827 -0.0759  0.1348
  582TIP3    H1 1752   5.655   4.009   1.550  1.8333  1.7995  1.1941
  582TIP3    H2 1753   5.693   3.997   1.403  2.1083 -0.4682  1.4125
  583TIP3   OH2 1754   0.692   0.866   0.157 -0.2521 -0.8479 -0.5537
  583TIP3    H1 1755   0.629   0.813   0.108 -0.2308 -1.2150 -0.1935
  583TIP3    H2 1756   0.747   0.802   0.202 -0.5400 -0.5264  0.2813
  584TIP3   OH2 1757   0.684   4.212   5.055 -0.2505  0.3631  0.3527
  584TIP3    H1 1758   0.595   4.185   5.030 -0.4055  1.4178 -0.2942
  584TIP3    H2 1759   0.741   4.165   4.994 -0.5708  2.1411 -1.4364
  585TIP3   OH2 1760   2.532   5.526   1.524  0.3587  0.2659 -0.0073
  585TIP3    H1 1761   2.485   5.597   1.567  0.5290  0.3440  0.0514
  585TIP3    H2 1762   2.475   5.499   1.452 -1.0944 -1.5312  1.7014
  586TIP3   OH2 1763   0.234   5.580   3.994  0.2508 -0.5292 -0.5925
  586TIP3    H1 1764   0.223   5.485   3.984  2.4539 -0.6639 -3.0355
  586TIP3    H2 1765   0.314   5.589   4.046 -0.3310  0.0134  0.2175
  587TIP3   OH2 1766   2.424   0.882   0.606  0.4060  0.2259  0.2301
  587TIP3    H1 1767   2.369   0.821   0.656 -1.2223  0.2801 -1.4277
  587TIP3    H2 1768   2.395   0.969   0.634  0.8547  0.2587  0.6055
  588TIP3   OH2 1769   1.533   4.504   2.420 -0.0748  0.4239  0.5749
  588TIP3    H1 1770   1.494   4.541   2.341  1.1555 -0.8579 -0.6877
  588TIP3    H2 1771   1.613   4.554   2.433  1.0352 -0.9939 -0.5108
  589TIP3   OH2 1772   2.818   0.850   0.853  0.2568 -0.7705  0.4753
  589TIP3    H1 1773   2.786   0.877   0.939 -0.3411 -0.4729  0.1700
  589TIP3    H2 1774   2.879   0.919   0.827  0.8555 -1.1378  0.8911
  590TIP3   OH2 1775   4.366   3.753   4.547  0.1835  0.5329  0.0059
  590TIP3    H1 1776   4.274   3.772   4.565  0.0449  1.7232 -1.6849
  590TIP3    H2 1777   4.406   3.745   4.634 -1.4932  0.0349  0.7689
  591TIP3   OH2 1778   0.587   3.340   4.118  0.6020  0.1753 -1.1472
  591TIP3    H1 1779   0.518   3.405   4.134  1.6613  0.7157  1.8163
  591TIP3    H2 1780   0.659   3.391   4.081  0.5450  0.2382 -1.1728
  592TIP3   OH2 1781   0.824   0.284   2.388  0.1741 -0.2022  0.3121
  592TIP3    H1 1782   0.901   0.236   2.418  0.8989  1.1627  0.6885
  592TIP3    H2 1783   0.847   0.376   2.399 -2.9291  0.3666  4.4184
  593TIP3   OH2 1784   3.913   1.357   0.474  0.0970  0.3703  0.0142
  593TIP3    H1 1785   3.929   1.414   0.399 -1.8124  2.5758  1.1712
  593TIP3    H2 1786   3.970   1.391   0.543 -0.0530  0.0153  0.3165
  594TIP3   OH2 1787   1.626   4.742   3.826  0.1536 -0.0643 -0.2863
  594TIP3    H1 1788   1.603   4.775   3.913 -0.5507  0.5872 -0.7048
  594TIP3    H2 1789   1.720   4.754   3.820  0.2047 -0.0970  0.3762
  595TIP3   OH2 1790   1.165   3.482   2.460  0.0918 -0.1986  0.2728
  595TIP3    H1 1791   1.141   3.391   2.443 -0.3234  0.2052 -1.5318
  595TIP3    H2 1792   1.095   3.533   2.419 -0.2748  0.9608  2.2058
  596TIP3   OH2 1793   3.937   2.797   1.770 -0.3822 -0.1274 -0.1992
  596TIP3    H1 1794   3.866   2.838   1.820 -0.6764 -1.3478  0.4390
  596TIP3    H2 1795   3.966   2.864   1.708 -0.1911  1.3691  1.4276
  597TIP3   OH2 1796   3.064   0.241   0.795 -0.1871 -0.7869 -0.5100
  597TIP3    H1 1797   3.112   0.230   0.877 -1.4131 -0.0620  0.3306
  597TIP3    H2 1798   3.128   0.218   0.727  1.1647 -0.4244  0.5867
  598TIP3   OH2 1799   5.584   1.794   3.665  0.4058  0.0506 -0.4094
  598TIP3    H1 1800   5.539   1.878   3.651 -0.0667 -0.2011 -0.4253
  598TIP3    H2 1801   5.642   1.785   3.589 -0.8299 -0.4632 -1.3287
  599TIP3   OH2 1802   2.720   2.025   3.518 -0.3608  0.2545  0.6389
  599TIP3    H1 1803   2.680   2.093   3.573 -1.3139  0.3945 -0.1943
  599TIP3    H2 1804   2.749   2.073   3.440 -3.4607 -0.5936 -1.2106
  600TIP3   OH2 1805   3.505   1.410   3.583  0.3557  0.6062 -0.0926
  600TIP3    H1 1806   3.555   1.473   3.636 -0.5923  1.4801 -0.1929
  600TIP3    H2 1807   3.544   1.325   3.602  1.5806  1.2114  0.1619
  601TIP3   OH2 1808   1.567   3.287   2.362  0.2200  0.0768 -0.2199
  601TIP3    H1 1809   1.544   3.293   2.455 -1.1511 -1.2060 -0.4419
  601TIP3    H2 1810   1.544   3.372   2.326 -1.2458 -0.1071  0.2263
  602TIP3   OH2 1811   2.949   3.158   2.838 -0.1218  0.7493  0.3778
  602TIP3    H1 1812   2.873   3.189   2.789  0.4989 -1.2754 -2.0682
  602TIP3    H2 1813   2.925   3.072   2.869  0.8569  0.4244  0.2722
  603TIP3   OH2 1814   1.158   5.971   4.949 -0.3851  0.2381  0.7737
  603TIP3    H1 1815   1.170   5.902   5.014  0.2000 -1.4000 -0.9673
  603TIP3    H2 1816   1.201   5.938   4.870 -0.3120  2.4980 -0.2352
  604TIP3   OH2 1817   6.054   4.675   3.535 -0.1853 -0.6507 -0.4447
  604TIP3    H1 1818   5.983   4.627   3.579 -1.1267  1.3143  0.3542
  604TIP3    H2 1819   6.012   4.715   3.459 -0.1169  0.8930  0.2772
  605TIP3   OH2 1820   1.370   2.268   2.174 -0.1488  0.3190  0.0304
  605TIP3    H1 1821   1.336   2.357   2.181 -1.9779 -0.4159  1.3319
  605TIP3    H2 1822   1.461   2.274   2.204 -0.5368  1.5754  1.0367
  606TIP3   OH2 1823   0.031   2.731   0.560  0.0752  0.2856  0.2125
  606TIP3    H1 1824   0.046   2.802   0.622  0.5373  1.0657 -0.7630
  606TIP3    H2 1825   0.091   2.750   0.487 -0.3973 -0.6443 -0.4385
  607TIP3   OH2 1826   2.620   2.204   5.145  0.1432 -0.1655 -0.1789
  607TIP3    H1 1827   2.711   2.178   5.136 -0.1979 -1.2327 -0.7392
  607TIP3    H2 1828   2.570   2.128   5.115 -0.9254  0.5388 -0.2555
  608TIP3   OH2 1829   5.559   5.619   4.136 -0.1864 -0.1868  0.1410
  608TIP3    H1 1830   5.633   5.562   4.157  1.2183  0.4935 -2.5162
  608TIP3    H2 1831   5.585   5.705   4.169 -0.6579 -0.3278  0.8904
  609TIP3   OH2 1832   3.117   3.577   2.894 -0.0023  0.3129 -0.0880
  609TIP3    H1 1833   3.054   3.644   2.923  0.2521  0.0982  1.0234
  609TIP3    H2 1834   3.162   3.616   2.820 -0.6028  0.9555 -0.1243
  610TIP3   OH2 1835   0.087   3.932   0.790  0.2125  0.6148 -0.3439
  610TIP3    H1 1836   0.114   3.899   0.876 -0.9985  1.6516  0.4774
  610TIP3    H2 1837   0.022   3.869   0.759 -0.8279  1.2656  0.4392
  611TIP3   OH2 1838   0.151   0.836   1.236 -0.0877  0.2814  0.0030
  611TIP3    H1 1839   0.206   0.880   1.301 -0.4782  2.0002 -0.7706
  611TIP3    H2 1840   0.080   0.798   1.287  0.3345  0.4242  0.7186
  612TIP3   OH2 1841   3.917   5.585   0.689 -0.2231 -0.0223  0.2469
  612TIP3    H1 1842   3.903   5.656   0.752  2.3739  1.3355 -0.5457
  612TIP3    H2 1843   4.007   5.558   0.705  0.2398 -0.2042 -2.2903
  613TIP3   OH2 1844   6.126   3.091   1.458  0.2986 -0.3952  0.0682
  613TIP3    H1 1845   6.055   3.156   1.460  1.6277  1.2303  3.6609
  613TIP3    H2 1846   6.088   3.014   1.501  0.0781 -0.2759  0.0920
  614TIP3   OH2 1847   3.408   4.355   4.502 -1.0279  0.6118 -0.2991
  614TIP3    H1 1848   3.353   4.366   4.579  0.1394  0.4083  0.5845
  614TIP3    H2 1849   3.468   4.284   4.524  0.0730  1.3079 -0.9412
  615TIP3   OH2 1850   1.417   0.197   2.394 -0.4307 -0.5196  0.3751
  615TIP3    H1 1851   1.456   0.195   2.481 -0.9156 -0.8297  0.5852
  615TIP3    H2 1852   1.431   0.109   2.359  2.3422  0.3173 -1.0251
  616TIP3   OH2 1853   0.811   4.051   4.085 -0.3169 -0.4947  0.0628
  616TIP3    H1 1854   0.807   4.144   4.107 -1.0001 -0.7830  1.2007
  616TIP3    H2 1855   0.902   4.027   4.098 -0.1087  0.0420 -0.3683
  617TIP3   OH2 1856   3.266   2.776   3.761  0.0559 -0.6132  0.3189
  617TIP3    H1 1857   3.321   2.761   3.684 -0.7211  0.8547 -0.5609
  617TIP3    H2 1858   3.273   2.870   3.778 -1.2206 -0.6007  0.9080
  618TIP3   OH2 1859   3.191   3.632   2.267  0.1989  0.0339 -0.6208
  618TIP3    H1 1860   3.107   3.617   2.223 -1.3872 -2.3253  2.7458
  618TIP3    H2 1861   3.204   3.726   2.262 -1.8735  0.3139 -2.5404
  619TIP3   OH2 1862   3.631   0.702   1.688  0.2680  0.9307 -0.5287
  619TIP3    H1 1863   3.637   0.709   1.593  1.0143 -1.0774 -0.6914
  619TIP3    H2 1864   3.722   0.706   1.718  0.1720  0.0491 -0.0718
  620TIP3   OH2 1865   3.686   1.216   1.283  0.7491 -0.1137  0.2180
  620TIP3    H1 1866   3.646   1.271   1.217 -2.3474 -2.0811  0.2477
  620TIP3    H2 1867   3.674   1.264   1.365 -1.2548 -0.4001  0.1487
  621TIP3   OH2 1868   5.407   4.029   1.789  0.1889 -0.1960  0.1028
  621TIP3    H1 1869   5.439   4.052   1.876  1.2078  0.4491 -0.4118
  621TIP3    H2 1870   5.473   3.969   1.754 -1.6679 -2.8027  0.8335
  622TIP3   OH2 1871   0.886   1.144   1.395  0.1717 -0.1172  0.5125
  622TIP3    H1 1872   0.972   1.170   1.427 -0.1607 -1.1397  2.3937
  622TIP3    H2 1873   0.824   1.184   1.457 -0.5055 -2.1746  1.2706
  623TIP3   OH2 1874   4.606   0.398   3.154  0.0470 -0.2582 -0.5369
  623TIP3    H1 1875   4.536   0.424   3.095  0.1209  0.3478 -0.3634
  623TIP3    H2 1876   4.579   0.430   3.240  1.1665  1.2535 -0.6925
  624TIP3   OH2 1877   1.690   5.795   2.118  0.2998  0.4841  0.0484
  624TIP3    H1 1878   1.694   5.887   2.092 -0.7295  0.4204 -0.3754
  624TIP3    H2 1879   1.663   5.749   2.038  1.1327 -0.2264  0.1729
  625TIP3   OH2 1880   3.307   1.760   2.578  0.2141 -0.2215  0.2440
  625TIP3    H1 1881   3.327   1.812   2.655  1.4484 -0.6053  0.2085
  625TIP3    H2 1882   3.293   1.824   2.508  1.6979  0.0907  0.2049
  626TIP3   OH2 1883   0.101   0.508   0.997  0.1978 -0.0030 -0.5079
  626TIP3    H1 1884   0.129   0.515   0.906  0.9107  0.7090 -0.2411
  626TIP3    H2 1885   0.008   0.529   0.995 -0.6529 -3.2898 -1.5354
  627TIP3   OH2 1886   4.438   1.451   2.855 -0.4853 -0.0721  0.5685
  627TIP3    H1 1887   4.483   1.366   2.846  0.3157  0.5092 -1.8765
  627TIP3    H2 1888   4.345   1.430   2.847 -0.2674 -0.7158 -0.5627
  628TIP3   OH2 1889   2.509   0.616   3.470 -0.3493 -0.1949  0.1324
  628TIP3    H1 1890   2.503   0.693   3.527  1.4068  0.7186 -0.8415
  628TIP3    H2 1891   2.473   0.544   3.523 -0.8746  1.0433  1.5241
  629TIP3   OH2 1892   6.313   3.553   3.769 -0.0461  0.0436 -0.0765
  629TIP3    H1 1893   6.368   3.612   3.820 -0.3826 -0.7123  1.1952
  629TIP3    H2 1894   6.276   3.493   3.833 -2.1882  0.3788 -0.9074
  630TIP3   OH2 1895   0.137   3.583   2.721  0.0579 -0.5714  0.6835
  630TIP3    H1 1896   0.080   3.511   2.747 -1.3214  0.3832  0.4300
  630TIP3    H2 1897   0.107   3.657   2.773 -0.1115  0.3970 -0.7279
  631TIP3   OH2 1898   3.901   2.928   5.042  0.1251  0.6457 -0.1223
  631TIP3    H1 1899   3.814   2.935   5.003 -0.1855 -0.8780  0.2426
  631TIP3    H2 1900   3.887   2.883   5.126  1.1079  1.5133  0.5442
  632TIP3   OH2 1901   2.512   0.894   4.517 -0.2750  0.5238 -0.3546
  632TIP3    H1 1902   2.556   0.864   4.596 -1.3194 -0.2824 -0.0662
  632TIP3    H2 1903   2.498   0.815   4.465 -1.8665  0.6571 -0.1813
  633TIP3   OH2 1904   2.331   2.500   4.422 -0.1644 -0.1014  0.6997
  633TIP3    H1 1905   2.304   2.557   4.350  1.7728  0.0146  0.0247
  633TIP3    H2 1906   2.349   2.416   4.381  0.0075 -0.3197  1.2141
  634TIP3   OH2 1907   1.394   4.187   4.552  0.0569 -0.6732  0.0662
  634TIP3    H1 1908   1.414   4.220   4.640 -0.4790 -2.3155  0.8524
  634TIP3    H2 1909   1.443   4.105   4.546 -0.2713 -0.7961 -0.9922
  635TIP3   OH2 1910   5.292   4.720   1.904 -0.0931  0.4429  0.6246
  635TIP3    H1 1911   5.386   4.711   1.886  0.1420 -0.8980  2.2638
  635TIP3    H2 1912   5.257   4.632   1.894 -1.2313  0.9684 -0.1627
  636TIP3   OH2 1913   5.581   3.253   4.398 -0.3525  0.3924  0.4240
  636TIP3    H1 1914   5.515   3.219   4.458  0.0486  1.2648  1.3908
  636TIP3    H2 1915   5.659   3.200   4.415 -0.2884  0.5262  0.5446
  637TIP3   OH2 1916   6.091   4.992   4.592  0.2158 -0.0097  0.9005
  637TIP3    H1 1917   6.081   4.906   4.633 -0.6443  0.4639  1.7091
  637TIP3    H2 1918   6.135   4.973   4.509 -0.2508 -1.2673  0.9177
  638TIP3   OH2 1919   4.559   5.273   4.046 -0.9522  0.4695  0.4652
  638TIP3    H1 1920   4.602   5.308   4.125  0.9236 -1.7852  0.5302
  638TIP3    H2 1921   4.574   5.179   4.050  0.9257  0.4103 -3.5279
  639TIP3   OH2 1922   3.842   1.218   0.824 -0.1884  0.1203 -0.3602
  639TIP3    H1 1923   3.902   1.219   0.898 -1.6475  0.1838  0.8733
  639TIP3    H2 1924   3.772   1.279   0.849 -1.4737 -0.9827 -1.1108
  640TIP3   OH2 1925   3.185   3.165   2.556  0.7480 -0.2074  0.2979
  640TIP3    H1 1926   3.184   3.240   2.616 -1.3963 -1.3754  1.8421
  640TIP3    H2 1927   3.208   3.090   2.611 -1.9021 -1.4095 -0.0686
  641TIP3   OH2 1928   3.318   0.715   1.448  0.3371 -0.2894  0.3170
  641TIP3    H1 1929   3.393   0.681   1.399  2.0448  2.5015  0.7143
  641TIP3    H2 1930   3.271   0.770   1.386  0.1133  0.0047  0.7413
  642TIP3   OH2 1931   0.668   3.968   3.383 -0.3508 -0.0901 -0.2647
  642TIP3    H1 1932   0.726   3.904   3.342  0.7858  0.5004  0.3757
  642TIP3    H2 1933   0.692   4.051   3.342  0.8436  0.5220  1.5871
  643TIP3   OH2 1934   2.851   3.157   0.939  0.0118 -0.6211  0.8293
  643TIP3    H1 1935   2.809   3.158   0.853  0.7902  1.1350  0.4255
  643TIP3    H2 1936   2.780   3.140   1.001 -0.9602  0.2869 -0.0014
  644TIP3   OH2 1937   1.806   2.257   3.926  0.2029  0.8023 -0.3164
  644TIP3    H1 1938   1.751   2.324   3.968  0.9614  0.4313  1.3519
  644TIP3    H2 1939   1.783   2.262   3.833 -2.7211  0.6117  0.2979
  645TIP3   OH2 1940   2.424   3.872   4.456 -0.1476 -0.2356  0.2958
  645TIP3    H1 1941   2.469   3.956   4.459 -1.2542  0.3552  0.7831
  645TIP3    H2 1942   2.384   3.870   4.369 -2.1559  0.8575  1.1452
  646TIP3   OH2 1943   0.555   4.647   2.532 -0.1702  0.5256 -0.5019
  646TIP3    H1 1944   0.596   4.588   2.469 -1.2107 -1.0215  0.1949
  646TIP3    H2 1945   0.628   4.686   2.580  0.6519  1.8610 -2.7086
  647TIP3   OH2 1946   6.131   0.983   0.918 -0.3170 -0.8141 -0.1968
  647TIP3    H1 1947   6.216   0.970   0.960 -0.2089 -0.7363 -0.3911
  647TIP3    H2 1948   6.142   0.949   0.830 -0.4091 -0.5681 -0.3056
  648TIP3   OH2 1949   2.259   0.571   0.391 -0.1753  0.0630 -0.0726
  648TIP3    H1 1950   2.228   0.662   0.386  1.0061  0.4808 -0.0855
  648TIP3    H2 1951   2.179   0.519   0.393 -0.8753  1.0916 -0.3149
  649TIP3   OH2 1952   3.267   1.094   4.978  0.1198  0.2658 -0.5156
  649TIP3    H1 1953   3.282   1.185   5.003  1.4357 -0.2267  0.6028
  649TIP3    H2 1954   3.173   1.088   4.963 -0.4939  1.1029  2.4226
  650TIP3   OH2 1955   5.766   0.362   0.030  0.7728 -0.3527  0.7403
  650TIP3    H1 1956   5.727   0.444   0.060 -2.1085 -1.2299 -0.2119
  650TIP3    H2 1957   5.783   0.375  -0.063  0.0134 -0.8900  0.5143
  651TIP3   OH2 1958   2.799   4.287   1.575  0.1670  0.2120 -0.0200
  651TIP3    H1 1959   2.867   4.341   1.534 -0.5063  2.0717  1.1721
  651TIP3    H2 1960   2.837   4.259   1.657 -0.6749  1.8648  0.9948
  652TIP3   OH2 1961   1.531   1.302   3.251  0.6195 -0.2712  0.2674
  652TIP3    H1 1962   1.500   1.235   3.312  1.2968 -0.3214  0.5699
  652TIP3    H2 1963   1.512   1.385   3.294 -1.0170 -0.2176 -0.4916
  653TIP3   OH2 1964   5.004   2.611   3.492 -0.4905  0.0824 -0.8059
  653TIP3    H1 1965   4.999   2.517   3.511  1.3955  0.2580  0.9333
  653TIP3    H2 1966   5.097   2.627   3.476 -0.5885  1.8436  0.1301
  654TIP3   OH2 1967   5.301   2.753   1.668 -0.0932 -0.1164  1.0162
  654TIP3    H1 1968   5.302   2.811   1.744  1.2484  0.8511  0.3105
  654TIP3    H2 1969   5.338   2.671   1.700  3.2932  1.1843  0.8379
  655TIP3   OH2 1970   3.286   1.471   3.430 -0.2067  0.0908  0.0260
  655TIP3    H1 1971   3.262   1.391   3.383  0.9699 -0.3507  0.1410
  655TIP3    H2 1972   3.370   1.450   3.472 -1.5253  0.2274  2.9415
  656TIP3   OH2 1973   0.598   3.808   0.392 -0.0625 -0.0764 -0.1822
  656TIP3    H1 1974   0.615   3.768   0.478 -2.5449  1.5513  1.1990
  656TIP3    H2 1975   0.683   3.809   0.349  1.0133 -2.2759  1.6392
  657TIP3   OH2 1976   2.900   4.994   0.545  0.3057  0.7601 -0.4423
  657TIP3    H1 1977   2.989   5.028   0.539  0.2604  1.3876  1.5498
  657TIP3    H2 1978   2.883   4.988   0.639 -1.2142 -0.8491 -0.7639
  658TIP3   OH2 1979   0.777   2.994   0.565  0.1065 -0.4387 -0.1604
  658TIP3    H1 1980   0.767   2.899   0.573  0.5359 -0.3970  1.1245
  658TIP3    H2 1981   0.833   3.018   0.639 -0.2229  0.8538 -0.3118
  659TIP3   OH2 1982   3.451   0.902   1.973 -0.2405 -0.0918 -0.2108
  659TIP3    H1 1983   3.473   0.955   1.897 -2.2429 -1.6918 -2.0365
  659TIP3    H2 1984   3.487   0.815   1.954 -0.8884 -0.5633  0.6012
  660TIP3   OH2 1985   0.899   4.240   1.499 -0.4394 -0.2158 -0.9122
  660TIP3    H1 1986   0.830   4.174   1.507  0.8202 -1.3662  1.5100
  660TIP3    H2 1987   0.974   4.193   1.463  0.2561  0.0056  0.1830
  661TIP3   OH2 1988   1.948   2.942   1.820  0.1678 -0.4000 -0.3539
  661TIP3    H1 1989   1.972   2.945   1.913  2.3447  0.5588 -0.8835
  661TIP3    H2 1990   1.942   3.033   1.794 -3.2354 -0.5496 -0.6091
  662TIP3   OH2 1991   1.030   5.704   3.699  0.7544  0.4692 -0.3089
  662TIP3    H1 1992   1.088   5.678   3.628 -1.1314  0.8316 -2.0874
  662TIP3    H2 1993   0.942   5.684   3.667 -0.2383  1.6518  1.4936
  663TIP3   OH2 1994   1.802   0.897   5.084  0.2207  0.0315  0.4155
  663TIP3    H1 1995   1.846   0.822   5.044 -1.9783 -0.4506 -1.3319
  663TIP3    H2 1996   1.748   0.933   5.013  0.2187  2.4986  1.5695
  664TIP3   OH2 1997   3.208   4.368   2.900  0.3010  0.5720 -0.3706
  664TIP3    H1 1998   3.183   4.372   2.993  0.0673 -0.3550 -0.3844
  664TIP3    H2 1999   3.304   4.371   2.902  0.3407  3.8897 -0.3080
  665TIP3   OH2 2000   4.028   3.136   3.369 -0.4498  0.5827 -0.0833
  665TIP3    H1 2001   4.033   3.232   3.373 -0.4187  0.5290  2.2913
  665TIP3    H2 2002   4.101   3.107   3.424 -1.4390 -0.7806  0.5406
  666TIP3   OH2 2003   4.420   0.577   4.105  0.1038  0.4630 -0.5878
  666TIP3    H1 2004   4.472   0.624   4.039  1.6989 -0.4924 -0.0562
  666TIP3    H2 2005   4.372   0.510   4.056 -0.1426  0.9306 -0.9941
  667TIP3   OH2 2006   0.960   0.558   3.780 -0.0726 -0.9389  0.1930
  667TIP3    H1 2007   0.935   0.520   3.864 -0.2525  1.1024  1.1084
  667TIP3    H2 2008   0.928   0.648   3.783 -0.4786 -0.9188 -2.2515
  668TIP3   OH2 2009   6.048   4.222   4.081  0.2603  0.2428 -0.2637
  668TIP3    H1 2010   5.969   4.273   4.063  0.2195 -0.1667 -1.3402
  668TIP3    H2 2011   6.094   4.272   4.149 -1.6442 -0.2969  1.4935
  669TIP3   OH2 2012   1.970   0.155   3.328  0.3170  0.1326  0.6911
  669TIP3    H1 2013   1.988   0.234   3.380  1.0701 -0.3415  1.1791
  669TIP3    H2 2014   1.965   0.085   3.393  0.6397 -0.3762  0.1781
  670TIP3   OH2 2015   2.053   5.278   0.207  0.5280  0.7034  0.0685
  670TIP3    H1 2016   1.997   5.355   0.219 -2.1970 -1.0308 -0.6287
  670TIP3    H2 2017   2.137   5.303   0.245 -0.8945  3.2535  1.8203
  671TIP3   OH2 2018   1.355   4.884   0.418 -0.1444 -0.1306 -0.3051
  671TIP3    H1 2019   1.406   4.958   0.450 -0.6619 -0.5472  1.6066
  671TIP3    H2 2020   1.301   4.920   0.348  1.3740  0.7253 -1.0740
  672TIP3   OH2 2021   5.718   4.298   2.311 -0.5935 -0.1734 -0.4466
  672TIP3    H1 2022   5.803   4.293   2.353 -0.2849  0.2505 -1.0147
  672TIP3    H2 2023   5.732   4.264   2.222 -0.4123  2.2089 -1.4097
  673TIP3   OH2 2024   5.395   4.450   1.925  0.8208  0.4127 -0.0241
  673TIP3    H1 2025   5.420   4.409   1.843  2.9825 -1.3113  1.3687
  673TIP3    H2 2026   5.335   4.387   1.966  0.4162  0.8680  0.0977
  674TIP3   OH2 2027   0.383   1.706   0.449  0.5745  0.4883 -0.3033
  674TIP3    H1 2028   0.437   1.628   0.462 -0.8005 -0.5478 -0.5884
  674TIP3    H2 2029   0.341   1.720   0.534 -2.5868 -1.7857 -1.3253
  675TIP3   OH2 2030   5.571   1.557   4.644  0.6921  0.3823 -0.0655
  675TIP3    H1 2031   5.520   1.620   4.694 -0.2201 -1.0510  0.8765
  675TIP3    H2 2032   5.562   1.475   4.692  0.8511 -0.7582 -1.8890
  676TIP3   OH2 2033   5.142   3.490   4.265  0.2549  0.3365  0.1496
  676TIP3    H1 2034   5.156   3.480   4.359 -1.4305  0.2456  0.4275
  676TIP3    H2 2035   5.051   3.465   4.252  0.1055  1.5199 -1.3376
  677TIP3   OH2 2036   4.871   2.904   1.790 -0.3936 -0.1377 -0.9983
  677TIP3    H1 2037   4.832   2.836   1.844 -1.6525  0.7897 -0.7095
  677TIP3    H2 2038   4.917   2.856   1.721 -0.8764 -1.2794 -0.5518
  678TIP3   OH2 2039   4.609   1.380   2.469  0.5564 -0.0954 -0.1086
  678TIP3    H1 2040   4.573   1.367   2.381 -1.4472 -0.3650  0.6965
  678TIP3    H2 2041   4.561   1.456   2.503  1.8722  0.4926  0.4936
  679TIP3   OH2 2042   3.717   5.502   1.297  0.1300  0.2615  0.3976
  679TIP3    H1 2043   3.719   5.554   1.378  0.4647  0.7649  0.0728
  679TIP3    H2 2044   3.683   5.417   1.324  1.9910 -0.2225  1.4535
  680TIP3   OH2 2045   0.822   2.842   1.901  0.5215 -0.0503 -0.5541
  680TIP3    H1 2046   0.780   2.925   1.924  0.4292 -0.3781  0.5273
  680TIP3    H2 2047   0.825   2.793   1.984  1.4146 -0.7495 -0.9808
  681TIP3   OH2 2048   2.312   4.277   3.859  0.7093  0.2302 -0.2447
  681TIP3    H1 2049   2.285   4.366   3.881  0.9751  0.3333 -0.3190
  681TIP3    H2 2050   2.384   4.289   3.796 -0.6126 -0.0482 -1.8774
  682TIP3   OH2 2051   6.268   0.506   2.725 -0.0568 -0.0881  0.1424
  682TIP3    H1 2052   6.313   0.458   2.795 -0.1558 -1.3047 -0.5944
  682TIP3    H2 2053   6.338   0.529   2.664 -0.1751 -0.3641 -0.0992
  683TIP3   OH2 2054   1.947   2.038   2.738  0.4999 -0.6418 -0.0460
  683TIP3    H1 2055   1.859   2.023   2.773  0.5606 -1.5377 -0.2436
  683TIP3    H2 2056   1.936   2.113   2.679  0.0041 -0.3480  0.4074
  684TIP3   OH2 2057   1.778   0.607   2.981 -0.5620 -0.3273 -0.0259
  684TIP3    H1 2058   1.811   0.554   2.909  0.7891  1.0394 -0.4649
  684TIP3    H2 2059   1.697   0.562   3.009 -0.3297 -1.6871 -1.3950
  685TIP3   OH2 2060   4.518   3.071   3.133  0.2042  0.3971 -0.2458
  685TIP3    H1 2061   4.594   3.075   3.074 -0.3553  0.4082 -0.9876
  685TIP3    H2 2062   4.537   2.998   3.192  1.5211  1.4135  0.6314
  686TIP3   OH2 2063   4.849   2.130   4.928 -0.4786  0.2034  0.4094
  686TIP3    H1 2064   4.922   2.110   4.987 -0.8398 -2.0116  0.1788
  686TIP3    H2 2065   4.793   2.053   4.932 -0.0223 -0.5495 -3.5754
  687TIP3   OH2 2066   2.905   1.684   0.069 -0.9347  0.4815 -0.3421
  687TIP3    H1 2067   2.981   1.675   0.127 -0.9667 -1.2524 -0.5146
  687TIP3    H2 2068   2.832   1.651   0.120 -0.9467 -1.1896 -1.3589
  688TIP3   OH2 2069   3.360   3.436   1.185 -0.0369 -0.1569  0.3500
  688TIP3    H1 2070   3.447   3.448   1.223  0.0544 -1.6882  0.7167
  688TIP3    H2 2071   3.375   3.379   1.109 -0.4442  1.4493 -0.9775
  689TIP3   OH2 2072   3.697   3.302   3.619  0.1083  0.2539 -0.0066
  689TIP3    H1 2073   3.613   3.283   3.576 -0.7901 -1.3256  2.2421
  689TIP3    H2 2074   3.674   3.311   3.711  2.3502  0.5182  0.5661
  690TIP3   OH2 2075   5.723   4.644   2.679  0.1348 -0.1000  0.3470
  690TIP3    H1 2076   5.778   4.717   2.710  1.7824 -0.8569 -0.6695
  690TIP3    H2 2077   5.702   4.667   2.588 -1.2740  0.1650  0.7111
  691TIP3   OH2 2078   6.357   1.279   5.045  0.2631 -0.1562 -1.0499
  691TIP3    H1 2079   6.412   1.262   4.969 -0.0417  1.0773 -1.5756
  691TIP3    H2 2080   6.274   1.237   5.025  0.7546 -1.3884 -0.5791
  692TIP3   OH2 2081   3.791   3.749   1.174 -0.2616  0.5480 -0.0979
  692TIP3    H1 2082   3.739   3.708   1.242  1.0499 -1.0297  0.0011
  692TIP3    H2 2083   3.837   3.677   1.131  0.7189  1.7319 -1.1373
  693TIP3   OH2 2084   6.163   3.392   0.308  0.2685 -0.1400 -0.3663
  693TIP3    H1 2085   6.099   3.409   0.240  0.5097  0.4490 -0.4499
  693TIP3    H2 2086   6.246   3.380   0.261  0.6043  1.1296 -0.1403
  694TIP3   OH2 2087   3.414   1.356   3.031  0.0577 -0.0217 -0.0970
  694TIP3    H1 2088   3.347   1.422   3.017 -0.1856 -0.3087 -0.3130
  694TIP3    H2 2089   3.380   1.302   3.103 -0.6351 -1.0314 -1.1313
  695TIP3   OH2 2090   0.536   4.935   2.208 -0.0426  0.4800  0.0282
  695TIP3    H1 2091   0.475   4.865   2.184  1.6208 -0.6688 -1.1438
  695TIP3    H2 2092   0.555   4.919   2.301  1.2573 -1.4866 -0.5024
  696TIP3   OH2 2093   3.551   4.273   2.400 -0.3869  0.2211  0.2185
  696TIP3    H1 2094   3.497   4.208   2.446 -1.4609  0.9080 -0.0374
  696TIP3    H2 2095   3.633   4.275   2.449 -1.1249  0.2015  1.4874
  697TIP3   OH2 2096   0.965   5.786   1.687  0.0296 -0.3145 -0.3699
  697TIP3    H1 2097   0.971   5.735   1.606  0.3021  1.3298 -1.4429
  697TIP3    H2 2098   1.056   5.806   1.710 -0.0933  0.2753 -0.3759
  698TIP3   OH2 2099   0.172   5.463   0.998  0.0448 -0.8109 -0.3514
  698TIP3    H1 2100   0.254   5.483   1.045 -0.2086  1.3140 -0.7054
  698TIP3    H2 2101   0.173   5.522   0.923 -2.1836 -0.1521  0.0787
  699TIP3   OH2 2102   2.617   4.561   4.206 -0.1983  0.4188 -0.2771
  699TIP3    H1 2103   2.623   4.543   4.300  2.3224 -5.6437 -1.1353
  699TIP3    H2 2104   2.530   4.532   4.182 -0.0186 -0.2774 -0.1033
  700TIP3   OH2 2105   5.175   1.842   1.411 -0.1064  0.2641 -0.5933
  700TIP3    H1 2106   5.254   1.892   1.429 -0.5431  1.2321 -1.3086
  700TIP3    H2 2107   5.184   1.763   1.464  0.2387  1.4352  1.1562
  701TIP3   OH2 2108   3.786   3.028   1.468 -0.0945 -0.5312 -0.5741
  701TIP3    H1 2109   3.771   3.038   1.562 -2.6374  3.3297 -1.1666
  701TIP3    H2 2110   3.881   3.032   1.458  0.2609 -1.4144  1.8012
  702TIP3   OH2 2111   2.967   4.732   0.427  1.0331  0.2095 -0.1095
  702TIP3    H1 2112   2.913   4.672   0.478 -0.7954  1.7797 -0.1009
  702TIP3    H2 2113   2.951   4.819   0.465 -0.0990  1.4124 -3.0166
  703TIP3   OH2 2114   2.985   2.139   1.240 -0.0887 -0.3508 -0.3495
  703TIP3    H1 2115   3.028   2.203   1.182 -2.8723  0.3385 -1.7966
  703TIP3    H2 2116   3.000   2.174   1.328  0.1168  1.2347 -0.9793
  704TIP3   OH2 2117   1.209   5.121   3.819 -0.2330 -0.3881  0.0806
  704TIP3    H1 2118   1.289   5.088   3.860 -0.5411 -2.2096 -0.6722
  704TIP3    H2 2119   1.232   5.208   3.787  0.4919  0.4389  2.6178
  705TIP3   OH2 2120   1.713   3.344   2.097 -0.3003  0.4702 -0.1366
  705TIP3    H1 2121   1.672   3.429   2.083 -3.1798 -0.9006 -0.6630
  705TIP3    H2 2122   1.674   3.312   2.178 -0.1771 -0.8384 -0.5716
  706TIP3   OH2 2123   2.829   2.071   3.959  0.1406 -0.2529 -0.1151
  706TIP3    H1 2124   2.771   1.996   3.947 -0.2574 -0.0147  0.3118
  706TIP3    H2 2125   2.885   2.070   3.881  0.1720 -1.0172 -0.0960
  707TIP3   OH2 2126   5.433   2.372   0.541 -0.5854 -0.1772 -0.8863
  707TIP3    H1 2127   5.489   2.432   0.590 -0.6656  0.3014 -1.3726
  707TIP3    H2 2128   5.344   2.394   0.568 -0.5360 -1.1618  0.1369
  708TIP3   OH2 2129   5.404   2.540   3.294 -0.1616 -0.9373 -0.5201
  708TIP3    H1 2130   5.412   2.447   3.313  0.5236 -0.8573 -0.3768
  708TIP3    H2 2131   5.495   2.569   3.281 -0.3342 -0.1998 -0.1017
  709TIP3   OH2 2132   2.959   0.178   4.160 -0.4984  0.2466 -0.1527
  709TIP3    H1 2133   2.880   0.202   4.111 -0.2319 -0.2635 -0.8523
  709TIP3    H2 2134   2.940   0.090   4.193  0.5151 -0.6998 -1.9823
  710TIP3   OH2 2135   0.373   4.888   3.216  0.3939 -0.4342 -0.3907
  710TIP3    H1 2136   0.290   4.840   3.208 -0.8327  1.5006  0.1869
  710TIP3    H2 2137   0.394   4.885   3.309  0.1615  0.3555 -0.3058
  711TIP3   OH2 2138   2.135   1.881   0.085 -0.6198  0.2782  0.0864
  711TIP3    H1 2139   2.228   1.861   0.095 -0.8490 -0.9719 -0.0704
  711TIP3    H2 2140   2.093   1.840   0.161 -1.0012  1.2040  0.3850
  712TIP3   OH2 2141   0.686   4.196   4.404 -0.0118  0.1159 -0.1234
  712TIP3    H1 2142   0.641   4.190   4.489  2.1437  1.3121  1.2017
  712TIP3    H2 2143   0.661   4.282   4.370 -1.9886 -0.9204 -1.4513
  713TIP3   OH2 2144   6.031   0.682   0.490 -0.7105 -0.2456  0.1659
  713TIP3    H1 2145   6.018   0.777   0.496  0.5961 -0.0660  0.4275
  713TIP3    H2 2146   5.942   0.646   0.489 -1.2477  1.0015 -0.4265
  714TIP3   OH2 2147   3.405   0.484   0.822 -0.2387 -0.2781  0.2043
  714TIP3    H1 2148   3.358   0.410   0.783 -0.0653 -0.5079  0.4217
  714TIP3    H2 2149   3.441   0.448   0.904 -0.2300  0.0733  0.3551
  715TIP3   OH2 2150   3.800   1.428   4.278 -0.5249 -0.1232 -0.2233
  715TIP3    H1 2151   3.780   1.449   4.369  1.4765  1.5242 -0.0939
  715TIP3    H2 2152   3.831   1.337   4.280 -0.9781 -0.2686  0.6432
  716TIP3   OH2 2153   1.595   5.535   3.769 -0.0589  0.3307 -0.2983
  716TIP3    H1 2154   1.638   5.484   3.837 -0.4846 -0.6537 -0.7407
  716TIP3    H2 2155   1.648   5.521   3.691  0.0437  0.8963 -0.3332
  717TIP3   OH2 2156   4.744   4.801   0.713  0.1501  0.0475 -0.2755
  717TIP3    H1 2157   4.703   4.721   0.683 -0.9987  0.6187 -0.2831
  717TIP3    H2 2158   4.707   4.817   0.800 -0.2162  0.9612 -0.5843
  718TIP3   OH2 2159   1.191   1.107   3.446  0.4693 -0.5725 -0.5061
  718TIP3    H1 2160   1.168   1.175   3.382  3.5143  1.5230  0.3984
  718TIP3    H2 2161   1.274   1.072   3.415 -0.4071 -3.1402 -0.2449
  719TIP3   OH2 2162   1.123   3.434   2.749  0.0324 -0.6198 -0.2754
  719TIP3    H1 2163   1.144   3.489   2.674 -2.5119 -0.0009 -0.6483
  719TIP3    H2 2164   1.102   3.496   2.819 -2.1065 -1.0333 -0.4734
  720TIP3   OH2 2165   2.408   4.655   1.652  0.3611 -0.6600  0.0104
  720TIP3    H1 2166   2.440   4.572   1.617  0.5952  0.3675 -2.3710
  720TIP3    H2 2167   2.477   4.684   1.711 -0.1711 -2.5684  1.7186
  721TIP3   OH2 2168   2.360   1.005   2.515  0.0084  0.3504  0.2418
  721TIP3    H1 2169   2.303   0.970   2.583  0.7372  0.8368  1.1182
  721TIP3    H2 2170   2.417   0.932   2.491 -1.0716 -0.2030 -0.7890
  722TIP3   OH2 2171   5.789   4.164   1.933  0.4945  0.3160 -0.1320
  722TIP3    H1 2172   5.804   4.259   1.935  1.3295  0.2029 -0.3734
  722TIP3    H2 2173   5.816   4.134   2.020  0.8679  0.2239 -0.2751
  723TIP3   OH2 2174  -0.000   5.721   5.157 -0.3369 -0.3360 -0.5662
  723TIP3    H1 2175   0.060   5.766   5.217 -1.3686  0.9808 -0.4675
  723TIP3    H2 2176   0.012   5.628   5.176 -0.7226  0.0392  1.7957
  724TIP3   OH2 2177   3.841   5.005   0.737  0.3143  0.0075 -0.0367
  724TIP3    H1 2178   3.811   5.085   0.780 -0.9984 -0.7997  0.6239
  724TIP3    H2 2179   3.760   4.961   0.710  1.0437 -0.7080 -1.1088
  725TIP3   OH2 2180   6.298   2.655   4.672 -0.2205 -0.1788  0.1460
  725TIP3    H1 2181   6.288   2.732   4.616 -0.3168 -0.3652 -0.0937
  725TIP3    H2 2182   6.236   2.669   4.743  0.7895  0.6710  0.8960
  726TIP3   OH2 2183   3.202   1.898   2.328 -0.1974 -0.0598 -0.5928
  726TIP3    H1 2184   3.286   1.900   2.284 -0.4751 -1.6831 -1.2820
  726TIP3    H2 2185   3.145   1.954   2.276 -0.2319 -1.0899 -1.6926
  727TIP3   OH2 2186   2.251   1.895   2.629 -0.6458  0.4698 -0.6466
  727TIP3    H1 2187   2.301   1.975   2.612 -1.4148  0.9381 -0.7597
  727TIP3    H2 2188   2.199   1.915   2.707 -0.5750 -0.0505 -0.4633
  728TIP3   OH2 2189   3.554   4.514   0.626  0.2263 -0.0842 -0.1332
  728TIP3    H1 2190   3.499   4.449   0.581  0.7342 -0.5155 -0.1403
  728TIP3    H2 2191   3.593   4.565   0.555  0.2882 -0.1524 -0.1481
  729TIP3   OH2 2192   0.050   5.074   2.273  0.2821  0.2770 -0.2281
  729TIP3    H1 2193   0.020   5.159   2.304  0.7411  0.8955 -1.4099
  729TIP3    H2 2194   0.124   5.094   2.216  0.0130 -0.8634 -1.0125
  730TIP3   OH2 2195   4.181   5.822   2.426 -0.0945  0.2324  0.2433
  730TIP3    H1 2196   4.220   5.909   2.433 -1.6717  0.9039  1.3734
  730TIP3    H2 2197   4.182   5.788   2.516 -4.1943  1.3256  0.9258
  731TIP3   OH2 2198   4.765   6.003   4.246 -0.0756  0.9173 -0.0895
  731TIP3    H1 2199   4.702   5.962   4.185  0.4897  0.7406 -0.5677
  731TIP3    H2 2200   4.738   5.972   4.332  0.9183 -1.3004 -0.5130
  732TIP3   OH2 2201   3.466   0.350   4.557  0.1254 -0.3321 -0.3785
  732TIP3    H1 2202   3.458   0.326   4.465  2.6354  1.6110 -1.2263
  732TIP3    H2 2203   3.383   0.391   4.579 -0.0062  0.5228 -2.2759
  733TIP3   OH2 2204   5.107   5.169   5.109 -0.0544 -0.3607  0.2418
  733TIP3    H1 2205   5.064   5.253   5.121 -1.6650 -1.3427  1.7848
  733TIP3    H2 2206   5.070   5.135   5.027  0.4894  0.3659 -0.3046
  734TIP3   OH2 2207   4.071   2.704   0.992 -0.2785  0.4228 -0.4324
  734TIP3    H1 2208   4.023   2.739   1.067 -2.6206  1.0437 -2.1016
  734TIP3    H2 2209   4.082   2.779   0.934  2.7182  0.2636 -0.1981
  735TIP3   OH2 2210   3.062   1.386   4.407 -0.1254  0.1053  0.4285
  735TIP3    H1 2211   3.021   1.363   4.490 -2.3183  1.1239 -0.3112
  735TIP3    H2 2212   3.111   1.466   4.425  0.1848 -0.1907  0.9277
  736TIP3   OH2 2213   3.057   0.696   4.300  0.5708  0.3033  0.0374
  736TIP3    H1 2214   2.993   0.649   4.245 -1.6015  0.5187  2.2110
  736TIP3    H2 2215   3.083   0.632   4.366  0.2724  1.1023  0.9469
  737TIP3   OH2 2216   4.673   0.987   0.290 -0.0944  0.2324 -0.1448
  737TIP3    H1 2217   4.619   1.059   0.257 -2.0230 -0.4503  1.3554
  737TIP3    H2 2218   4.746   1.031   0.334 -0.1500  1.2156 -0.9986
  738TIP3   OH2 2219   6.308   2.815   4.451  0.0442  0.1679 -0.2494
  738TIP3    H1 2220   6.384   2.819   4.393 -0.7086 -0.5773 -1.3317
  738TIP3    H2 2221   6.255   2.891   4.427 -0.3132 -0.1926 -0.6399
  739TIP3   OH2 2222   2.746   5.440   0.249  0.5306  0.1800  0.3742
  739TIP3    H1 2223   2.680   5.508   0.261 -0.0121 -0.0896 -0.9949
  739TIP3    H2 2224   2.829   5.486   0.262  0.1391  0.8781  0.4800
  740TIP3   OH2 2225   2.246   2.919   0.095 -0.1952  0.2266  0.2228
  740TIP3    H1 2226   2.284   2.927   0.007  0.6107 -0.2658  0.5212
  740TIP3    H2 2227   2.253   2.826   0.116  1.7982  0.6593  1.7577
  741TIP3   OH2 2228   5.762   1.208   4.792  0.2976 -0.2632  0.2321
  741TIP3    H1 2229   5.691   1.209   4.855  0.9844  0.6530  1.0184
  741TIP3    H2 2230   5.826   1.271   4.826  1.2691 -0.7076 -0.6974
  742TIP3   OH2 2231   5.930   3.396   3.721  0.1465  0.6182  0.6863
  742TIP3    H1 2232   5.897   3.480   3.691 -1.4057 -0.0325  0.4531
  742TIP3    H2 2233   6.012   3.384   3.675 -0.3745  1.3315 -0.4553
  743TIP3   OH2 2234   3.923   2.698   2.665  0.2832 -0.5125 -0.0291
  743TIP3    H1 2235   3.955   2.780   2.702 -0.7626 -0.0795 -0.0398
  743TIP3    H2 2236   3.886   2.651   2.739  0.2616 -0.6730 -0.1400
  744TIP3   OH2 2237   3.092   2.392   1.376 -0.8111  0.3639 -0.6605
  744TIP3    H1 2238   3.138   2.464   1.419 -1.8363  0.3785  0.4507
  744TIP3    H2 2239   3.075   2.330   1.446 -2.2710  0.2529 -1.0911
  745TIP3   OH2 2240   2.978   1.281   0.511  0.2093  0.2051  0.1482
  745TIP3    H1 2241   2.962   1.187   0.517  0.2453  0.1673 -0.3071
  745TIP3    H2 2242   3.071   1.289   0.491 -0.0474  0.2809 -1.1207
  746TIP3   OH2 2243   5.546   0.630   3.686 -0.1717  0.1802  0.4591
  746TIP3    H1 2244   5.461   0.620   3.729  1.0805 -1.6465  2.7296
  746TIP3    H2 2245   5.603   0.664   3.755  1.8855 -2.6798  0.3351
  747TIP3   OH2 2246   1.788   4.649   3.547  0.5425  0.2268 -0.2080
  747TIP3    H1 2247   1.799   4.571   3.492  1.0392 -0.0100  0.2259
  747TIP3    H2 2248   1.846   4.635   3.622 -0.5202  0.2939  0.6547
  748TIP3   OH2 2249   5.846   0.070   0.077 -0.1231  0.7758  0.2354
  748TIP3    H1 2250   5.822   0.161   0.060 -0.9027  0.5193 -0.0722
  748TIP3    H2 2251   5.941   0.068   0.066  0.0505  1.7769  1.2724
  749TIP3   OH2 2252   3.431   4.443   2.224  0.5066 -0.0918  0.0643
  749TIP3    H1 2253   3.480   4.409   2.299 -0.2478  0.0941  0.6448
  749TIP3    H2 2254   3.444   4.537   2.226  1.6055 -0.2027 -0.8473
  750TIP3   OH2 2255   0.985   1.612   0.468 -0.4147 -0.0570 -0.1836
  750TIP3    H1 2256   0.956   1.684   0.413 -0.8472 -0.0590  0.0427
  750TIP3    H2 2257   0.910   1.552   0.470 -0.2473 -0.2570  0.0648
  751TIP3   OH2 2258   1.986   3.191   1.643  0.0484  0.2045 -0.0654
  751TIP3    H1 2259   2.025   3.188   1.556 -0.3180  0.6250 -0.2436
  751TIP3    H2 2260   2.048   3.243   1.695 -0.6080  1.4990 -0.5280
  752TIP3   OH2 2261   1.966   3.763   3.293 -0.1511  0.1844  0.4137
  752TIP3    H1 2262   2.050   3.778   3.251  1.2318 -0.0746  2.9136
  752TIP3    H2 2263   1.965   3.669   3.314 -0.5829  0.3700  1.3060
  753TIP3   OH2 2264   1.137   1.884   0.290  0.2918 -0.4452 -0.1347
  753TIP3    H1 2265   1.042   1.871   0.281 -0.4211  3.6929 -0.5849
  753TIP3    H2 2266   1.146   1.939   0.368  2.0015  1.4201 -1.5487
  754TIP3   OH2 2267   4.788   4.804   4.394  0.1449 -0.0846  0.2990
  754TIP3    H1 2268   4.812   4.835   4.307 -1.2774 -1.3807 -0.6053
  754TIP3    H2 2269   4.749   4.880   4.436  1.3639  0.7117  0.0401
  755TIP3   OH2 2270   2.295   0.224   4.080 -1.2146 -0.2777  0.4097
  755TIP3    H1 2271   2.373   0.266   4.044 -0.9805 -1.5825 -0.6450
  755TIP3    H2 2272   2.268   0.283   4.151  1.4231 -0.3867  1.6323
  756TIP3   OH2 2273   3.930   0.014   4.156 -0.4496 -0.1554 -0.4042
  756TIP3    H1 2274   3.872   0.054   4.221 -0.7788  0.8667 -1.2827
  756TIP3    H2 2275   3.871  -0.031   4.095 -0.0480 -2.7690  0.9946
  757TIP3   OH2 2276   1.902   5.601   4.356  0.2336  0.0366  0.1919
  757TIP3    H1 2277   1.816   5.642   4.364  0.0264  0.2756 -2.3042
  757TIP3    H2 2278   1.893   5.516   4.399 -1.7669 -0.5756 -1.3034
  758TIP3   OH2 2279   3.555   2.344   0.184  0.0054  0.2735 -0.0047
  758TIP3    H1 2280   3.494   2.358   0.256 -0.1873  2.3319 -0.5022
  758TIP3    H2 2281   3.640   2.337   0.226 -0.1694  0.9069  0.4841
  759TIP3   OH2 2282   5.130   5.613   3.280  0.1601 -0.3254  0.5555
  759TIP3    H1 2283   5.048   5.577   3.315  1.2282 -2.3093  1.2196
  759TIP3    H2 2284   5.189   5.612   3.355  1.2651 -0.5289 -0.3019
  760TIP3   OH2 2285   3.756   2.135   5.103 -0.0081  0.5881  0.0169
  760TIP3    H1 2286   3.831   2.150   5.161 -0.5287 -0.1794  0.9139
  760TIP3    H2 2287   3.729   2.223   5.076  0.6978  0.9176  0.3576
  761TIP3   OH2 2288   5.716   5.842   3.541  0.2008  0.3570  0.2799
  761TIP3    H1 2289   5.634   5.878   3.572 -0.1415  0.4468 -0.6830
  761TIP3    H2 2290   5.768   5.918   3.516 -0.7325  0.2761 -2.2786
  762TIP3   OH2 2291   0.101   1.307   2.610  0.4373 -0.3689 -0.1973
  762TIP3    H1 2292   0.074   1.218   2.631  0.5562 -0.4902 -0.5501
  762TIP3    H2 2293   0.022   1.347   2.573  0.1040 -0.0210  0.8651
  763TIP3   OH2 2294   4.418   4.383   0.294  0.1933  0.1046 -0.0719
  763TIP3    H1 2295   4.346   4.350   0.348  1.9081 -2.1693  0.9756
  763TIP3    H2 2296   4.497   4.353   0.339  1.7433 -0.4932 -2.9878
  764TIP3   OH2 2297   4.305   1.452   3.712 -0.0279 -0.5287  0.5449
  764TIP3    H1 2298   4.296   1.388   3.783 -0.4738 -0.2581  0.7335
  764TIP3    H2 2299   4.242   1.423   3.646  1.5731 -1.7787 -0.5075
  765TIP3   OH2 2300   1.218   5.255   3.019 -0.5989  0.6149 -0.0651
  765TIP3    H1 2301   1.302   5.210   3.028 -0.8220 -0.1396 -1.4963
  765TIP3    H2 2302   1.240   5.348   3.029  0.1806  0.3559  0.8585
  766TIP3   OH2 2303   2.050   5.854   5.115  0.1681  0.3395 -0.3847
  766TIP3    H1 2304   2.015   5.938   5.147  2.4076  0.9440  0.7235
  766TIP3    H2 2305   2.083   5.874   5.027 -0.2657  0.3274 -0.5535
  767TIP3   OH2 2306   1.915   2.606   0.333 -0.0280  0.0956 -0.1915
  767TIP3    H1 2307   1.900   2.518   0.299  2.4541 -0.8717  0.9482
  767TIP3    H2 2308   1.839   2.625   0.388 -0.6258 -1.2969 -0.5050
  768TIP3   OH2 2309   2.715   0.233   4.046  0.4735  0.4102 -0.5461
  768TIP3    H1 2310   2.732   0.270   3.960 -1.7987  0.3662 -1.0743
  768TIP3    H2 2311   2.632   0.273   4.074  0.7292 -0.2146  1.2492
  769TIP3   OH2 2312   0.859   2.846   3.977  0.2622 -0.0558 -0.3695
  769TIP3    H1 2313   0.820   2.796   4.048  0.0827  2.3882  1.3485
  769TIP3    H2 2314   0.799   2.918   3.961  1.2745  0.5608 -1.6671
  770TIP3   OH2 2315   4.743   1.109   1.637  0.6587 -0.4592 -0.0255
  770TIP3    H1 2316   4.763   1.039   1.699  0.5616  0.1164  0.6690
  770TIP3    H2 2317   4.651   1.094   1.613  0.8931 -1.0741 -0.5513
  771TIP3   OH2 2318   3.570   4.715   4.685 -0.6213  0.0949 -0.3928
  771TIP3    H1 2319   3.635   4.659   4.643  0.1640  1.7042 -1.3930
  771TIP3    H2 2320   3.505   4.653   4.721  0.0421 -1.4353 -1.7142
  772TIP3   OH2 2321   0.057   4.204   3.336 -0.3394 -0.5081  0.4176
  772TIP3    H1 2322   0.067   4.108   3.332 -0.9347 -0.5678  0.1440
  772TIP3    H2 2323   0.144   4.238   3.319  0.6380 -1.0145  3.7084
  773TIP3   OH2 2324   3.359   4.035   4.396 -0.1936 -0.2724 -0.2174
  773TIP3    H1 2325   3.299   4.098   4.435  0.3501  0.0006  0.1864
  773TIP3    H2 2326   3.437   4.038   4.451  0.2175 -0.5794 -0.7693
  774TIP3   OH2 2327   0.228   1.460   3.496 -0.1715  0.5570 -0.4342
  774TIP3    H1 2328   0.179   1.536   3.464  0.0435  0.7487 -0.3037
  774TIP3    H2 2329   0.312   1.465   3.450 -0.2322  0.2860 -0.5773
  775TIP3   OH2 2330   1.928   1.401   0.222 -0.2969  0.3149 -0.0986
  775TIP3    H1 2331   1.927   1.354   0.138  1.0201  1.5390 -0.8379
  775TIP3    H2 2332   2.014   1.442   0.226  0.7050 -1.6888  3.0379
  776TIP3   OH2 2333   1.189   4.164   3.104 -0.1676 -0.2047 -0.1660
  776TIP3    H1 2334   1.130   4.137   3.033  0.9743 -1.9626 -0.5061
  776TIP3    H2 2335   1.152   4.125   3.183  0.2915 -0.9595 -0.3155
  777TIP3   OH2 2336   5.395   5.255   1.764  0.1607  0.9512 -0.4565
  777TIP3    H1 2337   5.431   5.180   1.813  0.1730  0.8603 -0.6038
  777TIP3    H2 2338   5.361   5.217   1.683 -0.4253  1.0126 -0.2432
  778TIP3   OH2 2339   0.095   4.582   4.257 -0.3302 -0.4043 -0.3084
  778TIP3    H1 2340   0.185   4.608   4.238 -0.2884 -1.2607 -1.3225
  778TIP3    H2 2341   0.047   4.595   4.175 -1.1759  0.1914  0.2609
  779TIP3   OH2 2342   0.888   2.790   4.358  0.1185  0.1090 -0.0052
  779TIP3    H1 2343   0.851   2.871   4.393 -0.1179 -0.4220  1.0279
  779TIP3    H2 2344   0.832   2.769   4.283 -0.8494  0.0473  0.7032
  780TIP3   OH2 2345   1.137   0.457   2.622  0.1130  0.3393 -0.6186
  780TIP3    H1 2346   1.105   0.405   2.696 -0.4505  3.3317  1.4053
  780TIP3    H2 2347   1.057   0.485   2.577  0.3292  0.5172 -0.8897
  781TIP3   OH2 2348   5.102   2.847   4.299 -0.1248  0.2131  0.3040
  781TIP3    H1 2349   5.124   2.902   4.223  0.2369  1.7898  1.5008
  781TIP3    H2 2350   5.013   2.874   4.323 -0.0830  0.0087  0.6879
  782TIP3   OH2 2351   2.022   2.156   3.643 -0.8968  0.2249 -0.3247
  782TIP3    H1 2352   2.037   2.250   3.629 -0.3987  0.3042  0.6106
  782TIP3    H2 2353   2.104   2.114   3.616 -0.1676  0.3228  1.5445
  783TIP3   OH2 2354   6.299   1.994   4.097 -0.9271  0.2057 -0.7238
  783TIP3    H1 2355   6.345   2.064   4.143 -1.7700 -0.1168  0.6842
  783TIP3    H2 2356   6.275   2.032   4.012  0.6865  0.8166 -0.9310
  784TIP3   OH2 2357   4.251   1.128   0.329 -0.2675  0.5801  0.4307
  784TIP3    H1 2358   4.308   1.130   0.406 -0.0767  2.0736  0.2898
  784TIP3    H2 2359   4.291   1.064   0.270 -0.0078 -0.0366  1.2691
  785TIP3   OH2 2360   1.324   2.318   1.066  0.2317  0.2928 -0.0685
  785TIP3    H1 2361   1.309   2.408   1.038  1.0996  0.8173  1.0375
  785TIP3    H2 2362   1.249   2.269   1.034 -1.0390  1.7143  0.6450
  786TIP3   OH2 2363   0.918   4.982   3.305  0.1771  0.3555 -0.4503
  786TIP3    H1 2364   0.920   5.065   3.257 -0.8800  0.9592  0.5040
  786TIP3    H2 2365   1.008   4.949   3.299  0.2904  0.8595 -2.0304
  787TIP3   OH2 2366   2.931   5.435   4.775 -0.2961 -0.3566  0.2914
  787TIP3    H1 2367   2.873   5.391   4.713 -0.8422 -0.3428  0.7787
  787TIP3    H2 2368   2.921   5.384   4.856  0.4842 -0.4384  0.3414
  788TIP3   OH2 2369   1.744   2.674   3.756  0.4835 -0.7819 -0.3807
  788TIP3    H1 2370   1.659   2.718   3.767  0.9764  0.0506  0.1706
  788TIP3    H2 2371   1.741   2.639   3.667 -0.8543 -1.6855 -0.0072
  789TIP3   OH2 2372   6.228   1.579   4.378  0.0073 -0.5947  0.3750
  789TIP3    H1 2373   6.174   1.545   4.450 -0.2046  1.0229  1.0181
  789TIP3    H2 2374   6.228   1.674   4.391  1.0475 -0.3787 -1.0189
  790TIP3   OH2 2375   2.393   5.929   1.802 -0.0626 -0.2074  0.0960
  790TIP3    H1 2376   2.388   5.904   1.894 -0.6847  1.0298  0.4294
  790TIP3    H2 2377   2.475   5.978   1.795 -0.8736  1.2913  0.4572
  791TIP3   OH2 2378   3.579   1.290   1.888 -0.4000 -0.0649  0.1586
  791TIP3    H1 2379   3.519   1.296   1.962 -1.2690 -0.7338 -0.4672
  791TIP3    H2 2380   3.523   1.267   1.814  0.8158 -2.2195 -0.1742
  792TIP3   OH2 2381   0.366   2.392   0.076 -0.0161  0.1826  0.6020
  792TIP3    H1 2382   0.437   2.382   0.013  1.1366  0.6875  1.7679
  792TIP3    H2 2383   0.334   2.481   0.063 -0.5688 -0.1064 -0.0480
  793TIP3   OH2 2384   5.132   5.251   2.865  0.0042 -0.3060 -0.3486
  793TIP3    H1 2385   5.112   5.223   2.955 -0.1813 -2.7735 -1.0769
  793TIP3    H2 2386   5.070   5.321   2.848 -0.2472 -0.0770  1.3101
  794TIP3   OH2 2387   4.694   0.227   0.426 -0.2575 -0.1911 -0.3488
  794TIP3    H1 2388   4.618   0.207   0.480  0.7347  1.7037  1.9426
  794TIP3    H2 2389   4.658   0.270   0.348 -1.5354  1.3896  1.0442
  795TIP3   OH2 2390   0.425   5.931   4.577  0.4176  0.2164  0.2040
  795TIP3    H1 2391   0.399   5.984   4.502  2.3591  1.3461  0.2392
  795TIP3    H2 2392   0.459   5.850   4.539 -1.7463 -0.7053  0.1029
  796TIP3   OH2 2393   1.477   0.959   5.191 -0.3699 -0.3804  0.5475
  796TIP3    H1 2394   1.552   0.904   5.216 -0.5951 -0.1012  1.9524
  796TIP3    H2 2395   1.416   0.898   5.150  0.3613 -0.7337 -0.0359
  797TIP3   OH2 2396   0.024   2.496   0.224  0.0633  0.8566 -0.5064
  797TIP3    H1 2397   0.042   2.525   0.314  0.1850  1.1819 -0.6331
  797TIP3    H2 2398   0.020   2.577   0.173  0.4637  0.6470 -0.8802
  798TIP3   OH2 2399   2.426   0.603   0.186 -0.0309 -0.2098  0.2540
  798TIP3    H1 2400   2.371   0.637   0.115  0.0010  0.6711  0.6251
  798TIP3    H2 2401   2.367   0.600   0.262  0.2366  0.0208  0.4734
  799TIP3   OH2 2402   3.647   5.353   1.889 -0.6483  0.0251 -0.2339
  799TIP3    H1 2403   3.660   5.331   1.982 -2.2055  3.4716  1.0020
  799TIP3    H2 2404   3.733   5.382   1.859 -0.4220  0.2450  0.5898
  800TIP3   OH2 2405   0.826   0.589   0.109  0.3560 -0.0952 -0.2587
  800TIP3    H1 2406   0.895   0.566   0.172  0.8289 -1.3879 -1.2203
  800TIP3    H2 2407   0.832   0.522   0.041 -0.8027  0.7081 -1.1852
  801TIP3   OH2 2408   5.935   1.190   0.128 -0.3619 -0.6617 -0.5170
  801TIP3    H1 2409   5.845   1.204   0.156 -0.0066  1.1915 -0.1606
  801TIP3    H2 2410   5.927   1.155   0.039 -1.4229 -1.5533 -0.0900
  802TIP3   OH2 2411   2.997   1.974   0.131 -0.6406  0.5288  0.1911
  802TIP3    H1 2412   2.986   2.044   0.067 -0.6989 -0.2138 -0.6303
  802TIP3    H2 2413   2.943   1.903   0.097 -1.7334  0.5641  1.7544
  803TIP3   OH2 2414   5.854   4.695   4.393  0.2356  0.0440 -0.8105
  803TIP3    H1 2415   5.861   4.748   4.473  0.3552  2.0404 -2.0778
  803TIP3    H2 2416   5.930   4.637   4.397  0.0076 -0.2129  0.7105
  804TIP3   OH2 2417   5.153   0.048   1.926  0.2755  0.0809 -0.0321
  804TIP3    H1 2418   5.107  -0.011   1.866 -1.2159  2.2183 -1.1164
  804TIP3    H2 2419   5.195   0.113   1.869  0.6839  0.9034  1.1537
  805TIP3   OH2 2420   2.754   5.531   2.852  0.1296  0.1290 -0.0924
  805TIP3    H1 2421   2.757   5.622   2.881  1.1600  0.5799 -1.4974
  805TIP3    H2 2422   2.719   5.536   2.762  0.3069 -0.8426 -0.2234
  806TIP3   OH2 2423   1.582   4.476   3.777  0.2981 -0.6189  0.4553
  806TIP3    H1 2424   1.607   4.567   3.767 -0.8506 -0.4433 -1.2165
  806TIP3    H2 2425   1.664   4.427   3.770  0.7998  0.2225  0.4336
  807TIP3   OH2 2426   4.844   2.854   4.324  0.0871 -0.4005 -0.6535
  807TIP3    H1 2427   4.794   2.829   4.402  1.7763 -0.9143  0.3007
  807TIP3    H2 2428   4.839   2.777   4.267  1.7690 -1.4464  0.4972
  808TIP3   OH2 2429   3.528   2.657   3.834 -0.2989 -0.2689 -0.7426
  808TIP3    H1 2430   3.544   2.697   3.748  1.7621  1.2351  0.2463
  808TIP3    H2 2431   3.509   2.565   3.814 -0.9907  0.2677 -2.8493
  809TIP3   OH2 2432   4.710   2.651   3.470  0.2654 -0.1733 -0.4631
  809TIP3    H1 2433   4.804   2.648   3.483  0.3608 -0.1256 -1.1161
  809TIP3    H2 2434   4.690   2.570   3.422  0.2911  0.8309 -2.2369
  810TIP3   OH2 2435   4.258   5.803   0.020 -0.1806  0.2105  0.7027
  810TIP3    H1 2436   4.214   5.876   0.062  1.1889  1.7277 -0.3730
  810TIP3    H2 2437   4.342   5.839  -0.010  0.5538 -1.8037  0.1440
  811TIP3   OH2 2438   1.481   1.257   0.400  0.5527 -0.2613 -0.0575
  811TIP3    H1 2439   1.554   1.200   0.374  2.5719  1.9311  0.4232
  811TIP3    H2 2440   1.453   1.298   0.318 -0.1012 -1.0130 -0.2238
  812TIP3   OH2 2441   2.656   5.245   3.396  0.4580  0.0018 -0.0444
  812TIP3    H1 2442   2.678   5.337   3.387 -0.0249  0.1919  0.6027
  812TIP3    H2 2443   2.571   5.235   3.353 -0.4926  0.3208  1.6598
  813TIP3   OH2 2444   1.027   5.815   2.402 -0.4412  0.0478 -0.2181
  813TIP3    H1 2445   1.025   5.796   2.496  1.1763 -0.1910 -0.2076
  813TIP3    H2 2446   1.107   5.775   2.371 -0.8264  0.3425 -1.6754
  814TIP3   OH2 2447   5.112   2.927   0.930 -0.3318  0.1359  0.1379
  814TIP3    H1 2448   5.162   2.993   0.979 -0.9476  0.6631  0.0786
  814TIP3    H2 2449   5.027   2.968   0.916 -1.1237 -1.1249  1.0841
  815TIP3   OH2 2450   5.863   2.358   2.321 -0.2518 -0.0764 -0.1765
  815TIP3    H1 2451   5.848   2.445   2.359 -0.7665 -0.2537  0.0478
  815TIP3    H2 2452   5.920   2.314   2.384 -2.4965 -0.9854  1.3716
  816TIP3   OH2 2453   1.219   4.886   1.677 -0.1962 -0.1620  0.6040
  816TIP3    H1 2454   1.271   4.830   1.735 -0.1353 -2.2765 -1.3502
  816TIP3    H2 2455   1.128   4.862   1.694 -0.1203 -2.1562 -1.3074
  817TIP3   OH2 2456   1.394   1.501   4.798  0.4530 -0.0137 -0.3949
  817TIP3    H1 2457   1.362   1.459   4.878  1.2385 -1.1669 -0.6607
  817TIP3    H2 2458   1.316   1.514   4.745  0.1055 -0.5250 -0.0160
  818TIP3   OH2 2459   5.739   4.906   0.647  0.4264 -0.1364  0.1965
  818TIP3    H1 2460   5.781   4.903   0.733  0.7468 -0.7989  0.0232
  818TIP3    H2 2461   5.808   4.932   0.587  0.4235 -0.5536  0.0103
  819TIP3   OH2 2462   0.163   3.131   2.372 -0.1837 -0.2561 -0.1249
  819TIP3    H1 2463   0.141   3.058   2.314 -1.1036 -0.3215  0.2854
  819TIP3    H2 2464   0.086   3.188   2.368  0.1111  0.1805  0.3418
  820TIP3   OH2 2465   3.468   2.792   3.591  0.4774 -0.2775 -0.2539
  820TIP3    H1 2466   3.515   2.873   3.573 -1.5338  0.4678 -2.5874
  820TIP3    H2 2467   3.441   2.760   3.505  0.2401 -2.8614  0.6889
  821TIP3   OH2 2468   4.055   2.149   1.810  0.4261 -0.3272  0.5440
  821TIP3    H1 2469   4.073   2.146   1.904 -0.2728  0.2822  0.7054
  821TIP3    H2 2470   3.987   2.215   1.800  2.1161  1.3473 -0.6629
  822TIP3   OH2 2471   5.825   5.648   2.717  0.2339 -0.2265 -0.2815
  822TIP3    H1 2472   5.733   5.620   2.715  0.4161 -0.9279  0.5020
  822TIP3    H2 2473   5.845   5.674   2.627 -1.0001  0.8335 -0.2817
  823TIP3   OH2 2474   4.021   1.084   0.201 -0.8331 -0.0638  0.0957
  823TIP3    H1 2475   3.964   1.159   0.185 -1.1631 -0.4945 -0.8502
  823TIP3    H2 2476   4.095   1.120   0.250 -2.1667  0.3961  1.8792
  824TIP3   OH2 2477   1.986   4.452   0.259 -0.0454  0.0848  0.2142
  824TIP3    H1 2478   1.898   4.481   0.284 -0.2735 -0.9900  0.7283
  824TIP3    H2 2479   1.978   4.356   0.252  1.3208 -0.1385  1.2906
  825TIP3   OH2 2480   5.909   0.966   4.757  0.2197 -0.6967 -0.1233
  825TIP3    H1 2481   5.923   0.914   4.836  0.7243 -0.6780 -0.2014
  825TIP3    H2 2482   5.855   1.040   4.786  0.4272 -0.6767  0.2064
  826TIP3   OH2 2483   3.940   1.340   0.022  0.4462  0.3820  0.5181
  826TIP3    H1 2484   4.000   1.352   0.096 -0.2176 -1.4574  1.4131
  826TIP3    H2 2485   3.997   1.319  -0.052  0.9867  0.0521  1.0206
  827TIP3   OH2 2486   2.940   0.321   1.242 -0.6005  0.8496  0.2629
  827TIP3    H1 2487   2.929   0.416   1.232  0.3843  0.8907 -0.6277
  827TIP3    H2 2488   2.939   0.307   1.337 -1.8656  1.5948  0.3776
  828TIP3   OH2 2489   4.465   0.959   1.173 -0.0760 -0.1515  0.0205
  828TIP3    H1 2490   4.441   1.034   1.118 -0.6451  0.7653  1.4630
  828TIP3    H2 2491   4.559   0.969   1.188 -0.1869  0.4200  0.3835
  829TIP3   OH2 2492   3.805   4.562   4.207  0.0740 -0.0422  0.6899
  829TIP3    H1 2493   3.788   4.476   4.169 -0.0153 -0.2803  1.2476
  829TIP3    H2 2494   3.733   4.575   4.270 -0.5471  0.9351 -0.1848
  830TIP3   OH2 2495   3.829   2.323   0.712  0.8322 -0.0908 -0.5334
  830TIP3    H1 2496   3.765   2.359   0.773 -0.3436 -1.6814 -0.7378
  830TIP3    H2 2497   3.907   2.377   0.723  0.3038  0.3279  1.5990
  831TIP3   OH2 2498   0.657   1.348   2.611  0.3711 -0.1614 -0.2974
  831TIP3    H1 2499   0.566   1.353   2.640  0.5525  0.5697  0.1708
  831TIP3    H2 2500   0.667   1.258   2.578  0.0080 -0.9007  1.4905
  832TIP3   OH2 2501   3.457   2.175   2.975  0.3277 -0.1854 -0.3033
  832TIP3    H1 2502   3.526   2.138   2.920  1.2407  0.5800  0.2776
  832TIP3    H2 2503   3.403   2.100   3.001  1.1227 -0.8498 -0.5302
  833TIP3   OH2 2504   5.615   2.424   1.458  0.2791  0.3397 -0.0963
  833TIP3    H1 2505   5.637   2.513   1.431  1.9393 -0.2735 -0.8823
  833TIP3    H2 2506   5.575   2.384   1.381  2.0009 -0.3877 -0.6608
  834TIP3   OH2 2507   0.090   0.292   2.892 -0.7280 -0.1785 -0.0896
  834TIP3    H1 2508   0.085   0.199   2.869 -0.8590 -0.0824 -0.4641
  834TIP3    H2 2509   0.160   0.327   2.836  1.1800 -0.5903  1.9248
  835TIP3   OH2 2510   4.369   0.200   3.085 -0.0087 -0.2425 -0.1897
  835TIP3    H1 2511   4.413   0.253   3.019 -2.1215  0.8785 -0.7822
  835TIP3    H2 2512   4.439   0.173   3.145  1.4375  1.5834 -0.9708
  836TIP3   OH2 2513   4.477   0.931   1.786 -0.3817 -0.4999 -0.3251
  836TIP3    H1 2514   4.496   0.844   1.822 -1.0766  0.1255  1.6496
  836TIP3    H2 2515   4.424   0.975   1.853  2.0212  2.3653 -0.0802
  837TIP3   OH2 2516   0.284   4.802   0.142 -0.4975  0.6194  0.6179
  837TIP3    H1 2517   0.260   4.716   0.106  0.2692 -0.5767  2.7514
  837TIP3    H2 2518   0.379   4.807   0.130 -0.3986  0.7043  1.3998
  838TIP3   OH2 2519   1.640   5.810   0.323  0.2264  0.2769 -0.3785
  838TIP3    H1 2520   1.653   5.716   0.338  0.1567 -0.0502 -2.1263
  838TIP3    H2 2521   1.725   5.849   0.341  1.2188 -0.6004 -2.7909
  839TIP3   OH2 2522   4.285   1.180   2.034 -0.2455 -0.3676 -0.2083
  839TIP3    H1 2523   4.305   1.086   2.033 -1.2477 -0.6086 -1.9869
  839TIP3    H2 2524   4.194   1.186   2.006  0.3284  1.2061 -2.0234
  840TIP3   OH2 2525   3.479   0.903   0.015  0.1090  0.1871 -0.6457
  840TIP3    H1 2526   3.462   0.972  -0.049 -1.7642  0.7115  0.3333
  840TIP3    H2 2527   3.484   0.948   0.099  0.2394 -0.7241 -0.1551
  841TIP3   OH2 2528   4.103   1.743   2.265 -0.3223 -0.3722 -0.1582
  841TIP3    H1 2529   4.068   1.696   2.189 -1.7408 -0.1306  0.3192
  841TIP3    H2 2530   4.183   1.697   2.287 -0.5209 -1.1845 -1.0761
  842TIP3   OH2 2531   2.674   2.594   2.260 -0.6903  0.0571 -0.1769
  842TIP3    H1 2532   2.727   2.657   2.309 -1.2663  0.8323 -0.5289
  842TIP3    H2 2533   2.700   2.509   2.295  0.6230  0.4311 -0.1911
  843TIP3   OH2 2534   5.141   3.584   2.883 -0.8563  0.1009 -0.2200
  843TIP3    H1 2535   5.081   3.588   2.957 -2.6744 -1.1886 -1.5214
  843TIP3    H2 2536   5.156   3.676   2.859  0.1103  0.5704  1.9201
  844TIP3   OH2 2537   4.154   5.886   1.774 -0.7971  0.4655 -0.1281
  844TIP3    H1 2538   4.220   5.818   1.769 -0.7271  0.1796  2.9036
  844TIP3    H2 2539   4.196   5.964   1.738 -0.1199 -0.5518 -1.5847
  845TIP3   OH2 2540   6.379   2.236   2.264 -0.2668 -0.1213  0.0780
  845TIP3    H1 2541   6.336   2.189   2.193  0.6020  0.3142 -0.7535
  845TIP3    H2 2542   6.321   2.224   2.339 -0.7120 -1.4205 -0.4449
  846TIP3   OH2 2543   0.778   0.729   3.431 -0.1002 -0.4110 -0.2808
  846TIP3    H1 2544   0.708   0.677   3.470 -1.1444  0.4782 -0.9103
  846TIP3    H2 2545   0.859   0.690   3.465 -0.8873 -1.5431  0.3532
  847TIP3   OH2 2546   5.836   4.498   4.661  0.5245 -0.1647  0.1412
  847TIP3    H1 2547   5.866   4.443   4.589  0.5879  1.8120 -1.4380
  847TIP3    H2 2548   5.847   4.588   4.629 -3.4136  0.7847  0.9393
  848TIP3   OH2 2549   3.903   1.637   0.714  0.5551  0.2926 -0.6252
  848TIP3    H1 2550   3.820   1.637   0.666 -1.1991 -1.2246  2.1538
  848TIP3    H2 2551   3.944   1.554   0.690 -0.6108 -0.7571  0.7934
  849TIP3   OH2 2552   6.014   1.181   3.776  0.2709  0.0940  0.9967
  849TIP3    H1 2553   6.059   1.186   3.691 -0.7069 -2.5097  0.2197
  849TIP3    H2 2554   6.069   1.231   3.836  1.8569  0.6449 -0.8270
  850TIP3   OH2 2555   4.364   4.793   2.981  0.0666  0.7027  0.0970
  850TIP3    H1 2556   4.457   4.816   2.992  0.5883 -1.0529 -0.3148
  850TIP3    H2 2557   4.348   4.805   2.887  0.6559 -1.4535 -0.3471
  851TIP3   OH2 2558   3.235   4.775   0.873  0.2177 -0.8958 -0.2927
  851TIP3    H1 2559   3.160   4.790   0.929  1.0524  0.0252  0.6232
  851TIP3    H2 2560   3.267   4.689   0.897  0.3953 -0.6271  0.4570
  852TIP3   OH2 2561   0.238   5.320   2.367  0.1555  0.4853 -0.6967
  852TIP3    H1 2562   0.264   5.263   2.295  1.2707  0.0650  0.0188
  852TIP3    H2 2563   0.307   5.386   2.371 -0.1148  0.7444 -0.2678
  853TIP3   OH2 2564   1.477   3.800   0.548 -0.2522  0.3192  0.4050
  853TIP3    H1 2565   1.407   3.736   0.532  0.6243 -0.6351  0.2393
  853TIP3    H2 2566   1.469   3.821   0.641 -0.2371 -0.4558  0.5942
  854TIP3   OH2 2567   4.979   2.255   1.781  0.2480  0.0992 -0.4771
  854TIP3    H1 2568   4.943   2.337   1.813 -0.3802  0.0602 -1.0506
  854TIP3    H2 2569   5.028   2.219   1.855  0.1435  0.7637 -0.0793
  855TIP3   OH2 2570   1.808   3.847   1.877  0.4180  0.6955 -0.1188
  855TIP3    H1 2571   1.881   3.900   1.846  0.6916 -0.2940 -1.2469
  855TIP3    H2 2572   1.760   3.823   1.798  0.0992 -0.4276  0.3928
  856TIP3   OH2 2573   5.877   3.757   1.745  0.3143  0.5437  0.5402
  856TIP3    H1 2574   5.920   3.719   1.668  0.5914  0.6390  0.6490
  856TIP3    H2 2575   5.948   3.776   1.805  0.0941  0.4566  0.8290
  857TIP3   OH2 2576   6.115   1.100   5.047 -0.3652  0.1417  0.8057
  857TIP3    H1 2577   6.047   1.167   5.038 -2.8825 -2.3789 -0.4396
  857TIP3    H2 2578   6.107   1.070   5.138 -1.3277 -0.4933  0.5247
  858TIP3   OH2 2579   5.574   1.576   0.966  0.0087 -0.0857 -0.2164
  858TIP3    H1 2580   5.513   1.647   0.986 -0.6126 -0.9868  1.2616
  858TIP3    H2 2581   5.606   1.596   0.878 -1.6662  0.9526 -0.6406
  859TIP3   OH2 2582   0.707   5.897   3.024 -0.0082 -0.3199  0.2180
  859TIP3    H1 2583   0.616   5.885   2.998 -0.5366 -0.3462  1.9780
  859TIP3    H2 2584   0.754   5.912   2.942 -1.5225 -0.7316 -0.7473
  860TIP3   OH2 2585   1.839   0.738   0.310 -0.1030  0.5537  0.1705
  860TIP3    H1 2586   1.782   0.780   0.374 -0.3119 -1.2360  1.2290
  860TIP3    H2 2587   1.806   0.649   0.303  1.6215 -0.0902 -0.3465
  861TIP3   OH2 2588   2.455   1.944   4.501 -0.0763  0.0726  0.1881
  861TIP3    H1 2589   2.469   1.896   4.420  1.8829 -0.7359  0.9246
  861TIP3    H2 2590   2.445   1.876   4.568 -1.4657  0.7165  0.6811
  862TIP3   OH2 2591   0.520   2.835   4.367 -0.0308 -0.1970  0.2053
  862TIP3    H1 2592   0.481   2.915   4.403 -0.9988 -0.4519 -0.2493
  862TIP3    H2 2593   0.526   2.776   4.443 -1.7719 -0.6199  0.0577
  863TIP3   OH2 2594   5.201   0.360   1.054  0.3943  0.1841  0.2098
  863TIP3    H1 2595   5.199   0.265   1.045 -1.8687  0.3313 -1.8075
  863TIP3    H2 2596   5.225   0.375   1.146 -2.5450 -2.4183  1.5738
  864TIP3   OH2 2597   0.990   5.657   4.798  0.0647  0.2617  0.3254
  864TIP3    H1 2598   1.003   5.613   4.714  0.3237 -0.1333  0.5729
  864TIP3    H2 2599   1.068   5.636   4.849 -1.3871 -1.9829  1.7546
  865TIP3   OH2 2600   4.992   3.298   0.313  0.3490  0.0690 -0.2331
  865TIP3    H1 2601   5.041   3.338   0.241  0.3099 -0.1045 -0.3551
  865TIP3    H2 2602   5.000   3.361   0.385  0.6121  0.1173 -0.3044
  866TIP3   OH2 2603   3.897   5.607   5.139 -0.0247  0.2727  0.8053
  866TIP3    H1 2604   3.851   5.549   5.199 -0.4264  0.6694  0.8799
  866TIP3    H2 2605   3.834   5.675   5.117  0.3483  0.5212  0.4850
  867TIP3   OH2 2606   6.243   0.626   5.129  0.1930  0.2579 -0.2721
  867TIP3    H1 2607   6.163   0.656   5.172  1.3961  1.2320  1.4243
  867TIP3    H2 2608   6.304   0.699   5.137  1.2817 -0.4582 -1.5063
  868TIP3   OH2 2609   0.456   4.651   4.854  0.3547  0.1540  0.3041
  868TIP3    H1 2610   0.400   4.718   4.815  1.2966  1.0075  0.3879
  868TIP3    H2 2611   0.482   4.688   4.938 -0.3161 -0.9683  1.0377
  869TIP3   OH2 2612   0.594   5.647   1.277 -0.0404  0.7278  0.0729
  869TIP3    H1 2613   0.577   5.664   1.370 -0.1282 -1.7983  0.6035
  869TIP3    H2 2614   0.683   5.612   1.275 -0.5086 -0.5042 -0.5752
  870TIP3   OH2 2615   4.843   0.475   0.480  0.8019  0.3284 -0.9212
  870TIP3    H1 2616   4.816   0.479   0.572 -1.1380 -0.4571 -1.4040
  870TIP3    H2 2617   4.787   0.407   0.441  1.8279  0.3839 -2.6055
  871TIP3   OH2 2618   4.937   5.595   0.899  0.1137 -0.1844 -0.2548
  871TIP3    H1 2619   5.007   5.584   0.963 -0.2066 -0.3965  0.0607
  871TIP3    H2 2620   4.887   5.671   0.930  0.4936  0.2825 -0.7519
  872TIP3   OH2 2621   0.980   5.123   0.925  0.1735  0.4154  0.0834
  872TIP3    H1 2622   1.050   5.087   0.872 -0.4710 -1.4926  0.4504
  872TIP3    H2 2623   1.023   5.155   1.004  0.8117  0.8682 -0.4344
  873TIP3   OH2 2624   3.102   5.355   2.224 -0.6681 -0.0199  0.5959
  873TIP3    H1 2625   3.007   5.347   2.228 -0.8080  0.4039 -1.2230
  873TIP3    H2 2626   3.120   5.394   2.139  1.0385  1.7173  1.6727
  874TIP3   OH2 2627   3.963   4.025   4.494 -0.1015  0.0618 -0.1197
  874TIP3    H1 2628   4.028   4.084   4.532  0.5605 -1.3632  1.0617
  874TIP3    H2 2629   3.998   4.005   4.406  0.7320 -0.1674  0.2522
  875TIP3   OH2 2630   3.746   2.145   1.090  0.3716  0.6678  0.3460
  875TIP3    H1 2631   3.788   2.104   1.165  0.4825 -0.3830 -0.2759
  875TIP3    H2 2632   3.815   2.154   1.025 -0.1898 -0.5196 -0.4574
  876TIP3   OH2 2633   4.228   2.496   0.496  0.3782  0.6143 -0.1343
  876TIP3    H1 2634   4.177   2.426   0.536  0.1028  0.8366 -0.0901
  876TIP3    H2 2635   4.232   2.564   0.563  1.4944  0.2494  0.2006
  877TIP3   OH2 2636   4.276   1.244   3.911 -0.7371  0.6529  0.1178
  877TIP3    H1 2637   4.302   1.155   3.933 -1.6372  0.0465 -1.1230
  877TIP3    H2 2638   4.195   1.259   3.959 -1.2411  0.3372 -0.6200
  878TIP3   OH2 2639   1.721   3.287   1.836  0.3957  0.1233  0.2897
  878TIP3    H1 2640   1.690   3.293   1.926 -1.1216  0.9120 -0.2623
  878TIP3    H2 2641   1.768   3.369   1.821  0.1315  0.2521  0.1705
  879TIP3   OH2 2642   1.936   1.378   4.915  0.4503 -0.3010  0.0990
  879TIP3    H1 2643   2.016   1.424   4.888  0.4266 -1.1491 -1.5728
  879TIP3    H2 2644   1.866   1.443   4.901  0.6306 -0.2087 -0.4202
  880TIP3   OH2 2645   1.922   1.426   4.291 -0.0624  0.3043  0.2133
  880TIP3    H1 2646   2.007   1.402   4.329 -0.2622  0.3364  0.6835
  880TIP3    H2 2647   1.865   1.353   4.314 -0.1356  0.2216 -0.2167
  881TIP3   OH2 2648   6.069   5.088   2.347 -0.7635  0.0052  0.0491
  881TIP3    H1 2649   6.098   5.133   2.267 -0.9764  0.0041 -0.0288
  881TIP3    H2 2650   6.073   5.155   2.415 -0.3976 -0.0422  0.0794
  882TIP3   OH2 2651   4.107   0.906   0.494  0.4034 -0.3321 -0.0167
  882TIP3    H1 2652   4.084   0.907   0.402 -1.0506  0.7319  0.3264
  882TIP3    H2 2653   4.194   0.867   0.497 -0.3894 -2.4172 -1.6286
  883TIP3   OH2 2654   4.868   1.487   4.806 -0.2020  0.4987 -0.1417
  883TIP3    H1 2655   4.810   1.483   4.882 -1.4134 -0.6887 -1.0823
  883TIP3    H2 2656   4.955   1.504   4.842 -0.5095 -1.3994  1.6182
  884TIP3   OH2 2657   5.600   3.114   0.497  0.5981 -0.5692 -0.8439
  884TIP3    H1 2658   5.626   3.026   0.525  3.1681  0.5512  0.6275
  884TIP3    H2 2659   5.508   3.105   0.471 -0.1451 -3.1089  2.0881
  885TIP3   OH2 2660   4.352   5.151   4.997 -0.4199  0.9266  0.4104
  885TIP3    H1 2661   4.380   5.147   5.088 -1.7955  1.2603  0.8764
  885TIP3    H2 2662   4.289   5.079   4.988 -0.2740  0.8722 -0.2910
  886TIP3   OH2 2663   2.298   5.020   0.394 -0.5361  0.0499  0.2840
  886TIP3    H1 2664   2.335   4.957   0.331  1.0522  1.3606 -0.1473
  886TIP3    H2 2665   2.359   5.093   0.393 -0.9635  0.4953  2.7162
  887TIP3   OH2 2666   5.233   4.911   2.790 -0.1841  0.0980 -0.0507
  887TIP3    H1 2667   5.324   4.884   2.778 -0.2902 -0.4931  0.4376
  887TIP3    H2 2668   5.183   4.849   2.737 -0.4542 -0.9304  1.3523
  888TIP3   OH2 2669   3.612   4.559   2.462  0.1100 -0.3955  0.1927
  888TIP3    H1 2670   3.686   4.613   2.489 -0.3474  0.4688 -0.2304
  888TIP3    H2 2671   3.648   4.471   2.452  0.8485 -0.1962  0.9964
  889TIP3   OH2 2672   3.508   2.333   5.054 -0.4096 -0.5551  0.6922
  889TIP3    H1 2673   3.547   2.402   5.107 -1.5759  1.6752 -1.2108
  889TIP3    H2 2674   3.521   2.360   4.964  0.1332 -3.4649 -0.2234
  890TIP3   OH2 2675   1.017   2.590   2.173  0.1002  0.3550 -0.6726
  890TIP3    H1 2676   0.968   2.659   2.129 -0.0086  0.1413 -0.8892
  890TIP3    H2 2677   0.950   2.534   2.212  0.1540 -0.1227 -1.2484
  891TIP3   OH2 2678   1.648   2.094   3.358  0.4034 -0.1931  0.2147
  891TIP3    H1 2679   1.622   2.044   3.435  2.2945 -1.8875 -0.1599
  891TIP3    H2 2680   1.689   2.173   3.393  1.1223 -0.8855  0.9549
  892TIP3   OH2 2681   2.187   2.702   1.872  0.5534 -0.8299  0.4349
  892TIP3    H1 2682   2.099   2.675   1.845 -0.1714 -0.2426  2.0631
  892TIP3    H2 2683   2.228   2.622   1.905 -0.2892 -0.6825  1.9323
  893TIP3   OH2 2684   4.857   3.051   0.975 -0.1536  0.0579 -0.4933
  893TIP3    H1 2685   4.852   3.098   0.892 -1.5066  0.0988 -0.4066
  893TIP3    H2 2686   4.859   3.120   1.042 -0.0414  0.0140 -0.4506
  894TIP3   OH2 2687   4.985   4.803   4.789  0.1818  0.4594  0.0972
  894TIP3    H1 2688   5.042   4.730   4.814  0.0220  0.4626  0.4887
  894TIP3    H2 2689   4.899   4.762   4.776  0.6482  0.1429 -2.3533
  895TIP3   OH2 2690   0.952   4.321   2.153  0.3947 -0.4364  0.3380
  895TIP3    H1 2691   0.880   4.295   2.211 -0.3755  1.1792  0.1458
  895TIP3    H2 2692   1.023   4.343   2.212 -0.8616  2.6723  0.8621
  896TIP3   OH2 2693   0.283   4.765   4.689 -0.2903  0.5657 -0.0304
  896TIP3    H1 2694   0.325   4.723   4.614  1.6462 -1.7352  2.1554
  896TIP3    H2 2695   0.319   4.853   4.691  0.7712  0.1731 -0.9362
  897TIP3   OH2 2696   5.357   1.907   4.305 -0.0213 -0.0295  0.6316
  897TIP3    H1 2697   5.387   1.817   4.289 -0.0729 -0.2879  1.8583
  897TIP3    H2 2698   5.419   1.942   4.369 -1.1479  0.0987  1.6979
  898TIP3   OH2 2699   5.476   2.545   3.879 -0.0935  0.0800  0.3273
  898TIP3    H1 2700   5.439   2.543   3.968  0.2361  0.7592  0.4833
  898TIP3    H2 2701   5.400   2.543   3.822 -0.3737  1.0787  0.6459
  899TIP3   OH2 2702   2.347   4.857   0.785  0.0535 -0.9232 -0.1780
  899TIP3    H1 2703   2.429   4.859   0.736  1.1484 -0.7074  1.5459
  899TIP3    H2 2704   2.318   4.948   0.786  0.5340 -0.7656  0.3245
  900TIP3   OH2 2705   4.763   4.229   2.911  0.0380 -0.0195 -0.5410
  900TIP3    H1 2706   4.697   4.167   2.941 -0.1906 -0.1569 -1.3224
  900TIP3    H2 2707   4.754   4.304   2.970 -0.8361 -0.0205 -0.6681
  901TIP3   OH2 2708   6.009   0.619   4.801  0.6784 -0.5643  0.0549
  901TIP3    H1 2709   6.074   0.688   4.811  0.2758 -0.2858  0.8637
  901TIP3    H2 2710   5.947   0.653   4.736  0.5675 -0.2352  0.3342
  902TIP3   OH2 2711   2.226   4.658   2.660 -0.1182  0.9349  0.7800
  902TIP3    H1 2712   2.320   4.675   2.673  0.0248  0.1046  0.8902
  902TIP3    H2 2713   2.199   4.723   2.596  1.3182 -0.9390 -1.9173
  903TIP3   OH2 2714   3.061   2.835   3.311  0.0896  0.4763 -0.0402
  903TIP3    H1 2715   3.079   2.755   3.261 -0.5108 -0.0047  0.4895
  903TIP3    H2 2716   3.144   2.882   3.312  0.7827 -0.7060  0.6271
  904TIP3   OH2 2717   4.627   5.039   0.559  0.1974 -0.4162  1.0715
  904TIP3    H1 2718   4.668   4.963   0.518 -1.8128 -0.7425 -0.5328
  904TIP3    H2 2719   4.534   5.015   0.566 -0.5921  2.0108  0.0605
  905TIP3   OH2 2720   3.283   2.322   2.235 -0.7587  0.2535 -0.5225
  905TIP3    H1 2721   3.311   2.248   2.288  0.1909  1.2008  0.3507
  905TIP3    H2 2722   3.218   2.368   2.289  0.4759  1.4230  0.0367
  906TIP3   OH2 2723   0.440   5.483   1.120  0.2291 -0.7428 -0.0918
  906TIP3    H1 2724   0.497   5.426   1.068  1.4769  0.1693  0.2179
  906TIP3    H2 2725   0.500   5.530   1.178 -0.7728  0.7430 -0.1970
  907TIP3   OH2 2726   2.023   1.644   2.900  0.4070 -0.1565  0.3647
  907TIP3    H1 2727   2.088   1.708   2.872 -0.7740  1.5951  1.4583
  907TIP3    H2 2728   2.029   1.574   2.834  1.9236  0.9122 -0.7106
  908TIP3   OH2 2729   1.635   2.485   4.815 -0.5516 -0.1361 -0.2098
  908TIP3    H1 2730   1.553   2.495   4.767 -0.0029 -1.0270 -1.3683
  908TIP3    H2 2731   1.629   2.399   4.856 -0.0001 -0.4144 -0.7017
  909TIP3   OH2 2732   4.553   2.128   4.461 -0.3191 -0.2880  0.1541
  909TIP3    H1 2733   4.516   2.040   4.465 -1.8764  0.3357  0.0779
  909TIP3    H2 2734   4.630   2.123   4.517  0.5998 -2.1188 -1.1372
  910TIP3   OH2 2735   1.015   0.060   1.867  0.1152 -0.1846 -0.0913
  910TIP3    H1 2736   0.976   0.147   1.873  1.0593  0.3705 -1.5118
  910TIP3    H2 2737   0.972   0.020   1.791  1.1683 -0.1468 -0.7278
  911TIP3   OH2 2738   3.722   5.600   0.236 -0.0804  0.5863 -0.2126
  911TIP3    H1 2739   3.753   5.634   0.152 -0.0643  1.5494  0.1709
  911TIP3    H2 2740   3.627   5.593   0.226 -0.1792  1.5414 -0.0305
  912TIP3   OH2 2741   4.224   4.361   2.863 -0.3096  0.5883 -0.1215
  912TIP3    H1 2742   4.296   4.407   2.820 -0.1097  1.1331  0.7712
  912TIP3    H2 2743   4.163   4.341   2.793  1.5080 -1.4752 -1.2279
  913TIP3   OH2 2744   3.720   4.771   0.049 -0.0502 -0.5485  0.2076
  913TIP3    H1 2745   3.657   4.791   0.118  0.1472 -1.4765  0.6837
  913TIP3    H2 2746   3.797   4.822   0.071 -0.2071 -0.3626  0.3242
  914TIP3   OH2 2747   0.037   0.057   3.499  0.1419  0.9306 -0.0911
  914TIP3    H1 2748   0.105  -0.011   3.497  0.3182  1.1112 -1.3252
  914TIP3    H2 2749  -0.045   0.009   3.510  0.2357  0.4646 -1.2509
  915TIP3   OH2 2750   5.319   4.612   1.355  0.6133  0.7346  0.2029
  915TIP3    H1 2751   5.273   4.597   1.272 -0.6530  0.4405  0.9195
  915TIP3    H2 2752   5.407   4.577   1.341  0.6705  1.4121 -1.2567
  916TIP3   OH2 2753   0.038   0.421   1.747  0.0306 -0.4194  1.0011
  916TIP3    H1 2754  -0.048   0.381   1.761  0.1087 -0.3461  1.7778
  916TIP3    H2 2755   0.097   0.346   1.735 -0.4922 -0.4618 -2.1393
  917TIP3   OH2 2756   0.572   1.693   2.973  0.2821 -0.1597 -0.1203
  917TIP3    H1 2757   0.605   1.698   2.883 -0.1858 -2.3847 -0.4968
  917TIP3    H2 2758   0.640   1.644   3.020 -0.4379 -0.8967  0.1792
  918TIP3   OH2 2759   5.999   5.294   3.154 -0.3030 -0.6977  0.0550
  918TIP3    H1 2760   5.911   5.306   3.191 -0.4730 -2.0042  0.1271
  918TIP3    H2 2761   5.986   5.300   3.059 -0.5728 -1.4698  0.0409
  919TIP3   OH2 2762   4.363   2.069   3.738 -0.2451  0.3391 -0.3859
  919TIP3    H1 2763   4.320   1.984   3.751  1.3217 -0.4790 -0.3439
  919TIP3    H2 2764   4.347   2.091   3.646  1.3087 -1.1793 -1.0737
  920TIP3   OH2 2765   5.878   4.288   0.791  0.2750  0.4694  0.0473
  920TIP3    H1 2766   5.971   4.266   0.788  0.3076  0.3578  1.3389
  920TIP3    H2 2767   5.874   4.371   0.839 -0.1113  1.8103 -2.1482
  921TIP3   OH2 2768   4.419   3.413   0.453 -0.0491  0.4670  0.1561
  921TIP3    H1 2769   4.391   3.398   0.544  0.5271  0.5380  0.3463
  921TIP3    H2 2770   4.482   3.343   0.435 -1.8767 -0.9792 -0.9730
  922TIP3   OH2 2771   4.377   4.867   0.497 -0.3117 -0.9987  0.4354
  922TIP3    H1 2772   4.380   4.842   0.405 -0.8145  0.6430 -0.0624
  922TIP3    H2 2773   4.378   4.784   0.545 -0.0147 -1.8725 -1.0380
  923TIP3   OH2 2774   1.894   4.673   2.553 -0.1069  0.2317  0.1168
  923TIP3    H1 2775   1.924   4.710   2.636  2.8729 -0.4768 -0.5349
  923TIP3    H2 2776   1.865   4.748   2.501 -2.8126  0.6220  1.9611
  924TIP3   OH2 2777   5.007   4.230   3.514 -0.1100 -0.4290 -0.1200
  924TIP3    H1 2778   4.995   4.166   3.443  0.5192 -0.1595 -0.4707
  924TIP3    H2 2779   5.066   4.296   3.478 -1.1586  0.6435  0.0600
  925TIP3   OH2 2780   0.575   4.287   2.402  0.4395  0.3134 -0.0856
  925TIP3    H1 2781   0.531   4.292   2.318 -0.4121 -0.9957  0.2515
  925TIP3    H2 2782   0.648   4.228   2.388  2.2879  2.5985 -0.6827
  926TIP3   OH2 2783   1.684   2.975   0.691 -0.5273  0.6125 -0.3251
  926TIP3    H1 2784   1.773   2.976   0.657 -1.0124  1.9766 -1.6830
  926TIP3    H2 2785   1.649   2.890   0.665 -0.0083  0.5530 -0.8598
  927TIP3   OH2 2786   4.937   1.433   0.092  0.1597 -0.2407 -0.1351
  927TIP3    H1 2787   4.893   1.377   0.028  0.2237 -2.2646  1.4711
  927TIP3    H2 2788   4.985   1.372   0.148  0.9739  1.5228  1.1983
  928TIP3   OH2 2789   5.802   2.689   4.906 -0.4857  0.3388  0.0406
  928TIP3    H1 2790   5.855   2.647   4.839 -0.0681 -0.7313  1.0017
  928TIP3    H2 2791   5.845   2.773   4.922  0.2804 -0.0432  0.0273
  929TIP3   OH2 2792   5.486   0.992   5.006 -0.0645 -0.6173 -0.1369
  929TIP3    H1 2793   5.525   1.075   4.979  0.7798 -0.8666  0.2764
  929TIP3    H2 2794   5.413   0.979   4.945  0.8088 -0.3787 -1.2727
  930TIP3   OH2 2795   1.191   2.316   5.211  0.3720 -0.2836 -0.2938
  930TIP3    H1 2796   1.138   2.395   5.224  2.0144  0.8619 -0.1489
  930TIP3    H2 2797   1.184   2.297   5.118 -0.9008 -0.6345 -0.1448
  931TIP3   OH2 2798   0.428   1.399   1.337  0.1237  0.5145  0.2123
  931TIP3    H1 2799   0.391   1.474   1.292  0.9519  0.2647 -0.9299
  931TIP3    H2 2800   0.361   1.331   1.332 -0.3770  0.9622  0.7019
  932TIP3   OH2 2801   5.054   1.428   1.973  0.1580  0.3416  0.7858
  932TIP3    H1 2802   5.149   1.414   1.982  0.0577 -0.3940  0.7571
  932TIP3    H2 2803   5.021   1.346   1.936 -0.6222  0.2370  1.6650
  933TIP3   OH2 2804   2.138   1.298   4.400 -0.0803  0.4479  0.3752
  933TIP3    H1 2805   2.193   1.334   4.470 -0.2272  0.0939  0.6772
  933TIP3    H2 2806   2.129   1.205   4.423  0.4226  0.1792 -0.4718
  934TIP3   OH2 2807   2.860   2.816   2.870  0.0801 -0.5547 -0.0332
  934TIP3    H1 2808   2.835   2.881   2.936  0.1990 -1.0076  0.4688
  934TIP3    H2 2809   2.799   2.743   2.885  0.6452 -0.9991  0.1261
  935TIP3   OH2 2810   5.564   4.890   3.292 -0.0313  0.0686 -0.6491
  935TIP3    H1 2811   5.476   4.864   3.316  0.4739 -0.1161  1.1003
  935TIP3    H2 2812   5.553   4.973   3.244 -1.0222  1.1349  1.3303
  936TIP3   OH2 2813   4.351   2.656   3.262 -0.3783  0.9487  0.2399
  936TIP3    H1 2814   4.399   2.605   3.327 -0.2359 -0.0254 -0.5978
  936TIP3    H2 2815   4.352   2.601   3.183 -0.3814  2.1749 -0.6399
  937TIP3   OH2 2816   3.683   5.857   4.271 -0.2942 -0.3869 -0.0045
  937TIP3    H1 2817   3.648   5.768   4.281  0.0100 -0.6787 -1.3634
  937TIP3    H2 2818   3.772   5.844   4.239  0.0214  0.4112  0.5269
  938TIP3   OH2 2819   0.597   5.312   2.277  0.1896 -0.5010 -1.0535
  938TIP3    H1 2820   0.623   5.402   2.256  0.0149 -0.5418 -1.4541
  938TIP3    H2 2821   0.555   5.280   2.197  0.6951 -1.1070 -1.0768
  939TIP3   OH2 2822   0.573   2.914   5.008 -0.6823  0.2602 -0.5694
  939TIP3    H1 2823   0.625   2.991   5.029  0.7192 -0.6047 -0.7576
  939TIP3    H2 2824   0.483   2.939   5.031 -0.1444  1.6416  0.1643
  940TIP3   OH2 2825   2.491   4.174   4.651 -0.3507 -0.2027 -0.4130
  940TIP3    H1 2826   2.509   4.081   4.667 -1.3634 -0.5033 -0.9458
  940TIP3    H2 2827   2.402   4.187   4.681  0.7718  1.3762  2.6037
  941TIP3   OH2 2828   4.009   0.332   0.265 -0.5094  0.0603  0.2871
  941TIP3    H1 2829   4.022   0.412   0.316 -0.1769 -0.2876  0.7630
  941TIP3    H2 2830   3.934   0.351   0.209 -0.8122  0.4958  0.8243
  942TIP3   OH2 2831   0.844   3.421   4.026  0.0162  0.3426  0.3863
  942TIP3    H1 2832   0.884   3.471   3.955 -0.9490 -0.7579 -0.9944
  942TIP3    H2 2833   0.895   3.340   4.030 -1.0719 -0.4196 -0.3810
  943TIP3   OH2 2834   5.033   4.435   3.731  0.7327  0.4296 -0.0611
  943TIP3    H1 2835   5.085   4.359   3.756  1.6770  0.7580 -0.9618
  943TIP3    H2 2836   5.030   4.432   3.635 -2.2573 -0.4456 -0.0645
  944TIP3   OH2 2837   6.236   4.862   2.327  0.1134 -0.2157 -0.0804
  944TIP3    H1 2838   6.290   4.934   2.295  0.9315  0.2546  2.1475
  944TIP3    H2 2839   6.151   4.902   2.345  0.5965  0.2603  1.2493
  945TIP3   OH2 2840   0.470   5.948   0.424 -0.4534 -0.2434  0.0861
  945TIP3    H1 2841   0.541   5.953   0.360 -0.7707  0.1908 -0.2314
  945TIP3    H2 2842   0.451   5.854   0.432  0.3730 -0.3903  0.4157
  946TIP3   OH2 2843   2.380   2.772   0.386  0.1646  0.4546 -0.1469
  946TIP3    H1 2844   2.288   2.788   0.408 -0.4738 -1.5317 -1.1267
  946TIP3    H2 2845   2.418   2.736   0.466 -0.1472  0.4679  0.0094
  947TIP3   OH2 2846   4.877   5.656   2.004  0.1349 -0.0534  0.1087
  947TIP3    H1 2847   4.955   5.700   1.970  0.5197 -0.3967  0.5463
  947TIP3    H2 2848   4.849   5.710   2.078 -1.1275  1.1066 -1.1390
  948TIP3   OH2 2849   3.498   0.074   3.877 -0.3147 -0.5419  0.2849
  948TIP3    H1 2850   3.473   0.013   3.946  1.6123 -1.2768  0.3767
  948TIP3    H2 2851   3.456   0.040   3.798 -0.7574 -0.9144  0.6750
  949TIP3   OH2 2852   5.277   1.111   4.243 -0.2604  0.0965  0.2932
  949TIP3    H1 2853   5.251   1.078   4.157  0.3651 -2.4762  1.0325
  949TIP3    H2 2854   5.231   1.055   4.306  2.1517 -0.5251  1.6208
  950TIP3   OH2 2855   2.669   2.064   1.078 -0.2715  0.9307 -0.0188
  950TIP3    H1 2856   2.723   2.016   1.016  0.2331  1.8036 -0.2687
  950TIP3    H2 2857   2.601   2.002   1.104  0.4489  0.0344 -0.2162
  951TIP3   OH2 2858   5.062   4.375   4.575 -0.1180  0.2217  0.5946
  951TIP3    H1 2859   5.047   4.402   4.484 -0.6120  2.7073  1.3468
  951TIP3    H2 2860   4.976   4.345   4.606 -0.1079  0.0599  0.4706
  952TIP3   OH2 2861   2.314   2.135   4.903  0.1916  0.3834  0.1111
  952TIP3    H1 2862   2.283   2.056   4.860  1.3399  0.5435 -1.0700
  952TIP3    H2 2863   2.335   2.108   4.993 -2.6746  0.1443  0.8063
  953TIP3   OH2 2864   4.463   0.582   3.342  0.2957 -0.1529  0.2046
  953TIP3    H1 2865   4.431   0.668   3.368 -1.2522 -0.9412  1.0245
  953TIP3    H2 2866   4.413   0.520   3.395 -0.2966 -1.6804 -1.9855
  954TIP3   OH2 2867   5.101   5.025   0.057  0.1390 -0.1120  0.7655
  954TIP3    H1 2868   5.094   5.119   0.037  0.4567  0.0024  1.1778
  954TIP3    H2 2869   5.013   4.991   0.042  0.3810 -0.0617 -0.9311
  955TIP3   OH2 2870   3.036   3.786   4.668  0.3082  0.0098 -0.0763
  955TIP3    H1 2871   3.060   3.816   4.580  0.9471 -1.1702 -0.3160
  955TIP3    H2 2872   3.073   3.852   4.726  0.4820  0.4321 -0.6544
  956TIP3   OH2 2873   0.091   0.508   4.241 -0.3980  0.4102  0.2795
  956TIP3    H1 2874   0.078   0.424   4.197  0.9995  0.0249  0.5550
  956TIP3    H2 2875   0.005   0.550   4.239 -0.4129  0.5549 -3.0979
  957TIP3   OH2 2876   5.776   0.363   1.391  0.2987 -0.6537 -0.2491
  957TIP3    H1 2877   5.744   0.385   1.303  2.2600  0.7230 -0.6830
  957TIP3    H2 2878   5.730   0.424   1.449  0.1256 -0.5474 -0.4943
  958TIP3   OH2 2879   2.780   3.260  -0.022 -0.0296 -0.2608 -0.4753
  958TIP3    H1 2880   2.791   3.355  -0.015 -3.5172  0.3404 -1.5539
  958TIP3    H2 2881   2.797   3.228   0.067 -0.2494  1.5619  0.2740
  959TIP3   OH2 2882   4.321   0.563   1.248 -0.4247 -0.3068 -0.0336
  959TIP3    H1 2883   4.312   0.650   1.285  0.9039 -1.0401  2.2260
  959TIP3    H2 2884   4.351   0.577   1.159 -0.2360  1.5254  0.2936
  960TIP3   OH2 2885   5.717   0.162   3.251 -0.3474  0.1034  0.3089
  960TIP3    H1 2886   5.724   0.245   3.297  2.8981  0.8717 -1.2585
  960TIP3    H2 2887   5.705   0.097   3.320 -0.1734  1.5929  1.8021
  961TIP3   OH2 2888   0.171   5.377   4.294  0.0351 -0.0982  0.0895
  961TIP3    H1 2889   0.141   5.336   4.213  1.2884  0.0175 -0.4598
  961TIP3    H2 2890   0.101   5.361   4.357 -0.6783 -0.7397 -0.8453
  962TIP3   OH2 2891   5.413   4.444   2.681  0.1086  0.0203  0.3894
  962TIP3    H1 2892   5.430   4.524   2.632  1.8249 -0.6395 -0.1442
  962TIP3    H2 2893   5.450   4.374   2.628 -0.2193 -0.9967  1.4523
  963TIP3   OH2 2894   3.979   4.656   3.630  0.1598  0.2044  0.1653
  963TIP3    H1 2895   3.980   4.748   3.603  2.3929 -0.0208 -0.7216
  963TIP3    H2 2896   3.947   4.608   3.553 -0.8078  0.1999  0.5584
  964TIP3   OH2 2897   5.102   5.638   4.359  0.0195 -0.2175 -0.2632
  964TIP3    H1 2898   5.151   5.609   4.282 -0.1582 -1.7931  0.1680
  964TIP3    H2 2899   5.165   5.684   4.413  0.1590  0.8600 -1.3134
  965TIP3   OH2 2900   0.571   3.907   1.739 -0.5330  0.6461 -0.2167
  965TIP3    H1 2901   0.546   3.896   1.831  0.6373 -0.6723 -0.0287
  965TIP3    H2 2902   0.514   3.847   1.691  0.4501 -0.4628 -0.0581
  966TIP3   OH2 2903   4.794   0.587   3.041  0.4623 -0.2458 -0.5962
  966TIP3    H1 2904   4.770   0.570   3.132  1.5845  1.1193 -0.0128
  966TIP3    H2 2905   4.747   0.520   2.991 -1.4419 -0.0444  0.8204
  967TIP3   OH2 2906   3.566   5.273   1.424 -0.2435  0.6450  0.1761
  967TIP3    H1 2907   3.558   5.187   1.464 -0.7979  0.0624 -1.1232
  967TIP3    H2 2908   3.499   5.326   1.466  0.3328  0.5539  1.2326
  968TIP3   OH2 2909   1.099   1.763   1.599  0.3656  0.1644 -0.3261
  968TIP3    H1 2910   1.007   1.789   1.604 -0.0032 -1.2794  2.8134
  968TIP3    H2 2911   1.146   1.846   1.587 -1.2010  1.3261  1.0499
  969TIP3   OH2 2912   4.756   4.525   0.155  0.5382  0.3159  0.3752
  969TIP3    H1 2913   4.748   4.602   0.099  0.4811 -0.3192 -0.5196
  969TIP3    H2 2914   4.721   4.453   0.102  2.3403 -0.6676  0.4303
  970TIP3   OH2 2915   5.442   5.243   4.757  0.3435  0.1808  0.4118
  970TIP3    H1 2916   5.448   5.175   4.689 -0.7526  1.0456 -0.5977
  970TIP3    H2 2917   5.381   5.207   4.821 -0.6301  0.3917 -0.3701
  971TIP3   OH2 2918   3.447   0.064   3.470 -0.3371  1.0339 -0.0403
  971TIP3    H1 2919   3.394   0.021   3.538 -2.0405  2.7752 -0.1716
  971TIP3    H2 2920   3.533   0.075   3.511 -0.3401 -0.8964  0.5955
  972TIP3   OH2 2921   3.796   4.846   2.884  0.1051  0.1195 -0.3628
  972TIP3    H1 2922   3.868   4.906   2.906  0.6391 -0.9088  0.8572
  972TIP3    H2 2923   3.717   4.889   2.915  0.3599  0.6445 -0.4421
  973TIP3   OH2 2924   3.792   5.216   4.620 -0.3723 -0.3494 -0.7142
  973TIP3    H1 2925   3.733   5.291   4.633 -0.4069 -0.2145 -1.5852
  973TIP3    H2 2926   3.786   5.167   4.702 -0.7896  0.2930 -0.3442
  974TIP3   OH2 2927   3.694   1.583   2.806  0.3334  0.2883  0.1881
  974TIP3    H1 2928   3.705   1.674   2.777  1.8098  0.8788  2.4037
  974TIP3    H2 2929   3.600   1.577   2.827  0.0836  1.0777 -0.5941
  975TIP3   OH2 2930   1.366   3.753   1.648 -0.2004 -0.2601  0.2934
  975TIP3    H1 2931   1.339   3.818   1.584 -2.1878  0.1598  1.4913
  975TIP3    H2 2932   1.462   3.762   1.653 -0.0129 -0.1456 -2.3669
  976TIP3   OH2 2933   5.619   2.757   0.983  0.8382  0.3646 -0.0558
  976TIP3    H1 2934   5.539   2.774   0.934  1.1734  1.0294 -0.3728
  976TIP3    H2 2935   5.690   2.776   0.922  1.2517  0.5800  0.4841
  977TIP3   OH2 2936   0.731   1.678   2.709  0.1163 -0.2012 -0.3237
  977TIP3    H1 2937   0.752   1.758   2.757 -1.2904  0.7298 -1.1838
  977TIP3    H2 2938   0.803   1.618   2.729  0.2755  0.6294  1.7838
  978TIP3   OH2 2939   6.310   3.409   5.057 -0.3937  0.0557  0.1047
  978TIP3    H1 2940   6.353   3.337   5.010 -0.3958  0.8057 -1.0978
  978TIP3    H2 2941   6.228   3.371   5.090  0.2471 -0.8538  0.7027
  979TIP3   OH2 2942   3.575   0.753   2.485  0.1489 -0.8803  0.0734
  979TIP3    H1 2943   3.488   0.776   2.451  0.0088 -0.3002  0.7939
  979TIP3    H2 2944   3.636   0.801   2.430 -0.0796  0.1071  0.6455
  980TIP3   OH2 2945   4.220   3.906   5.045 -0.7293  0.2369 -0.4019
  980TIP3    H1 2946   4.203   3.967   5.116  0.0546  0.2364 -0.2038
  980TIP3    H2 2947   4.198   3.955   4.965 -1.5527  0.2548 -0.1648
  981TIP3   OH2 2948   0.044   2.017   3.423  0.2429 -0.2379 -0.0029
  981TIP3    H1 2949  -0.032   1.960   3.426 -0.9673  1.2968 -0.3147
  981TIP3    H2 2950   0.118   1.960   3.444 -0.9595 -1.7973  0.1335
  982TIP3   OH2 2951   0.844   4.723   3.325 -0.0682  0.3081  0.5548
  982TIP3    H1 2952   0.923   4.685   3.287 -0.1669  0.3679  0.2821
  982TIP3    H2 2953   0.861   4.818   3.324 -0.1013  0.3141  0.5879
  983TIP3   OH2 2954   3.823   1.863   3.739 -0.3373  0.8962 -0.3263
  983TIP3    H1 2955   3.801   1.775   3.769 -0.2446  0.2880 -1.9058
  983TIP3    H2 2956   3.905   1.851   3.691 -0.2908  1.8589 -0.4912
  984TIP3   OH2 2957   1.263   5.502   2.728 -0.1993 -0.4307  0.0072
  984TIP3    H1 2958   1.172   5.475   2.737  0.0217 -1.2103 -0.0405
  984TIP3    H2 2959   1.297   5.503   2.817 -1.3195  3.8672  0.5996
  985TIP3   OH2 2960   4.467   3.951   0.416 -0.2380 -0.2572 -0.1550
  985TIP3    H1 2961   4.490   4.040   0.444  1.8714 -1.1071  1.0740
  985TIP3    H2 2962   4.490   3.949   0.323  0.4212  0.2865 -0.0121
  986TIP3   OH2 2963   2.712   2.831   2.132  0.5254  0.7202 -0.7057
  986TIP3    H1 2964   2.623   2.866   2.121  0.6129  1.0189 -0.5105
  986TIP3    H2 2965   2.699   2.740   2.158  0.3106  0.2968 -2.2047
  987TIP3   OH2 2966   5.594   5.420   3.040  0.2046 -0.6490 -0.1024
  987TIP3    H1 2967   5.504   5.443   3.065  1.1674  0.6772  2.6039
  987TIP3    H2 2968   5.596   5.430   2.945 -2.5253 -0.8539 -0.2617
  988TIP3   OH2 2969   2.624   3.540   1.628 -0.5180  0.0983  0.2424
  988TIP3    H1 2970   2.687   3.590   1.576 -0.5445  0.9717  1.0292
  988TIP3    H2 2971   2.539   3.562   1.590 -0.3940 -1.2110 -0.9302
  989TIP3   OH2 2972   1.279   3.892   4.910  0.4954 -0.3573 -0.4267
  989TIP3    H1 2973   1.332   3.818   4.940  3.1015  2.0714  1.5888
  989TIP3    H2 2974   1.208   3.899   4.975  2.1738  0.7507  1.4314
  990TIP3   OH2 2975   2.890   5.591   2.437 -0.4960 -0.0478 -0.6519
  990TIP3    H1 2976   2.910   5.654   2.369 -1.1228  1.0703  0.1732
  990TIP3    H2 2977   2.795   5.582   2.434 -0.5442  0.0886  0.1235
  991TIP3   OH2 2978   0.035   1.383   1.686 -0.1700 -0.6521  0.1420
  991TIP3    H1 2979   0.068   1.333   1.761 -0.0134  0.8537  1.1052
  991TIP3    H2 2980  -0.057   1.359   1.680 -0.2847 -0.4666  1.0944
  992TIP3   OH2 2981   6.102   2.710   3.680 -0.5230  0.2293  0.0106
  992TIP3    H1 2982   6.163   2.671   3.742 -0.5835  1.7906  1.1140
  992TIP3    H2 2983   6.019   2.715   3.727 -0.6489  1.1653 -0.2846
  993TIP3   OH2 2984   6.050   3.252   5.118  0.0148 -0.3854 -0.1111
  993TIP3    H1 2985   6.070   3.168   5.160 -0.6090 -0.0736  0.8324
  993TIP3    H2 2986   6.066   3.236   5.025 -0.8793 -1.7949 -0.0516
  994TIP3   OH2 2987   1.523   1.597   3.025  0.6751 -0.3122 -0.0097
  994TIP3    H1 2988   1.497   1.587   2.933  1.2720 -1.0720 -0.1088
  994TIP3    H2 2989   1.594   1.661   3.023  0.0894  0.3576  0.0426
  995TIP3   OH2 2990   5.184   0.385   4.027  0.2209  0.3481 -0.1769
  995TIP3    H1 2991   5.187   0.316   3.961  0.3731 -1.9568  2.0992
  995TIP3    H2 2992   5.093   0.415   4.026 -0.9177 -2.6663  1.3724
  996TIP3   OH2 2993   4.395   4.033   0.807 -0.0358 -0.3390 -0.9363
  996TIP3    H1 2994   4.433   4.065   0.725 -0.1999  1.1003 -0.4791
  996TIP3    H2 2995   4.316   3.986   0.780  0.3597 -0.5857 -1.6662
  997TIP3   OH2 2996   1.963   2.821   0.175  0.0915 -0.0745 -0.7211
  997TIP3    H1 2997   2.039   2.819   0.117  0.8744 -0.6752  0.2877
  997TIP3    H2 2998   1.953   2.730   0.203 -0.5494  0.1335 -0.2676
  998TIP3   OH2 2999   1.892   4.340   1.492  0.4894  0.0643 -0.1974
  998TIP3    H1 3000   1.972   4.295   1.467  1.0891  0.9661  0.0790
  998TIP3    H2 3001   1.895   4.424   1.446 -0.5022 -0.0570 -0.5168
  999TIP3   OH2 3002   4.514   2.190   2.995  0.1968 -0.4982  0.1735
  999TIP3    H1 3003   4.507   2.131   2.920  0.4988  0.0762 -0.3083
  999TIP3    H2 3004   4.586   2.249   2.973 -0.8819  0.8335  0.1196
 1000TIP3   OH2 3005   5.377   0.821   2.508  0.1642 -0.2718 -0.0756
 1000TIP3    H1 3006   5.289   0.814   2.470 -0.3703 -2.7363  1.3844
 1000TIP3    H2 3007   5.363   0.865   2.591  0.3780 -0.3276 -0.0112
 1001TIP3   OH2 3008   6.377   0.406   5.091  0.0602 -0.3448  0.2862
 1001TIP3    H1 3009   6.321   0.480   5.115  1.1173  0.9740 -1.0787
 1001TIP3    H2 3010   6.319   0.345   5.045 -0.7584 -0.2406  1.1530
 1002TIP3   OH2 3011   2.596   5.281   4.534 -0.3022 -0.3400  0.5034
 1002TIP3    H1 3012   2.516   5.333   4.536 -0.0391  0.1298 -0.4296
 1002TIP3    H2 3013   2.662   5.338   4.573 -0.0162  0.0383 -0.5063
 1003TIP3   OH2 3014   1.115   5.718   0.365 -0.7103 -0.1591 -0.2804
 1003TIP3    H1 3015   1.138   5.645   0.421 -0.6978 -0.7867 -1.0854
 1003TIP3    H2 3016   1.197   5.767   0.353 -0.4322 -0.7393 -0.7766
 1004TIP3   OH2 3017   3.177   3.486   5.073 -0.0030  0.5549 -0.0920
 1004TIP3    H1 3018   3.157   3.557   5.013  0.4935  0.4540 -0.3737
 1004TIP3    H2 3019   3.097   3.432   5.073  0.0889  0.4136 -0.8550
 1005TIP3   OH2 3020   1.860   1.036   2.215 -0.3283  0.4724 -0.1302
 1005TIP3    H1 3021   1.935   1.079   2.256 -0.6832  1.7305 -0.7555
 1005TIP3    H2 3022   1.789   1.043   2.279  0.6320 -2.9419  1.5691
 1006TIP3   OH2 3023   2.201   5.292   3.127 -0.1291  0.4978  0.1260
 1006TIP3    H1 3024   2.178   5.200   3.111 -0.3198  0.6497 -0.4990
 1006TIP3    H2 3025   2.130   5.326   3.181 -0.1302  0.3194  0.2394
 1007TIP3   OH2 3026   2.601   5.157   1.388  0.4101 -0.3605 -0.1415
 1007TIP3    H1 3027   2.578   5.105   1.464  1.2069 -0.1979  0.2172
 1007TIP3    H2 3028   2.518   5.196   1.359 -0.4945 -2.9362 -1.3070
 1008TIP3   OH2 3029   1.212   2.296   1.785  0.4066 -0.3289 -0.4940
 1008TIP3    H1 3030   1.201   2.383   1.824  1.0509 -0.7181  0.5750
 1008TIP3    H2 3031   1.252   2.243   1.854  1.4663 -1.0649 -1.6344
 1009TIP3   OH2 3032   3.060   5.988   4.662  0.0455  0.6710 -0.1913
 1009TIP3    H1 3033   2.986   6.016   4.717 -1.3813 -1.3576 -0.9696
 1009TIP3    H2 3034   3.045   5.895   4.647  2.6114  0.2587 -0.6950
 1010TIP3   OH2 3035   3.508   5.193   4.669  0.3636 -0.3625  0.0639
 1010TIP3    H1 3036   3.544   5.127   4.610 -0.2237 -2.4674  1.9223
 1010TIP3    H2 3037   3.414   5.192   4.651  0.7168  3.5726 -3.2647
 1011TIP3   OH2 3038   0.237   1.642   0.984  0.1457  0.0618 -0.2288
 1011TIP3    H1 3039   0.171   1.576   1.004  0.6751 -0.5167 -0.3739
 1011TIP3    H2 3040   0.205   1.722   1.027 -0.1793 -0.4379  0.4731
 1012TIP3   OH2 3041   0.341   5.932   0.971 -0.1336 -0.1482  0.4364
 1012TIP3    H1 3042   0.372   5.997   1.034 -4.0932  1.1668  1.3317
 1012TIP3    H2 3043   0.285   5.874   1.023 -0.0888 -1.6779 -1.1313
 1013TIP3   OH2 3044   0.984   4.400   4.411  0.0372 -0.2893 -0.5224
 1013TIP3    H1 3045   1.014   4.331   4.471  1.0017  0.9525  0.4791
 1013TIP3    H2 3046   0.963   4.353   4.330  0.1587 -1.8228  0.2865
 1014TIP3   OH2 3047   5.290   2.267   3.393 -0.4874  0.2119  0.3719
 1014TIP3    H1 3048   5.373   2.223   3.372 -0.2891  0.5869  0.3553
 1014TIP3    H2 3049   5.294   2.282   3.487  0.9285  3.1099 -0.0526
 1015TIP3   OH2 3050   1.905   2.101   2.384 -0.2096  0.0941  0.2822
 1015TIP3    H1 3051   1.955   2.140   2.312 -2.4564  4.3412  0.7322
 1015TIP3    H2 3052   1.903   2.169   2.451 -3.1385 -1.4281  1.9260
 1016TIP3   OH2 3053   5.782   4.083   0.281  0.5166 -0.4471  0.4142
 1016TIP3    H1 3054   5.746   4.078   0.370  0.1215 -1.2751  0.2077
 1016TIP3    H2 3055   5.813   4.174   0.274  0.0390 -0.2107  1.1972
 1017TIP3   OH2 3056   2.828  -0.000   3.903  0.3576 -0.1583  0.0284
 1017TIP3    H1 3057   2.752  -0.051   3.932  0.1810 -2.1674 -3.3773
 1017TIP3    H2 3058   2.798   0.091   3.907 -1.2396 -0.6676  1.2869
 1018TIP3   OH2 3059   1.874   1.842   2.446 -0.9281 -0.1137 -0.1045
 1018TIP3    H1 3060   1.796   1.817   2.495 -1.1174  0.0700 -0.3126
 1018TIP3    H2 3061   1.886   1.935   2.465 -0.4265 -0.2753  0.3876
 1019TIP3   OH2 3062   3.658   3.562   0.569  0.5031  0.0990  0.6199
 1019TIP3    H1 3063   3.668   3.651   0.536  1.4421  0.2118  1.1538
 1019TIP3    H2 3064   3.575   3.563   0.617 -0.4935  0.1282 -1.0553
 1020TIP3   OH2 3065   1.444   1.752   4.161  0.1665  0.5129  0.0712
 1020TIP3    H1 3066   1.510   1.704   4.212  2.1804  1.8641 -1.1313
 1020TIP3    H2 3067   1.422   1.693   4.089  0.8775  0.4710 -0.1149
 1021TIP3   OH2 3068   4.790   3.151   1.333 -0.5693 -0.1565 -0.4058
 1021TIP3    H1 3069   4.731   3.077   1.350  0.3753 -0.8615 -0.0908
 1021TIP3    H2 3070   4.846   3.154   1.410  1.7863 -1.4428 -1.9423
 1022TIP3   OH2 3071   4.961   0.722   3.771  0.3505  0.1205 -0.6868
 1022TIP3    H1 3072   4.899   0.649   3.770 -0.5607  0.8747 -0.7895
 1022TIP3    H2 3073   5.023   0.701   3.700  0.3911 -0.7806 -0.3981
 1023TIP3   OH2 3074   4.042   3.167   1.680 -0.6592  0.1168  0.2359
 1023TIP3    H1 3075   4.099   3.233   1.718 -2.2084  1.1376  0.8677
 1023TIP3    H2 3076   3.957   3.181   1.722 -1.3008 -1.5813 -0.4119
 1024TIP3   OH2 3077   5.064   0.570   3.037 -0.4013 -0.1369 -0.2598
 1024TIP3    H1 3078   4.971   0.592   3.030 -0.6294 -0.2523  1.7736
 1024TIP3    H2 3079   5.065   0.474   3.047 -0.1388 -0.0676  0.4367
 1025TIP3   OH2 3080   3.747   4.605   1.072  0.0791  0.3645 -0.2126
 1025TIP3    H1 3081   3.786   4.518   1.079  1.1530  0.7743 -0.7959
 1025TIP3    H2 3082   3.731   4.617   0.978 -0.1123  0.7710 -0.1311
 1026TIP3   OH2 3083   1.909   3.240   0.665 -0.1418  0.3605 -0.4973
 1026TIP3    H1 3084   1.942   3.150   0.669 -0.6542  0.1598 -0.6640
 1026TIP3    H2 3085   1.851   3.241   0.588 -1.9845  0.1953  0.8160
 1027TIP3   OH2 3086   0.316   0.252   0.090  0.1864  0.0324 -0.0070
 1027TIP3    H1 3087   0.287   0.273   0.002 -2.0235 -2.1336  0.0978
 1027TIP3    H2 3088   0.342   0.160   0.086 -1.7652 -0.7005  1.9187
 1028TIP3   OH2 3089   0.011   5.185   0.922 -0.2619  0.1173 -0.0368
 1028TIP3    H1 3090   0.047   5.134   0.994 -1.7538 -0.6415  0.2184
 1028TIP3    H2 3091  -0.014   5.268   0.962  0.2521  0.2551  0.0001
 1029TIP3   OH2 3092   1.103   4.900   0.026  0.3108  0.0513  0.3851
 1029TIP3    H1 3093   1.113   4.843   0.102  0.2125 -0.2233  0.1963
 1029TIP3    H2 3094   1.040   4.967   0.054  0.4648  0.0950  0.6248
 1030TIP3   OH2 3095   5.517   2.961   1.149 -0.0427 -0.4294 -0.4805
 1030TIP3    H1 3096   5.605   2.970   1.186  0.7143  0.9776 -2.4647
 1030TIP3    H2 3097   5.516   2.874   1.110  0.2808 -0.6429 -0.0258
 1031TIP3   OH2 3098   5.110   2.848   3.113 -0.0873 -0.5940  0.0408
 1031TIP3    H1 3099   5.023   2.821   3.084  0.5661 -3.5255  0.5179
 1031TIP3    H2 3100   5.167   2.774   3.092  1.9443  0.4930  1.3813
 1032TIP3   OH2 3101   5.397   5.163   5.146 -0.0556  0.1806  0.2569
 1032TIP3    H1 3102   5.373   5.210   5.226  1.1898  1.8897 -0.2939
 1032TIP3    H2 3103   5.323   5.176   5.087 -0.1705  0.5751  0.4822
 1033TIP3   OH2 3104   3.468   4.571   3.714 -0.0803 -0.3698  0.1961
 1033TIP3    H1 3105   3.542   4.558   3.655 -0.3040  0.1836 -0.2105
 1033TIP3    H2 3106   3.429   4.654   3.687 -1.5829 -1.2216 -0.3847
 1034TIP3   OH2 3107   0.133   1.888   1.675 -0.9739  0.2380 -0.6874
 1034TIP3    H1 3108   0.186   1.810   1.686 -0.7932  0.3439 -0.8100
 1034TIP3    H2 3109   0.155   1.943   1.750  0.2882  0.9774 -1.5600
 1035TIP3   OH2 3110   1.328   2.702   2.659 -0.2093  0.3837  0.1937
 1035TIP3    H1 3111   1.239   2.679   2.685  0.0939 -0.5951  0.4070
 1035TIP3    H2 3112   1.367   2.738   2.739 -0.1670  0.0527  0.3246
 1036TIP3   OH2 3113   5.225   1.923   3.484  0.2127 -0.8070 -0.0990
 1036TIP3    H1 3114   5.300   1.969   3.521  0.5338 -0.4823 -1.1321
 1036TIP3    H2 3115   5.263   1.864   3.419 -0.3713 -1.1433 -0.1422
 1037TIP3   OH2 3116   0.694   4.834   4.046 -0.1500  0.0570 -0.6672
 1037TIP3    H1 3117   0.733   4.752   4.014 -1.5142 -0.4164 -1.1741
 1037TIP3    H2 3118   0.688   4.890   3.969 -1.2467 -0.1994 -0.7853
 1038TIP3   OH2 3119   0.343   4.324   5.069 -0.1915  0.0771  0.7482
 1038TIP3    H1 3120   0.254   4.352   5.050  0.2332  1.0819  0.1214
 1038TIP3    H2 3121   0.393   4.405   5.074  0.4472 -0.3875  2.4689
 1039TIP3   OH2 3122   4.591   5.696   2.792  0.3036  0.0153  0.5202
 1039TIP3    H1 3123   4.641   5.623   2.755  1.6271  0.6663  0.9759
 1039TIP3    H2 3124   4.627   5.774   2.751 -0.0574  0.5362  1.1653
 1040TIP3   OH2 3125   4.487   1.766   1.350  0.7169 -1.3195  0.6369
 1040TIP3    H1 3126   4.426   1.711   1.301  0.0803  0.0860 -0.2376
 1040TIP3    H2 3127   4.561   1.778   1.290 -0.1407  0.5483 -0.1355
 1041TIP3   OH2 3128   2.297   4.458   5.066 -0.0258  0.5085  0.4557
 1041TIP3    H1 3129   2.275   4.366   5.052  0.4243  0.5773 -0.7594
 1041TIP3    H2 3130   2.222   4.493   5.116 -1.5700  0.1583 -1.4926
 1042TIP3   OH2 3131   5.522   1.930   1.110 -0.7101  0.2549  0.7698
 1042TIP3    H1 3132   5.469   1.856   1.082 -0.2921  0.1200  0.3294
 1042TIP3    H2 3133   5.569   1.898   1.187  2.3515 -1.2539 -1.5052
 1043TIP3   OH2 3134   0.994   2.791   3.095  0.0304  0.6213 -0.1753
 1043TIP3    H1 3135   1.062   2.822   3.154 -0.8616  0.6893  0.8328
 1043TIP3    H2 3136   0.918   2.777   3.150 -0.6350  0.0434 -1.2008
 1044TIP3   OH2 3137   4.067   5.640   0.126  0.3110 -1.2919  0.1383
 1044TIP3    H1 3138   4.135   5.693   0.084  2.4378 -1.2665  3.3043
 1044TIP3    H2 3139   4.026   5.699   0.189  0.7248 -2.5715  1.6724
 1045TIP3   OH2 3140   5.063   1.286   2.370 -0.2195 -0.3211  0.7309
 1045TIP3    H1 3141   5.009   1.311   2.444 -1.9675 -1.7995  0.0319
 1045TIP3    H2 3142   5.001   1.266   2.300  1.1690 -2.3648 -0.0227
 1046TIP3   OH2 3143   4.204   0.377   2.163 -0.7708 -0.0982 -0.0140
 1046TIP3    H1 3144   4.213   0.333   2.248  1.4263 -0.7558 -0.5267
 1046TIP3    H2 3145   4.277   0.344   2.111 -0.5631  2.1824 -1.3243
 1047TIP3   OH2 3146   2.761   4.917   3.737  0.5180  0.2432 -0.2761
 1047TIP3    H1 3147   2.721   4.885   3.819  2.0146 -1.9353 -0.3117
 1047TIP3    H2 3148   2.834   4.972   3.765  1.5505 -1.1777 -0.0802
 1048TIP3   OH2 3149   0.889   1.590   4.334  0.5442  0.2641  0.5653
 1048TIP3    H1 3150   0.921   1.561   4.419 -0.3805  0.4523  0.9944
 1048TIP3    H2 3151   0.815   1.647   4.355 -0.4667 -0.6568 -0.3936
 1049TIP3   OH2 3152   6.264   2.598   3.473  0.1439 -0.2269  0.3737
 1049TIP3    H1 3153   6.276   2.505   3.488 -0.7579 -0.0774  2.2840
 1049TIP3    H2 3154   6.176   2.617   3.505  0.1716  1.2209 -0.3151
 1050TIP3   OH2 3155   3.559   5.017   4.015  0.1309 -0.2036  0.1978
 1050TIP3    H1 3156   3.478   4.965   4.009  0.8529 -1.2458 -1.0620
 1050TIP3    H2 3157   3.628   4.957   3.989  1.0276  1.3436 -1.2244
 1051TIP3   OH2 3158   0.271   0.439   2.101 -0.1074 -0.1402  0.3199
 1051TIP3    H1 3159   0.278   0.430   2.006 -1.6111  4.2715 -0.4457
 1051TIP3    H2 3160   0.178   0.454   2.117  0.2064 -0.0771  2.4230
 1052TIP3   OH2 3161   4.602   5.571   0.881 -0.9149 -0.1783  1.1252
 1052TIP3    H1 3162   4.643   5.484   0.885  2.0425  1.0846  1.3496
 1052TIP3    H2 3163   4.611   5.597   0.789  2.1807  1.4737  1.7577
 1053TIP3   OH2 3164   1.661   5.925   4.602 -0.2046 -0.0114  0.0582
 1053TIP3    H1 3165   1.649   6.019   4.590 -0.6002 -0.0034  0.4925
 1053TIP3    H2 3166   1.579   5.895   4.642 -0.3038 -0.6299 -0.5683
 1054TIP3   OH2 3167   6.017   0.483   1.728 -0.1268 -0.0836 -0.0156
 1054TIP3    H1 3168   6.007   0.499   1.634  0.6131  1.1900  0.0952
 1054TIP3    H2 3169   5.953   0.540   1.769 -1.1095 -1.3303  0.2560
 1055TIP3   OH2 3170   5.805   0.850   1.376  0.1624 -0.1094  0.0071
 1055TIP3    H1 3171   5.717   0.812   1.367  0.4255 -1.0287  1.1637
 1055TIP3    H2 3172   5.790   0.944   1.374 -0.9759 -0.2391  1.1685
 1056TIP3   OH2 3173   3.455   4.438   1.212  0.6758  0.2810  0.2129
 1056TIP3    H1 3174   3.465   4.464   1.304 -1.2539  0.0708  0.5243
 1056TIP3    H2 3175   3.472   4.344   1.212  1.4954  0.4235  0.1954
 1057TIP3   OH2 3176   4.979   2.865   3.369 -0.3315 -0.2147 -0.0329
 1057TIP3    H1 3177   4.974   2.775   3.402  0.6817 -0.5293 -0.6805
 1057TIP3    H2 3178   5.041   2.860   3.297 -0.8173  0.8790 -0.5481
 1058TIP3   OH2 3179   0.839   4.232   2.611  0.1152 -0.1394 -0.6268
 1058TIP3    H1 3180   0.767   4.281   2.649 -0.5732 -0.8353 -0.9997
 1058TIP3    H2 3181   0.805   4.143   2.600  1.6516 -0.9681  0.9348
 1059TIP3   OH2 3182   6.292   3.303   2.353 -0.1877 -0.1167  0.1891
 1059TIP3    H1 3183   6.271   3.306   2.260 -0.4165 -3.1382  0.0442
 1059TIP3    H2 3184   6.258   3.385   2.388  1.4405  1.9105 -2.6246
 1060TIP3   OH2 3185   2.045   4.335   1.874  0.1733  0.4389  0.1467
 1060TIP3    H1 3186   2.104   4.269   1.910  1.2283  0.8370 -0.7829
 1060TIP3    H2 3187   1.976   4.344   1.940  0.7448 -0.5799  0.9208
 1061TIP3   OH2 3188   5.353   0.398   0.578 -0.5875 -0.2992  0.4761
 1061TIP3    H1 3189   5.313   0.379   0.493 -1.9815  2.2756  0.4613
 1061TIP3    H2 3190   5.280   0.399   0.640  0.1403 -0.2502  1.3591
 1062TIP3   OH2 3191   2.421   5.919   2.783 -0.0851  0.1641 -0.6949
 1062TIP3    H1 3192   2.349   5.981   2.770 -0.0912  0.3553  0.1864
 1062TIP3    H2 3193   2.496   5.974   2.805 -0.0701 -0.1380  0.0164
 1063TIP3   OH2 3194   6.270   4.007   3.020 -0.2793 -0.0653  0.3246
 1063TIP3    H1 3195   6.252   4.101   3.028  0.5332  0.0142  1.6472
 1063TIP3    H2 3196   6.185   3.965   3.032 -0.3551  0.4457  1.8010
 1064TIP3   OH2 3197   3.805   5.371   4.271 -0.2998 -0.5699  0.5308
 1064TIP3    H1 3198   3.892   5.337   4.247  0.1147 -0.1348  1.3544
 1064TIP3    H2 3199   3.744   5.303   4.243  0.3148 -0.9098 -0.0085
 1065TIP3   OH2 3200   3.604   3.351   3.089 -0.4528  0.0493  0.0995
 1065TIP3    H1 3201   3.648   3.361   3.004  0.5432 -0.9746  0.4707
 1065TIP3    H2 3202   3.549   3.274   3.079 -0.2147 -0.1669  0.4264
 1066TIP3   OH2 3203   4.234   4.347   1.385  0.2049 -0.1202 -0.1396
 1066TIP3    H1 3204   4.176   4.418   1.358  0.3143  0.1017  0.2100
 1066TIP3    H2 3205   4.238   4.289   1.308 -1.5540 -0.8498  0.2816
 1067TIP3   OH2 3206   5.847   3.923   4.581 -0.7123 -0.1797 -0.1131
 1067TIP3    H1 3207   5.781   3.854   4.575 -0.8509 -0.0149 -0.5048
 1067TIP3    H2 3208   5.797   4.002   4.601 -0.5343 -0.2226  0.5275
 1068TIP3   OH2 3209   6.188   0.062   0.953  0.2518 -0.5709 -0.1609
 1068TIP3    H1 3210   6.250   0.016   1.011  1.1804 -1.7014 -1.9564
 1068TIP3    H2 3211   6.211   0.155   0.962  1.7381 -0.9064 -0.2168
 1069TIP3   OH2 3212   2.815   2.741   2.476 -0.1632  0.0702  0.4623
 1069TIP3    H1 3213   2.883   2.687   2.516  0.2727 -0.6366 -1.1327
 1069TIP3    H2 3214   2.858   2.781   2.400 -0.9369  1.4003  0.6824
 1070TIP3   OH2 3215   2.202   2.880   4.746 -0.4942 -0.3017 -1.0288
 1070TIP3    H1 3216   2.127   2.896   4.689 -1.0434 -0.6640 -0.4259
 1070TIP3    H2 3217   2.243   2.802   4.710  0.5321  0.7621 -2.2880
 1071TIP3   OH2 3218   5.008   0.401   0.194 -0.4099  0.1509  0.3896
 1071TIP3    H1 3219   4.937   0.338   0.187 -1.3228  1.1239  0.5381
 1071TIP3    H2 3220   4.993   0.462   0.121  0.3350  0.3205  0.3655
 1072TIP3   OH2 3221   2.765   2.274   2.985 -0.0210  0.3830  0.5070
 1072TIP3    H1 3222   2.726   2.329   3.053 -0.8921 -0.3153  0.5860
 1072TIP3    H2 3223   2.736   2.186   3.006  0.9829 -0.0496  0.1101
 1073TIP3   OH2 3224   2.958   5.185   4.562 -0.2475  0.1257 -0.7557
 1073TIP3    H1 3225   2.925   5.250   4.500 -2.0923 -0.6797 -0.6851
 1073TIP3    H2 3226   2.904   5.107   4.547  0.3873 -0.6470  0.7122
 1074TIP3   OH2 3227   3.756   3.754   0.077 -0.4763  0.0147 -0.3406
 1074TIP3    H1 3228   3.810   3.796   0.145 -0.9855  0.3675 -0.1430
 1074TIP3    H2 3229   3.817   3.700   0.027 -0.3113 -1.3952  1.2856
 1075TIP3   OH2 3230   5.023   2.396   4.712 -0.2311  0.1000  0.0041
 1075TIP3    H1 3231   5.075   2.461   4.759  1.4780 -1.4188  0.3191
 1075TIP3    H2 3232   5.012   2.325   4.775 -0.5840 -0.6510 -0.8901
 1076TIP3   OH2 3233   1.916   5.972  -0.021 -0.0499 -0.1016 -0.3433
 1076TIP3    H1 3234   2.008   5.955   0.000 -0.4389 -0.4612  1.1448
 1076TIP3    H2 3235   1.868   5.902   0.024 -0.9355 -1.1453 -2.7304
 1077TIP3   OH2 3236   4.556   5.471   4.577  0.5261 -0.0996 -0.0938
 1077TIP3    H1 3237   4.503   5.459   4.498  1.4355  1.0308 -0.9177
 1077TIP3    H2 3238   4.596   5.386   4.592  0.1846 -0.3787 -0.7338
 1078TIP3   OH2 3239   2.851   1.673   1.478  0.0718 -0.0921 -0.0277
 1078TIP3    H1 3240   2.942   1.683   1.452 -0.3068 -0.3197 -1.5264
 1078TIP3    H2 3241   2.807   1.751   1.445 -0.3891 -0.2573  0.1760
 1079TIP3   OH2 3242   5.148   1.252   3.733  1.1049  0.0372  0.0735
 1079TIP3    H1 3243   5.153   1.289   3.645 -1.1131  0.9707  0.2638
 1079TIP3    H2 3244   5.141   1.158   3.719 -1.6716  0.3104 -0.9666
 1080TIP3   OH2 3245   4.007   0.318   3.357 -0.0408 -0.0108  0.1701
 1080TIP3    H1 3246   4.026   0.315   3.451  0.3739 -0.1094  0.0853
 1080TIP3    H2 3247   3.948   0.244   3.342  0.2734 -0.2861  0.2697
 1081TIP3   OH2 3248   4.134   0.278   3.965 -0.5912  0.0946  0.1162
 1081TIP3    H1 3249   4.189   0.263   3.888 -1.4079 -0.9801 -0.2778
 1081TIP3    H2 3250   4.126   0.373   3.970  2.9799  0.4737  1.4190
 1082TIP3   OH2 3251   1.346   4.074   0.941  0.3649  0.3723 -0.2162
 1082TIP3    H1 3252   1.410   4.042   1.005  0.0477 -0.4705 -0.2953
 1082TIP3    H2 3253   1.262   4.070   0.988  0.1766  0.0496 -0.5711
 1083TIP3   OH2 3254   2.813   1.402   2.790  0.2212  0.4982 -0.1587
 1083TIP3    H1 3255   2.895   1.363   2.820 -0.0941 -0.1327 -0.0967
 1083TIP3    H2 3256   2.830   1.427   2.699  1.1298  2.2744  0.4512
 1084TIP3   OH2 3257   5.648   0.467   2.271  0.0372 -0.3163  0.1709
 1084TIP3    H1 3258   5.681   0.502   2.353  0.5698 -0.0337 -0.1610
 1084TIP3    H2 3259   5.617   0.379   2.293 -0.2516 -0.0681  0.7661
 1085TIP3   OH2 3260   3.902   5.482   1.880  0.3862 -0.2595  0.1851
 1085TIP3    H1 3261   3.909   5.499   1.974 -0.1285  0.0770  0.1722
 1085TIP3    H2 3262   3.948   5.399   1.867  0.5109 -0.2836  0.7231
 1086TIP3   OH2 3263   5.863   0.162   4.738  0.1327  0.0538  0.3360
 1086TIP3    H1 3264   5.775   0.201   4.743 -0.3856 -1.0164 -0.1489
 1086TIP3    H2 3265   5.922   0.236   4.753 -0.8290  0.9095  0.0716
 1087TIP3   OH2 3266   0.382   1.362   4.469  0.1849  0.4360  0.3271
 1087TIP3    H1 3267   0.287   1.372   4.459 -0.2727 -1.8516  1.4364
 1087TIP3    H2 3268   0.415   1.350   4.380 -0.9369 -0.9266  0.0534
 1088TIP3   OH2 3269   0.974   2.968   1.530 -0.1340  0.3341 -0.0658
 1088TIP3    H1 3270   0.958   2.874   1.534  1.8882 -0.0326  0.5572
 1088TIP3    H2 3271   0.973   2.989   1.437 -1.7947 -0.0382 -0.1641
 1089TIP3   OH2 3272   5.171   0.976   3.636 -0.2745  0.2449 -0.4246
 1089TIP3    H1 3273   5.133   0.890   3.617 -0.6612  0.5769 -1.1834
 1089TIP3    H2 3274   5.266   0.962   3.633 -0.3363 -0.1076 -0.7686
 1090TIP3   OH2 3275   4.772   2.853   4.819 -0.5871 -1.2699 -0.5393
 1090TIP3    H1 3276   4.813   2.908   4.753  1.1901 -1.9127 -0.0164
 1090TIP3    H2 3277   4.694   2.817   4.775 -0.1313 -0.7071 -1.8549
 1091TIP3   OH2 3278   5.130   0.944   1.640  0.2778  0.2853 -0.0486
 1091TIP3    H1 3279   5.184   0.879   1.685  0.0414  3.1705  5.0966
 1091TIP3    H2 3280   5.040   0.923   1.665 -0.0229  1.1488 -0.3508
 1092TIP3   OH2 3281   4.148   4.048   1.796  0.6085  0.2869  0.0888
 1092TIP3    H1 3282   4.144   4.135   1.837  0.8596 -0.2102  1.1961
 1092TIP3    H2 3283   4.211   4.000   1.849 -0.4137 -0.9619  0.2014
 1093TIP3   OH2 3284   5.828   0.947   0.723  0.2867  0.0433 -0.0705
 1093TIP3    H1 3285   5.852   0.941   0.631  1.1018  0.2767  0.1203
 1093TIP3    H2 3286   5.732   0.951   0.723  0.1886 -1.6372 -0.8035
 1094TIP3   OH2 3287   6.008   3.152   4.272  0.3559  0.2282 -0.6779
 1094TIP3    H1 3288   5.931   3.136   4.218  0.3912  0.0746 -0.6828
 1094TIP3    H2 3289   6.024   3.246   4.264  0.3261  0.2150 -0.8880
 1095TIP3   OH2 3290   2.939   2.923   4.482 -0.1017  0.2373 -0.5977
 1095TIP3    H1 3291   2.943   2.864   4.557 -0.4402 -0.1623 -0.8897
 1095TIP3    H2 3292   2.855   2.967   4.490 -0.3089 -0.0839 -0.9428
 1096TIP3   OH2 3293   0.694   4.016   2.026  0.6396  0.4900 -0.2361
 1096TIP3    H1 3294   0.608   3.983   2.053  0.0821  2.2909  0.3518
 1096TIP3    H2 3295   0.741   3.938   1.995 -1.0292 -0.6152 -0.1496
 1097TIP3   OH2 3296   1.865   5.052   2.885  0.3249 -0.1895 -0.0507
 1097TIP3    H1 3297   1.922   5.055   2.962  0.5745  2.4699 -0.2277
 1097TIP3    H2 3298   1.909   5.108   2.821 -0.8911 -0.7063 -1.3946
 1098TIP3   OH2 3299   0.464   3.004   1.458  0.7145 -0.1101  0.1648
 1098TIP3    H1 3300   0.518   3.081   1.476  0.5218 -0.2015  1.1814
 1098TIP3    H2 3301   0.515   2.953   1.396  1.3075  0.3382  0.2784
 1099TIP3   OH2 3302   2.056   3.747   2.830  0.2483 -0.1063  0.4732
 1099TIP3    H1 3303   2.061   3.787   2.917  1.5472 -1.1076  0.8880
 1099TIP3    H2 3304   2.081   3.817   2.770  0.7223  0.2137  1.0313
 1100TIP3   OH2 3305   5.132   2.493   0.201  0.1788  0.3976  0.0302
 1100TIP3    H1 3306   5.057   2.441   0.230  0.1218 -0.1138 -0.9814
 1100TIP3    H2 3307   5.136   2.567   0.262 -0.0272 -0.5352  1.1993
 1101TIP3   OH2 3308   6.140   2.135   3.125  0.3219 -0.8553 -0.5617
 1101TIP3    H1 3309   6.055   2.092   3.115  0.3889 -1.0929 -0.1073
 1101TIP3    H2 3310   6.191   2.104   3.050  0.3250 -1.4632 -0.3116
 1102TIP3   OH2 3311  -0.008   2.537   1.375  0.1395 -0.0380 -0.4010
 1102TIP3    H1 3312   0.034   2.472   1.319  1.0111  0.0223  0.1528
 1102TIP3    H2 3313   0.034   2.526   1.461 -0.6746  0.3329  0.0632
 1103TIP3   OH2 3314   4.642   2.319   4.967 -0.1695  0.3318 -0.2614
 1103TIP3    H1 3315   4.717   2.260   4.962 -0.4047  0.0759 -0.9295
 1103TIP3    H2 3316   4.680   2.406   4.952 -0.1941  0.0427 -2.3185
 1104TIP3   OH2 3317   1.975   4.395   1.136 -0.6203  0.1201  0.3240
 1104TIP3    H1 3318   1.984   4.341   1.214  1.8291  0.7907  0.5997
 1104TIP3    H2 3319   2.029   4.472   1.153 -0.1175  0.3631 -1.9323
 1105TIP3   OH2 3320   4.140   1.586   3.966 -0.5187 -0.2856  0.3306
 1105TIP3    H1 3321   4.087   1.642   4.023 -1.4751 -0.9879  0.1419
 1105TIP3    H2 3322   4.222   1.574   4.014 -2.0471 -2.5752  2.5810
 1106TIP3   OH2 3323   1.041   2.302   2.879 -0.5745  0.2611 -0.2804
 1106TIP3    H1 3324   0.969   2.251   2.842 -0.2289  0.2492 -0.9343
 1106TIP3    H2 3325   1.104   2.237   2.910 -0.7223  0.2775  0.0693
 1107TIP3   OH2 3326   4.610   1.127   3.304 -0.3442  0.3364 -0.0202
 1107TIP3    H1 3327   4.692   1.094   3.266 -0.5054  1.2504 -1.2120
 1107TIP3    H2 3328   4.585   1.200   3.247 -3.1114 -1.2272 -1.0027
 1108TIP3   OH2 3329   5.400   0.297   3.150 -0.1629 -0.6338 -0.0262
 1108TIP3    H1 3330   5.334   0.313   3.082 -1.0141 -0.2470  0.8742
 1108TIP3    H2 3331   5.400   0.202   3.161 -0.4868 -0.6444 -0.1058
 1109TIP3   OH2 3332   4.788   3.821   1.744 -0.1930 -0.2226  0.1024
 1109TIP3    H1 3333   4.799   3.727   1.761  0.6972 -0.1183  0.1113
 1109TIP3    H2 3334   4.852   3.864   1.800 -1.5083  0.4827  1.1138
 1110TIP3   OH2 3335   3.960   0.059   1.617  0.1977 -0.3340 -0.3095
 1110TIP3    H1 3336   4.020   0.087   1.686  3.2244 -1.7673 -2.1889
 1110TIP3    H2 3337   3.983   0.112   1.541  0.0005 -1.7823 -1.4337
 1111TIP3   OH2 3338   4.236   5.899   1.131  0.4650 -0.4926  0.1531
 1111TIP3    H1 3339   4.223   5.872   1.222  1.6141  0.5695  0.6512
 1111TIP3    H2 3340   4.250   5.816   1.084  0.1598 -1.0342  0.9926
 1112TIP3   OH2 3341   0.867   5.628   2.877  0.1407  0.6555 -0.3097
 1112TIP3    H1 3342   0.902   5.543   2.849 -1.6497  0.3041 -1.6362
 1112TIP3    H2 3343   0.790   5.606   2.930 -1.1144  1.4176 -1.7411
 1113TIP3   OH2 3344   2.315   3.831   1.015  0.3348  0.0849  0.1144
 1113TIP3    H1 3345   2.304   3.922   0.987 -0.7038  0.5233  1.8293
 1113TIP3    H2 3346   2.305   3.834   1.110 -4.7696 -2.4012 -0.0106
 1114TIP3   OH2 3347   2.941   4.155   4.285  0.4068 -0.2251  0.3326
 1114TIP3    H1 3348   2.967   4.095   4.215  3.2757  0.4543  0.6748
 1114TIP3    H2 3349   2.901   4.229   4.239  1.1563 -0.3353 -0.5291
 1115TIP3   OH2 3350   5.493   0.161   4.382  0.1219 -0.1420 -0.0889
 1115TIP3    H1 3351   5.429   0.220   4.342 -0.8678 -1.2599 -0.1892
 1115TIP3    H2 3352   5.570   0.168   4.327  0.7639  2.5173  0.9691
 1116TIP3   OH2 3353   0.887   1.072   0.081  0.4140  0.4208  0.3814
 1116TIP3    H1 3354   0.959   1.013   0.101  0.9215  0.7533 -0.3955
 1116TIP3    H2 3355   0.809   1.016   0.081  0.9067 -0.3028 -0.5084
 1117TIP3   OH2 3356   4.377   2.249   0.582  0.0321 -0.5911  0.2954
 1117TIP3    H1 3357   4.466   2.276   0.602 -0.5507  1.7464  0.0169
 1117TIP3    H2 3358   4.347   2.203   0.660  1.2118 -0.7562  0.6677
 1118TIP3   OH2 3359   2.091   5.430   3.488  0.1912  0.8923  0.5571
 1118TIP3    H1 3360   2.068   5.409   3.578  1.3915  0.1035  0.7086
 1118TIP3    H2 3361   2.187   5.437   3.489  0.1809  1.3993 -0.5469
 1119TIP3   OH2 3362   4.949   4.208   0.047  0.1944  0.8252  0.0777
 1119TIP3    H1 3363   4.995   4.268  -0.012  0.8800  0.3017  0.0678
 1119TIP3    H2 3364   4.930   4.131  -0.006  1.8075 -0.1194  0.7892
 1120TIP3   OH2 3365   4.953   3.148   0.722 -0.2981  0.3881  0.1164
 1120TIP3    H1 3366   4.902   3.221   0.688 -0.7819  0.6795  1.4326
 1120TIP3    H2 3367   5.025   3.188   0.770  0.0162 -0.0151 -0.0079
 1121TIP3   OH2 3368   5.269   5.086   4.897 -0.4966 -0.4732  0.1084
 1121TIP3    H1 3369   5.210   5.030   4.847 -1.3628 -2.2815  2.8972
 1121TIP3    H2 3370   5.337   5.027   4.928 -0.2842  0.4356  1.4550
 1122TIP3   OH2 3371   4.807   2.762   4.062 -0.7006  0.0072 -0.3294
 1122TIP3    H1 3372   4.861   2.684   4.065  0.4300  0.7433 -0.6815
 1122TIP3    H2 3373   4.717   2.730   4.056 -0.2515 -1.2498 -0.5309
 1123TIP3   OH2 3374   5.980   4.698   1.118 -0.5647  1.3460  0.3922
 1123TIP3    H1 3375   6.056   4.640   1.111 -1.1800  0.5038  0.4944
 1123TIP3    H2 3376   5.952   4.690   1.209 -0.2136  2.4007  0.6096
 1124TIP3   OH2 3377   1.830   5.762   1.665 -0.2540  0.3855  1.0913
 1124TIP3    H1 3378   1.903   5.750   1.604 -1.0851 -2.0589  0.4110
 1124TIP3    H2 3379   1.812   5.856   1.663 -1.9264  0.3775 -4.6869
 1125TIP3   OH2 3380   5.410   1.261   0.694  0.6510  0.4354 -0.1819
 1125TIP3    H1 3381   5.336   1.204   0.675  1.2666 -0.0862 -1.1006
 1125TIP3    H2 3382   5.422   1.254   0.789  0.1598 -0.2772 -0.1640
 1126TIP3   OH2 3383   1.684   1.836   4.400  0.8433 -0.4250 -0.0132
 1126TIP3    H1 3384   1.607   1.781   4.412  1.0518 -0.4131  1.6443
 1126TIP3    H2 3385   1.746   1.805   4.467  2.0212  0.0095 -0.8675
 1127TIP3   OH2 3386   2.149   0.686   1.686 -0.0560 -0.4586  0.2032
 1127TIP3    H1 3387   2.222   0.630   1.711  0.1890 -0.0714  0.3630
 1127TIP3    H2 3388   2.074   0.626   1.680  0.1921 -0.7956  0.4144
 1128TIP3   OH2 3389   5.879   2.281   3.777 -0.0611  0.0414  0.1028
 1128TIP3    H1 3390   5.855   2.214   3.713 -1.1706 -0.1366  0.6687
 1128TIP3    H2 3391   5.908   2.231   3.853 -1.7869  0.1250  0.8733
 1129TIP3   OH2 3392   2.502   5.659   1.902  0.1533 -0.0207 -0.2438
 1129TIP3    H1 3393   2.436   5.697   1.960 -0.6032  0.5274 -1.4171
 1129TIP3    H2 3394   2.478   5.566   1.895 -0.2113  0.0729 -0.2682
 1130TIP3   OH2 3395   4.377   1.591   4.414  0.2985  0.3557  0.0716
 1130TIP3    H1 3396   4.296   1.633   4.444  1.5517  2.3810  0.8000
 1130TIP3    H2 3397   4.358   1.497   4.421 -1.5102  0.7468  1.5717
 1131TIP3   OH2 3398   2.785   2.349   4.038 -0.1238  0.7017  0.0989
 1131TIP3    H1 3399   2.771   2.256   4.021 -1.2611  1.2716 -2.4457
 1131TIP3    H2 3400   2.820   2.351   4.127 -1.8625 -2.0059  0.9852
 1132TIP3   OH2 3401   1.355   5.422   0.333  0.0543 -0.0303  0.0575
 1132TIP3    H1 3402   1.387   5.334   0.352 -1.6383 -0.7840 -0.3650
 1132TIP3    H2 3403   1.302   5.445   0.409  2.0230  1.4519  1.0365
 1133TIP3   OH2 3404   1.920   3.945   4.740  0.7437  0.1735  0.2771
 1133TIP3    H1 3405   1.910   3.868   4.684 -2.4115  0.6539 -0.0141
 1133TIP3    H2 3406   2.007   3.936   4.778  1.6056 -2.0172 -1.9494
 1134TIP3   OH2 3407   4.306   1.378   1.791 -0.5216 -0.4674  0.6157
 1134TIP3    H1 3408   4.268   1.291   1.784  2.4841 -1.8851  0.5378
 1134TIP3    H2 3409   4.351   1.377   1.876  2.3586 -0.2992 -0.7984
 1135TIP3   OH2 3410   3.716   2.695   0.730 -0.2955  0.0038 -0.0409
 1135TIP3    H1 3411   3.722   2.785   0.762 -0.4044  0.4051 -1.1153
 1135TIP3    H2 3412   3.682   2.646   0.805 -1.2630  1.0426  0.2431
 1136TIP3   OH2 3413   2.577   1.263   1.661  0.5094  0.2740  0.1229
 1136TIP3    H1 3414   2.663   1.226   1.682  0.3993  0.5357  1.0389
 1136TIP3    H2 3415   2.597   1.349   1.623  0.6683  0.1374 -0.1089
 1137TIP3   OH2 3416   0.459   3.176   3.577  0.2212  0.1615  0.2603
 1137TIP3    H1 3417   0.517   3.121   3.630  1.2514  0.0598 -0.9417
 1137TIP3    H2 3418   0.415   3.114   3.518  0.0153  0.4179  0.1423
 1138TIP3   OH2 3419   0.720   4.271   1.997 -0.3204 -0.0076  0.2644
 1138TIP3    H1 3420   0.731   4.177   1.982 -2.7586 -0.2565 -0.4887
 1138TIP3    H2 3421   0.803   4.300   2.034  1.0889 -2.1268 -1.0608
 1139TIP3   OH2 3422   1.299   3.261   2.260  0.5187  0.1918  0.5433
 1139TIP3    H1 3423   1.388   3.280   2.289  0.8819  0.4904 -0.7175
 1139TIP3    H2 3424   1.305   3.176   2.217  0.5457  0.9347 -0.9751
 1140TIP3   OH2 3425   1.406   1.133   2.051 -0.0361  0.0569  0.1026
 1140TIP3    H1 3426   1.421   1.074   2.125  0.5461 -0.2471 -0.2491
 1140TIP3    H2 3427   1.488   1.181   2.042  0.2853 -0.6750 -1.0200
 1141TIP3   OH2 3428   4.567   4.829   1.241 -0.0410 -0.1236  0.1810
 1141TIP3    H1 3429   4.552   4.855   1.332 -1.7892  0.9612 -0.3676
 1141TIP3    H2 3430   4.640   4.767   1.246 -0.9443 -1.1152  2.4655
 1142TIP3   OH2 3431   1.028   4.784   4.850 -0.0727 -0.5177  0.3872
 1142TIP3    H1 3432   1.067   4.870   4.837 -1.1915 -0.1039 -0.4208
 1142TIP3    H2 3433   0.963   4.798   4.919 -0.1681 -0.7535  0.3440
 1143TIP3   OH2 3434   0.052   5.324   2.588  1.0485 -0.1288  0.5522
 1143TIP3    H1 3435   0.130   5.375   2.567  1.1048 -0.5625 -0.3115
 1143TIP3    H2 3436   0.000   5.325   2.508  0.0947  0.2640  1.1601
 1144TIP3   OH2 3437   6.119   2.817   1.732  0.1579  0.2683 -0.1990
 1144TIP3    H1 3438   6.174   2.778   1.800 -1.8677 -1.3533  0.6182
 1144TIP3    H2 3439   6.075   2.743   1.690 -0.6205  1.4205 -1.5125
 1145TIP3   OH2 3440   0.489   1.814   4.458  0.7370 -0.2436 -0.4102
 1145TIP3    H1 3441   0.555   1.752   4.489 -0.3692 -1.2460  0.0090
 1145TIP3    H2 3442   0.430   1.761   4.404 -1.0240  0.0831  1.0814
 1146TIP3   OH2 3443   0.715   0.494   4.181 -0.2105  0.1331  0.1167
 1146TIP3    H1 3444   0.699   0.562   4.116 -3.2144 -0.8554 -0.3589
 1146TIP3    H2 3445   0.761   0.425   4.133  0.5902  0.7660 -0.0464
 1147TIP3   OH2 3446   1.731   4.999   3.252  0.3334  0.2623  0.4637
 1147TIP3    H1 3447   1.790   5.068   3.283  0.1793 -0.4289  2.4730
 1147TIP3    H2 3448   1.646   5.022   3.288  0.3469 -1.1076  1.4786
 1148TIP3   OH2 3449   1.394   0.880   1.204 -0.1830 -0.2999 -0.7735
 1148TIP3    H1 3450   1.363   0.958   1.249  1.5498  0.9452 -1.6322
 1148TIP3    H2 3451   1.332   0.812   1.229 -1.1818  1.1050  0.7906
 1149TIP3   OH2 3452   3.237   0.401   4.703 -0.2298 -0.0185 -0.0522
 1149TIP3    H1 3453   3.151   0.384   4.740 -1.4162 -0.2035 -2.6554
 1149TIP3    H2 3454   3.299   0.370   4.769 -2.1745 -2.1576  0.8805
 1150TIP3   OH2 3455   4.421   2.456   4.220  0.4112  0.0141  0.3952
 1150TIP3    H1 3456   4.342   2.447   4.273  0.9634 -1.2530  1.0354
 1150TIP3    H2 3457   4.398   2.419   4.135  0.7496 -1.8472  1.0661
 1151TIP3   OH2 3458   2.384   6.004   3.801  0.0041 -0.7961 -0.1269
 1151TIP3    H1 3459   2.351   5.963   3.721  1.0448  1.0474 -1.5692
 1151TIP3    H2 3460   2.412   5.930   3.855 -0.2280 -2.0866 -1.6953
 1152TIP3   OH2 3461   4.232   3.223   0.343 -0.4479  0.6473  0.2452
 1152TIP3    H1 3462   4.308   3.196   0.394  1.1086 -0.1126 -2.3307
 1152TIP3    H2 3463   4.236   3.318   0.343  1.6712  0.6260 -1.3914
 1153TIP3   OH2 3464   2.572   0.663   3.832 -0.4351 -0.8215 -0.1808
 1153TIP3    H1 3465   2.661   0.690   3.810 -1.2701  0.3845 -2.3958
 1153TIP3    H2 3466   2.516   0.723   3.784 -2.5011 -0.7844  2.0870
 1154TIP3   OH2 3467   5.648   5.876   4.166  0.1696 -0.9736  0.6397
 1154TIP3    H1 3468   5.604   5.896   4.249  0.1530 -0.4875  0.5184
 1154TIP3    H2 3469   5.586   5.905   4.099  0.6636 -0.2948  0.4647
 1155TIP3   OH2 3470   1.264   1.844   0.059 -0.1140 -0.1407  0.2116
 1155TIP3    H1 3471   1.216   1.850   0.142  1.1902 -0.4436  1.0335
 1155TIP3    H2 3472   1.353   1.819   0.086  0.1130 -1.1149 -1.3601
 1156TIP3   OH2 3473   4.027   0.294   4.677 -0.2122  0.3605  0.3966
 1156TIP3    H1 3474   4.108   0.325   4.638 -0.5001 -0.5277 -0.9786
 1156TIP3    H2 3475   3.958   0.344   4.633 -0.4331  1.0975  1.5410
 1157TIP3   OH2 3476   4.886   5.847  -0.025 -0.3469  0.0938 -0.1091
 1157TIP3    H1 3477   4.955   5.857   0.041  0.2458  0.9975 -0.8537
 1157TIP3    H2 3478   4.822   5.789   0.017 -0.1842  0.9589  1.4312
 1158TIP3   OH2 3479   2.856   0.874   1.705  0.7805 -0.2857 -0.5666
 1158TIP3    H1 3480   2.895   0.831   1.629  0.9697 -0.9855 -0.0776
 1158TIP3    H2 3481   2.801   0.807   1.745 -0.5364  0.5240 -0.9488
 1159TIP3   OH2 3482   0.329   1.647   5.059  0.0763  0.0900 -0.0567
 1159TIP3    H1 3483   0.254   1.592   5.086  0.2416 -0.4881 -0.7599
 1159TIP3    H2 3484   0.289   1.729   5.032 -0.1023  0.7456  1.9910
 1160TIP3   OH2 3485   1.365   3.627   1.042  0.0107 -0.6333 -0.0285
 1160TIP3    H1 3486   1.299   3.561   1.021 -0.7213  0.5075 -1.5325
 1160TIP3    H2 3487   1.394   3.660   0.957 -0.5655  1.8147  0.6391
 1161TIP3   OH2 3488   2.221   0.787   4.044 -0.0459  0.3575 -0.2834
 1161TIP3    H1 3489   2.225   0.809   3.951  0.4191  0.8017 -0.1630
 1161TIP3    H2 3490   2.262   0.862   4.088 -0.5959  0.3183  0.3043
 1162TIP3   OH2 3491   3.425   3.253   3.488 -0.8633 -0.3948 -0.0481
 1162TIP3    H1 3492   3.445   3.327   3.430  0.9618 -1.2718 -0.6134
 1162TIP3    H2 3493   3.345   3.215   3.450 -1.0452  0.4622 -0.5637
 1163TIP3   OH2 3494   0.038   0.302   4.091 -0.6251  0.8082  0.0220
 1163TIP3    H1 3495  -0.058   0.308   4.087 -0.6082  1.1912  0.1595
 1163TIP3    H2 3496   0.062   0.253   4.013 -0.9822  0.1733  0.3085
 1164TIP3   OH2 3497   6.103   1.282   2.436  0.0995 -0.2053 -0.0423
 1164TIP3    H1 3498   6.161   1.350   2.471  0.4906  0.0503 -1.1608
 1164TIP3    H2 3499   6.018   1.326   2.427 -0.0751 -0.3463  0.8061
 1165TIP3   OH2 3500   2.332   1.551   3.763  0.6258 -0.2202 -0.6841
 1165TIP3    H1 3501   2.337   1.487   3.693  1.3235  0.8195 -1.6163
 1165TIP3    H2 3502   2.385   1.514   3.833 -0.6713 -1.6131 -0.3735
 1166TIP3   OH2 3503   5.268   5.593   2.809 -0.2061  0.8079  0.3588
 1166TIP3    H1 3504   5.307   5.555   2.887  0.1990  1.3171  0.4139
 1166TIP3    H2 3505   5.175   5.569   2.814  0.0994 -0.4442  0.2078
 1167TIP3   OH2 3506   4.611   1.672   2.852 -0.1279  0.2488 -0.2304
 1167TIP3    H1 3507   4.600   1.743   2.916 -0.1954 -0.7272  0.8664
 1167TIP3    H2 3508   4.548   1.606   2.879  1.1736 -1.0006 -0.1559
 1168TIP3   OH2 3509   3.653   2.301   1.390  1.3128  0.1762  0.2264
 1168TIP3    H1 3510   3.714   2.227   1.393  1.0347 -0.0318  1.4774
 1168TIP3    H2 3511   3.578   2.271   1.441  1.1057  1.2488  0.5688
 1169TIP3   OH2 3512   3.965   0.040   3.735  0.1425 -0.0456  0.3989
 1169TIP3    H1 3513   4.043  -0.011   3.757 -0.3703 -0.2955  1.6949
 1169TIP3    H2 3514   3.902   0.018   3.803  0.0870  2.7317  1.3506
 1170TIP3   OH2 3515   2.209   5.396   2.105  0.2117  0.1433  0.0139
 1170TIP3    H1 3516   2.295   5.416   2.068  1.1537 -0.9414  1.5201
 1170TIP3    H2 3517   2.192   5.305   2.080  0.7832 -0.5576  1.9147
 1171TIP3   OH2 3518   3.103   1.733   0.659 -0.4845  0.2524 -0.0368
 1171TIP3    H1 3519   3.164   1.660   0.650  1.7729  2.1930 -2.2282
 1171TIP3    H2 3520   3.091   1.765   0.569 -2.3521  1.8122  0.6958
 1172TIP3   OH2 3521   1.704   1.252   4.063 -0.5396  0.2440 -0.8120
 1172TIP3    H1 3522   1.762   1.200   4.007 -0.5610 -0.8820  0.1686
 1172TIP3    H2 3523   1.737   1.237   4.151  0.2345  2.9250 -0.5549
 1173TIP3   OH2 3524   2.260   2.813   2.315  0.5194 -0.4475 -0.3893
 1173TIP3    H1 3525   2.170   2.784   2.301  0.3349 -0.1602  0.1570
 1173TIP3    H2 3526   2.291   2.839   2.228 -0.6476  1.4695 -0.3035
 1174TIP3   OH2 3527   4.874   3.175   4.923  0.6163 -0.4289 -0.2904
 1174TIP3    H1 3528   4.885   3.143   5.013  0.1616 -0.9451 -0.4154
 1174TIP3    H2 3529   4.957   3.218   4.903  0.0737  1.3963  1.0491
 1175TIP3   OH2 3530   0.928   3.865   1.897  0.8614 -0.6106 -0.6966
 1175TIP3    H1 3531   0.992   3.903   1.837  2.0628 -0.3573  0.6761
 1175TIP3    H2 3532   0.982   3.822   1.964 -0.4196 -0.3760  0.5142
 1176TIP3   OH2 3533   2.889   5.595   1.454  0.1421 -0.0122  0.1455
 1176TIP3    H1 3534   2.837   5.619   1.378 -0.7347 -1.4952  0.2307
 1176TIP3    H2 3535   2.980   5.597   1.424 -0.1636 -0.1259 -0.7961
 1177TIP3   OH2 3536   3.986   4.472   2.035 -0.8927  0.2367 -0.2078
 1177TIP3    H1 3537   4.080   4.487   2.047 -1.1141  0.6368  1.2664
 1177TIP3    H2 3538   3.952   4.556   2.006 -0.7995  0.0828 -0.7744
 1178TIP3   OH2 3539   1.180   5.623   3.500  0.1038 -0.1866 -0.0726
 1178TIP3    H1 3540   1.259   5.577   3.527 -0.5995 -0.4411  1.7019
 1178TIP3    H2 3541   1.127   5.556   3.456 -0.7899 -1.0937  2.2377
 1179TIP3   OH2 3542   4.815   3.596   3.621 -0.8609  0.6038 -0.7117
 1179TIP3    H1 3543   4.861   3.559   3.696  1.4980  2.9524 -0.8457
 1179TIP3    H2 3544   4.872   3.577   3.546 -2.3290 -0.2131 -1.6719
 1180TIP3   OH2 3545   6.122   5.552   2.395  0.4152  0.0683 -0.8980
 1180TIP3    H1 3546   6.027   5.544   2.382  0.7189 -1.0634 -2.8477
 1180TIP3    H2 3547   6.139   5.645   2.389 -0.7036  0.4415  0.8339
 1181TIP3   OH2 3548   3.269   3.026   2.881  0.2608 -0.0398 -0.6300
 1181TIP3    H1 3549   3.346   3.044   2.827  0.4795 -0.2120 -0.3813
 1181TIP3    H2 3550   3.203   2.993   2.819  0.2135  0.5917 -0.9207
 1182TIP3   OH2 3551   3.779   1.724   1.741 -0.2082 -0.0113 -0.5479
 1182TIP3    H1 3552   3.865   1.767   1.740  0.2489 -0.8880 -1.1945
 1182TIP3    H2 3553   3.800   1.630   1.741 -1.1686 -0.2304 -0.3875
 1183TIP3   OH2 3554   2.321   3.784   0.418 -0.4917 -0.1982 -0.2518
 1183TIP3    H1 3555   2.259   3.711   0.410 -0.7268 -0.1011  0.6465
 1183TIP3    H2 3556   2.406   3.741   0.430 -0.3531 -0.3324 -1.5366
 1184TIP3   OH2 3557   0.500   3.776   4.158 -0.1570 -0.3278 -0.3299
 1184TIP3    H1 3558   0.499   3.862   4.201 -0.8365 -0.5003  0.0181
 1184TIP3    H2 3559   0.593   3.756   4.145  0.0413 -0.0040  0.5388
 1185TIP3   OH2 3560   0.627   5.290   1.077 -0.3807 -0.4013  0.6058
 1185TIP3    H1 3561   0.679   5.291   1.157  0.8970 -1.4319 -0.1685
 1185TIP3    H2 3562   0.559   5.224   1.093  1.6252 -2.7783 -0.1492
 1186TIP3   OH2 3563   5.921   4.622   1.389 -0.1584  0.5354 -0.3613
 1186TIP3    H1 3564   5.828   4.627   1.414  0.0998  1.4428  0.4705
 1186TIP3    H2 3565   5.947   4.533   1.413 -0.6943  0.4187 -0.1877
 1187TIP3   OH2 3566   4.258   1.935   4.711  0.3686 -0.1049 -0.7132
 1187TIP3    H1 3567   4.304   2.014   4.683  0.8724  0.1776  0.8516
 1187TIP3    H2 3568   4.167   1.949   4.685  0.3844  1.1645 -0.1215
 1188TIP3   OH2 3569   5.073   0.595   0.404  0.0549  0.5572  0.0341
 1188TIP3    H1 3570   5.001   0.543   0.440  1.1307 -1.5408 -0.6360
 1188TIP3    H2 3571   5.108   0.541   0.333  3.3825  0.6524  1.4299
 1189TIP3   OH2 3572   4.632   4.306   0.046  0.3703  0.0235 -0.1091
 1189TIP3    H1 3573   4.606   4.244   0.114 -1.4946 -0.7451 -1.4450
 1189TIP3    H2 3574   4.725   4.287   0.030 -0.5740 -4.0908 -2.0153
 1190TIP3   OH2 3575   3.027   2.086   0.919  0.0387 -0.3823  0.7530
 1190TIP3    H1 3576   2.948   2.132   0.893 -0.3599 -1.6877 -0.4338
 1190TIP3    H2 3577   3.099   2.141   0.889 -0.4274 -0.3106 -0.2471
 1191TIP3   OH2 3578   4.088   0.120   3.045  0.3173  0.7337  0.3619
 1191TIP3    H1 3579   4.148   0.195   3.037  1.7730 -0.4868 -1.1346
 1191TIP3    H2 3580   4.132   0.051   2.996 -1.6821 -0.6737  0.4754
 1192TIP3   OH2 3581   3.444   1.599   3.953  0.2005  0.0682  0.1034
 1192TIP3    H1 3582   3.408   1.541   4.021 -0.9115  0.3709 -0.2215
 1192TIP3    H2 3583   3.518   1.549   3.917 -1.1042 -1.4324 -0.5913
 1193TIP3   OH2 3584   0.815   3.122   2.467  0.1005  0.2134 -0.2087
 1193TIP3    H1 3585   0.813   3.215   2.490 -1.6444  0.6836 -1.9625
 1193TIP3    H2 3586   0.780   3.077   2.544  0.1494  1.0976  0.3368
 1194TIP3   OH2 3587   3.260   1.286   2.514  0.0494 -0.7752  0.1551
 1194TIP3    H1 3588   3.257   1.190   2.521 -0.7451 -0.7997 -0.3940
 1194TIP3    H2 3589   3.201   1.317   2.582 -0.9315 -0.7358 -0.6966
 1195TIP3   OH2 3590   0.627   4.452   0.631  0.4851 -0.3872 -0.4522
 1195TIP3    H1 3591   0.576   4.377   0.661  0.4449  0.3878  1.6192
 1195TIP3    H2 3592   0.606   4.521   0.694  2.3531  0.6443 -0.8931
 1196TIP3   OH2 3593   3.151   5.900   1.597 -0.2529 -0.5209 -0.0259
 1196TIP3    H1 3594   3.077   5.959   1.612 -0.2837 -0.7613  0.8153
 1196TIP3    H2 3595   3.224   5.939   1.645  0.4419  0.2120 -1.6055
 1197TIP3   OH2 3596   1.204   3.193   0.229  0.5252 -0.4167 -0.0291
 1197TIP3    H1 3597   1.281   3.242   0.260  2.0182 -4.2155  3.1884
 1197TIP3    H2 3598   1.135   3.216   0.290  0.7683 -1.1023  0.5124
 1198TIP3   OH2 3599   0.875   0.563   0.469 -0.3819  0.7569 -0.6025
 1198TIP3    H1 3600   0.818   0.616   0.525  0.1637  1.9831 -1.1823
 1198TIP3    H2 3601   0.838   0.475   0.474 -0.9949  1.0631  0.8035
 1199TIP3   OH2 3602   1.801   4.412   3.385  0.7231  0.4745 -0.0190
 1199TIP3    H1 3603   1.873   4.352   3.405  1.2877  1.1810  0.1086
 1199TIP3    H2 3604   1.725   4.375   3.429  0.8326 -0.6871 -0.7658
 1200TIP3   OH2 3605   5.566   3.914   3.207 -0.2314  0.0312  0.4367
 1200TIP3    H1 3606   5.483   3.947   3.174  0.4068  1.8928  0.5615
 1200TIP3    H2 3607   5.541   3.843   3.267 -1.7358  0.6337  0.5813
 1201TIP3   OH2 3608   0.379   2.778   2.837  0.3667  0.3694  0.0946
 1201TIP3    H1 3609   0.411   2.781   2.747  1.3367 -1.6858  0.3031
 1201TIP3    H2 3610   0.347   2.688   2.848 -2.0747  1.2873  1.0814
 1202TIP3   OH2 3611   2.912   3.862   2.072  0.4969  0.3571  0.1289
 1202TIP3    H1 3612   2.986   3.841   2.014  1.2045  0.2818  1.0384
 1202TIP3    H2 3613   2.930   3.950   2.103  0.1473  0.3814  0.2647
 1203TIP3   OH2 3614   4.515   1.850   4.374 -0.0309 -0.2629  0.3597
 1203TIP3    H1 3615   4.444   1.906   4.341 -0.4011 -0.3647  0.9613
 1203TIP3    H2 3616   4.474   1.764   4.383  0.9639 -1.0749 -2.1654
 1204TIP3   OH2 3617   1.553   2.440   2.362 -0.1896  0.2464  0.5667
 1204TIP3    H1 3618   1.531   2.526   2.328  0.8149 -0.3387 -1.7358
 1204TIP3    H2 3619   1.643   2.424   2.333 -0.0383 -1.2280  1.6880
 1205TIP3   OH2 3620   3.465   1.170   0.974  0.7243 -0.5783  0.3758
 1205TIP3    H1 3621   3.435   1.080   0.963  1.8591 -1.0198  0.8184
 1205TIP3    H2 3622   3.386   1.219   0.996  0.2481 -1.6364  1.1052
 1206TIP3   OH2 3623   3.371   1.691   4.898 -0.0128 -0.2345  0.1373
 1206TIP3    H1 3624   3.297   1.686   4.838  0.0490 -4.0803  0.1268
 1206TIP3    H2 3625   3.429   1.757   4.859 -2.5847  1.6700 -0.7311
 1207TIP3   OH2 3626   3.460   1.684   0.065 -0.3783 -0.4101  0.1550
 1207TIP3    H1 3627   3.500   1.666  -0.020 -0.4836 -0.8547  0.1966
 1207TIP3    H2 3628   3.398   1.755   0.048 -0.3655 -0.4663 -0.1319
 1208TIP3   OH2 3629   0.462   0.241   4.786 -0.0580 -0.5531 -0.5995
 1208TIP3    H1 3630   0.550   0.270   4.759  1.1330 -1.7325  1.6871
 1208TIP3    H2 3631   0.469   0.145   4.790 -1.2456 -0.6255  0.2381
 1209TIP3   OH2 3632   3.106   3.864   3.024  0.5207  0.0503  0.0909
 1209TIP3    H1 3633   3.066   3.804   3.087 -0.6959 -0.1099 -0.8072
 1209TIP3    H2 3634   3.058   3.946   3.035  1.8325  0.7565  0.9470
 1210TIP3   OH2 3635   1.182   2.594   1.853 -0.1121  0.1941 -0.1194
 1210TIP3    H1 3636   1.114   2.635   1.800  0.8914  1.1267 -0.7445
 1210TIP3    H2 3637   1.263   2.611   1.805  0.6889  0.0137  1.1212
 1211TIP3   OH2 3638   4.687   0.362   5.192 -0.6275  0.0405  0.0747
 1211TIP3    H1 3639   4.782   0.369   5.188 -0.6380 -0.2499 -2.3394
 1211TIP3    H2 3640   4.669   0.272   5.162 -1.6651  0.2823 -0.0599
 1212TIP3   OH2 3641   0.018   5.227   4.475 -0.0663 -0.2563 -0.0514
 1212TIP3    H1 3642   0.059   5.185   4.550 -1.4875 -0.5374  0.6058
 1212TIP3    H2 3643  -0.035   5.298   4.513 -0.5979 -0.2358 -0.8019
 1213TIP3   OH2 3644   2.121   0.613   3.560  0.1326  0.8507  0.0165
 1213TIP3    H1 3645   2.120   0.554   3.635  1.2635  0.2912 -0.3830
 1213TIP3    H2 3646   2.149   0.558   3.487 -2.5556  0.9552 -1.2312
 1214TIP3   OH2 3647   5.853   3.109   2.732 -0.1083 -0.6267 -0.0331
 1214TIP3    H1 3648   5.940   3.149   2.731 -0.1430 -0.5464  0.1783
 1214TIP3    H2 3649   5.798   3.172   2.779 -0.5375 -0.1214 -1.1517
 1215TIP3   OH2 3650   2.561   0.645   3.221 -0.0060  0.1593  0.3699
 1215TIP3    H1 3651   2.555   0.739   3.206 -1.4336 -0.1952 -1.7875
 1215TIP3    H2 3652   2.512   0.629   3.301 -0.5940  1.1464  0.2152
 1216TIP3   OH2 3653   2.316   2.634   4.671  0.5259 -0.7988 -0.5813
 1216TIP3    H1 3654   2.303   2.579   4.594 -1.1034 -1.4510  0.1074
 1216TIP3    H2 3655   2.301   2.575   4.745  0.0993  0.2611  0.1965
 1217TIP3   OH2 3656   2.174   5.493   1.675 -0.3012 -0.4189  0.8868
 1217TIP3    H1 3657   2.241   5.561   1.681  1.0525 -1.7368  1.3834
 1217TIP3    H2 3658   2.223   5.411   1.685 -1.9179 -1.4489  0.5885
 1218TIP3   OH2 3659   6.147   2.022   0.970  0.0066  0.1429  0.0624
 1218TIP3    H1 3660   6.163   2.004   0.878  1.8200  1.6374  0.0359
 1218TIP3    H2 3661   6.218   2.081   0.996  0.5061 -1.4915  2.8343
 1219TIP3   OH2 3662   0.393   3.295   4.970  0.1649 -0.1806 -0.2256
 1219TIP3    H1 3663   0.473   3.248   4.994 -0.3687 -0.5077  1.0079
 1219TIP3    H2 3664   0.415   3.387   4.979  0.7798 -0.2263 -1.1789
 1220TIP3   OH2 3665   1.517   1.517   2.722  0.3682 -0.2759 -0.5395
 1220TIP3    H1 3666   1.552   1.558   2.643  0.2921 -0.3581 -0.6169
 1220TIP3    H2 3667   1.423   1.537   2.719  0.3879 -0.1641 -0.3995
 1221TIP3   OH2 3668   0.951   5.852   4.155  0.3042 -0.3064  0.6805
 1221TIP3    H1 3669   0.913   5.791   4.091 -0.2610  1.2132 -0.5034
 1221TIP3    H2 3670   0.927   5.815   4.240 -0.7373 -1.2894  0.0030
 1222TIP3   OH2 3671   0.581   4.494   3.071  0.0786  0.2552 -0.9785
 1222TIP3    H1 3672   0.609   4.585   3.083 -0.1457  0.6157 -2.8370
 1222TIP3    H2 3673   0.511   4.482   3.135  1.6939  0.6089  0.9371
 1223TIP3   OH2 3674   3.927   3.913   1.868 -0.0460 -0.1142 -0.1383
 1223TIP3    H1 3675   3.974   3.975   1.812  0.4361 -1.2184 -0.9926
 1223TIP3    H2 3676   3.976   3.913   1.950 -0.2307  0.8486 -0.0193
 1224TIP3   OH2 3677   1.291   0.182   1.911 -0.3896  0.0029  0.1284
 1224TIP3    H1 3678   1.276   0.161   2.003 -0.2383 -1.3357 -0.1388
 1224TIP3    H2 3679   1.218   0.142   1.865 -0.5469  0.8010 -0.3239
 1225TIP3   OH2 3680   3.784   1.648   4.080  0.0186  0.2651  0.0638
 1225TIP3    H1 3681   3.761   1.635   3.987 -1.0405  0.3954  0.2925
 1225TIP3    H2 3682   3.778   1.561   4.118 -1.3496  0.4734  0.3772
 1226TIP3   OH2 3683   2.161   1.077   3.277  0.1524  0.3297 -0.0644
 1226TIP3    H1 3684   2.096   1.091   3.209 -0.1211  0.6711  0.2656
 1226TIP3    H2 3685   2.151   0.985   3.301 -0.8423  0.5984  0.6214
 1227TIP3   OH2 3686   5.093   5.874   0.157 -0.0703  0.7470 -0.2739
 1227TIP3    H1 3687   5.138   5.923   0.226  1.0646 -0.9981  0.2955
 1227TIP3    H2 3688   5.069   5.791   0.198 -1.9946  0.7989 -1.1887
 1228TIP3   OH2 3689   4.421   3.022   4.725  0.1846 -0.0700 -0.4171
 1228TIP3    H1 3690   4.417   2.930   4.700 -0.1538  0.0458 -0.7916
 1228TIP3    H2 3691   4.373   3.068   4.657  1.1801  0.4922 -0.7605
 1229TIP3   OH2 3692   0.593   0.916   3.730  0.5700  0.1574 -0.2972
 1229TIP3    H1 3693   0.679   0.925   3.771 -0.6557  2.3700  2.0982
 1229TIP3    H2 3694   0.562   0.830   3.759  2.3504 -1.2086 -2.1761
 1230TIP3   OH2 3695   1.672   4.175   3.838 -0.0824 -0.0243 -0.3466
 1230TIP3    H1 3696   1.717   4.192   3.921 -1.5528  0.5011  0.3681
 1230TIP3    H2 3697   1.602   4.114   3.860 -1.0778  0.8404 -0.9902
 1231TIP3   OH2 3698   2.304   3.788   1.352 -0.3035 -0.1976  0.5419
 1231TIP3    H1 3699   2.399   3.789   1.343 -0.4545 -0.3873 -2.0180
 1231TIP3    H2 3700   2.284   3.859   1.413  1.4946 -0.7698  1.8752
 1232TIP3   OH2 3701   4.756   5.144   1.120  0.9038  0.2334  0.0208
 1232TIP3    H1 3702   4.675   5.170   1.166  1.2927 -1.1079  1.5532
 1232TIP3    H2 3703   4.740   5.169   1.029 -0.8998  0.7880  0.4322
 1233TIP3   OH2 3704   4.378   4.114   4.077 -0.0662  0.9943 -0.6071
 1233TIP3    H1 3705   4.382   4.147   3.987 -1.1131  1.9909 -0.3118
 1233TIP3    H2 3706   4.352   4.190   4.129 -1.9024 -0.1163  0.1848
 1234TIP3   OH2 3707   1.260   5.685   3.872  0.3754 -0.1395 -0.1126
 1234TIP3    H1 3708   1.246   5.596   3.905 -1.6131  0.9189  2.2181
 1234TIP3    H2 3709   1.203   5.692   3.796  0.5365 -0.8409 -0.3079
 1235TIP3   OH2 3710   1.519   1.149   2.815 -0.6890 -0.0787  0.6742
 1235TIP3    H1 3711   1.480   1.205   2.749 -0.2290  0.6761  1.0325
 1235TIP3    H2 3712   1.577   1.207   2.865 -0.1064 -0.8885  0.9685
 1236TIP3   OH2 3713   1.605   5.440   4.512 -0.0357  0.0487 -0.3302
 1236TIP3    H1 3714   1.621   5.471   4.602  0.6369 -0.5995 -0.2226
 1236TIP3    H2 3715   1.637   5.511   4.456 -1.0151  0.7225 -0.0635
 1237TIP3   OH2 3716   1.001   3.233   2.101 -0.1703 -0.4850 -0.4165
 1237TIP3    H1 3717   1.053   3.175   2.045 -0.7104 -1.1231 -0.2591
 1237TIP3    H2 3718   1.064   3.267   2.165  0.0446 -1.3091 -0.1784
 1238TIP3   OH2 3719   0.932   2.708   4.995 -0.2716 -0.4464  0.1920
 1238TIP3    H1 3720   0.938   2.799   4.968  0.8062 -0.4733  0.2864
 1238TIP3    H2 3721   1.009   2.667   4.956  0.3058 -0.8958  1.7384
 1239TIP3   OH2 3722   4.320   2.320   2.716  0.1903 -0.1736  0.1561
 1239TIP3    H1 3723   4.349   2.235   2.749  0.7643  0.0195  0.1532
 1239TIP3    H2 3724   4.359   2.326   2.629 -0.3701 -0.1816 -0.0964
 1240TIP3   OH2 3725   0.118   1.849   3.047 -0.0597 -0.2229 -0.2062
 1240TIP3    H1 3726   0.179   1.796   2.996 -0.1399  0.7046 -1.3160
 1240TIP3    H2 3727   0.052   1.787   3.078 -0.1175 -0.7952 -1.4154
 1241TIP3   OH2 3728   4.990   5.223   0.993 -0.3543 -0.3291 -0.1577
 1241TIP3    H1 3729   4.913   5.189   1.038  0.2275 -2.7736 -0.8754
 1241TIP3    H2 3730   5.052   5.151   0.993  1.2405  0.9597 -1.2533
 1242TIP3   OH2 3731   3.457   1.058   3.317 -0.4956 -0.7321  0.4830
 1242TIP3    H1 3732   3.431   0.996   3.385  1.5413 -0.9598  1.0972
 1242TIP3    H2 3733   3.552   1.054   3.315 -0.4809 -1.5327 -3.1235
 1243TIP3   OH2 3734   0.759   2.271   2.994  0.6653  0.0134  0.1919
 1243TIP3    H1 3735   0.741   2.363   2.973 -1.1881 -0.6147 -1.2763
 1243TIP3    H2 3736   0.750   2.265   3.089  0.2730  1.2421  0.2459
 1244TIP3   OH2 3737   3.903   0.577   3.323  0.0626 -0.3410 -0.3584
 1244TIP3    H1 3738   3.921   0.484   3.338  2.1672  0.2633  1.4125
 1244TIP3    H2 3739   3.825   0.595   3.376 -1.4343 -1.3870 -2.0717
 1245TIP3   OH2 3740   0.142   1.725   3.761  0.2330  0.6360 -0.3422
 1245TIP3    H1 3741   0.062   1.776   3.747 -0.4725  0.4546  2.3209
 1245TIP3    H2 3742   0.202   1.787   3.804 -0.1624 -0.3221  1.7277
 1246TIP3   OH2 3743   3.791   4.537   4.569  0.3223  0.1735 -0.2654
 1246TIP3    H1 3744   3.722   4.538   4.503  1.9228 -2.4519 -2.1600
 1246TIP3    H2 3745   3.862   4.589   4.530  0.9617 -0.6962 -0.3014
 1247TIP3   OH2 3746   0.560   1.676   4.127  0.3235 -0.0235 -0.6677
 1247TIP3    H1 3747   0.469   1.702   4.115  0.1258 -0.0981  0.5689
 1247TIP3    H2 3748   0.599   1.746   4.179  0.2774 -1.2240  1.0547
 1248TIP3   OH2 3749   1.066   4.504   2.648  0.1828 -0.4625 -0.0577
 1248TIP3    H1 3750   1.008   4.578   2.663 -0.1099 -0.7524  0.2328
 1248TIP3    H2 3751   1.096   4.478   2.735 -3.1675 -3.4799  0.4225
 1249TIP3   OH2 3752   3.154   1.565   2.466  0.4916  0.3208 -0.1599
 1249TIP3    H1 3753   3.220   1.496   2.476 -0.0979 -0.1471  0.6373
 1249TIP3    H2 3754   3.202   1.646   2.481  1.2562  0.1198 -1.4045
 1250TIP3   OH2 3755   3.193   2.314   4.750  0.0742 -0.3528 -0.6794
 1250TIP3    H1 3756   3.264   2.276   4.699  1.0378  1.0731 -0.4757
 1250TIP3    H2 3757   3.146   2.369   4.688  0.0656 -0.1303 -0.4780
 1251TIP3   OH2 3758   5.999   3.722   4.370  0.3510  0.3133  0.0546
 1251TIP3    H1 3759   6.094   3.725   4.363  0.5313 -1.8295  0.7626
 1251TIP3    H2 3760   5.978   3.777   4.445  1.4080 -1.8337  2.0406
 1252TIP3   OH2 3761   5.769   3.890   2.663  0.1529 -0.2745  0.0007
 1252TIP3    H1 3762   5.682   3.902   2.623  1.2768  0.1039 -2.5758
 1252TIP3    H2 3763   5.810   3.822   2.610  1.7165  0.1232  0.6581
 1253TIP3   OH2 3764   5.934   1.135   2.905  0.8253 -0.5225  0.3972
 1253TIP3    H1 3765   6.028   1.128   2.891  0.9544 -2.2039  1.7117
 1253TIP3    H2 3766   5.898   1.053   2.869 -0.4883  1.0890 -2.2414
 1254TIP3   OH2 3767   4.607   5.035   4.184  0.3255  0.3998  0.4972
 1254TIP3    H1 3768   4.685   5.049   4.130 -0.4202  2.3265 -0.1496
 1254TIP3    H2 3769   4.575   4.949   4.157  0.9600  0.5701 -0.8972
 1255TIP3   OH2 3770   4.644   2.039   3.416 -0.4931 -0.5228  0.4583
 1255TIP3    H1 3771   4.648   1.960   3.470 -1.0953 -0.6793  0.2750
 1255TIP3    H2 3772   4.725   2.037   3.365  0.1780 -0.2729  1.4828
 1256TIP3   OH2 3773   6.255   5.250   3.433  0.2114  0.0388 -0.0047
 1256TIP3    H1 3774   6.294   5.222   3.516  1.2704 -0.9712 -0.7956
 1256TIP3    H2 3775   6.200   5.176   3.406 -0.0242  0.3059 -0.2580
 1257TIP3   OH2 3776   3.336   3.792   0.167  0.0365 -0.7075 -0.0874
 1257TIP3    H1 3777   3.328   3.838   0.083 -0.1086 -2.6342 -1.1739
 1257TIP3    H2 3778   3.380   3.710   0.146 -0.7773 -1.6223  1.5903
 1258TIP3   OH2 3779   1.288   0.996   4.708 -0.0935 -0.2863  0.6065
 1258TIP3    H1 3780   1.273   1.050   4.786 -1.3371  1.2204 -0.6060
 1258TIP3    H2 3781   1.219   0.929   4.712  0.6508 -1.0107  1.4545
 1259TIP3   OH2 3782   5.493   2.988   2.545  0.0217  0.0392 -0.0663
 1259TIP3    H1 3783   5.430   2.936   2.595 -1.0175  1.0882 -0.2322
 1259TIP3    H2 3784   5.579   2.954   2.571 -0.6016 -1.6528 -0.0899
 1260TIP3   OH2 3785   2.387   0.540   1.668  0.3408  0.2559 -0.4957
 1260TIP3    H1 3786   2.462   0.576   1.621  2.2186 -2.0189  0.5703
 1260TIP3    H2 3787   2.328   0.509   1.600  1.0746  0.7275 -1.3599
 1261TIP3   OH2 3788   0.429   3.052   4.734 -0.1749 -0.3728  0.2723
 1261TIP3    H1 3789   0.412   3.013   4.819 -1.4003  0.0510  0.2375
 1261TIP3    H2 3790   0.343   3.066   4.696  0.2984  0.7407 -0.4432
 1262TIP3   OH2 3791   5.255   4.977   4.311  0.8006  0.3960  0.0224
 1262TIP3    H1 3792   5.279   4.885   4.301  1.8023  0.3854  1.9511
 1262TIP3    H2 3793   5.322   5.025   4.261  2.9780  0.1975  2.5132
 1263TIP3   OH2 3794   6.063   3.538   1.158 -0.2592 -0.3238  0.1122
 1263TIP3    H1 3795   6.137   3.596   1.146 -0.0782 -0.6253 -0.2604
 1263TIP3    H2 3796   6.013   3.576   1.230 -0.7900  0.9589 -0.9007
 1264TIP3   OH2 3797   5.091   1.953   5.040 -0.1164  0.3058  0.1917
 1264TIP3    H1 3798   5.128   2.015   5.102 -0.5817  0.6127  0.1696
 1264TIP3    H2 3799   5.149   1.958   4.963 -0.2755  0.8763  0.1045
 1265TIP3   OH2 3800   1.577   0.610   0.589  0.3842  1.0558  0.3095
 1265TIP3    H1 3801   1.525   0.623   0.668  0.3285 -1.3751  0.7515
 1265TIP3    H2 3802   1.583   0.696   0.549 -0.3248  2.1790  2.5090
 1266TIP3   OH2 3803   5.138   1.006   2.611  0.3903 -0.4436  0.0480
 1266TIP3    H1 3804   5.060   1.029   2.661 -0.3807 -3.5981  0.5194
 1266TIP3    H2 3805   5.107   0.998   2.521  0.9761  1.5331 -0.3868
 1267TIP3   OH2 3806   3.348   4.346   0.434  0.1490  0.4551  0.5580
 1267TIP3    H1 3807   3.358   4.279   0.502 -0.2249  0.8337  0.9893
 1267TIP3    H2 3808   3.269   4.320   0.386 -0.2959  0.8629  1.0536
 1268TIP3   OH2 3809   0.270   2.509   4.927  0.1267  0.5185 -0.4492
 1268TIP3    H1 3810   0.196   2.488   4.984  1.0636  1.4949  1.2238
 1268TIP3    H2 3811   0.344   2.463   4.967  0.9822  1.9173 -0.3437
 1269TIP3   OH2 3812   5.180   3.293   3.538  0.2898 -0.2679 -0.4564
 1269TIP3    H1 3813   5.208   3.204   3.560 -0.6856 -0.8265 -1.4070
 1269TIP3    H2 3814   5.098   3.282   3.492 -0.0178  1.1652 -0.2985
 1270TIP3   OH2 3815   4.318   2.685   0.669 -0.0140 -0.1394  0.0426
 1270TIP3    H1 3816   4.406   2.685   0.630  0.8177 -0.4453  1.8133
 1270TIP3    H2 3817   4.320   2.613   0.732 -1.0255  0.8299  1.2228
 1271TIP3   OH2 3818   3.997   1.475   3.737 -0.4566 -0.2179 -0.1822
 1271TIP3    H1 3819   3.909   1.491   3.770 -0.6564  0.1068 -0.8572
 1271TIP3    H2 3820   4.055   1.505   3.807 -0.8776 -0.9762  0.5078
 1272TIP3   OH2 3821   1.666   0.242   4.898  0.3626  0.0092  0.3566
 1272TIP3    H1 3822   1.692   0.272   4.811  1.4205 -0.3417  0.5267
 1272TIP3    H2 3823   1.700   0.309   4.957 -1.2096  0.7519  0.4557
 1273TIP3   OH2 3824   4.919   1.097   0.374 -0.2729  0.2907 -0.0018
 1273TIP3    H1 3825   4.989   1.153   0.407 -0.2220  0.0019  0.3898
 1273TIP3    H2 3826   4.915   1.116   0.280  0.4513  0.1773 -0.0572
 1274TIP3   OH2 3827   3.981   4.609   3.186  0.3883  0.5024 -0.2742
 1274TIP3    H1 3828   4.071   4.583   3.206  0.1872 -1.0491 -1.2366
 1274TIP3    H2 3829   3.981   4.630   3.093 -0.1294  1.0432 -0.1607
 1275TIP3   OH2 3830   4.498   0.063   0.567 -0.3213 -0.4113  0.1741
 1275TIP3    H1 3831   4.448   0.120   0.626 -0.4836 -0.6595  0.2800
 1275TIP3    H2 3832   4.560   0.019   0.624  0.1280  0.0088  0.0189
 1276TIP3   OH2 3833   5.065   2.323   3.254  0.1034 -0.6124 -0.3114
 1276TIP3    H1 3834   5.043   2.316   3.347 -0.0379 -0.9294 -0.3660
 1276TIP3    H2 3835   5.160   2.311   3.251  0.5009  1.8651  0.0440
 1277TIP3   OH2 3836   2.602   3.669   3.990 -0.6981  0.2342 -0.5684
 1277TIP3    H1 3837   2.600   3.592   4.047 -0.9313  1.9031  1.8507
 1277TIP3    H2 3838   2.511   3.691   3.975 -0.6337 -0.0409 -1.3892
 1278TIP3   OH2 3839   5.617   4.631   3.329 -0.3417  0.2350  0.2586
 1278TIP3    H1 3840   5.570   4.585   3.260 -1.9283  1.0953  0.7189
 1278TIP3    H2 3841   5.609   4.723   3.308  1.6458  0.4228  0.0793
 1279TIP3   OH2 3842   1.791   2.444   4.573  0.0404  0.5148 -0.1398
 1279TIP3    H1 3843   1.822   2.372   4.627 -0.7276 -1.0753 -1.7131
 1279TIP3    H2 3844   1.704   2.465   4.607  0.6003  1.3287  0.8575
 1280TIP3   OH2 3845   1.856   0.114   1.667 -0.1297  0.0807 -0.2339
 1280TIP3    H1 3846   1.936   0.161   1.641  0.3537  0.3500  1.5728
 1280TIP3    H2 3847   1.876   0.022   1.651 -0.0980  0.2786 -1.3642
 1281TIP3   OH2 3848   5.960   0.468   1.120  0.1470 -0.3397  0.2868
 1281TIP3    H1 3849   5.901   0.503   1.054  1.3044  1.3606  0.0812
 1281TIP3    H2 3850   6.002   0.545   1.158  3.2270 -1.4427 -0.5517
 1282TIP3   OH2 3851   1.206   0.925   4.473 -0.0262  0.0380 -0.2689
 1282TIP3    H1 3852   1.199   0.833   4.497  1.1501  0.3652  1.6117
 1282TIP3    H2 3853   1.220   0.970   4.557  0.6872  1.7689 -1.2615
 1283TIP3   OH2 3854   5.028   0.844   0.011 -0.4383 -0.0295  0.4431
 1283TIP3    H1 3855   4.985   0.782   0.070 -0.1896 -0.6033  0.0316
 1283TIP3    H2 3856   4.968   0.854  -0.062  0.1584 -0.9143 -0.1839
 1284TIP3   OH2 3857   1.852   1.364   1.722 -0.4615 -0.2076 -0.2966
 1284TIP3    H1 3858   1.872   1.349   1.815  0.9705 -0.4464 -0.6097
 1284TIP3    H2 3859   1.844   1.459   1.714  0.6624 -0.0797 -0.1303
 1285TIP3   OH2 3860   6.299   4.686   1.629  0.6589 -0.1755  0.0708
 1285TIP3    H1 3861   6.289   4.592   1.619  1.6800 -0.3925  0.9817
 1285TIP3    H2 3862   6.345   4.697   1.712 -0.2000  1.1609  0.4030
 1286TIP3   OH2 3863   3.087   1.550   3.259 -0.5366  0.2872  0.0007
 1286TIP3    H1 3864   3.056   1.641   3.260 -2.0590 -0.1820 -0.4998
 1286TIP3    H2 3865   3.138   1.541   3.339 -1.2849  1.2968  0.6275
 1287TIP3   OH2 3866   1.067   2.437   0.330 -0.1163 -0.1134 -0.0970
 1287TIP3    H1 3867   0.976   2.417   0.352 -0.0323  1.8717  2.5500
 1287TIP3    H2 3868   1.061   2.506   0.263 -0.4736 -1.2822 -1.3168
 1288TIP3   OH2 3869   0.075   4.560   3.389  0.2090 -0.1477  0.3502
 1288TIP3    H1 3870   0.000   4.500   3.386 -0.3444  0.4668  1.2923
 1288TIP3    H2 3871   0.137   4.518   3.448 -1.2061  1.2506  3.0489
 1289TIP3   OH2 3872   1.689   2.000   0.111  0.2349 -0.3748 -0.2175
 1289TIP3    H1 3873   1.743   1.960   0.179 -0.4535  0.0720  0.6068
 1289TIP3    H2 3874   1.627   1.931   0.086  0.6101 -0.5999 -0.5336
 1290TIP3   OH2 3875   5.641   1.196   4.015  0.4926 -0.1278  0.0784
 1290TIP3    H1 3876   5.677   1.280   3.988 -0.4423  0.3905  0.3954
 1290TIP3    H2 3877   5.685   1.177   4.098  1.9066 -0.7648 -0.7809
 1291TIP3   OH2 3878   1.372   3.419   0.275  0.3734 -0.3839 -0.2410
 1291TIP3    H1 3879   1.320   3.499   0.271 -1.0471 -1.2787 -0.3626
 1291TIP3    H2 3880   1.425   3.429   0.354 -1.2835 -0.1921  0.8968
 1292TIP3   OH2 3881   4.168   1.416   2.850  0.6523  0.4484 -0.0223
 1292TIP3    H1 3882   4.165   1.499   2.803 -2.4032  1.2984  1.3965
 1292TIP3    H2 3883   4.134   1.352   2.788 -0.8764  1.0863  0.0983
 1293TIP3   OH2 3884   4.432   2.840   4.958  0.2772 -0.3546  0.7006
 1293TIP3    H1 3885   4.386   2.789   5.025  1.2902  0.0895  1.7591
 1293TIP3    H2 3886   4.481   2.774   4.908 -2.6839 -1.0691 -1.5337
 1294TIP3   OH2 3887   1.176   0.641   3.340  0.1242 -0.0533 -0.4803
 1294TIP3    H1 3888   1.193   0.701   3.267  0.1219  0.7906  0.2100
 1294TIP3    H2 3889   1.253   0.648   3.396 -0.7020  0.7785  0.5962
 1295TIP3   OH2 3890   6.194   4.366   2.891  0.1209  0.1959  0.2919
 1295TIP3    H1 3891   6.122   4.421   2.924  0.9636  1.9755 -0.6453
 1295TIP3    H2 3892   6.240   4.337   2.969 -0.5775  0.5137  0.8324
 1296TIP3   OH2 3893   2.792   1.431   1.857 -0.9758  0.6322 -0.2900
 1296TIP3    H1 3894   2.875   1.400   1.895 -1.3115  0.8653  0.6727
 1296TIP3    H2 3895   2.813   1.517   1.822 -0.2116 -0.3284 -2.3356
 1297TIP3   OH2 3896   6.201   3.676   3.125 -0.0700 -0.2226 -0.3006
 1297TIP3    H1 3897   6.186   3.587   3.095 -1.4087 -1.0452  2.4502
 1297TIP3    H2 3898   6.284   3.673   3.171 -0.7317 -0.4092  0.9151
 1298TIP3   OH2 3899   2.203   5.994   4.479  0.0573  0.0014  0.2116
 1298TIP3    H1 3900   2.246   6.004   4.394  0.9981 -1.2213  0.5270
 1298TIP3    H2 3901   2.115   5.963   4.458 -0.1618  0.9466 -0.3552
 1299TIP3   OH2 3902   5.898   2.736   4.442  0.4169  0.2390 -0.1600
 1299TIP3    H1 3903   5.932   2.671   4.503  0.0002 -0.0618 -0.2423
 1299TIP3    H2 3904   5.911   2.820   4.487 -0.8909 -0.0612  0.8433
 1300TIP3   OH2 3905   5.132   4.004   1.534 -0.0256 -0.1271 -0.4560
 1300TIP3    H1 3906   5.094   3.987   1.620  0.7441  0.3687 -0.0067
 1300TIP3    H2 3907   5.063   4.050   1.486 -0.7620 -1.1423 -0.4075
 1301TIP3   OH2 3908   4.309   1.727   1.004 -0.2162  0.0686  0.0662
 1301TIP3    H1 3909   4.373   1.796   1.021 -0.6558  0.4841  0.0570
 1301TIP3    H2 3910   4.224   1.770   1.013 -0.4948 -0.4490 -0.0385
 1302TIP3   OH2 3911   0.834   5.046   1.821  0.1429  0.4041  0.1609
 1302TIP3    H1 3912   0.810   4.972   1.766  1.2958  0.8046 -0.9483
 1302TIP3    H2 3913   0.752   5.074   1.862 -0.2962 -1.5392  0.7134
 1303TIP3   OH2 3914   3.864   3.408   5.201  0.3960 -0.4789 -0.0314
 1303TIP3    H1 3915   3.846   3.423   5.108 -0.5114  0.0300  0.2150
 1303TIP3    H2 3916   3.819   3.479   5.246  1.7525 -0.0581  0.7377
 1304TIP3   OH2 3917   3.370   2.150   2.017  0.1548  0.2749  0.7202
 1304TIP3    H1 3918   3.459   2.113   2.015 -0.2792 -0.8445  1.1818
 1304TIP3    H2 3919   3.384   2.244   2.030  1.2734  0.1173  0.7960
 1305TIP3   OH2 3920   6.217   5.010   4.344  0.3427  0.3600 -0.8138
 1305TIP3    H1 3921   6.289   4.956   4.375  0.4858 -0.8790 -3.0936
 1305TIP3    H2 3922   6.244   5.100   4.365  2.0176 -0.1587 -0.5916
 1306TIP3   OH2 3923   1.632   5.144   3.871 -0.2766 -0.4307  0.2350
 1306TIP3    H1 3924   1.599   5.150   3.782  1.7449 -2.2578 -0.7495
 1306TIP3    H2 3925   1.654   5.235   3.895  0.3338 -0.0304 -1.6536
 1307TIP3   OH2 3926   0.558   0.474   1.956 -0.5179  0.3007  0.0828
 1307TIP3    H1 3927   0.545   0.569   1.957  2.1124  0.7772 -1.2731
 1307TIP3    H2 3928   0.594   0.454   2.043  0.6113  0.8964 -0.2206
 1308TIP3   OH2 3929   0.163   3.156   2.642  0.1490  0.3466  0.3352
 1308TIP3    H1 3930   0.161   3.126   2.551  0.2975  1.1381  0.0621
 1308TIP3    H2 3931   0.241   3.212   2.646 -0.9515  1.9584  0.4049
 1309TIP3   OH2 3932   2.783   5.968   2.252  0.9592  0.3383  0.8683
 1309TIP3    H1 3933   2.697   5.971   2.210  1.4022 -0.0608 -0.1156
 1309TIP3    H2 3934   2.765   5.980   2.345 -0.3246 -1.2410  0.8730
 1310TIP3   OH2 3935   6.115   3.138   3.102 -0.1111 -0.0681 -0.1838
 1310TIP3    H1 3936   6.208   3.157   3.090 -0.5597  2.4697 -0.2508
 1310TIP3    H2 3937   6.096   3.169   3.191 -0.7328 -1.4538  0.2019
 1311TIP3   OH2 3938   3.820   0.135   3.306 -0.4351 -0.0828  0.2776
 1311TIP3    H1 3939   3.857   0.084   3.379  1.6826 -0.6051 -1.0799
 1311TIP3    H2 3940   3.793   0.068   3.242 -2.3359  0.3660  0.5441
 1312TIP3   OH2 3941   1.076   4.581   5.125 -0.0174 -0.1323  0.1156
 1312TIP3    H1 3942   1.171   4.589   5.127 -0.0684  0.4727  0.3533
 1312TIP3    H2 3943   1.045   4.667   5.094 -0.4139 -0.9350 -1.9183
 1313TIP3   OH2 3944   3.091   3.641   3.197  0.0870  0.4071 -0.3445
 1313TIP3    H1 3945   3.069   3.559   3.241  0.8081  0.9869  1.1871
 1313TIP3    H2 3946   3.173   3.623   3.152 -0.0995  0.1128 -0.5741
 1314TIP3   OH2 3947   1.287   4.177   0.117 -0.0682  0.0631 -0.2018
 1314TIP3    H1 3948   1.361   4.178   0.179  0.7822 -1.7940 -1.1135
 1314TIP3    H2 3949   1.249   4.264   0.125  2.5226  1.2749 -0.0472
 1315TIP3   OH2 3950   0.676   5.287   3.829  0.4784 -0.3109 -0.1605
 1315TIP3    H1 3951   0.758   5.336   3.823  0.6956 -0.4860  1.1779
 1315TIP3    H2 3952   0.654   5.288   3.922 -0.7917 -0.6810 -0.4388
 1316TIP3   OH2 3953   1.913   0.502   2.344 -0.3904  0.1065  0.1106
 1316TIP3    H1 3954   1.959   0.439   2.399  0.2381 -0.2123 -0.7480
 1316TIP3    H2 3955   1.947   0.587   2.371  0.7929 -0.1296 -0.5550
 1317TIP3   OH2 3956   3.362   4.772   2.143 -0.1139  0.3388 -0.4921
 1317TIP3    H1 3957   3.333   4.860   2.118  0.0887  0.5288 -0.0794
 1317TIP3    H2 3958   3.325   4.759   2.230  0.0431  0.1081 -0.4585
 1318TIP3   OH2 3959   3.402   2.312   1.630  0.3155 -0.6960 -0.3834
 1318TIP3    H1 3960   3.474   2.252   1.610 -1.1795 -2.2408 -1.3877
 1318TIP3    H2 3961   3.323   2.264   1.605 -1.0310  1.2614 -0.0893
 1319TIP3   OH2 3962   3.065   0.967   1.073 -0.4963 -0.0315  0.0418
 1319TIP3    H1 3963   3.024   0.884   1.099 -2.2041 -0.0809 -2.4450
 1319TIP3    H2 3964   3.143   0.941   1.024 -0.4326 -0.1165  0.1858
 1320TIP3   OH2 3965   0.010   5.231   0.659 -0.5148  0.5649  0.7062
 1320TIP3    H1 3966  -0.017   5.322   0.676 -1.7993 -0.0688  2.3077
 1320TIP3    H2 3967   0.028   5.195   0.746  2.3764 -0.0764 -0.0352
 1321TIP3   OH2 3968   1.495   4.560   1.661 -0.4396 -0.6281 -0.3194
 1321TIP3    H1 3969   1.501   4.606   1.578  0.0904  0.3499  0.2402
 1321TIP3    H2 3970   1.563   4.492   1.657  2.0153  1.6130  0.6161
 1322TIP3   OH2 3971   0.834   1.458   1.505  0.3230  0.3983  0.2441
 1322TIP3    H1 3972   0.761   1.484   1.562  0.0196  1.5397 -0.6282
 1322TIP3    H2 3973   0.911   1.461   1.562 -0.1560  0.2152  0.9190
 1323TIP3   OH2 3974   4.669   1.747   3.864 -0.1914 -0.0414  0.7336
 1323TIP3    H1 3975   4.764   1.734   3.867 -0.2945 -0.9449  0.1300
 1323TIP3    H2 3976   4.651   1.807   3.937  1.0233  1.3276 -0.0437
 1324TIP3   OH2 3977   2.586   4.700   2.189  0.1148 -0.5428 -0.3476
 1324TIP3    H1 3978   2.664   4.739   2.228 -2.2561  1.8537  2.5127
 1324TIP3    H2 3979   2.558   4.633   2.251 -1.2085  0.0826 -0.2354
 1325TIP3   OH2 3980   3.593   0.144   2.875 -0.6169 -0.1567 -0.2426
 1325TIP3    H1 3981   3.566   0.165   2.964 -0.2714 -2.2039  0.4103
 1325TIP3    H2 3982   3.630   0.225   2.841 -0.9809  0.7335  1.3855
 1326TIP3   OH2 3983   4.675   4.344   3.950 -0.1078 -0.0491  0.4012
 1326TIP3    H1 3984   4.630   4.405   4.008 -2.6326 -1.7610  0.3855
 1326TIP3    H2 3985   4.680   4.263   4.000  0.6369 -0.6417 -0.6034
 1327TIP3   OH2 3986   2.746   3.779   4.589 -0.2695  0.5627  0.3927
 1327TIP3    H1 3987   2.841   3.778   4.598 -0.2873 -1.9720  0.9688
 1327TIP3    H2 3988   2.729   3.842   4.519  2.0898 -1.2159 -1.9689
 1328TIP3   OH2 3989   4.843   5.911   1.222  0.1603  0.0294 -0.2518
 1328TIP3    H1 3990   4.761   5.893   1.266  0.0164  0.7600 -0.2134
 1328TIP3    H2 3991   4.829   5.879   1.132 -0.0315 -0.1784 -0.1498
 1329TIP3   OH2 3992   2.244   5.055   1.102  0.1822 -0.5411 -0.0892
 1329TIP3    H1 3993   2.271   5.065   1.011  0.3851 -1.1747 -0.1080
 1329TIP3    H2 3994   2.327   5.047   1.150  0.0937  0.4064  0.2330
 1330TIP3   OH2 3995   0.111   4.451   2.803 -0.4611  0.1226  0.5677
 1330TIP3    H1 3996   0.080   4.407   2.882 -2.4467  2.5773  1.2889
 1330TIP3    H2 3997   0.200   4.478   2.823  0.8724 -3.3949  0.0758
 1331TIP3   OH2 3998   4.113   4.329   3.106 -0.0103  0.0441 -0.2509
 1331TIP3    H1 3999   4.176   4.269   3.146 -0.8877 -0.3934  0.5219
 1331TIP3    H2 4000   4.143   4.339   3.016  0.9971 -0.3712  0.0248
 1332TIP3   OH2 4001   2.377   1.558   2.572  0.1217 -0.8342 -0.0241
 1332TIP3    H1 4002   2.339   1.546   2.659  1.2597 -2.7402  0.2621
 1332TIP3    H2 4003   2.463   1.517   2.577  0.9211  0.5304 -1.5778
 1333TIP3   OH2 4004   2.511   2.065   2.599 -0.2386 -0.2258  0.3027
 1333TIP3    H1 4005   2.501   2.078   2.504 -2.7964  1.5590  0.7240
 1333TIP3    H2 4006   2.570   2.135   2.626 -0.8330  0.3231  0.2208
 1334TIP3   OH2 4007   1.242   4.426   2.249  0.0737 -0.8274 -0.0699
 1334TIP3    H1 4008   1.262   4.389   2.163 -1.7279 -1.2588 -0.3422
 1334TIP3    H2 4009   1.288   4.369   2.311  1.8628 -0.1749 -0.7314
 1335TIP3   OH2 4010   3.253   1.309   3.802  0.4574 -0.0023 -0.0900
 1335TIP3    H1 4011   3.300   1.388   3.776 -1.4105  1.6173  1.1042
 1335TIP3    H2 4012   3.301   1.276   3.878  0.4091  0.9324  0.3702
 1336TIP3   OH2 4013   1.056   1.519   1.108  0.2069  0.0192 -0.0181
 1336TIP3    H1 4014   1.041   1.582   1.178  0.4797  0.1081 -0.0389
 1336TIP3    H2 4015   0.996   1.547   1.038  0.0479  0.0232  0.1182
 1337TIP3   OH2 4016   0.711   4.258   3.481 -0.2762  0.3596  0.3545
 1337TIP3    H1 4017   0.784   4.209   3.443  0.4835  0.5985  1.4599
 1337TIP3    H2 4018   0.683   4.317   3.412  0.1987 -0.1472 -0.2817
 1338TIP3   OH2 4019   3.550   3.479   3.335 -0.0276 -0.1592 -0.1538
 1338TIP3    H1 4020   3.542   3.449   3.244  0.2610  2.3760 -1.1077
 1338TIP3    H2 4021   3.644   3.472   3.354 -0.0998 -0.7767  0.0047
 1339TIP3   OH2 4022   5.756   1.139   1.109  0.9598  0.0234  0.2819
 1339TIP3    H1 4023   5.823   1.148   1.177 -1.0133  0.0083  2.3276
 1339TIP3    H2 4024   5.674   1.156   1.154 -0.6084 -1.7107 -1.7454
 1340TIP3   OH2 4025   0.750   2.164   4.385  1.0106  0.6959 -0.0949
 1340TIP3    H1 4026   0.713   2.156   4.297 -4.1145 -0.5023  1.8174
 1340TIP3    H2 4027   0.788   2.078   4.402 -1.8067 -0.5821  0.1968
 1341TIP3   OH2 4028   4.361   1.752   1.935  0.6685 -0.3369  0.2932
 1341TIP3    H1 4029   4.355   1.801   2.017  0.6720  2.1684 -1.0961
 1341TIP3    H2 4030   4.392   1.816   1.871 -0.4531 -1.8664 -1.9300
 1342TIP3   OH2 4031   1.481   3.969   3.127  0.2380 -0.1332 -0.0660
 1342TIP3    H1 4032   1.567   3.941   3.098 -0.1175 -1.6636  0.2888
 1342TIP3    H2 4033   1.497   4.047   3.180  1.4467 -0.7090  0.4267
 1343TIP3   OH2 4034   3.847   4.364   3.167  0.0521  0.3367  0.4386
 1343TIP3    H1 4035   3.866   4.308   3.243 -0.6574  0.3986  0.6707
 1343TIP3    H2 4036   3.933   4.397   3.140  0.6280 -1.6654 -0.3429
 1344TIP3   OH2 4037   3.433   3.198   1.793 -0.2228  0.0633 -0.0820
 1344TIP3    H1 4038   3.391   3.280   1.768 -3.4427 -0.8141  1.9573
 1344TIP3    H2 4039   3.449   3.207   1.887 -1.4040 -1.9184  0.3503
 1345TIP3   OH2 4040   2.716   5.172   1.015 -0.0062 -0.8129  0.0638
 1345TIP3    H1 4041   2.779   5.229   0.971  0.2885  0.4119  1.9284
 1345TIP3    H2 4042   2.641   5.229   1.034  1.0211 -0.3801  3.5953
 1346TIP3   OH2 4043   1.005   1.972   5.075  0.1112  0.3954  0.2399
 1346TIP3    H1 4044   0.987   1.899   5.016 -0.1850  0.0128  0.7962
 1346TIP3    H2 4045   0.921   1.993   5.115  0.0364  1.5666 -0.4970
 1347TIP3   OH2 4046   0.369   2.361   1.315  0.3901 -0.1767  0.0756
 1347TIP3    H1 4047   0.367   2.267   1.302  0.6706 -0.0202 -1.2498
 1347TIP3    H2 4048   0.414   2.373   1.399  2.1670 -1.1487 -0.6958
 1348TIP3   OH2 4049   2.021   1.890   3.317 -0.4650 -0.1397  0.1568
 1348TIP3    H1 4050   2.104   1.857   3.283 -0.7478 -2.3536  1.4420
 1348TIP3    H2 4051   2.037   1.901   3.411 -1.2369  0.7602  0.1967
 1349TIP3   OH2 4052   3.706   3.863   0.741 -0.1444 -0.0136 -0.1201
 1349TIP3    H1 4053   3.673   3.861   0.830  1.1298  1.3583  0.4146
 1349TIP3    H2 4054   3.786   3.810   0.743 -0.0974  0.0373 -0.4554
 1350TIP3   OH2 4055   4.336   0.403   3.486  0.8685 -0.2354  0.1006
 1350TIP3    H1 4056   4.250   0.402   3.446  0.5474 -0.2026  0.7765
 1350TIP3    H2 4057   4.337   0.326   3.543  1.6656 -0.8220 -0.6820
 1351TIP3   OH2 4058   0.440   3.113   2.306  0.1021 -0.2969 -0.6953
 1351TIP3    H1 4059   0.353   3.138   2.337  1.3240  1.3212  1.8761
 1351TIP3    H2 4060   0.454   3.166   2.228 -0.1393  1.8445  0.6089
 1352TIP3   OH2 4061   4.609   1.552   1.137  0.4777  0.8512 -0.6309
 1352TIP3    H1 4062   4.519   1.556   1.169  0.8626 -0.1912  0.6958
 1352TIP3    H2 4063   4.635   1.643   1.123  0.2844  1.4086  2.1624
 1353TIP3   OH2 4064   4.008   2.656   2.402 -0.0860  0.2223 -0.7827
 1353TIP3    H1 4065   3.948   2.695   2.339 -1.5729 -1.4329 -0.4730
 1353TIP3    H2 4066   3.960   2.658   2.485  0.6778 -0.2327 -0.3210
 1354TIP3   OH2 4067   4.675   5.142   2.083  0.7007  0.3213  0.2569
 1354TIP3    H1 4068   4.665   5.048   2.066 -1.7302  1.0902 -4.2796
 1354TIP3    H2 4069   4.769   5.156   2.087  1.3453 -2.0067 -2.5617
 1355TIP3   OH2 4070   4.529   5.905   4.133  0.6696 -0.7100  0.7753
 1355TIP3    H1 4071   4.488   5.855   4.063  0.8841 -1.6750  1.3253
 1355TIP3    H2 4072   4.518   5.851   4.211 -1.4336  1.2506  1.9690
 1356TIP3   OH2 4073   5.187   3.440   0.160  0.2979 -0.6224  0.0645
 1356TIP3    H1 4074   5.145   3.515   0.201 -2.3984 -1.8481 -0.2606
 1356TIP3    H2 4075   5.274   3.437   0.200  0.0281  1.8381  1.0582
 1357TIP3   OH2 4076   4.627   3.040   1.744 -0.5136  0.3957 -0.2045
 1357TIP3    H1 4077   4.719   3.015   1.735 -0.8619 -0.9604 -0.1852
 1357TIP3    H2 4078   4.629   3.135   1.760  0.8351  0.4839 -0.8103
 1358TIP3   OH2 4079   4.953   1.384   0.656 -0.0820  0.3455 -0.7933
 1358TIP3    H1 4080   5.003   1.315   0.613  0.4224  0.3421 -0.2274
 1358TIP3    H2 4081   5.002   1.402   0.736 -0.2260  1.3303 -0.9121
 1359TIP3   OH2 4082   0.986   4.984   0.598  0.2539 -0.1707  0.5460
 1359TIP3    H1 4083   1.022   4.901   0.569 -1.0230 -0.7324  0.5209
 1359TIP3    H2 4084   0.891   4.975   0.588  0.0782  1.2525  0.6203
 1360TIP3   OH2 4085   4.692   5.216   3.750  0.2367  0.1489  0.5082
 1360TIP3    H1 4086   4.620   5.160   3.721 -0.0792  0.8092 -0.0038
 1360TIP3    H2 4087   4.740   5.162   3.813 -0.1025 -0.6708  0.0821
 1361TIP3   OH2 4088   2.258   3.927   4.238 -0.1732  0.1941  0.2595
 1361TIP3    H1 4089   2.293   3.883   4.160 -1.8867  0.1550 -0.5514
 1361TIP3    H2 4090   2.251   4.019   4.213 -0.5902  0.2069  0.4131
 1362TIP3   OH2 4091   4.729   2.302   2.831 -0.1542  0.3784  0.8001
 1362TIP3    H1 4092   4.785   2.333   2.902  0.6269  3.6059 -0.9802
 1362TIP3    H2 4093   4.781   2.233   2.788  0.4413  0.1330  1.8829
 1363TIP3   OH2 4094   3.307   5.931   0.691 -0.2196 -0.2564 -0.6459
 1363TIP3    H1 4095   3.382   5.882   0.726 -1.9751 -1.6340  1.4569
 1363TIP3    H2 4096   3.346   6.006   0.646  2.3909 -0.1941  1.4725
 1364TIP3   OH2 4097   1.354   4.085   0.545  0.1461 -0.0334  0.0049
 1364TIP3    H1 4098   1.372   3.995   0.572  0.1972 -0.6101 -1.8492
 1364TIP3    H2 4099   1.260   4.089   0.531 -0.0697  0.6283  1.4561
 1365TIP3   OH2 4100   2.172   3.541   0.345 -0.3122 -0.5877  1.2288
 1365TIP3    H1 4101   2.190   3.462   0.395 -0.4235 -0.4542  1.4805
 1365TIP3    H2 4102   2.082   3.531   0.315 -0.0836 -0.8948  0.6332
 1366TIP3   OH2 4103   1.950   5.888   0.345 -0.0283 -0.5058  0.1859
 1366TIP3    H1 4104   2.032   5.839   0.346  0.3931  0.1837 -0.1571
 1366TIP3    H2 4105   1.949   5.937   0.427  0.2812  0.0901 -0.1588
 1367TIP3   OH2 4106   3.474   5.810   0.883  0.1569  0.2083  0.5699
 1367TIP3    H1 4107   3.521   5.743   0.834 -0.2689  0.4685 -0.2162
 1367TIP3    H2 4108   3.542   5.862   0.926  0.5524  0.1919 -0.0336
 1368TIP3   OH2 4109   2.322   4.595   3.698 -0.2258  0.1572  0.7114
 1368TIP3    H1 4110   2.267   4.617   3.773 -1.0315  2.1633 -0.3893
 1368TIP3    H2 4111   2.272   4.530   3.650 -0.7228  0.4681  0.7963
 1369TIP3   OH2 4112   4.817   2.618   1.918 -0.2883  0.2373  0.1113
 1369TIP3    H1 4113   4.804   2.677   1.993  2.7313  0.8719  0.2656
 1369TIP3    H2 4114   4.740   2.562   1.919 -1.2140  1.3750  2.6228
 1370TIP3   OH2 4115   3.080   0.477   4.480  0.1944  0.7212 -0.7375
 1370TIP3    H1 4116   3.054   0.386   4.469 -0.1784  0.7572 -0.1670
 1370TIP3    H2 4117   3.140   0.476   4.555  0.0806  0.9636 -0.6430
 1371TIP3   OH2 4118   5.509   4.742   0.704 -0.2909  0.0999 -0.2296
 1371TIP3    H1 4119   5.567   4.815   0.685  0.3743  0.0345  1.3526
 1371TIP3    H2 4120   5.421   4.774   0.683  0.0130  1.2814  0.2149
 1372TIP3   OH2 4121   1.948   3.985   0.913  1.0436  0.3320 -0.1287
 1372TIP3    H1 4122   1.995   4.063   0.883  0.5370  0.7051  0.0355
 1372TIP3    H2 4123   1.993   3.912   0.871  0.7477  0.7991 -1.2941
 1373TIP3   OH2 4124   4.430   2.380   1.181  0.9273 -0.3724 -0.1601
 1373TIP3    H1 4125   4.495   2.405   1.115 -0.3528 -0.8191 -1.6413
 1373TIP3    H2 4126   4.371   2.455   1.186  0.7943 -0.4993  0.1845
 1374TIP3   OH2 4127   0.832   4.430   0.943 -0.7596 -0.3732 -0.3547
 1374TIP3    H1 4128   0.774   4.501   0.971 -1.5168 -0.6272 -1.2503
 1374TIP3    H2 4129   0.774   4.355   0.932 -0.3070 -0.5798 -1.4696
 1375TIP3   OH2 4130   1.807   5.697   4.629 -0.5022 -0.0670  0.2945
 1375TIP3    H1 4131   1.770   5.645   4.700 -0.2837 -0.7314 -0.0690
 1375TIP3    H2 4132   1.739   5.762   4.610  0.1304  1.2809  2.2815
 1376TIP3   OH2 4133   1.449   2.533   4.602  0.4817 -0.1390  0.6741
 1376TIP3    H1 4134   1.360   2.504   4.623  1.1146 -1.6378  1.4882
 1376TIP3    H2 4135   1.465   2.498   4.514 -0.7125  2.6303 -0.7552
 1377TIP3   OH2 4136   1.246   1.916   2.965 -0.2823  1.0881  0.4032
 1377TIP3    H1 4137   1.337   1.914   2.996 -0.2585 -0.4042  0.3226
 1377TIP3    H2 4138   1.236   2.002   2.925  0.7599  1.7049  1.3926
 1378TIP3   OH2 4139   5.716   2.538   4.399  0.3364  0.2897 -0.0289
 1378TIP3    H1 4140   5.766   2.618   4.412 -0.4704  0.6648  0.9205
 1378TIP3    H2 4141   5.681   2.517   4.486  0.7077 -1.2153 -0.2110
 1379TIP3   OH2 4142   3.814   4.106   3.072 -0.3700  0.4542 -0.3084
 1379TIP3    H1 4143   3.831   4.199   3.085  1.3077  0.4540 -1.9795
 1379TIP3    H2 4144   3.900   4.069   3.050 -0.6550 -1.8258  1.8682
 1380TIP3   OH2 4145   1.296   1.965   2.225 -0.3788 -0.3029  0.1551
 1380TIP3    H1 4146   1.311   2.052   2.262 -1.8747  0.1499 -0.2372
 1380TIP3    H2 4147   1.279   1.981   2.132 -0.1403 -1.0763 -0.0318
 1381TIP3   OH2 4148   4.420   2.930   1.600  0.5138  0.2005 -0.3761
 1381TIP3    H1 4149   4.463   2.845   1.606  0.1900 -0.0890 -1.8278
 1381TIP3    H2 4150   4.480   2.990   1.645  1.0990 -0.6580  0.0114
 1382TIP3   OH2 4151   5.645   5.871   0.849  0.1224  0.2410  0.3635
 1382TIP3    H1 4152   5.561   5.911   0.827  0.0121 -0.2219 -0.0697
 1382TIP3    H2 4153   5.709   5.920   0.798  0.0305  0.1080  0.1205
 1383TIP3   OH2 4154   0.163   0.523   2.601 -0.3326  0.3911 -0.0033
 1383TIP3    H1 4155   0.239   0.523   2.542 -0.4690  0.8710 -0.1899
 1383TIP3    H2 4156   0.198   0.493   2.685 -0.4587 -1.8307 -0.7003
 1384TIP3   OH2 4157   3.398   2.179   1.329 -0.2856  0.1314  0.1861
 1384TIP3    H1 4158   3.403   2.146   1.419 -1.9664 -1.7213 -0.3171
 1384TIP3    H2 4159   3.334   2.122   1.286  0.2354  1.1511 -2.1191
 1385TIP3   OH2 4160   2.632   3.909   4.783  0.2644  0.3147 -0.1821
 1385TIP3    H1 4161   2.685   3.855   4.725 -0.9973 -1.8727  0.5664
 1385TIP3    H2 4162   2.695   3.962   4.831  1.5532 -0.3498 -1.0883
 1386TIP3   OH2 4163   5.478   4.793   2.816  0.3345 -0.2424  0.4105
 1386TIP3    H1 4164   5.565   4.833   2.826  0.3843  0.4129 -2.1132
 1386TIP3    H2 4165   5.495   4.708   2.774 -0.2195 -0.2389  0.1704
 1387TIP3   OH2 4166   1.135   1.345   3.337  0.0128  0.1199 -0.7735
 1387TIP3    H1 4167   1.199   1.354   3.409 -0.2052 -0.2690 -0.5276
 1387TIP3    H2 4168   1.081   1.423   3.344  0.0833  0.1552 -0.5989
 1388TIP3   OH2 4169   5.247   3.858   0.648  0.0071 -0.0228 -0.1458
 1388TIP3    H1 4170   5.325   3.864   0.703  0.7029  1.4685 -1.2214
 1388TIP3    H2 4171   5.279   3.823   0.565 -0.1873  1.7296 -1.0123
 1389TIP3   OH2 4172   5.214   2.609   2.438  0.1322 -0.4361 -0.7950
 1389TIP3    H1 4173   5.229   2.614   2.343  0.7310 -0.9227 -0.7374
 1389TIP3    H2 4174   5.256   2.527   2.464 -0.0180 -0.2985 -0.1045
 1390TIP3   OH2 4175   3.491   3.948   0.906 -0.3926  0.1132 -0.2164
 1390TIP3    H1 4176   3.474   3.865   0.949 -1.2012  0.4232  0.0812
 1390TIP3    H2 4177   3.455   3.937   0.818  1.4435 -0.5930 -0.9342
 1391TIP3   OH2 4178   1.944   4.446   2.180 -0.3741 -0.0773  0.3151
 1391TIP3    H1 4179   1.998   4.440   2.258 -1.5570  0.8833  1.2465
 1391TIP3    H2 4180   1.987   4.515   2.128  1.9893 -2.5319 -1.2654
 1392TIP3   OH2 4181   5.710   3.546   0.190  0.0443  0.0205  0.1054
 1392TIP3    H1 4182   5.744   3.461   0.217 -0.5459  0.1379  1.2912
 1392TIP3    H2 4183   5.777   3.609   0.216  0.0993 -0.0016  0.0164
 1393TIP3   OH2 4184   0.095   5.576   2.245 -0.0695 -0.1779  0.4642
 1393TIP3    H1 4185   0.101   5.488   2.282 -0.4212 -0.5026 -0.2306
 1393TIP3    H2 4186   0.146   5.572   2.164 -3.0567 -0.8657 -1.5622
 1394TIP3   OH2 4187   3.842   4.553   3.428 -0.5757  0.2089 -0.0518
 1394TIP3    H1 4188   3.870   4.563   3.337 -0.5456 -1.2791 -0.2290
 1394TIP3    H2 4189   3.749   4.575   3.427 -0.6678 -0.1689 -0.5381
 1395TIP3   OH2 4190   5.995   3.183   2.390  0.2188 -0.2407 -0.2955
 1395TIP3    H1 4191   6.020   3.166   2.481  2.2083  1.1993 -0.4841
 1395TIP3    H2 4192   6.047   3.121   2.339  0.5430  0.1970 -0.5124
 1396TIP3   OH2 4193   2.353   3.763   5.079 -0.8096  0.4204 -0.3059
 1396TIP3    H1 4194   2.426   3.716   5.038 -0.5476 -0.5850  1.2160
 1396TIP3    H2 4195   2.383   3.853   5.086  1.3405 -0.3801  2.4109
 1397TIP3   OH2 4196   0.025   3.190   1.416 -0.3515  0.1418  0.7477
 1397TIP3    H1 4197   0.105   3.150   1.382 -1.5053 -0.9292 -0.8899
 1397TIP3    H2 4198  -0.032   3.115   1.436 -1.5512  0.8946  0.2471
 1398TIP3   OH2 4199   2.092   0.279   1.099  0.0583 -0.3832  0.1025
 1398TIP3    H1 4200   2.037   0.201   1.108  2.0811 -2.0508 -1.0985
 1398TIP3    H2 4201   2.064   0.319   1.017 -0.7045 -0.0283  0.5191
 1399TIP3   OH2 4202   5.658   1.813   0.051  0.5158  0.4102 -0.2683
 1399TIP3    H1 4203   5.749   1.820   0.081  0.5548  2.3406 -0.7087
 1399TIP3    H2 4204   5.655   1.731   0.001  1.7379 -0.1924  0.5983
 1400TIP3   OH2 4205   1.603   0.236   1.642 -0.4862  0.4416  0.1032
 1400TIP3    H1 4206   1.529   0.176   1.636  0.2815 -0.6071  0.6623
 1400TIP3    H2 4207   1.680   0.181   1.624  0.1196  1.6341 -1.1209
 1401TIP3   OH2 4208   5.853   2.210   4.250  0.6722 -0.0678 -0.1510
 1401TIP3    H1 4209   5.916   2.225   4.321  0.2169  1.5362 -0.0407
 1401TIP3    H2 4210   5.861   2.287   4.194  0.6256 -1.0542 -1.5629
 1402TIP3   OH2 4211   2.536   2.206   4.488  0.3151  0.0532  0.1691
 1402TIP3    H1 4212   2.610   2.205   4.426  1.4980  0.3256  1.5360
 1402TIP3    H2 4213   2.505   2.116   4.489  0.4369 -0.0111 -0.6265
 1403TIP3   OH2 4214   3.925   1.896   0.071 -0.1367  0.4304  0.2327
 1403TIP3    H1 4215   3.913   1.804   0.046  2.7219  0.8542 -3.5639
 1403TIP3    H2 4216   3.853   1.942   0.028 -0.0378  0.2440 -0.1368
 1404TIP3   OH2 4217   5.808   0.543   2.501 -0.2877 -0.0943  0.3360
 1404TIP3    H1 4218   5.884   0.550   2.558  0.8413  0.2796 -1.1476
 1404TIP3    H2 4219   5.783   0.634   2.484  1.2589 -0.0041 -2.0640
 1405TIP3   OH2 4220   5.102   0.863   0.324 -0.0094 -0.3700 -0.3429
 1405TIP3    H1 4221   5.037   0.927   0.353 -0.7405 -1.3854  0.3362
 1405TIP3    H2 4222   5.072   0.780   0.361  1.0413 -1.0710 -1.0069
 1406TIP3   OH2 4223   6.058   1.490   3.222  0.2931 -0.2845  0.2190
 1406TIP3    H1 4224   5.982   1.432   3.212  0.2703 -0.0682 -1.0159
 1406TIP3    H2 4225   6.124   1.453   3.164  0.5117  0.5573 -0.0770
 1407TIP3   OH2 4226   2.038   2.538   4.936  0.2831  0.0632  0.0519
 1407TIP3    H1 4227   2.127   2.541   4.971  0.1949 -2.1727  0.6191
 1407TIP3    H2 4228   1.996   2.466   4.984 -1.2947 -0.0468 -1.4103
 1408TIP3   OH2 4229   5.534   2.324   0.811  0.3329 -0.2713 -0.4221
 1408TIP3    H1 4230   5.501   2.410   0.787 -0.1653  0.4115  2.3529
 1408TIP3    H2 4231   5.629   2.336   0.819  0.2158  0.1941  0.4326
 1409TIP3   OH2 4232   0.199   2.457   2.221  0.0244 -0.3609  0.3533
 1409TIP3    H1 4233   0.147   2.461   2.141 -0.9038  1.2202  0.9805
 1409TIP3    H2 4234   0.149   2.401   2.280  0.0668 -0.4977  0.2591
 1410TIP3   OH2 4235   2.216   0.490   2.234 -0.0773  0.3976  0.0934
 1410TIP3    H1 4236   2.303   0.523   2.257  1.3513 -1.8674 -1.7222
 1410TIP3    H2 4237   2.211   0.404   2.276 -2.6503  1.5554  2.5029
 1411TIP3   OH2 4238   1.528   3.367   1.633  0.1734 -0.3428  0.4021
 1411TIP3    H1 4239   1.466   3.410   1.690 -0.0249  0.1978 -0.2091
 1411TIP3    H2 4240   1.586   3.318   1.692  2.5872  3.4306  1.5017
 1412TIP3   OH2 4241   5.642   4.213   2.886  0.4652  0.3993 -0.2079
 1412TIP3    H1 4242   5.614   4.159   2.812  0.4797  0.2501 -0.1053
 1412TIP3    H2 4243   5.698   4.280   2.848  1.5012 -0.4281 -0.1676
 1413TIP3   OH2 4244   1.207   3.835   0.044 -0.1828  0.6850 -0.3051
 1413TIP3    H1 4245   1.281   3.860   0.099 -0.1597 -2.7069  1.4877
 1413TIP3    H2 4246   1.209   3.897  -0.029  1.9624  3.1796  1.6831
 1414TIP3   OH2 4247   1.141   3.820   0.478 -0.1888 -0.4302 -0.6074
 1414TIP3    H1 4248   1.187   3.850   0.556  1.4886 -1.4415 -1.1633
 1414TIP3    H2 4249   1.050   3.847   0.492 -0.0291 -0.9663  1.8813
 1415TIP3   OH2 4250   5.597   4.537   2.096  1.2254  0.1889 -0.2994
 1415TIP3    H1 4251   5.611   4.480   2.171 -0.0877 -0.4429 -0.5204
 1415TIP3    H2 4252   5.511   4.514   2.063  0.5976  2.3632 -0.3475
 1416TIP3   OH2 4253   5.400   3.214   3.370 -0.1484  0.3470  0.3622
 1416TIP3    H1 4254   5.459   3.274   3.325 -1.1514  1.4702  0.4967
 1416TIP3    H2 4255   5.336   3.271   3.413 -0.2042 -0.7541  1.8240
 1417TIP3   OH2 4256   1.186   0.713   3.699  0.0876 -0.0180  0.2111
 1417TIP3    H1 4257   1.258   0.707   3.637  0.2549 -0.1496  0.4147
 1417TIP3    H2 4258   1.141   0.628   3.693 -0.0362  0.0538  0.1042
 1418TIP3   OH2 4259   5.947   3.634   4.938  0.7274 -0.2916  0.6771
 1418TIP3    H1 4260   5.957   3.718   4.983  1.6416 -0.2736  0.4513
 1418TIP3    H2 4261   5.910   3.576   5.004  0.5413  0.1589  0.9759
 1419TIP3   OH2 4262   4.102   2.051   2.903 -0.3996 -0.0373  0.1384
 1419TIP3    H1 4263   4.107   2.144   2.884 -1.1904  0.4003  1.8757
 1419TIP3    H2 4264   4.125   2.044   2.995  0.1246 -1.6343 -0.0778
 1420TIP3   OH2 4265   5.491   5.950   3.678 -0.4533  0.1702  0.9536
 1420TIP3    H1 4266   5.545   6.006   3.733 -0.7707  0.9165  0.5322
 1420TIP3    H2 4267   5.411   6.000   3.665 -0.0649  0.3972 -0.8449
 1421TIP3   OH2 4268   6.039   3.906   1.488 -0.2408 -0.2543  0.4834
 1421TIP3    H1 4269   6.107   3.887   1.553  0.8315  1.8247  0.0312
 1421TIP3    H2 4270   5.967   3.942   1.539  0.1146  0.1972  0.6762
 1422TIP3   OH2 4271   0.498   1.977   4.705  0.5452 -0.1464 -0.7297
 1422TIP3    H1 4272   0.468   2.068   4.706  0.4360 -0.1459  1.3292
 1422TIP3    H2 4273   0.497   1.952   4.613 -1.6842  1.1922 -1.1445
 1423TIP3   OH2 4274   5.785   2.746   0.725  0.2555  0.4064  0.4767
 1423TIP3    H1 4275   5.865   2.721   0.680  0.1166  0.1137  0.3949
 1423TIP3    H2 4276   5.808   2.828   0.770  1.4901 -1.0700  2.7751
 1424TIP3   OH2 4277   5.766   3.839   2.934  0.4578 -0.1537  0.3320
 1424TIP3    H1 4278   5.814   3.759   2.956  1.2503  0.3824  0.5739
 1424TIP3    H2 4279   5.771   3.844   2.838 -0.1418 -0.7210  0.2612
 1425TIP3   OH2 4280   0.928   3.508   2.263  0.0414  0.0696  0.4224
 1425TIP3    H1 4281   0.842   3.487   2.300 -0.2356 -0.2567 -0.3747
 1425TIP3    H2 4282   0.937   3.448   2.189 -0.6342  2.4361 -1.7286
 1426TIP3   OH2 4283   3.995   3.312   2.604 -0.1926  0.3319 -0.1708
 1426TIP3    H1 4284   4.017   3.222   2.628  0.3182  0.8272  1.3300
 1426TIP3    H2 4285   4.075   3.362   2.622  0.0261  0.8817 -2.3907
 1427TIP3   OH2 4286   1.472   2.030   4.228  0.2585  0.1139  0.5732
 1427TIP3    H1 4287   1.508   1.944   4.206 -0.0587  0.3809 -1.1799
 1427TIP3    H2 4288   1.416   2.014   4.304 -1.4522 -1.6990 -0.9222
 1428TIP3   OH2 4289   0.790   2.728   2.144 -0.2030 -0.1149 -0.5467
 1428TIP3    H1 4290   0.742   2.792   2.196 -0.7418 -1.0201  0.0935
 1428TIP3    H2 4291   0.740   2.647   2.153  2.1731 -1.4952  1.3680
 1429TIP3   OH2 4292   3.417   3.624   3.722  0.2194 -0.3472 -0.2570
 1429TIP3    H1 4293   3.332   3.645   3.683 -0.6120  0.7393  2.0114
 1429TIP3    H2 4294   3.473   3.698   3.700 -0.2171  0.2150  0.4934
 1430TIP3   OH2 4295   4.491   5.982   5.048  0.1176  0.0069 -0.3384
 1430TIP3    H1 4296   4.474   5.914   4.983 -0.0755  0.8183 -1.1432
 1430TIP3    H2 4297   4.568   6.028   5.016  0.5884 -0.1705  0.4917
 1431TIP3   OH2 4298   1.619   4.946   4.792  0.5627 -0.8162 -0.1441
 1431TIP3    H1 4299   1.710   4.954   4.764  1.3409  0.8017  2.4614
 1431TIP3    H2 4300   1.624   4.914   4.882 -1.2810  1.0446  0.7090
 1432TIP3   OH2 4301   0.644   0.020   0.330  0.3760 -0.1347  0.4353
 1432TIP3    H1 4302   0.568   0.025   0.272 -0.5914 -1.6935  1.4961
 1432TIP3    H2 4303   0.711  -0.025   0.279  0.7769  1.5772 -0.6392
 1433TIP3   OH2 4304   1.957   4.450   3.185  0.1045  0.2383  0.2355
 1433TIP3    H1 4305   1.881   4.455   3.242  0.2610 -0.2655  0.4954
 1433TIP3    H2 4306   2.013   4.522   3.213 -0.3592  0.7398 -0.0926
 1434TIP3   OH2 4307   2.982   3.244   3.768  0.3090 -0.4530 -0.1359
 1434TIP3    H1 4308   3.003   3.274   3.857 -1.3959 -0.1372  0.2040
 1434TIP3    H2 4309   2.967   3.325   3.719  0.0346 -0.6492 -0.3779
 1435TIP3   OH2 4310   4.047   1.933   4.352  0.0216  0.2783 -0.0108
 1435TIP3    H1 4311   3.960   1.973   4.346 -0.9153 -1.7869 -1.6886
 1435TIP3    H2 4312   4.030   1.842   4.378  1.3490 -0.8875 -2.8114
 1436TIP3   OH2 4313   6.060   5.935   0.308 -0.4362 -0.8585 -0.0051
 1436TIP3    H1 4314   6.028   6.014   0.265 -1.1774 -0.4799  1.1852
 1436TIP3    H2 4315   6.091   5.879   0.237 -0.1525  0.3803 -0.8944
 1437TIP3   OH2 4316   1.384   2.822   0.680  0.1743 -0.9031  0.1565
 1437TIP3    H1 4317   1.423   2.820   0.768  0.1483 -1.8865  0.1533
 1437TIP3    H2 4318   1.303   2.772   0.689  1.5720 -3.6399 -1.0591
 1438TIP3   OH2 4319   1.263   0.412   2.356  0.1358 -0.5542  0.2636
 1438TIP3    H1 4320   1.319   0.337   2.376  4.3018  2.1980  0.1074
 1438TIP3    H2 4321   1.235   0.444   2.442  0.9215 -0.5670  0.5361
 1439TIP3   OH2 4322   2.876   1.448   3.135  0.0748 -0.7593  0.5160
 1439TIP3    H1 4323   2.960   1.488   3.158 -0.2640  0.3264 -0.0437
 1439TIP3    H2 4324   2.844   1.409   3.217 -0.7710  2.3620  1.8318
 1440TIP3   OH2 4325   2.676   5.290   1.965 -0.3148  0.3041  0.5795
 1440TIP3    H1 4326   2.668   5.228   2.038 -2.4343 -2.4764 -1.7785
 1440TIP3    H2 4327   2.761   5.271   1.927  0.0468  0.5448  1.2415
 1441TIP3   OH2 4328   1.676   0.533   0.355  0.4160 -0.1368  0.2390
 1441TIP3    H1 4329   1.651   0.441   0.339 -1.2947  0.3422 -0.0255
 1441TIP3    H2 4330   1.629   0.557   0.434 -0.2597  0.9206 -0.4699
 1442TIP3   OH2 4331   0.109   3.484   4.015 -0.1660  0.1009 -0.7606
 1442TIP3    H1 4332   0.083   3.493   4.107  0.9355 -1.0236 -0.2976
 1442TIP3    H2 4333   0.056   3.411   3.982 -0.4744  0.4265 -0.9979
 1443TIP3   OH2 4334   2.316   2.396   4.843  0.7079  0.0583  0.2310
 1443TIP3    H1 4335   2.339   2.307   4.871 -1.3063 -0.7542 -0.5429
 1443TIP3    H2 4336   2.332   2.449   4.921 -2.1036 -1.7032  2.2415
 1444TIP3   OH2 4337   1.637   0.442   0.970  0.4605  0.1503 -0.1995
 1444TIP3    H1 4338   1.695   0.476   0.902  0.7135  1.3813  0.5927
 1444TIP3    H2 4339   1.602   0.361   0.934  1.8055 -0.0368 -1.1480
 1445TIP3   OH2 4340   5.169   1.815   4.016 -0.0945  0.6322 -0.0480
 1445TIP3    H1 4341   5.177   1.901   4.058 -0.9332  0.2164  0.9892
 1445TIP3    H2 4342   5.142   1.835   3.926 -0.3353  1.4484  0.2004
 1446TIP3   OH2 4343   5.365   3.964   3.749  0.3543  0.2745 -0.2386
 1446TIP3    H1 4344   5.406   4.013   3.821 -0.1863 -1.2755  1.2006
 1446TIP3    H2 4345   5.271   3.967   3.767  0.2485 -0.5620 -0.5683
 1447TIP3   OH2 4346   5.286   0.660   4.282  0.0618  0.3660  0.1069
 1447TIP3    H1 4347   5.228   0.613   4.342  0.1617 -0.9892 -0.8134
 1447TIP3    H2 4348   5.369   0.612   4.286  1.3940  2.5593  1.7924
 1448TIP3   OH2 4349   3.320   3.390   2.304 -0.3388  0.3093 -0.4201
 1448TIP3    H1 4350   3.299   3.483   2.309  0.4058  0.4568  0.0204
 1448TIP3    H2 4351   3.246   3.347   2.348 -0.5553  0.7013 -0.3954
 1449TIP3   OH2 4352   5.945   5.481   0.839  0.0997  0.2687 -0.1818
 1449TIP3    H1 4353   5.853   5.505   0.850  0.1001 -0.1001  0.7968
 1449TIP3    H2 4354   5.992   5.564   0.841  0.0749  0.3336  2.8262
 1450TIP3   OH2 4355   2.135   4.647   4.295  0.3132  0.0994 -0.1762
 1450TIP3    H1 4356   2.045   4.641   4.326  0.4221 -1.4463 -0.0711
 1450TIP3    H2 4357   2.127   4.655   4.200  0.0505 -1.3869 -0.3071
 1451TIP3   OH2 4358   2.160   5.187   4.457  0.0081 -0.4583 -0.6499
 1451TIP3    H1 4359   2.179   5.130   4.531 -1.0406  0.4246  0.3218
 1451TIP3    H2 4360   2.246   5.201   4.416  0.8905  0.2458  1.2899
 1452TIP3   OH2 4361   4.203   4.188   2.275 -0.0169 -0.0100 -0.0757
 1452TIP3    H1 4362   4.227   4.184   2.368 -1.9500 -2.3968  0.4379
 1452TIP3    H2 4363   4.107   4.188   2.276 -0.0772 -0.9425 -2.0736
 1453TIP3   OH2 4364   5.065   0.755   5.183  0.2431 -0.1507  0.4865
 1453TIP3    H1 4365   5.084   0.832   5.128  1.4059  0.4882  1.7324
 1453TIP3    H2 4366   5.121   0.686   5.147  1.6938  0.5120  1.3627
 1454TIP3   OH2 4367   5.009   2.576   2.902  0.5627 -0.0401 -0.4689
 1454TIP3    H1 4368   5.065   2.606   2.974  1.8440 -0.3380 -1.2929
 1454TIP3    H2 4369   4.953   2.651   2.883  0.8568  0.3726  0.2214
 1455TIP3   OH2 4370   5.672   1.164   2.612 -0.0251  0.0759  0.3468
 1455TIP3    H1 4371   5.649   1.178   2.520  1.2704 -1.2458 -0.2188
 1455TIP3    H2 4372   5.694   1.251   2.645 -1.5182  0.7281 -0.2789
 1456TIP3   OH2 4373   4.571   1.405   3.639  0.9305 -0.1580 -0.6507
 1456TIP3    H1 4374   4.562   1.322   3.686 -0.1279 -0.9650 -2.2018
 1456TIP3    H2 4375   4.481   1.429   3.617  1.0887  2.0196  0.7386
 1457TIP3   OH2 4376   4.631   1.890   3.021 -0.0863  0.8108 -0.1347
 1457TIP3    H1 4377   4.612   1.934   2.938 -0.5176  2.8784  0.9933
 1457TIP3    H2 4378   4.570   1.929   3.084 -0.4536 -1.3936  1.0039
 1458TIP3   OH2 4379   0.587   2.018   2.971 -0.2060 -0.0305  0.3718
 1458TIP3    H1 4380   0.532   1.982   3.040  0.1397 -0.2360  0.5461
 1458TIP3    H2 4381   0.545   1.992   2.889 -0.7868  0.4729  0.5029
 1459TIP3   OH2 4382   6.289   5.473   0.755  0.5942 -0.2901  0.4661
 1459TIP3    H1 4383   6.227   5.492   0.826 -1.1525 -1.4970 -0.6446
 1459TIP3    H2 4384   6.350   5.546   0.756  0.0282  0.2197  2.5615
 1460TIP3   OH2 4385   3.995   5.146   2.952  0.2318  0.2189  0.0629
 1460TIP3    H1 4386   4.062   5.085   2.983  0.8998  1.0750  0.3434
 1460TIP3    H2 4387   3.967   5.192   3.031 -1.0672 -0.4891  0.0304
 1461TIP3   OH2 4388   4.799   2.625   0.846 -0.0846  0.2142  0.7907
 1461TIP3    H1 4389   4.893   2.640   0.857 -0.1620  2.1524 -0.6533
 1461TIP3    H2 4390   4.761   2.651   0.930  0.4997  1.7106  0.6360
 1462TIP3   OH2 4391   3.787   5.147   2.491 -0.6374  0.0408  0.2250
 1462TIP3    H1 4392   3.794   5.171   2.583 -1.4013 -1.3503  0.6735
 1462TIP3    H2 4393   3.699   5.176   2.465 -0.2220  0.9310 -0.2428
 1463TIP3   OH2 4394  -0.008   5.727   3.939  0.5777  0.1285 -0.2477
 1463TIP3    H1 4395   0.078   5.692   3.917  2.0249  1.9905  1.9660
 1463TIP3    H2 4396   0.007   5.780   4.017 -2.7616 -0.1708  0.7581
 1464TIP3   OH2 4397   3.542   2.893   1.880  0.2898  1.0471  0.2967
 1464TIP3    H1 4398   3.464   2.899   1.935 -0.0211  0.3366 -0.0525
 1464TIP3    H2 4399   3.610   2.858   1.938 -0.6430 -2.0640 -0.2823
 1465TIP3   OH2 4400   2.309   4.428   1.368  0.1026 -0.3499  0.4474
 1465TIP3    H1 4401   2.260   4.492   1.316  1.8912  0.7101  0.0168
 1465TIP3    H2 4402   2.287   4.449   1.459  0.2351  0.5228  0.2877
 1466TIP3   OH2 4403   2.382   5.309   1.371  0.3729  0.6860  0.3627
 1466TIP3    H1 4404   2.349   5.315   1.461 -0.8135 -1.5745  0.1354
 1466TIP3    H2 4405   2.304   5.319   1.316  0.6237 -0.7541 -0.3127
 1467TIP3   OH2 4406   5.264   1.417   3.947 -0.4446  0.3802 -0.2662
 1467TIP3    H1 4407   5.324   1.415   4.021 -2.0431  0.2789  1.0642
 1467TIP3    H2 4408   5.267   1.508   3.916 -0.3675  0.6155  0.4223
 1468TIP3   OH2 4409   4.695   5.754   1.789  0.2088 -0.0134 -0.3808
 1468TIP3    H1 4410   4.778   5.747   1.836 -0.0385  0.8922  0.2176
 1468TIP3    H2 4411   4.710   5.822   1.723 -0.2547  0.6621  0.1951
 1469TIP3   OH2 4412   2.655   2.217   3.716 -0.0119  0.0062 -0.2826
 1469TIP3    H1 4413   2.704   2.299   3.720  1.5811 -0.8885 -0.4313
 1469TIP3    H2 4414   2.570   2.237   3.755  0.0879  1.8803 -0.9406
 1470TIP3   OH2 4415   4.269   1.201   1.530 -0.0651  0.2345  0.1101
 1470TIP3    H1 4416   4.250   1.295   1.529 -1.4691 -0.0364 -0.1910
 1470TIP3    H2 4417   4.208   1.165   1.594  0.3070 -0.5197  0.0527
 1471TIP3   OH2 4418   0.789   2.437   1.367 -0.1977  0.2693  0.4656
 1471TIP3    H1 4419   0.820   2.466   1.452  1.8023  2.7414 -0.9775
 1471TIP3    H2 4420   0.826   2.349   1.357  0.0858  0.2108  1.8594
 1472TIP3   OH2 4421   5.272   2.304   2.211 -0.1146  0.0532 -0.0376
 1472TIP3    H1 4422   5.333   2.373   2.239  0.5127 -0.7186  0.5373
 1472TIP3    H2 4423   5.236   2.269   2.293 -1.9399  0.9938 -0.3790
 1473TIP3   OH2 4424   3.358   3.504   3.067 -0.7273  0.1655  0.0441
 1473TIP3    H1 4425   3.393   3.417   3.048  0.4980  0.6834 -0.1211
 1473TIP3    H2 4426   3.273   3.505   3.023  0.8093  0.3596 -3.2078
 1474TIP3   OH2 4427   4.727   2.460   3.267 -0.6429  0.4526  0.0843
 1474TIP3    H1 4428   4.813   2.425   3.245 -0.7329 -0.0396  0.4921
 1474TIP3    H2 4429   4.717   2.537   3.211 -0.2036  0.1489 -0.4182
 1475TIP3   OH2 4430   5.698   1.766   2.841 -0.3111  0.0119 -0.0447
 1475TIP3    H1 4431   5.706   1.851   2.798  1.3766  0.0868  0.3413
 1475TIP3    H2 4432   5.731   1.703   2.777  2.2401  0.1256  1.0242
 1476TIP3   OH2 4433   5.360   5.694   1.773 -0.2382  0.2033  0.4464
 1476TIP3    H1 4434   5.306   5.632   1.724 -0.0881 -0.6175  1.2828
 1476TIP3    H2 4435   5.430   5.718   1.712 -1.0854  0.6659 -0.3693
 1477TIP3   OH2 4436   5.100   4.464   4.292 -0.1146  0.1787  0.1440
 1477TIP3    H1 4437   5.060   4.410   4.223  1.0018 -0.0151 -0.3739
 1477TIP3    H2 4438   5.028   4.518   4.325 -0.8658 -0.3777 -0.5503
 1478TIP3   OH2 4439   1.374   0.534   0.766 -0.5021 -0.0779  0.4688
 1478TIP3    H1 4440   1.281   0.549   0.749 -0.4429  0.1706  0.3608
 1478TIP3    H2 4441   1.388   0.568   0.854 -1.0699 -2.4375  1.5740
 1479TIP3   OH2 4442   4.365   2.830   2.267 -0.1057  0.5435 -0.3354
 1479TIP3    H1 4443   4.276   2.840   2.234  0.2720  1.0912 -1.2104
 1479TIP3    H2 4444   4.375   2.902   2.330 -0.9791 -0.7697  1.3838
 1480TIP3   OH2 4445   2.038   5.559   0.511  0.8130 -0.3020  0.3114
 1480TIP3    H1 4446   2.094   5.519   0.445  0.6125  0.4513 -0.3287
 1480TIP3    H2 4447   2.083   5.640   0.535 -0.4291  0.7952 -0.9017
 1481TIP3   OH2 4448   1.787   3.187   0.419 -0.2444 -0.5902 -0.3125
 1481TIP3    H1 4449   1.858   3.143   0.373  0.9977  0.6075  0.3908
 1481TIP3    H2 4450   1.714   3.185   0.357  1.1318  0.2964 -2.0668
 1482TIP3   OH2 4451   0.162   0.551   3.117 -0.1732 -0.5985  0.4911
 1482TIP3    H1 4452   0.070   0.572   3.105  0.1972  0.0533 -1.6005
 1482TIP3    H2 4453   0.200   0.630   3.155 -0.4092 -0.7541  1.0578
 1483TIP3   OH2 4454   1.140   2.738   4.478  0.1038  0.1925  0.2317
 1483TIP3    H1 4455   1.131   2.739   4.574 -0.6268 -1.0691  0.1972
 1483TIP3    H2 4456   1.053   2.758   4.445  0.7828  2.7225 -0.2231
 1484TIP3   OH2 4457   4.334   2.424   2.132  0.6699  0.1910  0.0427
 1484TIP3    H1 4458   4.326   2.481   2.209 -1.5195  0.6533 -0.4612
 1484TIP3    H2 4459   4.338   2.485   2.058  0.9560 -0.2730 -0.3273
 1485TIP3   OH2 4460   2.708   4.190   2.803  0.2019  0.5017  0.1738
 1485TIP3    H1 4461   2.632   4.248   2.799 -0.9509 -0.7813  1.7526
 1485TIP3    H2 4462   2.776   4.235   2.753 -1.4797  1.8639 -0.9936
 1486TIP3   OH2 4463   3.936   0.739   0.630 -0.2157 -0.7619 -0.0549
 1486TIP3    H1 4464   4.007   0.792   0.595  0.6994 -3.2708 -2.2983
 1486TIP3    H2 4465   3.960   0.724   0.722  0.0528  1.6493  0.3303
 1487TIP3   OH2 4466   6.187   3.839   4.529 -0.4748 -0.0363  0.0567
 1487TIP3    H1 4467   6.156   3.793   4.606 -0.9551  2.8062  1.6981
 1487TIP3    H2 4468   6.280   3.856   4.547 -0.3553 -0.1508 -0.4269
 1488TIP3   OH2 4469   2.646   4.505   1.051  0.0447 -0.0435 -0.4050
 1488TIP3    H1 4470   2.635   4.537   0.962 -0.8454 -1.1747 -0.7227
 1488TIP3    H2 4471   2.681   4.416   1.040  1.6199  0.4214  0.4311
 1489TIP3   OH2 4472   0.726   5.089   0.785  0.4132  0.0461 -0.5254
 1489TIP3    H1 4473   0.653   5.108   0.845  0.2262 -1.6358 -0.1903
 1489TIP3    H2 4474   0.805   5.103   0.838  0.3300  0.8295 -0.5866
 1490TIP3   OH2 4475   2.671   1.544   3.499  0.1744  0.3712 -0.0397
 1490TIP3    H1 4476   2.577   1.539   3.481  0.1351 -1.7692  0.4408
 1490TIP3    H2 4477   2.709   1.471   3.449  0.8703 -1.9054  3.4209
 1491TIP3   OH2 4478   0.464   0.443   4.257  0.2424 -0.2890  0.2019
 1491TIP3    H1 4479   0.540   0.467   4.204  0.7587 -1.7445  0.2640
 1491TIP3    H2 4480   0.461   0.511   4.325  0.7136  0.5006 -0.5319
 1492TIP3   OH2 4481   0.895   1.161   2.364 -0.4258 -0.5037 -0.5766
 1492TIP3    H1 4482   0.861   1.216   2.294 -1.4950  1.4925  1.4177
 1492TIP3    H2 4483   0.819   1.142   2.420  0.8796  0.5366  1.6858
 1493TIP3   OH2 4484   6.125   4.045   1.237  0.2799 -0.2220  0.7399
 1493TIP3    H1 4485   6.090   4.134   1.235  1.5581  0.3065  0.7179
 1493TIP3    H2 4486   6.089   4.007   1.318  0.6391  0.7172  1.3666
 1494TIP3   OH2 4487   3.289   1.036   2.135 -0.0745  0.0343 -0.0461
 1494TIP3    H1 4488   3.324   1.124   2.145  0.3102 -0.0665 -0.5001
 1494TIP3    H2 4489   3.360   0.986   2.095 -0.0127 -0.6746  0.9277
 1495TIP3   OH2 4490   4.266   0.365   4.890 -0.3399 -0.1827  0.1905
 1495TIP3    H1 4491   4.220   0.368   4.806  0.1370 -0.7478 -0.0889
 1495TIP3    H2 4492   4.357   0.386   4.869 -0.1341 -0.7641  0.5052
 1496TIP3   OH2 4493   1.488   0.193   1.227  0.2937 -0.7484 -0.6419
 1496TIP3    H1 4494   1.442   0.261   1.179 -0.3153  0.1303  1.1098
 1496TIP3    H2 4495   1.425   0.121   1.233  0.0260 -0.4965 -0.3784
 1497TIP3   OH2 4496   4.729   4.977   3.903  0.0302 -0.4780 -0.0829
 1497TIP3    H1 4497   4.781   4.927   3.839  0.2110  0.0924 -0.3894
 1497TIP3    H2 4498   4.654   4.920   3.923  0.3625 -0.9754 -0.2359
 1498TIP3   OH2 4499   1.041   1.501   1.670 -0.6074 -0.2045 -0.0058
 1498TIP3    H1 4500   1.088   1.576   1.633 -0.6755  0.0408  0.4077
 1498TIP3    H2 4501   1.019   1.527   1.759 -0.9480 -0.5765  0.0234
 1499TIP3   OH2 4502   0.753   0.084   4.126 -0.3411  0.0036  0.0245
 1499TIP3    H1 4503   0.780   0.146   4.194  0.8591 -0.9224  0.4194
 1499TIP3    H2 4504   0.668   0.052   4.156  0.5661 -1.0765  1.6069
 1500TIP3   OH2 4505   1.728   5.602   2.536  0.2147  0.4358  0.4908
 1500TIP3    H1 4506   1.656   5.661   2.519 -0.4633 -0.4215  0.3143
 1500TIP3    H2 4507   1.799   5.633   2.481 -0.6633  0.0977 -0.8769
 1501TIP3   OH2 4508   0.443   4.276   4.166 -0.1467 -0.3362 -0.0356
 1501TIP3    H1 4509   0.351   4.282   4.141 -0.0824  0.4602 -0.0932
 1501TIP3    H2 4510   0.453   4.338   4.238  0.8192  1.2593 -1.4575
 1502TIP3   OH2 4511   1.552   0.258   0.401 -0.3442  0.2949 -0.5620
 1502TIP3    H1 4512   1.480   0.278   0.461  0.1804  0.0081  0.1896
 1502TIP3    H2 4513   1.532   0.170   0.369 -0.8645  0.6321 -1.1724
 1503TIP3   OH2 4514   5.735   0.056   1.884 -0.3883  0.0091 -0.2446
 1503TIP3    H1 4515   5.770   0.059   1.795 -2.2314 -0.6984 -1.0377
 1503TIP3    H2 4516   5.762   0.139   1.923  1.2945 -0.0875 -1.0982
 1504TIP3   OH2 4517   2.879   4.962   0.024  0.4173  0.4743  0.3706
 1504TIP3    H1 4518   2.830   5.033   0.065  0.4738 -0.1857  1.6421
 1504TIP3    H2 4519   2.814   4.917  -0.030 -0.2786 -0.0565  1.6027
 1505TIP3   OH2 4520   1.534   0.636   4.928  0.6533  0.3636 -0.3388
 1505TIP3    H1 4521   1.567   0.606   5.012  0.1407  2.2410  0.5809
 1505TIP3    H2 4522   1.601   0.696   4.896 -0.0411  1.1542 -0.3328
 1506TIP3   OH2 4523   3.952   1.388   2.041  0.3724  0.1441  1.1840
 1506TIP3    H1 4524   3.960   1.293   2.054 -0.6132  0.1397  1.8714
 1506TIP3    H2 4525   4.033   1.423   2.079  1.4928 -0.5041 -0.4770
 1507TIP3   OH2 4526   2.180   1.831   1.789  0.5235  0.4270  0.0575
 1507TIP3    H1 4527   2.164   1.762   1.726 -0.6849 -0.1915  0.9930
 1507TIP3    H2 4528   2.231   1.789   1.858  1.3663  0.9566 -0.2285
 1508TIP3   OH2 4529   1.694   1.546   4.149 -0.8493  0.5154 -0.3786
 1508TIP3    H1 4530   1.645   1.470   4.181 -0.4441 -0.1985 -1.4023
 1508TIP3    H2 4531   1.783   1.533   4.182 -0.2060 -0.6790 -2.3856
 1509TIP3   OH2 4532   0.963   3.699   4.287  0.4745 -0.3156 -0.3417
 1509TIP3    H1 4533   1.001   3.766   4.345 -0.2886  0.1412 -0.3491
 1509TIP3    H2 4534   1.020   3.699   4.210  1.2368 -0.6078  0.2095
 1510TIP3   OH2 4535   4.878   0.854   1.738  0.0864  0.3536 -0.6543
 1510TIP3    H1 4536   4.816   0.792   1.698  0.1161 -0.9851  1.2263
 1510TIP3    H2 4537   4.832   0.887   1.815  0.7341  1.3701 -0.6975
 1511TIP3   OH2 4538   1.808   5.144   2.030  0.1837 -0.0546  0.0735
 1511TIP3    H1 4539   1.902   5.127   2.020  0.1796 -0.8239  1.1922
 1511TIP3    H2 4540   1.768   5.058   2.038 -0.6325  0.2637 -0.3800
 1512TIP3   OH2 4541   0.410   1.690   3.315 -0.2347 -0.2450  0.4216
 1512TIP3    H1 4542   0.476   1.662   3.378 -1.0055 -0.1509  1.2867
 1512TIP3    H2 4543   0.391   1.612   3.264 -0.2227 -0.5427  0.8679
 1513TIP3   OH2 4544   4.965   2.067   3.431 -0.1721 -0.5661  0.0732
 1513TIP3    H1 4545   5.043   2.013   3.433  0.9071  0.9427  0.5705
 1513TIP3    H2 4546   4.961   2.100   3.341  0.0452 -0.2698  0.1697
 1514TIP3   OH2 4547   1.799   2.988   0.031  0.0659  0.1057  0.6193
 1514TIP3    H1 4548   1.714   2.943   0.021  0.1999  0.1682 -0.9560
 1514TIP3    H2 4549   1.858   2.920   0.065 -0.4801 -0.0601  1.2729
 1515TIP3   OH2 4550   5.514   0.629   1.096  1.0999  0.0562 -0.2776
 1515TIP3    H1 4551   5.581   0.695   1.080  3.0862 -1.6915  0.3329
 1515TIP3    H2 4552   5.484   0.604   1.008  3.1275 -0.9102 -0.7533
 1516TIP3   OH2 4553   4.771   0.167   1.455  0.4903  0.1319 -0.1113
 1516TIP3    H1 4554   4.814   0.082   1.456  1.3929  0.5757 -0.8680
 1516TIP3    H2 4555   4.841   0.230   1.438 -0.0826  1.0836  0.9138
 1517TIP3   OH2 4556   5.810   2.416   5.035  0.5714  0.3890 -0.3848
 1517TIP3    H1 4557   5.773   2.429   5.122  2.0558  1.4612  0.1360
 1517TIP3    H2 4558   5.781   2.492   4.984 -2.0195 -1.2342 -1.5340
 1518TIP3   OH2 4559   0.561   1.745   0.114 -0.2824 -0.0836  0.4779
 1518TIP3    H1 4560   0.528   1.814   0.171 -1.1150 -0.4744  0.4870
 1518TIP3    H2 4561   0.611   1.688   0.172  1.2439  1.0097  0.2997
 1519TIP3   OH2 4562   5.741   0.136   3.725 -0.7892  0.6068  0.5992
 1519TIP3    H1 4563   5.658   0.183   3.725 -0.0593  2.0452 -1.4865
 1519TIP3    H2 4564   5.756   0.114   3.633  0.0141 -1.7810  1.2283
 1520TIP3   OH2 4565   1.570   5.336   1.792 -0.1854 -0.6044  0.1739
 1520TIP3    H1 4566   1.655   5.296   1.810 -0.2160 -0.9596 -0.4596
 1520TIP3    H2 4567   1.508   5.263   1.789 -0.0891 -0.6458 -1.9277
 1521TIP3   OH2 4568   5.260   5.961   0.574 -0.3187  0.0322 -0.0944
 1521TIP3    H1 4569   5.256   5.976   0.668 -1.2241 -0.8397  0.0209
 1521TIP3    H2 4570   5.269   5.866   0.565 -1.8687 -0.0758 -0.9035
 1522TIP3   OH2 4571   0.918   1.460   4.572 -0.1658 -0.0802  0.3671
 1522TIP3    H1 4572   0.986   1.415   4.622 -0.0320 -1.0785 -0.6743
 1522TIP3    H2 4573   0.845   1.398   4.570 -0.5643  0.3905  0.2476
 1523TIP3   OH2 4574   1.465   2.173   3.180 -0.5984 -0.0104  0.5528
 1523TIP3    H1 4575   1.519   2.115   3.233  0.0828  0.4982  0.4326
 1523TIP3    H2 4576   1.417   2.226   3.243  1.0506  1.3723  0.7131
 1524TIP3   OH2 4577   4.700   4.203   1.667 -0.5384 -0.7309 -0.1042
 1524TIP3    H1 4578   4.734   4.190   1.755 -1.1998  0.2947  0.3248
 1524TIP3    H2 4579   4.626   4.143   1.661 -4.1108  2.8915  2.1625
 1525TIP3   OH2 4580   2.950   0.551   2.454  0.2000 -0.1769  0.2317
 1525TIP3    H1 4581   2.935   0.645   2.464 -1.9802 -0.1841 -1.8800
 1525TIP3    H2 4582   3.011   0.544   2.380  1.8596 -0.4307  1.5817
 1526TIP3   OH2 4583   4.240   4.990   3.562  0.4520 -0.0017  0.1021
 1526TIP3    H1 4584   4.213   5.031   3.643  1.2266  1.1491 -0.1950
 1526TIP3    H2 4585   4.260   4.900   3.586 -2.4215 -0.6151  0.5400
 1527TIP3   OH2 4586   1.845   1.019   1.265  0.2930  0.2355 -0.1160
 1527TIP3    H1 4587   1.815   1.042   1.177  0.5734 -1.1319 -0.5808
 1527TIP3    H2 4588   1.779   0.958   1.298  0.7896 -0.1492  0.1732
 1528TIP3   OH2 4589   5.674   5.398   1.155  0.3924  0.9465 -0.5668
 1528TIP3    H1 4590   5.706   5.350   1.078  0.7871 -1.1954  0.8589
 1528TIP3    H2 4591   5.580   5.384   1.155  0.7747 -2.9572  1.6663
 1529TIP3   OH2 4592   5.837   5.122   1.901  0.0554 -0.3458  0.4318
 1529TIP3    H1 4593   5.920   5.150   1.863 -1.4131  1.4267 -1.7174
 1529TIP3    H2 4594   5.797   5.066   1.834 -0.9856 -0.2165  0.9157
 1530TIP3   OH2 4595   1.069   5.487   2.108 -1.1056 -0.6353 -0.1727
 1530TIP3    H1 4596   1.006   5.557   2.125 -0.5714  0.2140 -1.5369
 1530TIP3    H2 4597   1.031   5.409   2.150 -2.2344  0.2192  0.4405
 1531TIP3   OH2 4598   0.620   5.628   3.809  0.7108  0.4298 -0.5524
 1531TIP3    H1 4599   0.547   5.586   3.765  1.4872 -1.6121 -0.0095
 1531TIP3    H2 4600   0.595   5.631   3.901  0.8306  0.8118 -0.5284
 1532TIP3   OH2 4601   4.273   2.450   1.843 -0.1778  0.0634 -0.7667
 1532TIP3    H1 4602   4.308   2.378   1.791  0.9785  1.4953 -2.0635
 1532TIP3    H2 4603   4.182   2.458   1.814  0.4020  0.7258 -2.5049
 1533TIP3   OH2 4604   3.155   2.680   4.325 -0.5488  0.2229  0.5359
 1533TIP3    H1 4605   3.109   2.764   4.326  2.1505  1.8219  0.3077
 1533TIP3    H2 4606   3.194   2.675   4.237 -0.6373 -1.2676  0.5621
 1534TIP3   OH2 4607   4.303   4.502   0.864 -1.0973  0.5915 -0.8666
 1534TIP3    H1 4608   4.214   4.536   0.854 -1.2404  0.3515 -0.4554
 1534TIP3    H2 4609   4.324   4.517   0.956 -1.9988 -2.3195 -0.0521
 1535TIP3   OH2 4610   3.008   4.111   2.128 -0.0942  0.1215  0.3082
 1535TIP3    H1 4611   3.098   4.095   2.157 -0.5767 -3.7817  0.1545
 1535TIP3    H2 4612   2.959   4.127   2.208  0.1710 -1.4120  0.8102
 1536TIP3   OH2 4613   5.572   4.270   5.163 -0.7350  0.3275 -0.1136
 1536TIP3    H1 4614   5.528   4.355   5.158 -0.7691  0.2881 -0.5049
 1536TIP3    H2 4615   5.511   4.208   5.123 -1.0599 -0.0248  0.9046
 1537TIP3   OH2 4616   0.987   0.735   1.107  0.3074  0.5354  0.1899
 1537TIP3    H1 4617   1.062   0.759   1.052 -0.4989  0.6379 -0.9137
 1537TIP3    H2 4618   0.944   0.819   1.125  1.2650  0.6666  2.0948
 1538TIP3   OH2 4619   0.132   3.781   3.866  0.5731  0.5277  0.3340
 1538TIP3    H1 4620   0.120   3.853   3.927 -0.6291  0.7460 -0.1276
 1538TIP3    H2 4621   0.191   3.721   3.910 -1.2088  0.0817  2.2564
 1539TIP3   OH2 4622   0.951   5.968   0.953 -0.2699 -0.1510 -0.5152
 1539TIP3    H1 4623   0.885   5.922   1.004 -0.3119 -0.5480 -0.9180
 1539TIP3    H2 4624   0.960   6.053   0.996 -1.4949  0.1488 -0.8332
 1540TIP3   OH2 4625   3.007   2.861   1.694  0.0912 -0.1679  0.7948
 1540TIP3    H1 4626   3.033   2.839   1.604 -0.4768 -1.3024  0.8934
 1540TIP3    H2 4627   3.063   2.936   1.717  0.8474 -0.4031 -0.1955
 1541TIP3   OH2 4628   2.271   2.720   1.451 -0.3548 -0.3468  0.8440
 1541TIP3    H1 4629   2.179   2.746   1.450 -1.0025 -2.3514  2.1392
 1541TIP3    H2 4630   2.310   2.771   1.522 -0.1468  1.3140 -0.4049
 1542TIP3   OH2 4631   0.233   1.474   3.167  0.0506 -0.4834  0.1321
 1542TIP3    H1 4632   0.303   1.474   3.102 -0.9235 -2.9526 -1.0441
 1542TIP3    H2 4633   0.171   1.540   3.136  0.2909 -0.6257 -0.6707
 1543TIP3   OH2 4634   0.518   2.513   2.205  0.0250  0.4225  0.3707
 1543TIP3    H1 4635   0.436   2.522   2.254  0.3279  2.3346  0.5759
 1543TIP3    H2 4636   0.558   2.434   2.240 -1.0824  0.2158  1.2211
 1544TIP3   OH2 4637   5.146   2.298   0.586  0.1916 -0.2086  0.4837
 1544TIP3    H1 4638   5.206   2.261   0.652 -0.0489  1.8367  1.9450
 1544TIP3    H2 4639   5.141   2.391   0.608 -0.7368  0.3507 -1.8316
 1545TIP3   OH2 4640   1.972   1.103   4.857 -0.1533 -0.3726  0.1779
 1545TIP3    H1 4641   1.944   1.188   4.893  0.8889 -0.3710  1.0635
 1545TIP3    H2 4642   1.898   1.072   4.806 -0.7320  0.8523  0.2464
 1546TIP3   OH2 4643   3.069   4.545   4.904  0.0808  0.2164 -0.6449
 1546TIP3    H1 4644   3.085   4.454   4.929 -0.3307  0.5532  0.9881
 1546TIP3    H2 4645   2.975   4.558   4.921  0.1556  0.9747 -0.7607
 1547TIP3   OH2 4646   4.653   0.895   0.831 -0.2800 -0.0375 -0.3035
 1547TIP3    H1 4647   4.678   0.889   0.923  1.8511 -0.0734 -0.8402
 1547TIP3    H2 4648   4.698   0.973   0.798  0.7837 -1.1976 -1.7898
 1548TIP3   OH2 4649   2.313   5.904   3.518  0.7588  0.0275 -0.3060
 1548TIP3    H1 4650   2.326   5.869   3.430  0.9193 -1.8794  0.4312
 1548TIP3    H2 4651   2.236   5.858   3.551  1.3799 -0.1591  0.9475
 1549TIP3   OH2 4652   5.342   0.914   2.775 -0.0453 -0.0678 -0.1675
 1549TIP3    H1 4653   5.384   0.999   2.792 -0.3870  0.3032 -1.1247
 1549TIP3    H2 4654   5.256   0.937   2.739  0.7377 -0.7869 -2.6902
 1550TIP3   OH2 4655   4.336   4.042   2.932 -0.3914 -0.0698  0.3713
 1550TIP3    H1 4656   4.249   4.076   2.912  0.3200  2.0475  0.6625
 1550TIP3    H2 4657   4.321   3.974   2.998 -1.9772 -1.2509 -1.1257
 1551TIP3   OH2 4658   4.546   2.202   1.390 -0.3456  0.0515 -0.8021
 1551TIP3    H1 4659   4.630   2.202   1.344  0.0374  1.3521 -0.1414
 1551TIP3    H2 4660   4.488   2.253   1.333 -0.2578  0.4623 -0.5262
 1552TIP3   OH2 4661   3.018   0.946   3.478 -0.1515  0.0036 -0.2375
 1552TIP3    H1 4662   3.065   0.879   3.528  2.0124  0.0257 -2.0536
 1552TIP3    H2 4663   3.047   1.029   3.516 -1.1601 -0.0064  0.6087
 1553TIP3   OH2 4664   2.329   5.025   2.290  0.4208 -0.4161 -0.0177
 1553TIP3    H1 4665   2.287   4.954   2.338  1.4801  0.1754  1.8532
 1553TIP3    H2 4666   2.290   5.105   2.325 -0.5983  0.0032 -1.9463
 1554TIP3   OH2 4667   5.626   0.901   0.346  0.0417 -0.4019 -0.5916
 1554TIP3    H1 4668   5.566   0.945   0.407 -0.0388 -0.5230 -0.5813
 1554TIP3    H2 4669   5.569   0.866   0.278  0.0986 -0.5224 -0.5790
 1555TIP3   OH2 4670   3.797   4.700   1.449  0.0454 -0.0273  0.2063
 1555TIP3    H1 4671   3.831   4.678   1.362 -0.2128 -0.4730  0.2189
 1555TIP3    H2 4672   3.745   4.779   1.435 -3.2337 -2.1949 -0.7917
 1556TIP3   OH2 4673   4.532   0.265   3.990 -0.7737 -0.3724  0.4563
 1556TIP3    H1 4674   4.571   0.276   4.077 -0.8552  1.8750  0.2713
 1556TIP3    H2 4675   4.598   0.218   3.940 -0.0933 -0.3602  1.3146
 1557TIP3   OH2 4676   3.079   3.855   3.691  0.1195 -0.1094 -0.2686
 1557TIP3    H1 4677   3.082   3.949   3.711 -1.1195 -0.0399 -0.3238
 1557TIP3    H2 4678   2.999   3.825   3.733 -0.3798 -0.8061 -1.6793
 1558TIP3   OH2 4679   4.909   4.035   1.383 -0.3530 -0.1010 -0.1179
 1558TIP3    H1 4680   4.988   4.065   1.340 -1.1792  3.4265  0.5620
 1558TIP3    H2 4681   4.842   4.035   1.314 -0.7418  1.4229  0.2402
 1559TIP3   OH2 4682   6.179   1.603   4.109 -0.2242 -0.0280 -0.1973
 1559TIP3    H1 4683   6.261   1.652   4.102  0.3521 -0.9930 -0.3476
 1559TIP3    H2 4684   6.170   1.585   4.203 -0.0405 -0.2714 -0.2227
 1560TIP3   OH2 4685   4.050   5.777   4.703  0.9175 -0.4860 -0.1026
 1560TIP3    H1 4686   3.979   5.833   4.672  0.8943 -0.4122  0.0848
 1560TIP3    H2 4687   4.007   5.699   4.738  0.8323  0.1860  1.3598
 1561TIP3   OH2 4688   3.207   5.422   1.526 -0.3120 -0.1735 -0.3715
 1561TIP3    H1 4689   3.121   5.380   1.532  0.3019 -1.5803 -0.9491
 1561TIP3    H2 4690   3.244   5.414   1.614 -0.5079 -0.1391 -0.2855
 1562TIP3   OH2 4691   6.025   4.630   5.154 -0.3425 -0.1545  0.1131
 1562TIP3    H1 4692   6.102   4.658   5.103  0.2647 -0.8252  0.6411
 1562TIP3    H2 4693   6.045   4.540   5.179 -0.6223  0.1519  1.5285
 1563TIP3   OH2 4694   2.567   2.786   3.773 -0.6608 -0.6850  0.2950
 1563TIP3    H1 4695   2.542   2.760   3.862 -1.3373  0.0344  0.3228
 1563TIP3    H2 4696   2.626   2.860   3.785  0.8032 -1.7997  0.1956
 1564TIP3   OH2 4697   0.545   0.867   2.014  0.5149 -0.2492  0.4606
 1564TIP3    H1 4698   0.469   0.906   1.972  2.0907  1.0311 -1.3818
 1564TIP3    H2 4699   0.617   0.884   1.953  2.5551 -0.1440  2.7507
 1565TIP3   OH2 4700   2.750   5.852   3.455 -0.0484  0.4202 -0.1591
 1565TIP3    H1 4701   2.677   5.911   3.469 -1.5893 -1.2216 -0.9109
 1565TIP3    H2 4702   2.758   5.845   3.360  0.4338 -0.1945 -0.0814
 1566TIP3   OH2 4703   0.947   3.442   3.762 -0.2981 -0.2099  0.0857
 1566TIP3    H1 4704   1.036   3.421   3.792 -0.7391 -3.4569 -0.5128
 1566TIP3    H2 4705   0.960   3.487   3.678  0.7720 -0.3925  0.1338
 1567TIP3   OH2 4706   1.374   4.738   1.852 -0.1001  0.3807  0.0642
 1567TIP3    H1 4707   1.295   4.698   1.888 -0.8170  1.4981 -0.2146
 1567TIP3    H2 4708   1.412   4.670   1.796 -1.0003 -0.0861 -0.0004
 1568TIP3   OH2 4709   1.062   4.901   2.593  0.5199  0.1882  0.4369
 1568TIP3    H1 4710   1.083   4.929   2.682  2.0130  0.6142 -0.0246
 1568TIP3    H2 4711   1.134   4.843   2.568  0.0762  0.0074 -0.4701
 1569TIP3   OH2 4712   1.106   0.878   0.184 -0.3122 -0.0179  0.1329
 1569TIP3    H1 4713   1.091   0.847   0.273 -0.9015  0.8724  0.3535
 1569TIP3    H2 4714   1.198   0.860   0.167 -0.3290 -0.6993  0.7111
 1570TIP3   OH2 4715   3.472   2.383   3.907 -0.1949  0.0602 -0.0163
 1570TIP3    H1 4716   3.409   2.355   3.841  0.9953 -1.6642 -0.4878
 1570TIP3    H2 4717   3.435   2.351   3.990 -0.3128 -0.2785 -0.1967
 1571TIP3   OH2 4718   0.806   2.211   0.951  0.1478  0.7870 -0.0901
 1571TIP3    H1 4719   0.833   2.303   0.939 -0.3096  0.9430  0.0585
 1571TIP3    H2 4720   0.843   2.187   1.036 -2.0403  1.7179  1.2182
 1572TIP3   OH2 4721   2.151   4.792   1.697 -0.6303 -0.5406  0.5007
 1572TIP3    H1 4722   2.229   4.738   1.698 -1.6207 -2.0392  2.0131
 1572TIP3    H2 4723   2.088   4.745   1.752 -1.9382  1.5793  0.9489
 1573TIP3   OH2 4724   6.014   2.754   5.181 -0.2762  0.5474 -0.2625
 1573TIP3    H1 4725   5.939   2.716   5.226 -0.6566 -0.1921 -1.4593
 1573TIP3    H2 4726   5.977   2.791   5.100  0.6462  0.0492 -0.9378
 1574TIP3   OH2 4727   0.225   3.599   2.418  0.0776  0.3020  0.1883
 1574TIP3    H1 4728   0.193   3.688   2.401 -4.9805 -1.6925 -3.1972
 1574TIP3    H2 4729   0.184   3.575   2.501 -1.2578  0.2081 -0.4664
 1575TIP3   OH2 4730   3.857   5.173   0.247 -0.8988 -0.5403  0.9091
 1575TIP3    H1 4731   3.923   5.242   0.237 -0.7461 -0.7753  0.2174
 1575TIP3    H2 4732   3.902   5.093   0.219 -1.5993 -0.6320  0.0012
 1576TIP3   OH2 4733   3.600   5.912   0.596  0.3428  0.1356  0.2515
 1576TIP3    H1 4734   3.608   5.994   0.645  2.9515 -0.5473  1.1336
 1576TIP3    H2 4735   3.641   5.930   0.512 -2.2898  0.6975 -0.9995
 1577TIP3   OH2 4736   5.668   5.200   4.421  0.3612  0.7883  0.1161
 1577TIP3    H1 4737   5.623   5.126   4.460  2.8502 -1.1432 -0.4061
 1577TIP3    H2 4738   5.653   5.191   4.327  2.6055 -0.5511 -0.1769
 1578TIP3   OH2 4739   5.179   2.561   4.845  0.4939 -0.2818 -0.4544
 1578TIP3    H1 4740   5.176   2.655   4.833 -0.3352 -0.4329 -1.5214
 1578TIP3    H2 4741   5.273   2.540   4.846  0.6729  0.4207 -1.3020
 1579TIP3   OH2 4742   6.186   3.183   3.739  0.0029 -0.7277  0.7489
 1579TIP3    H1 4743   6.131   3.137   3.803 -1.1522 -1.4885 -0.7193
 1579TIP3    H2 4744   6.182   3.128   3.661  0.2191  0.8884 -0.4420
 1580TIP3   OH2 4745   2.349   3.478   2.088 -0.3251 -0.9086  0.2563
 1580TIP3    H1 4746   2.443   3.462   2.079 -0.3335 -0.7312 -0.1774
 1580TIP3    H2 4747   2.322   3.511   2.003 -0.6895 -0.5001  0.5255
 1581TIP3   OH2 4748   3.734   3.798   2.881  0.1366  0.3771  0.1662
 1581TIP3    H1 4749   3.657   3.853   2.868 -1.0559 -1.0586  0.7357
 1581TIP3    H2 4750   3.707   3.735   2.949  1.5030 -0.7344 -0.2661
 1582TIP3   OH2 4751   0.632   2.919   1.691  0.1656  0.6027  0.0743
 1582TIP3    H1 4752   0.717   2.880   1.714  0.1594  0.5861  0.0691
 1582TIP3    H2 4753   0.584   2.848   1.649 -1.0624 -0.3774  2.8970
 1583TIP3   OH2 4754   5.485   5.514   2.174 -0.0950 -0.6999  0.1355
 1583TIP3    H1 4755   5.409   5.458   2.189  0.4304 -1.5917 -0.4407
 1583TIP3    H2 4756   5.529   5.475   2.098  0.4763  0.2940 -0.0620
 1584TIP3   OH2 4757   5.525   1.100   1.478  0.2164 -0.2676  0.0425
 1584TIP3    H1 4758   5.444   1.050   1.467  0.1578 -1.1182  3.2511
 1584TIP3    H2 4759   5.533   1.152   1.398 -2.9780 -0.8418 -0.7783
 1585TIP3   OH2 4760   4.055   4.883   0.867 -0.2628 -0.7564  0.1365
 1585TIP3    H1 4761   3.992   4.851   0.931 -0.4111  3.4591  2.4858
 1585TIP3    H2 4762   4.003   4.936   0.807  0.6425  0.9725  0.7942
 1586TIP3   OH2 4763   1.315   1.096   3.758 -0.0043 -0.3592  0.0335
 1586TIP3    H1 4764   1.367   1.141   3.824  1.5827 -1.6373 -0.2828
 1586TIP3    H2 4765   1.314   1.156   3.683  1.9779 -0.7266 -0.3407
 1587TIP3   OH2 4766   6.186   5.410   4.563  0.2332  0.0594  0.1108
 1587TIP3    H1 4767   6.186   5.495   4.520  0.0620  0.0642  0.1181
 1587TIP3    H2 4768   6.109   5.366   4.528  0.4439 -0.1769 -0.0569
 1588TIP3   OH2 4769   4.371   1.995   1.467  0.2451  0.0872  0.2090
 1588TIP3    H1 4770   4.441   2.059   1.459  1.8278 -1.6459 -0.6551
 1588TIP3    H2 4771   4.394   1.926   1.405 -1.8098 -0.9483  0.4886
 1589TIP3   OH2 4772   1.278   5.598   4.694  0.4094 -0.0692  0.0598
 1589TIP3    H1 4773   1.281   5.671   4.632 -0.7414 -0.5513 -0.5874
 1589TIP3    H2 4774   1.194   5.556   4.678  1.4443 -2.1502 -0.2967
 1590TIP3   OH2 4775   0.221   3.716   4.273  0.2048 -0.1603 -0.5728
 1590TIP3    H1 4776   0.297   3.712   4.215  0.0145 -0.6024 -0.7977
 1590TIP3    H2 4777   0.254   3.758   4.353  0.6904 -0.3548 -0.6638
 1591TIP3   OH2 4778   4.402   5.783   1.811  0.1315 -0.2545 -0.8369
 1591TIP3    H1 4779   4.375   5.752   1.725  0.3802 -0.0082 -1.0032
 1591TIP3    H2 4780   4.497   5.774   1.812  0.0601 -1.1045 -0.2531
 1592TIP3   OH2 4781   1.372   5.832   0.315  0.1977 -0.0519  0.4981
 1592TIP3    H1 4782   1.369   5.924   0.339  0.5449  0.3915 -1.0711
 1592TIP3    H2 4783   1.465   5.810   0.314  0.2571  0.1729 -1.1800
 1593TIP3   OH2 4784   0.205   2.885   1.074  0.0576  0.1192  0.0999
 1593TIP3    H1 4785   0.184   2.961   1.021 -0.5694  0.9792  1.5107
 1593TIP3    H2 4786   0.297   2.867   1.054 -0.5538 -0.5884 -2.3977
 1594TIP3   OH2 4787   6.057   0.642   0.760  0.0841  0.4473  0.1476
 1594TIP3    H1 4788   6.066   0.624   0.666 -1.2990  0.8335 -0.0813
 1594TIP3    H2 4789   5.965   0.625   0.779  0.4434 -0.1139  1.5614
 1595TIP3   OH2 4790   3.975   4.028   1.224  0.2366  0.2859  0.1336
 1595TIP3    H1 4791   3.948   4.029   1.316 -1.3300 -0.2504 -0.2943
 1595TIP3    H2 4792   3.979   3.935   1.202 -0.4499  0.4319 -0.6260
 1596TIP3   OH2 4793   0.840   2.019   3.143 -0.6632  0.5343  0.2996
 1596TIP3    H1 4794   0.854   2.086   3.210 -2.4458  0.6717  0.5829
 1596TIP3    H2 4795   0.853   1.936   3.188 -0.7832  0.6416  0.5314
 1597TIP3   OH2 4796   3.057   4.553   3.715  0.3006  0.1701 -0.6572
 1597TIP3    H1 4797   2.978   4.594   3.681 -0.2502 -0.0409  0.3230
 1597TIP3    H2 4798   3.114   4.625   3.740 -0.2790  0.3420  0.1916
 1598TIP3   OH2 4799   3.682   1.119   0.334 -0.0096 -0.1741 -0.6713
 1598TIP3    H1 4800   3.726   1.037   0.312 -2.0553 -1.9019  1.2692
 1598TIP3    H2 4801   3.606   1.122   0.277 -0.4150 -0.0730 -0.1336
 1599TIP3   OH2 4802   0.971   3.672   2.654 -0.6030  0.4442  0.6506
 1599TIP3    H1 4803   0.903   3.672   2.587  0.6768 -0.6835 -0.7278
 1599TIP3    H2 4804   1.016   3.756   2.644  1.1428 -0.6447 -1.6887
 1600TIP3   OH2 4805   4.244   1.636   1.714  0.2101  0.4866 -0.6817
 1600TIP3    H1 4806   4.258   1.545   1.740  1.7015  0.5038 -1.3528
 1600TIP3    H2 4807   4.255   1.686   1.794 -0.7763  0.0857 -0.2759
 1601TIP3   OH2 4808   4.536   4.531   3.764 -0.2919 -0.1883 -0.3691
 1601TIP3    H1 4809   4.586   4.591   3.710 -0.9388  1.4207  0.7562
 1601TIP3    H2 4810   4.602   4.475   3.805  0.2607 -0.8447 -2.0667
 1602TIP3   OH2 4811   0.715   3.982   2.503 -0.2768  0.2294  0.1490
 1602TIP3    H1 4812   0.769   3.913   2.541  0.2992 -0.4138 -1.7056
 1602TIP3    H2 4813   0.627   3.944   2.501 -0.0699 -0.2469 -0.3248
 1603TIP3   OH2 4814   4.526   5.284   0.255  0.0998  0.4446  0.0955
 1603TIP3    H1 4815   4.502   5.289   0.163  1.2015 -1.5948 -0.3422
 1603TIP3    H2 4816   4.442   5.278   0.301 -0.4613 -1.9411 -1.0629
 1604TIP3   OH2 4817   5.467   3.395   3.154  0.3473  0.1992  0.2605
 1604TIP3    H1 4818   5.466   3.393   3.059  1.3285  1.6274  0.1850
 1604TIP3    H2 4819   5.400   3.460   3.177 -0.2995 -0.5628  0.5891
 1605TIP3   OH2 4820   3.715   2.209   2.712  0.2002  0.1232 -0.6232
 1605TIP3    H1 4821   3.674   2.286   2.752  1.2911  0.3197  0.1472
 1605TIP3    H2 4822   3.739   2.153   2.786  2.0573  0.3875 -0.9822
 1606TIP3   OH2 4823   2.596   0.641   4.110  0.0812 -0.6562 -0.5802
 1606TIP3    H1 4824   2.603   0.657   4.016  1.5317  0.4700 -0.3069
 1606TIP3    H2 4825   2.503   0.620   4.124 -0.3269  0.0022 -2.1345
 1607TIP3   OH2 4826   0.187   2.771   0.356  0.6434 -0.2309 -0.5537
 1607TIP3    H1 4827   0.279   2.772   0.330  0.4790  0.0157 -1.1568
 1607TIP3    H2 4828   0.139   2.757   0.274  0.0864  1.0589 -0.4759
 1608TIP3   OH2 4829   4.876   0.228   3.681 -0.2613  0.3785 -0.6489
 1608TIP3    H1 4830   4.950   0.206   3.625  0.3922  0.6959  0.0792
 1608TIP3    H2 4831   4.857   0.147   3.729 -0.2430  0.3619 -0.6699
 1609TIP3   OH2 4832   6.236   4.243   3.135 -0.2638  0.1745 -0.1316
 1609TIP3    H1 4833   6.147   4.253   3.167 -1.4800 -3.1759 -2.0032
 1609TIP3    H2 4834   6.286   4.216   3.212 -1.6463 -1.2315  0.3219
 1610TIP3   OH2 4835   6.006   4.781   2.914 -0.1418 -0.1955  0.1172
 1610TIP3    H1 4836   6.009   4.858   2.971  0.8913 -0.3790  0.3290
 1610TIP3    H2 4837   5.965   4.813   2.834  1.6607  1.0225 -0.3996
 1611TIP3   OH2 4838   5.214   5.921   2.555  0.1137 -0.5505  0.2194
 1611TIP3    H1 4839   5.135   5.914   2.502 -0.8021 -1.4099  1.6319
 1611TIP3    H2 4840   5.253   6.005   2.529 -0.5781 -0.6865 -1.3744
 1612TIP3   OH2 4841   1.849   4.731   4.155 -0.2575 -0.5501  0.4534
 1612TIP3    H1 4842   1.874   4.784   4.231  1.0740 -0.2662 -0.1386
 1612TIP3    H2 4843   1.754   4.739   4.150 -0.2379  0.5122  1.2991
 1613TIP3   OH2 4844   0.047   5.088   3.631 -0.1008 -0.1696  0.4973
 1613TIP3    H1 4845   0.070   5.169   3.676 -1.1426 -0.9622  2.5898
 1613TIP3    H2 4846   0.131   5.044   3.617  0.3160  0.4028  1.1052
 1614TIP3   OH2 4847   5.340   2.158   4.622  0.6226  0.0572  0.3103
 1614TIP3    H1 4848   5.303   2.235   4.578 -1.1529 -0.7171  0.3724
 1614TIP3    H2 4849   5.386   2.194   4.697 -1.9281  0.9910  1.5304
 1615TIP3   OH2 4850   0.275   5.376   4.635  0.1124 -0.5113  0.3893
 1615TIP3    H1 4851   0.334   5.394   4.562  1.1453  1.1248  1.5700
 1615TIP3    H2 4852   0.230   5.458   4.651 -1.2345 -1.2719  0.6458
 1616TIP3   OH2 4853   2.943   3.049   4.792  0.0442  0.1956 -0.1836
 1616TIP3    H1 4854   2.925   3.006   4.708  1.3376 -2.6556  0.8971
 1616TIP3    H2 4855   2.975   3.136   4.767 -0.5220 -0.2163 -2.6032
 1617TIP3   OH2 4856   4.342   4.085   2.555  0.5791 -0.1710  0.0485
 1617TIP3    H1 4857   4.416   4.131   2.596  1.3843 -0.6436 -0.8301
 1617TIP3    H2 4858   4.382   4.032   2.486 -0.4398 -1.4129  0.3732
 1618TIP3   OH2 4859   0.673   4.488   0.369 -0.3487 -0.0905 -0.2140
 1618TIP3    H1 4860   0.658   4.500   0.463 -1.3566 -0.1224 -0.3575
 1618TIP3    H2 4861   0.606   4.542   0.327  0.6724  0.6588 -0.9346
 1619TIP3   OH2 4862   6.069   3.391   4.169 -0.4224 -0.2758 -0.2257
 1619TIP3    H1 4863   6.084   3.379   4.075 -1.3775 -0.8693 -0.3179
 1619TIP3    H2 4864   6.048   3.484   4.178 -1.1556 -0.3837 -0.7297
 1620TIP3   OH2 4865   4.268   5.243   2.935  0.6826 -0.1225  0.0186
 1620TIP3    H1 4866   4.271   5.210   2.845  1.0634  0.0637 -0.0411
 1620TIP3    H2 4867   4.202   5.312   2.934 -0.2354 -0.9837  0.1810
 1621TIP3   OH2 4868   0.589   3.411   3.101 -0.0781  0.2456  0.3269
 1621TIP3    H1 4869   0.512   3.442   3.053  0.3191  1.2687  0.3283
 1621TIP3    H2 4870   0.558   3.332   3.147 -0.7639 -0.0944 -0.6848
 1622TIP3   OH2 4871   2.331   1.308   0.095  0.2426  0.1897 -0.3691
 1622TIP3    H1 4872   2.282   1.250   0.037  1.6439 -0.0186 -1.3942
 1622TIP3    H2 4873   2.419   1.270   0.098  0.2012  0.1643  1.9659
 1623TIP3   OH2 4874   4.918   4.126   3.231 -0.0827 -0.2618  0.4665
 1623TIP3    H1 4875   5.001   4.095   3.196 -0.6021  0.1271 -1.1646
 1623TIP3    H2 4876   4.857   4.053   3.215 -0.1024 -0.4989  1.5438
 1624TIP3   OH2 4877   1.354   5.085   4.506 -0.2024  0.0224  0.4578
 1624TIP3    H1 4878   1.342   5.137   4.586 -0.7691 -0.0845  0.4483
 1624TIP3    H2 4879   1.292   5.013   4.515  0.5165 -0.6127  0.4288
 1625TIP3   OH2 4880   1.563   1.304   3.604 -0.1280 -0.0006 -0.2997
 1625TIP3    H1 4881   1.640   1.351   3.573 -0.0105  2.0123  2.6309
 1625TIP3    H2 4882   1.597   1.239   3.666 -0.6194 -1.1085 -1.1602
 1626TIP3   OH2 4883   1.479   1.388   4.359  0.4295 -0.7710 -0.4544
 1626TIP3    H1 4884   1.405   1.361   4.304 -0.5461 -1.5314  1.1496
 1626TIP3    H2 4885   1.514   1.306   4.394  0.4514 -0.2613  0.7631
 1627TIP3   OH2 4886   1.751   3.686   0.018 -0.5613  0.1779 -0.0777
 1627TIP3    H1 4887   1.752   3.758   0.081  1.0629 -1.4863  1.9319
 1627TIP3    H2 4888   1.696   3.619   0.058 -0.2823 -0.5590 -0.8844
 1628TIP3   OH2 4889   2.438   3.513   0.641 -0.0991 -0.4552  0.3675
 1628TIP3    H1 4890   2.449   3.502   0.547 -1.6501  0.0956  0.0911
 1628TIP3    H2 4891   2.513   3.468   0.680  1.7224  1.0522 -1.1753
 1629TIP3   OH2 4892   4.724   5.900   2.662  0.0796 -0.0006  0.2432
 1629TIP3    H1 4893   4.688   5.971   2.609 -0.0774  0.1372  0.5379
 1629TIP3    H2 4894   4.811   5.930   2.688 -1.6048  2.1445  4.2480
 1630TIP3   OH2 4895   2.475   0.823   1.542 -0.4385  0.9350  0.0798
 1630TIP3    H1 4896   2.469   0.871   1.624  0.2898  0.5707  0.3499
 1630TIP3    H2 4897   2.392   0.841   1.498 -0.5489  1.6965  0.5822
 1631TIP3   OH2 4898   2.967   5.726   4.659 -0.4494 -0.2357 -0.6275
 1631TIP3    H1 4899   2.965   5.636   4.689 -0.7597 -0.1999 -0.5347
 1631TIP3    H2 4900   2.876   5.745   4.634 -0.1952 -0.2907 -1.6424
 1632TIP3   OH2 4901   5.080   2.974   1.388  0.5581  0.7112 -0.3202
 1632TIP3    H1 4902   4.985   2.984   1.394  0.5122  0.3792 -0.4964
 1632TIP3    H2 4903   5.097   2.957   1.295  0.7128 -0.0398 -0.1580
 1633TIP3   OH2 4904   1.142   0.485   1.844 -0.1011  0.6155 -0.6924
 1633TIP3    H1 4905   1.213   0.447   1.896  0.5197  2.5346 -0.0534
 1633TIP3    H2 4906   1.064   0.439   1.874  0.7142 -0.7669 -0.6072
 1634TIP3   OH2 4907   4.622   5.698   0.641 -0.2246  0.2034 -1.1413
 1634TIP3    H1 4908   4.603   5.792   0.636  0.0033  0.1887 -2.7228
 1634TIP3    H2 4909   4.661   5.677   0.556  0.2625 -1.2142 -0.5945
 1635TIP3   OH2 4910   2.239   2.083   3.084  0.6826 -0.0363  0.0817
 1635TIP3    H1 4911   2.182   2.118   3.152 -1.1247 -0.7337 -0.9798
 1635TIP3    H2 4912   2.298   2.155   3.062  0.4429  0.6139  1.4575
 1636TIP3   OH2 4913   5.363   5.117   1.528 -0.2140  0.2742 -0.2351
 1636TIP3    H1 4914   5.448   5.085   1.496 -0.2321  0.7055 -0.7347
 1636TIP3    H2 4915   5.355   5.205   1.490 -0.7853  0.3241 -0.0083
 1637TIP3   OH2 4916   2.484   2.775   1.628 -0.5954  1.1061 -0.5693
 1637TIP3    H1 4917   2.573   2.744   1.612 -1.3668 -1.1862 -0.7215
 1637TIP3    H2 4918   2.490   2.820   1.713  0.3579 -0.7053  0.3841
 1638TIP3   OH2 4919   2.054   5.867   1.199  0.2369  0.3190  0.3475
 1638TIP3    H1 4920   2.098   5.920   1.132  2.0517  0.1641  1.3483
 1638TIP3    H2 4921   2.022   5.790   1.151  0.2395  0.8800 -0.5768
 1639TIP3   OH2 4922   6.219   4.466   0.830 -0.5187  0.0814  0.0882
 1639TIP3    H1 4923   6.194   4.375   0.815  0.0173 -0.1943  0.7940
 1639TIP3    H2 4924   6.143   4.517   0.801 -0.3333 -0.5033 -1.5223
 1640TIP3   OH2 4925   2.883   2.249   3.379  1.1505 -0.0295  0.1562
 1640TIP3    H1 4926   2.904   2.322   3.437  2.1886  0.9257 -1.3438
 1640TIP3    H2 4927   2.816   2.285   3.320 -0.9780 -1.4336  1.6027
 1641TIP3   OH2 4928   0.749   1.274   0.284 -1.2156 -0.4578 -0.5988
 1641TIP3    H1 4929   0.840   1.264   0.254 -0.8416  0.1838  0.2591
 1641TIP3    H2 4930   0.697   1.233   0.216 -0.2992 -0.5057 -1.3005
 1642TIP3   OH2 4931   2.168   2.517   2.204 -0.1428 -0.0682  0.8839
 1642TIP3    H1 4932   2.184   2.477   2.290 -1.0500 -1.8897  0.2583
 1642TIP3    H2 4933   2.246   2.497   2.153 -0.4260 -0.7086  0.6958
 1643TIP3   OH2 4934   6.323   4.617   2.165  0.4999  0.1918 -0.2282
 1643TIP3    H1 4935   6.311   4.695   2.219  1.0314 -0.4768  0.8815
 1643TIP3    H2 4936   6.346   4.652   2.078  3.1408  1.3114  0.7947
 1644TIP3   OH2 4937   3.464   4.929   4.536  0.3273 -0.4917 -0.4654
 1644TIP3    H1 4938   3.473   4.955   4.444  2.4844 -0.3098 -0.2511
 1644TIP3    H2 4939   3.530   4.862   4.549  1.4356  0.8615  1.4192
 1645TIP3   OH2 4940   5.515   3.858   0.417 -0.7427  0.2624 -0.1835
 1645TIP3    H1 4941   5.585   3.868   0.481  0.5392 -1.2236 -1.2747
 1645TIP3    H2 4942   5.496   3.948   0.388  0.6830  0.7006  0.1667
 1646TIP3   OH2 4943   1.511   4.723   4.650  0.2073 -0.3500  0.2367
 1646TIP3    H1 4944   1.592   4.712   4.600  2.3518  0.1065  3.2986
 1646TIP3    H2 4945   1.516   4.813   4.684 -1.8280 -0.1715  0.1741
 1647TIP3   OH2 4946   0.826   1.135   1.997  0.1146 -0.7867  0.0532
 1647TIP3    H1 4947   0.921   1.123   2.004  0.4427  1.8457  1.1090
 1647TIP3    H2 4948   0.808   1.216   2.044 -2.6476 -1.0417 -0.3890
 1648TIP3   OH2 4949   0.675   4.954   3.520  0.5026 -0.1547  0.6892
 1648TIP3    H1 4950   0.599   4.899   3.504 -0.5259  0.8490  1.9211
 1648TIP3    H2 4951   0.719   4.959   3.435 -1.1155 -0.2977 -0.1913
 1649TIP3   OH2 4952   2.912   0.274   0.541 -0.2404  0.6128 -0.3846
 1649TIP3    H1 4953   2.818   0.256   0.545 -0.4305  1.3085 -1.3401
 1649TIP3    H2 4954   2.921   0.362   0.577  0.0232  0.6024 -0.4232
 1650TIP3   OH2 4955   2.554   4.401   1.601  0.3180  0.5731 -0.3822
 1650TIP3    H1 4956   2.507   4.340   1.657 -1.0697  0.7948 -1.2525
 1650TIP3    H2 4957   2.641   4.363   1.591  0.0182 -0.3752  0.4526
 1651TIP3   OH2 4958   3.844   3.506   4.939 -0.1409  0.0073  0.0267
 1651TIP3    H1 4959   3.761   3.553   4.948  0.3856  1.0904 -0.6409
 1651TIP3    H2 4960   3.911   3.569   4.964  0.4867 -0.9277  0.7781
 1652TIP3   OH2 4961   5.766   4.458   4.909 -0.3539 -0.8339 -0.0158
 1652TIP3    H1 4962   5.812   4.479   4.828  0.2037 -0.3316  0.4162
 1652TIP3    H2 4963   5.797   4.370   4.933 -0.7362 -1.0998 -0.4916
 1653TIP3   OH2 4964   0.177   4.564   5.044 -0.1309  0.1786  0.0470
 1653TIP3    H1 4965   0.169   4.579   5.138  1.0265  1.9126 -0.0974
 1653TIP3    H2 4966   0.182   4.652   5.006 -0.2243 -0.5032 -1.6133
 1654TIP3   OH2 4967   0.802   0.661   2.968  0.0820 -0.5196 -0.1067
 1654TIP3    H1 4968   0.865   0.707   2.912 -0.4567  0.9177  0.4358
 1654TIP3    H2 4969   0.777   0.724   3.035 -0.9282 -1.5046  0.4979
 1655TIP3   OH2 4970   2.684   2.039   1.459  0.1281 -0.5234  0.3514
 1655TIP3    H1 4971   2.598   2.074   1.437  0.4982  0.1342 -0.0875
 1655TIP3    H2 4972   2.722   2.012   1.375  0.5548 -0.3288  0.4782
 1656TIP3   OH2 4973   4.215   2.694   3.988  0.1511 -0.1751 -0.5446
 1656TIP3    H1 4974   4.180   2.770   3.940 -0.6378  0.3327  0.7691
 1656TIP3    H2 4975   4.211   2.622   3.925 -2.0403  0.1798 -0.8951
 1657TIP3   OH2 4976   4.037   3.936   2.144 -0.7270 -0.0187  0.0136
 1657TIP3    H1 4977   4.078   3.897   2.221 -0.1769  1.2733  0.4090
 1657TIP3    H2 4978   3.950   3.963   2.174 -1.1837 -1.0724 -0.3136
 1658TIP3   OH2 4979   5.663   3.570   0.642  0.2668 -0.1740 -0.4465
 1658TIP3    H1 4980   5.742   3.608   0.604  0.3973 -2.7247 -3.1830
 1658TIP3    H2 4981   5.607   3.644   0.662  1.7896  1.5603 -2.2246
 1659TIP3   OH2 4982   2.984   1.599   3.629  0.0242  0.1799  0.2070
 1659TIP3    H1 4983   3.074   1.628   3.639  0.2587 -0.4897  0.0992
 1659TIP3    H2 4984   2.953   1.644   3.550  1.0912 -1.5217 -1.2627
 1660TIP3   OH2 4985   3.768   2.950   4.689  0.5531 -0.4945  0.1067
 1660TIP3    H1 4986   3.695   2.948   4.627  0.2451 -0.6792  0.4711
 1660TIP3    H2 4987   3.825   2.879   4.662  0.2908 -0.7356  0.1887
 1661TIP3   OH2 4988   2.736   3.985   3.302  0.2586 -0.3513 -0.1340
 1661TIP3    H1 4989   2.760   4.021   3.216  1.1482 -0.5509  0.0207
 1661TIP3    H2 4990   2.809   3.927   3.325  0.2132 -0.0083  0.9243
 1662TIP3   OH2 4991   0.361   1.398   2.678 -0.3160 -0.0842 -0.2882
 1662TIP3    H1 4992   0.353   1.493   2.667  0.0370 -0.1398 -1.0933
 1662TIP3    H2 4993   0.282   1.363   2.637 -0.0129 -0.1855 -0.7864
 1663TIP3   OH2 4994   5.393   5.553   0.306  0.4667  0.4604 -0.2237
 1663TIP3    H1 4995   5.299   5.558   0.324  0.2140  1.0180 -1.6045
 1663TIP3    H2 4996   5.406   5.466   0.269  0.4701  0.4436 -0.1834
 1664TIP3   OH2 4997   1.049   5.192   1.532  0.8116 -0.8200 -0.1203
 1664TIP3    H1 4998   1.130   5.241   1.546  0.1478  0.4273 -0.5142
 1664TIP3    H2 4999   1.003   5.197   1.615  0.3305  0.0344 -0.4265
 1665TIP3   OH2 5000   6.158   3.027   2.254  0.2703  0.1954  0.1389
 1665TIP3    H1 5001   6.233   2.981   2.293 -1.2068 -1.7136  0.8604
 1665TIP3    H2 5002   6.196   3.108   2.221  2.7368 -0.8216  0.1849
 1666TIP3   OH2 5003   4.424   4.903   3.912  0.0679  0.3730  0.1425
 1666TIP3    H1 5004   4.350   4.963   3.913  0.1354  0.4520  0.3886
 1666TIP3    H2 5005   4.420   4.861   3.826  0.9835  1.9175 -0.6889
 1667TIP3   OH2 5006   4.167   4.065   3.786  0.2205  0.3595  0.2554
 1667TIP3    H1 5007   4.106   4.106   3.725  0.6160 -0.2285 -0.5576
 1667TIP3    H2 5008   4.115   4.045   3.863 -0.8233 -0.8254 -0.7087
 1668TIP3   OH2 5009   4.787   4.137   4.488 -0.8076 -0.2190 -0.4747
 1668TIP3    H1 5010   4.751   4.048   4.489  0.4077 -0.7509  1.3197
 1668TIP3    H2 5011   4.878   4.125   4.461 -0.0393  0.1495  1.7455
 1669TIP3   OH2 5012   2.998   3.935   2.700  0.1909  0.4258 -0.0364
 1669TIP3    H1 5013   2.903   3.931   2.699  0.1422  0.8598  1.4148
 1669TIP3    H2 5014   3.020   3.990   2.775  1.6434 -2.4323  1.8061
 1670TIP3   OH2 5015   1.112   0.381   0.625  0.4653  0.6107 -0.3665
 1670TIP3    H1 5016   1.075   0.331   0.697 -1.8185  0.3660 -1.6308
 1670TIP3    H2 5017   1.107   0.472   0.654  2.0921  0.3665  0.8240
 1671TIP3   OH2 5018   1.389   1.886   3.838 -0.1428 -0.2698  0.2299
 1671TIP3    H1 5019   1.476   1.910   3.870 -0.4537  1.0820  0.1294
 1671TIP3    H2 5020   1.344   1.970   3.828 -1.2425 -0.9149 -0.3337
 1672TIP3   OH2 5021   3.739   4.042   1.078 -0.0233  0.0991  0.0958
 1672TIP3    H1 5022   3.655   4.025   1.122  0.0999 -1.6456 -0.2567
 1672TIP3    H2 5023   3.799   3.977   1.115  0.6474  0.0257 -1.0805
 1673TIP3   OH2 5024   2.474   4.296   3.640 -0.4174  0.3527 -0.4142
 1673TIP3    H1 5025   2.541   4.300   3.572 -1.4612 -1.5221 -1.6305
 1673TIP3    H2 5026   2.391   4.298   3.592 -1.1760 -1.5676  0.7092
 1674TIP3   OH2 5027   6.377   2.927   1.605 -0.1355  0.3249  0.5302
 1674TIP3    H1 5028   6.303   2.914   1.663 -1.3504 -1.5280 -1.2746
 1674TIP3    H2 5029   6.352   2.883   1.524  2.1542  1.3247 -0.8318
 1675TIP3   OH2 5030   1.841   3.741   4.355  0.3310  0.2937 -0.1558
 1675TIP3    H1 5031   1.843   3.684   4.431  0.9795 -1.0551 -1.1461
 1675TIP3    H2 5032   1.923   3.791   4.360 -0.5876  1.7299  1.1180
 1676TIP3   OH2 5033   4.293   1.017   4.474 -0.0266  0.4425  0.2644
 1676TIP3    H1 5034   4.284   0.959   4.398 -0.2268 -0.4529  0.9598
 1676TIP3    H2 5035   4.337   0.963   4.540  0.9956  1.4940  0.4849
 1677TIP3   OH2 5036   0.735   1.290   0.983  0.3822 -0.1860  0.0879
 1677TIP3    H1 5037   0.731   1.320   1.074 -0.4799  1.0606 -0.3333
 1677TIP3    H2 5038   0.827   1.267   0.969  0.5511 -0.2899  1.2228
 1678TIP3   OH2 5039   3.377   1.412   4.597  0.4741 -0.8389 -0.1760
 1678TIP3    H1 5040   3.348   1.476   4.531  3.0440 -0.5148 -1.1272
 1678TIP3    H2 5041   3.318   1.425   4.671  1.1479  3.0414 -0.1152
 1679TIP3   OH2 5042   3.488   0.622   1.948 -0.1796 -0.2247 -0.1915
 1679TIP3    H1 5043   3.567   0.580   1.913  1.2949  2.5363 -0.4712
 1679TIP3    H2 5044   3.426   0.621   1.875 -0.6598 -2.7984  0.1583
 1680TIP3   OH2 5045   1.464   0.342   4.565  0.1416 -0.0253 -0.0745
 1680TIP3    H1 5046   1.488   0.282   4.494  1.1287 -0.2268  0.3994
 1680TIP3    H2 5047   1.547   0.361   4.608 -0.1311  1.8347 -0.3066
 1681TIP3   OH2 5048   2.838   4.155   3.662 -0.3303 -0.2621 -0.2983
 1681TIP3    H1 5049   2.775   4.084   3.648 -0.1133 -0.3261 -0.9348
 1681TIP3    H2 5050   2.787   4.222   3.708 -0.6238 -0.6878  0.0063
 1682TIP3   OH2 5051   1.287   0.450   3.768 -0.0356  0.4936  0.1104
 1682TIP3    H1 5052   1.333   0.480   3.691  0.5660 -0.3562  0.1255
 1682TIP3    H2 5053   1.239   0.372   3.739 -1.4716  1.3442  0.0939
 1683TIP3   OH2 5054   4.901   0.648   0.978  0.1552 -0.2969 -0.0358
 1683TIP3    H1 5055   4.968   0.708   0.944 -1.4358  1.1717 -0.7532
 1683TIP3    H2 5056   4.832   0.649   0.911 -0.3693 -2.1886  0.4188
 1684TIP3   OH2 5057   6.083   2.512   1.440 -0.6569 -0.0395  0.0139
 1684TIP3    H1 5058   6.059   2.552   1.356 -1.7137 -2.2150 -0.7889
 1684TIP3    H2 5059   6.179   2.507   1.437 -0.4764  2.1865  0.0999
 1685TIP3   OH2 5060   2.838   1.014   2.518  0.0458  0.1309  0.0120
 1685TIP3    H1 5061   2.839   1.060   2.602 -0.9907 -0.1669  0.1969
 1685TIP3    H2 5062   2.854   1.082   2.453  3.7741 -0.0206  0.5633
 1686TIP3   OH2 5063   1.204   2.389   4.533  0.2616 -0.2706  0.4788
 1686TIP3    H1 5064   1.277   2.392   4.471 -0.2388  1.0247 -0.0817
 1686TIP3    H2 5065   1.127   2.403   4.479 -0.3572 -0.9775  1.1596
 1687TIP3   OH2 5066   4.497   1.039   1.534  0.6178 -0.2147 -0.1119
 1687TIP3    H1 5067   4.420   1.096   1.541  0.3437 -0.6408  0.4275
 1687TIP3    H2 5068   4.486   0.975   1.604  0.9501 -0.9016 -0.6748
 1688TIP3   OH2 5069   0.626   4.971   3.804 -0.1667 -0.0623  0.3688
 1688TIP3    H1 5070   0.669   4.956   3.719  0.6280  0.7614  0.6132
 1688TIP3    H2 5071   0.620   5.066   3.812 -1.3821 -0.1444  0.6905
 1689TIP3   OH2 5072   5.333   3.649   4.166 -0.3155  0.0918 -0.1272
 1689TIP3    H1 5073   5.260   3.597   4.199  0.0160 -0.0451  0.4012
 1689TIP3    H2 5074   5.411   3.599   4.188 -0.1168 -1.0230 -2.9202
 1690TIP3   OH2 5075   0.720   4.566   4.795 -0.0251 -0.0621  0.2744
 1690TIP3    H1 5076   0.757   4.540   4.879  0.4824  0.1746  0.1262
 1690TIP3    H2 5077   0.626   4.579   4.813 -0.0705 -0.8039  0.6167
 1691TIP3   OH2 5078   1.194   3.850   4.654 -0.4085  0.2982  0.4329
 1691TIP3    H1 5079   1.151   3.766   4.639  0.2783  0.0784 -0.4285
 1691TIP3    H2 5080   1.218   3.850   4.746  1.1048 -1.2102  0.0859
 1692TIP3   OH2 5081   1.910   5.331   3.725 -0.0929 -0.0653 -0.2000
 1692TIP3    H1 5082   1.874   5.246   3.753 -0.3967 -0.3730 -1.4647
 1692TIP3    H2 5083   1.983   5.347   3.785  0.2775 -1.4609 -0.2362
 1693TIP3   OH2 5084   4.882   1.158   5.041 -0.7665  0.0426  0.1171
 1693TIP3    H1 5085   4.872   1.152   5.136 -0.8040  1.0629  0.1832
 1693TIP3    H2 5086   4.795   1.135   5.007 -0.9733  0.4380  0.3659
 1694TIP3   OH2 5087   4.590   1.500   3.968 -0.0814 -0.7825  0.0951
 1694TIP3    H1 5088   4.587   1.434   3.899  1.3282 -1.1359  0.3409
 1694TIP3    H2 5089   4.603   1.582   3.922  0.8657 -1.0179 -0.0763
 1695TIP3   OH2 5090   5.442   3.250   2.633 -0.2087  0.0443 -0.2238
 1695TIP3    H1 5091   5.516   3.304   2.607  0.9922 -0.3095  2.1643
 1695TIP3    H2 5092   5.472   3.160   2.621 -0.7342 -0.1080 -0.4297
 1696TIP3   OH2 5093   0.198   4.282   1.436  0.1476  0.0608  0.5563
 1696TIP3    H1 5094   0.268   4.316   1.380 -0.8881 -1.2439 -1.6722
 1696TIP3    H2 5095   0.235   4.202   1.473 -0.0148 -0.4701 -0.3840
 1697TIP3   OH2 5096   2.301   1.629   2.836 -0.5451 -0.3975 -0.1896
 1697TIP3    H1 5097   2.357   1.706   2.826  2.9215 -2.6997 -0.0052
 1697TIP3    H2 5098   2.296   1.615   2.931 -0.7953 -0.6706 -0.2409
 1698TIP3   OH2 5099   3.253   0.835   4.939 -0.4750  0.2976 -0.1097
 1698TIP3    H1 5100   3.161   0.813   4.956  0.0214 -1.0617  0.9993
 1698TIP3    H2 5101   3.263   0.923   4.975 -0.9019 -0.2853  1.5361
 1699TIP3   OH2 5102   5.541   2.458   3.579  0.2041  0.0675  0.1642
 1699TIP3    H1 5103   5.591   2.459   3.661 -0.6355  1.4031  0.6852
 1699TIP3    H2 5104   5.539   2.549   3.551 -1.0066 -0.1279 -0.4171
 1700TIP3   OH2 5105   3.776   3.302   2.454 -0.1410 -0.0852 -0.9471
 1700TIP3    H1 5106   3.763   3.396   2.468  0.2088  0.0039 -1.1877
 1700TIP3    H2 5107   3.866   3.286   2.485 -0.2544 -0.3687 -0.7666
 1701TIP3   OH2 5108   5.248   3.039   2.439  0.1648 -0.4689  0.3876
 1701TIP3    H1 5109   5.335   3.036   2.477 -0.0999 -0.8582  0.9891
 1701TIP3    H2 5110   5.195   2.985   2.497 -0.4154 -0.4664 -0.1291
 1702TIP3   OH2 5111   6.245   2.186   1.797 -0.0395 -0.3387  0.0146
 1702TIP3    H1 5112   6.332   2.182   1.758  0.2317 -0.3765  0.6199
 1702TIP3    H2 5113   6.189   2.141   1.734  0.5601 -1.2631  0.1191
 1703TIP3   OH2 5114   6.150   0.793   3.705 -0.3011  0.3475 -0.1174
 1703TIP3    H1 5115   6.153   0.737   3.628 -0.6181 -0.9413  0.7670
 1703TIP3    H2 5116   6.200   0.870   3.681  0.1218 -0.2985 -1.3963
 1704TIP3   OH2 5117   5.879   4.784   4.670 -0.0554  0.6104 -0.3595
 1704TIP3    H1 5118   5.839   4.864   4.634  0.6390  1.1515  0.0639
 1704TIP3    H2 5119   5.886   4.800   4.764 -0.8873 -0.3849 -0.0997
 1705TIP3   OH2 5120   5.210   2.997   3.589 -0.3954  0.1089 -0.3744
 1705TIP3    H1 5121   5.154   2.927   3.622  1.8812 -0.6553  2.2666
 1705TIP3    H2 5122   5.251   2.961   3.510 -1.5277 -0.3306 -0.7740
 1706TIP3   OH2 5123   6.004   3.807   2.245 -0.3349  0.1488  0.4190
 1706TIP3    H1 5124   5.955   3.725   2.256 -0.4183  0.1987  0.4201
 1706TIP3    H2 5125   6.011   3.842   2.334 -1.1889  0.6542  0.3040
 1707TIP3   OH2 5126   4.585   1.044   4.749 -0.1933  0.2132  0.2184
 1707TIP3    H1 5127   4.492   1.022   4.742 -0.6265  2.3603 -2.5166
 1707TIP3    H2 5128   4.588   1.116   4.811 -0.2544 -0.2516  0.7668
 1708TIP3   OH2 5129   1.683   3.656   5.067  0.2459 -0.1254 -0.0849
 1708TIP3    H1 5130   1.722   3.718   5.006 -0.8842  0.8675  0.1540
 1708TIP3    H2 5131   1.597   3.638   5.029 -0.6295  0.7994  1.3596
 1709TIP3   OH2 5132   2.748   5.540   1.678 -0.2372  0.6142 -0.4535
 1709TIP3    H1 5133   2.813   5.567   1.613  0.2145 -0.7154 -0.5906
 1709TIP3    H2 5134   2.677   5.502   1.626  0.8822 -2.0592 -0.1840
 1710TIP3   OH2 5135   5.026   5.671   2.601 -0.0380 -0.4218 -0.2278
 1710TIP3    H1 5136   4.972   5.738   2.560  1.5053  0.2559 -1.2364
 1710TIP3    H2 5137   5.104   5.718   2.630  1.2307 -1.7948 -1.2650
 1711TIP3   OH2 5138   5.810   2.969   0.908  0.1063 -0.4650  0.0165
 1711TIP3    H1 5139   5.818   3.042   0.970  0.8722 -0.4312 -0.1140
 1711TIP3    H2 5140   5.730   2.988   0.858 -0.1370 -0.1368  0.5232
 1712TIP3   OH2 5141   4.340   4.492   0.055 -0.0723  0.1977 -0.4839
 1712TIP3    H1 5142   4.370   4.419  -0.000 -2.6571 -0.5066 -1.0862
 1712TIP3    H2 5143   4.362   4.465   0.144 -0.6537 -1.1714 -0.7322
 1713TIP3   OH2 5144   2.687   0.801   2.591 -0.1687  0.3523 -0.8120
 1713TIP3    H1 5145   2.754   0.770   2.652 -0.7753  1.7735  0.6608
 1713TIP3    H2 5146   2.721   0.884   2.559 -1.3174  1.2426  0.1879
 1714TIP3   OH2 5147   3.685   5.934   0.344 -0.1421  0.0846 -0.5684
 1714TIP3    H1 5148   3.723   5.973   0.265  1.5717 -0.7031 -0.1843
 1714TIP3    H2 5149   3.615   5.878   0.312  1.9391 -1.9960 -1.8257
 1715TIP3   OH2 5150   1.225   5.623   4.225  0.4999  0.1818 -0.0313
 1715TIP3    H1 5151   1.183   5.697   4.268  0.3892  1.1643 -1.7626
 1715TIP3    H2 5152   1.220   5.552   4.290 -1.8104  0.8972  0.6529
 1716TIP3   OH2 5153   3.185   1.415   4.812  0.0174 -0.2797 -0.1582
 1716TIP3    H1 5154   3.151   1.504   4.802 -0.2603 -0.1775  1.5224
 1716TIP3    H2 5155   3.120   1.360   4.768 -0.0785  0.2928 -0.7492
 1717TIP3   OH2 5156   0.901   5.120   2.843  0.0142  0.3889  0.3036
 1717TIP3    H1 5157   0.958   5.044   2.854  0.5138  0.8059  0.6324
 1717TIP3    H2 5158   0.827   5.087   2.792  1.8092  0.4177 -2.6013
 1718TIP3   OH2 5159   2.629   5.875   1.069 -0.0899  0.5664 -0.2692
 1718TIP3    H1 5160   2.676   5.859   0.987 -0.6446  1.7577 -0.8410
 1718TIP3    H2 5161   2.620   5.970   1.073 -1.3555  0.4287  0.4464
 1719TIP3   OH2 5162   4.556   0.574   2.684 -0.1727 -0.3540 -0.3652
 1719TIP3    H1 5163   4.502   0.650   2.706 -0.8945 -1.5064  2.2946
 1719TIP3    H2 5164   4.515   0.538   2.605 -0.3190  1.4995 -1.1881
 1720TIP3   OH2 5165   4.351   5.126   1.884 -0.4382 -0.5809  0.4273
 1720TIP3    H1 5166   4.268   5.131   1.932 -0.5333 -0.4865  0.2531
 1720TIP3    H2 5167   4.417   5.155   1.947 -0.9250  2.9533 -0.4557
 1721TIP3   OH2 5168   2.692   1.634   3.752  0.2549  0.3378  0.6389
 1721TIP3    H1 5169   2.722   1.611   3.664 -0.7669  1.1679  0.0506
 1721TIP3    H2 5170   2.662   1.551   3.789 -2.4245  0.4187 -1.0677
 1722TIP3   OH2 5171  -0.011   1.395   1.425  0.3874  0.0867 -0.3482
 1722TIP3    H1 5172   0.017   1.308   1.396 -0.4958 -1.2516  2.4823
 1722TIP3    H2 5173   0.047   1.416   1.497 -0.3128  1.2358 -0.1026
 1723TIP3   OH2 5174   2.422   5.149   4.339  0.1628  0.2245 -0.0849
 1723TIP3    H1 5175   2.507   5.189   4.355 -0.4385  1.2187  0.7951
 1723TIP3    H2 5176   2.442   5.063   4.302  1.5198  0.8170 -0.8020
 1724TIP3   OH2 5177   4.388   2.537   5.036  0.2141 -0.6068  0.4513
 1724TIP3    H1 5178   4.411   2.496   4.953 -0.7142  1.3282 -0.8456
 1724TIP3    H2 5179   4.305   2.581   5.018  0.0170 -0.0874  2.4130
 1725TIP3   OH2 5180   1.813   3.459   4.806 -0.1999 -0.2186 -0.1561
 1725TIP3    H1 5181   1.738   3.418   4.848 -0.5279  1.0719  0.5757
 1725TIP3    H2 5182   1.886   3.398   4.820 -0.9749 -1.2055 -0.3670
 1726TIP3   OH2 5183   3.292   2.236   5.188 -0.4325  0.1520  0.0702
 1726TIP3    H1 5184   3.377   2.274   5.210 -1.0081  0.0656  2.8036
 1726TIP3    H2 5185   3.243   2.309   5.150 -0.4974  1.4773  2.4551
 1727TIP3   OH2 5186   3.096   4.103   3.827  0.2381  0.0082  0.2543
 1727TIP3    H1 5187   3.019   4.150   3.795  1.1084  0.7681 -0.8239
 1727TIP3    H2 5188   3.136   4.163   3.890  0.0103 -0.3350  0.7251
 1728TIP3   OH2 5189   2.491   5.514   0.819 -0.4198  0.0123 -0.0323
 1728TIP3    H1 5190   2.488   5.465   0.901  1.1523  0.0000  0.0336
 1728TIP3    H2 5191   2.580   5.548   0.813 -1.1913  2.1917 -0.4902
 1729TIP3   OH2 5192   0.781   0.840   3.170 -0.7021  0.1531  0.0288
 1729TIP3    H1 5193   0.787   0.803   3.258  1.4534 -1.4675 -0.7043
 1729TIP3    H2 5194   0.855   0.900   3.165  0.5581 -1.3997 -1.2981
 1730TIP3   OH2 5195   4.159   3.836   0.256  0.2646 -0.6220 -0.0160
 1730TIP3    H1 5196   4.165   3.759   0.200 -1.0158 -0.0040 -1.0513
 1730TIP3    H2 5197   4.137   3.908   0.197 -0.8234  0.1163  1.2203
 1731TIP3   OH2 5198   0.847   3.367   2.632 -0.0424  0.8327 -0.0729
 1731TIP3    H1 5199   0.825   3.357   2.724  1.0712 -3.3819 -0.0790
 1731TIP3    H2 5200   0.940   3.389   2.631  0.0494  0.4415 -0.1941
 1732TIP3   OH2 5201   5.268   1.850   4.853  0.4792 -0.3964  0.3541
 1732TIP3    H1 5202   5.261   1.841   4.758  1.7735 -0.2661  0.2333
 1732TIP3    H2 5203   5.345   1.906   4.866 -0.4565  0.6946  1.4417
 1733TIP3   OH2 5204   2.764   4.662   1.712  0.1801  0.0146 -0.7308
 1733TIP3    H1 5205   2.710   4.587   1.737  0.2037 -0.2797 -1.5375
 1733TIP3    H2 5206   2.852   4.640   1.743 -0.0988  0.3888  0.3748
 1734TIP3   OH2 5207   2.567   3.521   0.184 -0.1113 -0.0708 -0.0747
 1734TIP3    H1 5208   2.550   3.468   0.261  1.5058 -3.7467 -1.9825
 1734TIP3    H2 5209   2.481   3.530   0.141 -0.8789  1.3681  1.6385
 1735TIP3   OH2 5210   2.694   4.062   2.153 -0.3540  0.4087  0.2266
 1735TIP3    H1 5211   2.755   4.126   2.189  0.9785 -0.9037  0.4057
 1735TIP3    H2 5212   2.644   4.031   2.229 -0.8016  1.0120  0.1832
 1736TIP3   OH2 5213   3.681   3.716   5.042 -0.2998 -0.3033  0.2439
 1736TIP3    H1 5214   3.660   3.660   5.117 -1.6917  1.4434  1.2208
 1736TIP3    H2 5215   3.733   3.787   5.079 -0.7843  0.4537 -0.5008
 1737TIP3   OH2 5216   0.944   1.777   4.912 -0.1262  0.8459 -0.1863
 1737TIP3    H1 5217   0.898   1.696   4.936  2.4133 -0.9241 -0.9185
 1737TIP3    H2 5218   0.936   1.782   4.817  1.8023  0.0225 -0.4396
 1738TIP3   OH2 5219   1.468   2.044   1.499 -0.1360 -0.7282  0.0464
 1738TIP3    H1 5220   1.453   2.095   1.420  1.0329  1.1473  0.9683
 1738TIP3    H2 5221   1.493   1.957   1.467 -0.9342 -0.4040 -1.5838
 1739TIP3   OH2 5222   4.759   4.197   1.937 -0.1521 -0.0696  0.1142
 1739TIP3    H1 5223   4.699   4.244   1.995  0.6294  0.6697  0.3366
 1739TIP3    H2 5224   4.846   4.225   1.964  0.2452  0.0394 -1.2059
 1740TIP3   OH2 5225   5.293   1.562   4.337  0.1343  0.6067 -0.2631
 1740TIP3    H1 5226   5.332   1.489   4.289  1.6083 -0.3450  2.2361
 1740TIP3    H2 5227   5.367   1.613   4.370 -0.8547  2.3684 -0.5954
 1741TIP3   OH2 5228   0.277   5.544   2.596  0.0293  0.0295 -0.8193
 1741TIP3    H1 5229   0.304   5.560   2.505  1.7132  0.7716 -0.2278
 1741TIP3    H2 5230   0.197   5.596   2.606 -0.5280 -0.5529 -2.0385
 1742TIP3   OH2 5231   3.144   5.313   0.780  0.1055  0.2895  0.7463
 1742TIP3    H1 5232   3.200   5.274   0.713 -1.1137 -1.2597  0.5695
 1742TIP3    H2 5233   3.178   5.279   0.863  0.4830  0.7362  0.7766
 1743TIP3   OH2 5234   5.211   3.862   2.906  0.0063 -0.3713 -0.0023
 1743TIP3    H1 5235   5.180   3.944   2.869  0.8530 -0.2563 -0.4846
 1743TIP3    H2 5236   5.173   3.859   2.994 -1.5016 -0.3431 -0.6373
 1744TIP3   OH2 5237   3.004   3.027   2.419 -0.3645 -0.7591 -0.0890
 1744TIP3    H1 5238   3.052   3.098   2.463  1.2427 -0.3877 -2.2528
 1744TIP3    H2 5239   3.069   2.957   2.409 -1.2611 -1.6065 -0.1106
 1745TIP3   OH2 5240   1.323   1.389   3.528 -0.0532  0.3437  0.0474
 1745TIP3    H1 5241   1.281   1.411   3.612 -1.3859  1.6287 -0.8981
 1745TIP3    H2 5242   1.407   1.350   3.553 -0.6994  0.0587  1.9843
 1746TIP3   OH2 5243   2.693   5.275   4.856 -0.5461 -0.0280 -0.3220
 1746TIP3    H1 5244   2.672   5.277   4.949  1.6740 -1.3393  0.2980
 1746TIP3    H2 5245   2.620   5.319   4.813 -1.4087  1.0161  2.0648
 1747TIP3   OH2 5246   3.611   3.522   1.310  0.3680  0.6353 -0.0425
 1747TIP3    H1 5247   3.684   3.459   1.315  0.3252  0.5057 -0.8307
 1747TIP3    H2 5248   3.616   3.570   1.392 -0.9801 -1.8817  1.6503
 1748TIP3   OH2 5249   4.763   0.998   0.586  0.0840  0.2675 -0.3422
 1748TIP3    H1 5250   4.787   1.083   0.624  2.6661 -0.6825  0.4084
 1748TIP3    H2 5251   4.805   0.998   0.500 -1.2884  0.3518 -1.0286
 1749TIP3   OH2 5252   0.339   3.284   1.789 -0.7074 -0.3229 -0.1491
 1749TIP3    H1 5253   0.330   3.198   1.747  1.2358 -0.4389 -0.4409
 1749TIP3    H2 5254   0.379   3.264   1.874  1.5862  0.3856 -0.9960
 1750TIP3   OH2 5255   1.031   4.606   4.202 -0.4963 -0.2144 -0.2370
 1750TIP3    H1 5256   1.029   4.510   4.206 -0.2854 -0.2619 -1.0640
 1750TIP3    H2 5257   1.038   4.625   4.109  0.8254  0.5828  0.0039
 1751TIP3   OH2 5258   2.535   2.339   0.941  0.2103  0.4970  0.0578
 1751TIP3    H1 5259   2.601   2.366   0.877 -0.0556  0.8636 -0.0628
 1751TIP3    H2 5260   2.501   2.257   0.906 -0.9801  1.4255 -1.0647
 1752TIP3   OH2 5261   0.251   5.696   1.450  0.0953  0.1662 -0.2685
 1752TIP3    H1 5262   0.171   5.646   1.430 -0.7665  0.5593  1.8494
 1752TIP3    H2 5263   0.309   5.631   1.489  0.4985  0.0573 -1.0350
 1753TIP3   OH2 5264   5.591   4.429   4.484  0.3043 -0.4423  0.4658
 1753TIP3    H1 5265   5.584   4.498   4.417 -2.0166 -0.0059  1.0623
 1753TIP3    H2 5266   5.505   4.386   4.483  0.6865 -1.3411  2.1986
 1754TIP3   OH2 5267   5.878   5.752   4.288  0.1855  0.1204 -0.0082
 1754TIP3    H1 5268   5.819   5.796   4.227  0.7877 -0.6027 -1.1657
 1754TIP3    H2 5269   5.930   5.693   4.232  1.6195  0.3380  1.0328
 1755TIP3   OH2 5270   2.270   2.925   3.369 -0.7962  0.0657 -0.3002
 1755TIP3    H1 5271   2.351   2.890   3.406  1.2045  1.7109 -2.7572
 1755TIP3    H2 5272   2.247   2.998   3.426 -0.1682 -0.0362  0.0887
 1756TIP3   OH2 5273  -0.010   2.717   2.204  0.3402  0.4537  0.4108
 1756TIP3    H1 5274  -0.043   2.723   2.294  2.0630  0.7681  1.0498
 1756TIP3    H2 5275   0.084   2.704   2.213  0.3192 -1.4905 -1.3328
 1757TIP3   OH2 5276   1.425   5.252   2.648  0.5381 -0.0066 -0.3280
 1757TIP3    H1 5277   1.497   5.312   2.628  1.4677 -1.2643 -0.8157
 1757TIP3    H2 5278   1.395   5.279   2.735  2.1978 -0.0297  0.2797
 1758TIP3   OH2 5279   2.275   5.863   4.180 -0.2912 -0.0648 -0.5166
 1758TIP3    H1 5280   2.198   5.830   4.225  1.6375 -2.0115  1.5900
 1758TIP3    H2 5281   2.262   5.958   4.176 -3.7331 -0.4291 -2.3022
 1759TIP3   OH2 5282   3.405   4.888   3.239  0.2000 -0.0179 -0.2597
 1759TIP3    H1 5283   3.486   4.920   3.200  1.0904 -0.3111  1.2989
 1759TIP3    H2 5284   3.363   4.967   3.274  1.2722 -0.1913  1.5280
 1760TIP3   OH2 5285   4.794   2.705   0.439 -0.4551 -0.8109  0.4656
 1760TIP3    H1 5286   4.825   2.762   0.510  0.3171 -0.4058 -0.1752
 1760TIP3    H2 5287   4.875   2.671   0.399 -0.8924 -1.7085  0.3110
 1761TIP3   OH2 5288   1.066   4.722   0.248  0.4681 -0.1934  0.0465
 1761TIP3    H1 5289   1.076   4.766   0.332  1.0770 -1.2684  0.5590
 1761TIP3    H2 5290   0.997   4.658   0.262  0.0494  0.1249 -0.5009
 1762TIP3   OH2 5291   3.039   1.015   4.859  0.0199  0.7408  0.3465
 1762TIP3    H1 5292   2.970   1.033   4.795 -1.1264  0.8129  1.5836
 1762TIP3    H2 5293   3.011   0.935   4.904  2.7926 -1.7881 -1.9195
 1763TIP3   OH2 5294   6.209   3.933   3.606  0.0589  0.8207  0.3204
 1763TIP3    H1 5295   6.188   3.860   3.548 -1.8426  1.1516  0.5262
 1763TIP3    H2 5296   6.138   3.996   3.591  0.2787  1.5104  2.0024
 1764TIP3   OH2 5297   5.461   1.151   2.783 -0.2863 -0.3935 -0.1972
 1764TIP3    H1 5298   5.543   1.160   2.735  0.1842  1.7950  0.9225
 1764TIP3    H2 5299   5.405   1.220   2.748 -0.6481 -0.0724  0.9654
 1765TIP3   OH2 5300   1.538   1.750   0.172  0.1569 -0.3754  0.0353
 1765TIP3    H1 5301   1.619   1.701   0.159 -0.8190 -1.7338 -1.3591
 1765TIP3    H2 5302   1.535   1.767   0.266  0.7947 -2.6194  0.5254
 1766TIP3   OH2 5303   4.099   0.498   4.206 -0.0305  0.2199  0.0411
 1766TIP3    H1 5304   4.017   0.542   4.228 -2.4264 -3.7545 -0.0017
 1766TIP3    H2 5305   4.108   0.510   4.112 -1.9796 -1.2761 -0.3966
 1767TIP3   OH2 5306   6.132   4.210   0.766 -0.1951  0.3911 -0.0262
 1767TIP3    H1 5307   6.195   4.210   0.695  0.8929 -0.3026  0.9097
 1767TIP3    H2 5308   6.118   4.118   0.787  2.2690  0.5084  2.9581
 1768TIP3   OH2 5309   5.654   0.194   2.307 -0.0094 -0.0533 -0.2277
 1768TIP3    H1 5310   5.617   0.105   2.309  1.4488 -0.7177 -1.1836
 1768TIP3    H2 5311   5.667   0.216   2.399 -0.2865 -0.8880  0.0218
 1769TIP3   OH2 5312   1.762   1.174   4.647 -0.3770 -0.4068 -0.1335
 1769TIP3    H1 5313   1.828   1.169   4.577  0.2466  2.2501  0.1492
 1769TIP3    H2 5314   1.678   1.173   4.600  0.0076  0.4160 -0.8703
 1770TIP3   OH2 5315   2.099   2.199   1.134 -0.0962  0.0240  0.5501
 1770TIP3    H1 5316   2.118   2.262   1.203 -0.1454  0.0454  0.5440
 1770TIP3    H2 5317   2.148   2.231   1.058  0.8435 -0.5851  0.8702
 1771TIP3   OH2 5318   5.645   5.798   0.068 -0.4084 -0.2317 -0.1795
 1771TIP3    H1 5319   5.608   5.886   0.062  0.0635  0.2347  2.3421
 1771TIP3    H2 5320   5.650   5.780   0.162  3.4259 -1.2106 -0.3671
 1772TIP3   OH2 5321   0.485   3.858   2.451  0.2259  1.0606  0.3957
 1772TIP3    H1 5322   0.396   3.887   2.432 -1.0047 -2.4827  0.1062
 1772TIP3    H2 5323   0.510   3.802   2.378  2.0588  0.6753  1.2361
 1773TIP3   OH2 5324   0.628   0.978   4.474 -0.1078  0.1610  0.1102
 1773TIP3    H1 5325   0.626   0.943   4.563  1.0805 -2.8389 -0.9164
 1773TIP3    H2 5326   0.721   0.985   4.453 -0.3467  1.9524 -0.5613
 1774TIP3   OH2 5327   2.841   3.123   0.640 -0.0601 -0.1060 -0.2748
 1774TIP3    H1 5328   2.917   3.065   0.641 -1.0961 -1.5286 -0.2809
 1774TIP3    H2 5329   2.766   3.064   0.630 -1.3880  0.9731  2.2186
 1775TIP3   OH2 5330   0.869   3.777   2.255  0.5726  0.2813 -0.1760
 1775TIP3    H1 5331   0.958   3.805   2.236  0.4930 -0.3324 -1.5233
 1775TIP3    H2 5332   0.871   3.682   2.244 -0.0893  0.1865  0.4677
 1776TIP3   OH2 5333   2.642   4.223   3.404 -0.2856 -0.0548 -0.1550
 1776TIP3    H1 5334   2.697   4.146   3.388  0.1756  0.4073 -0.8997
 1776TIP3    H2 5335   2.552   4.192   3.391 -0.1290 -0.5733  0.0001
 1777TIP3   OH2 5336   1.171   2.087   0.950  0.8871 -0.4777 -0.5244
 1777TIP3    H1 5337   1.225   2.081   0.871 -0.5433 -0.1217 -1.5666
 1777TIP3    H2 5338   1.116   2.164   0.935  0.4657 -0.5083  0.7619
 1778TIP3   OH2 5339   5.041   4.119   4.419  0.0533  0.0119  0.4216
 1778TIP3    H1 5340   5.045   4.042   4.361 -0.8488 -1.8145  2.6450
 1778TIP3    H2 5341   5.133   4.142   4.434  0.4522 -1.8547  1.1686
 1779TIP3   OH2 5342   2.869   2.237   0.438  0.4552 -0.5190 -0.0659
 1779TIP3    H1 5343   2.855   2.198   0.525 -0.6492 -1.2932 -0.5742
 1779TIP3    H2 5344   2.962   2.221   0.420  0.6383 -0.5544  0.8728
 1780TIP3   OH2 5345   2.259   5.510   2.977 -0.3119  0.0842 -0.1505
 1780TIP3    H1 5346   2.252   5.422   3.014  1.0315  0.0044 -0.0264
 1780TIP3    H2 5347   2.204   5.564   3.034  0.1873 -0.3879  0.8101
 1781TIP3   OH2 5348   0.255   1.299   0.576  0.4064 -0.1781  0.0197
 1781TIP3    H1 5349   0.230   1.366   0.640  0.3929 -0.5596  0.4145
 1781TIP3    H2 5350   0.172   1.258   0.550  0.5028 -0.6480  0.4493
 1782TIP3   OH2 5351   4.402   0.776   4.662  0.0448 -0.1628  0.3844
 1782TIP3    H1 5352   4.418   0.735   4.577  2.6949  1.4022 -0.0091
 1782TIP3    H2 5353   4.416   0.706   4.725  0.6710 -0.7522 -0.3830
 1783TIP3   OH2 5354   5.713   5.035   2.525  0.2669 -0.5192 -0.4581
 1783TIP3    H1 5355   5.618   5.030   2.514  0.2438 -2.1669  0.2031
 1783TIP3    H2 5356   5.747   5.035   2.435 -0.3008 -2.9128 -0.7601
 1784TIP3   OH2 5357   0.542   2.490   4.189 -0.2269 -0.1186 -0.2961
 1784TIP3    H1 5358   0.478   2.549   4.150 -0.5453 -0.6256 -0.5617
 1784TIP3    H2 5359   0.561   2.426   4.120  0.9830  0.3388 -0.4072
 1785TIP3   OH2 5360   0.099   1.861   1.092 -0.0798 -0.0624  0.2766
 1785TIP3    H1 5361   0.023   1.815   1.128  0.0609 -1.6553 -1.2983
 1785TIP3    H2 5362   0.065   1.901   1.012  0.7704 -1.1167 -0.6488
 1786TIP3   OH2 5363   4.910   4.856   4.118  0.1396 -0.3360 -0.0953
 1786TIP3    H1 5364   4.985   4.796   4.121 -0.2014 -0.8737 -1.5774
 1786TIP3    H2 5365   4.918   4.900   4.033  0.0280  1.2832  0.6963
 1787TIP3   OH2 5366   2.305   3.277   1.211 -0.1449  0.5533 -0.0185
 1787TIP3    H1 5367   2.375   3.211   1.210 -0.0204  0.6850 -0.1970
 1787TIP3    H2 5368   2.270   3.276   1.121  0.0014  0.8790 -0.0830
 1788TIP3   OH2 5369   0.171   2.010   1.908 -0.4796  0.6882  0.2070
 1788TIP3    H1 5370   0.107   2.033   1.976 -1.7137  2.7151 -1.5028
 1788TIP3    H2 5371   0.243   2.071   1.921 -0.0631  0.1277  0.5520
 1789TIP3   OH2 5372   1.187   1.662   1.362 -0.3141  0.1654 -0.0450
 1789TIP3    H1 5373   1.155   1.682   1.450 -2.3918  0.0878 -0.7350
 1789TIP3    H2 5374   1.188   1.567   1.357 -3.0319  0.1156 -0.9998
 1790TIP3   OH2 5375   1.913   1.551   2.456 -0.1550 -0.6530 -0.0117
 1790TIP3    H1 5376   1.955   1.494   2.520  1.7507  0.6308 -0.0322
 1790TIP3    H2 5377   1.853   1.494   2.408 -1.9457 -1.5807  3.1087
 1791TIP3   OH2 5378   6.255   2.059   2.453  0.7810 -0.2724 -0.3366
 1791TIP3    H1 5379   6.258   2.034   2.546  2.8399 -2.1316 -0.8213
 1791TIP3    H2 5380   6.191   1.999   2.415  0.5335 -0.0486 -0.2786
 1792TIP3   OH2 5381   1.117   1.854   3.695  0.0629 -0.5304 -1.0096
 1792TIP3    H1 5382   1.192   1.871   3.752 -0.5738  2.1604 -0.8070
 1792TIP3    H2 5383   1.111   1.759   3.689  1.3884 -0.8627  1.7370
 1793TIP3   OH2 5384   2.347   1.460   2.310 -0.3564  0.3200  0.0927
 1793TIP3    H1 5385   2.385   1.455   2.398  0.0041  1.0801 -0.0128
 1793TIP3    H2 5386   2.384   1.540   2.273 -2.0385  1.0713 -0.0368
 1794TIP3   OH2 5387   0.826   2.350   2.029 -0.0710  0.9230 -0.1231
 1794TIP3    H1 5388   0.870   2.336   2.113 -2.2456  0.8103  1.0469
 1794TIP3    H2 5389   0.870   2.289   1.969  0.4647 -0.1363  1.2975
 1795TIP3   OH2 5390   5.149   2.025   3.750  0.1038  0.6945  0.3490
 1795TIP3    H1 5391   5.183   2.096   3.694 -1.7994  1.7105  0.3893
 1795TIP3    H2 5392   5.174   1.945   3.704  2.0029  1.3561  0.1094
 1796TIP3   OH2 5393   0.868   1.550   5.035 -0.0818  0.1876  0.0330
 1796TIP3    H1 5394   0.793   1.497   5.008  0.3656 -0.3498 -0.1761
 1796TIP3    H2 5395   0.851   1.571   5.127 -0.3427 -0.1879  0.0730
 1797TIP3   OH2 5396   2.421   0.360   0.942 -0.2865 -0.3040  0.7625
 1797TIP3    H1 5397   2.512   0.358   0.972 -0.1022 -0.6283  0.1807
 1797TIP3    H2 5398   2.416   0.293   0.874 -0.9976 -0.3867  0.8901
 1798TIP3   OH2 5399   1.636   5.694   4.395 -0.4035 -0.1244  0.1128
 1798TIP3    H1 5400   1.574   5.655   4.334  0.1414  1.4099 -1.5269
 1798TIP3    H2 5401   1.605   5.785   4.405  0.6430  0.1954  0.5759
 1799TIP3   OH2 5402   3.312   5.701   3.811 -0.3229  0.3188 -0.3454
 1799TIP3    H1 5403   3.316   5.760   3.886 -1.7383  0.8310 -0.6278
 1799TIP3    H2 5404   3.352   5.620   3.841  1.2649  1.2760  0.1926
 1800TIP3   OH2 5405   3.227   1.880   2.026  0.1098 -0.2185 -0.1632
 1800TIP3    H1 5406   3.242   1.974   2.034 -0.2870 -0.2340  0.9056
 1800TIP3    H2 5407   3.310   1.840   2.051 -0.2068 -0.1834  0.9855
 1801TIP3   OH2 5408   0.891   0.981   1.158 -0.2839 -0.7338  0.3882
 1801TIP3    H1 5409   0.882   1.039   1.233 -1.0247  0.3896 -0.5353
 1801TIP3    H2 5410   0.936   1.033   1.092 -1.5205 -0.9674 -0.6812
 1802TIP3   OH2 5411   1.983   5.736   4.118 -0.3901 -0.1625 -0.2610
 1802TIP3    H1 5412   1.959   5.689   4.198  1.4326 -0.7630 -0.0249
 1802TIP3    H2 5413   1.944   5.823   4.129  0.5922  0.0919  1.7554
 1803TIP3   OH2 5414   0.550   5.758   3.335  0.3479 -0.0331 -0.1558
 1803TIP3    H1 5415   0.542   5.850   3.357  0.6206  0.0539 -0.4128
 1803TIP3    H2 5416   0.640   5.748   3.305  0.7899 -0.6900  1.2934
 1804TIP3   OH2 5417   0.851   0.834   1.433 -0.1056  0.2511  0.2186
 1804TIP3    H1 5418   0.899   0.910   1.464  0.2948  0.5099 -0.9972
 1804TIP3    H2 5419   0.916   0.764   1.429 -0.7454 -0.5943  2.6717
 1805TIP3   OH2 5420   5.195   5.364   1.458 -0.4192  0.4992 -0.1397
 1805TIP3    H1 5421   5.173   5.349   1.366  1.6226 -0.7173 -0.5085
 1805TIP3    H2 5422   5.111   5.378   1.501 -1.4484  0.8381 -2.1404
 1806TIP3   OH2 5423   6.308   4.046   2.269 -0.2923  0.3685 -0.0312
 1806TIP3    H1 5424   6.308   4.137   2.240  1.8611  0.0702 -1.1003
 1806TIP3    H2 5425   6.313   4.052   2.365 -0.4368  1.3656 -0.0717
 1807TIP3   OH2 5426   0.491   2.042   1.483 -0.0320 -0.0314  0.4761
 1807TIP3    H1 5427   0.499   1.953   1.449 -1.1474  0.0007  0.0867
 1807TIP3    H2 5428   0.397   2.056   1.492  0.1371  1.0376  0.7280
 1808TIP3   OH2 5429   0.127   1.621   2.647 -0.2015 -1.2128  0.5695
 1808TIP3    H1 5430   0.046   1.576   2.621 -1.0746 -0.2032  1.4490
 1808TIP3    H2 5431   0.187   1.606   2.574 -1.9888  0.0946 -1.2722
 1809TIP3   OH2 5432   2.346   5.839   2.085 -0.2521 -0.6086  0.1044
 1809TIP3    H1 5433   2.331   5.808   2.174 -0.3001 -0.2916  0.2055
 1809TIP3    H2 5434   2.396   5.920   2.095 -0.0169 -0.7145 -0.1676
 1810TIP3   OH2 5435   4.196   0.774   2.637 -0.8650 -0.1816  0.2931
 1810TIP3    H1 5436   4.280   0.796   2.677 -1.2796  0.1089  1.0315
 1810TIP3    H2 5437   4.138   0.755   2.711 -1.6584  0.3778 -0.1559
 1811TIP3   OH2 5438   1.818   2.000   1.452 -0.4342  0.5809  0.0284
 1811TIP3    H1 5439   1.756   1.936   1.418 -2.7920  1.8725  1.5357
 1811TIP3    H2 5440   1.788   2.016   1.542  2.0478  1.4063  0.7862
 1812TIP3   OH2 5441   1.968   4.040   5.082  0.3821 -0.1313  0.3817
 1812TIP3    H1 5442   1.952   4.045   5.176  0.2714  0.4636  0.3356
 1812TIP3    H2 5443   1.971   3.946   5.063  1.1635 -0.2732  1.1081
 1813TIP3   OH2 5444   3.069   4.271   5.032 -0.2646 -0.3176  0.5399
 1813TIP3    H1 5445   3.030   4.187   5.054 -0.9596  0.1886  1.2897
 1813TIP3    H2 5446   3.148   4.277   5.086 -0.1814 -0.5077  0.4403
 1814TIP3   OH2 5447   4.509   5.868   2.423 -0.3469  1.0477  0.9340
 1814TIP3    H1 5448   4.577   5.935   2.429 -0.0764  0.8413  0.2704
 1814TIP3    H2 5449   4.435   5.914   2.382  0.4660  0.5198 -1.2965
 1815TIP3   OH2 5450   5.395   3.709   3.042  0.2518  0.5553 -0.1600
 1815TIP3    H1 5451   5.341   3.676   3.114  0.6137 -0.0472 -0.1626
 1815TIP3    H2 5452   5.336   3.765   2.991 -0.7673 -1.1849 -0.9693
 1816TIP3   OH2 5453   5.329   5.508   0.820 -0.2466 -0.1978  0.2873
 1816TIP3    H1 5454   5.237   5.504   0.795 -0.0598 -0.9740 -0.3042
 1816TIP3    H2 5455   5.376   5.521   0.737  0.1395  0.8778  0.6540
 1817TIP3   OH2 5456   4.202   1.707   4.864 -0.4391 -0.6588  0.3006
 1817TIP3    H1 5457   4.207   1.791   4.819  1.8573  0.1681  1.9466
 1817TIP3    H2 5458   4.117   1.708   4.907 -1.9190 -0.7063 -2.3579
 1818TIP3   OH2 5459   1.013   5.314   0.705 -0.1521 -0.3489  0.7047
 1818TIP3    H1 5460   0.963   5.234   0.690  2.1470 -1.9562  1.0508
 1818TIP3    H2 5461   1.001   5.334   0.798 -0.1018 -0.7731  0.8027
 1819TIP3   OH2 5462   2.067   0.398   4.753  0.1824  0.3958  0.6278
 1819TIP3    H1 5463   2.014   0.400   4.674  0.3106 -0.1222  0.5273
 1819TIP3    H2 5464   2.148   0.444   4.729  0.2144  0.2530  0.4649
 1820TIP3   OH2 5465   3.922   0.524   2.745  0.0862  0.0068 -0.0643
 1820TIP3    H1 5466   3.927   0.470   2.667  3.2594  0.1216 -0.0406
 1820TIP3    H2 5467   3.861   0.476   2.803  0.5535 -2.0108 -1.1516
 1821TIP3   OH2 5468   2.314   5.048   2.901 -0.5985  0.5665 -0.7802
 1821TIP3    H1 5469   2.395   5.098   2.909 -0.4599  0.3104 -0.5369
 1821TIP3    H2 5470   2.325   4.997   2.821  0.1191 -0.5802  0.0070
 1822TIP3   OH2 5471   2.001   4.611   1.828  0.3589  0.3382  0.5146
 1822TIP3    H1 5472   2.015   4.661   1.909  1.1333 -0.3103  0.7990
 1822TIP3    H2 5473   2.041   4.526   1.846 -0.2369 -0.1121 -0.2475
 1823TIP3   OH2 5474   4.520   4.184   0.584 -0.4338 -0.4023  0.1891
 1823TIP3    H1 5475   4.479   4.263   0.618 -1.8650 -1.3552  0.7964
 1823TIP3    H2 5476   4.612   4.194   0.605 -1.0532 -0.4149  3.4930
 1824TIP3   OH2 5477   1.939   4.477   4.107 -0.3202 -0.9046 -0.0983
 1824TIP3    H1 5478   1.902   4.565   4.105 -0.4315 -0.9401  0.3094
 1824TIP3    H2 5479   2.024   4.486   4.064 -0.4280 -0.6448 -0.2569
 1825TIP3   OH2 5480   3.034   0.828   2.432 -0.5607 -0.0746  0.2591
 1825TIP3    H1 5481   3.028   0.861   2.342 -0.8846 -1.2462 -0.1629
 1825TIP3    H2 5482   2.967   0.878   2.479 -1.9786 -1.0249 -0.6694
 1826TIP3   OH2 5483   5.959   4.323   2.518  0.0712 -0.4246  0.2112
 1826TIP3    H1 5484   6.042   4.309   2.563 -0.3569 -0.7774  0.9209
 1826TIP3    H2 5485   5.897   4.341   2.589 -0.6144 -0.9573 -0.2412
 1827TIP3   OH2 5486   3.275   0.664   1.126  0.4062 -0.3982  0.4054
 1827TIP3    H1 5487   3.290   0.570   1.140 -1.5268 -0.5434  1.9055
 1827TIP3    H2 5488   3.180   0.671   1.112  0.2301  1.4797  2.0491
 1828TIP3   OH2 5489   0.225   5.020   2.802  0.0214  0.8738  0.7894
 1828TIP3    H1 5490   0.176   4.979   2.873 -0.7825  0.7931  0.1986
 1828TIP3    H2 5491   0.166   5.017   2.726  1.0882  0.3881 -0.0571
 1829TIP3   OH2 5492   0.393   3.618   4.768 -0.7891 -0.3969  0.3051
 1829TIP3    H1 5493   0.379   3.647   4.678  1.4444 -0.8984 -0.2875
 1829TIP3    H2 5494   0.312   3.574   4.792 -1.2978 -0.6309 -1.6348
 1830TIP3   OH2 5495   2.443   5.231   2.698  0.0115 -0.1074  0.5951
 1830TIP3    H1 5496   2.534   5.250   2.720  0.5965  0.5032 -1.9680
 1830TIP3    H2 5497   2.441   5.137   2.680  0.2568 -0.0387  0.1986
 1831TIP3   OH2 5498   5.816   5.032   4.570  0.4201  0.1735  0.0347
 1831TIP3    H1 5499   5.911   5.043   4.571  0.7477 -1.5787 -2.4321
 1831TIP3    H2 5500   5.786   5.085   4.496 -0.4756  0.3027  0.4746
 1832TIP3   OH2 5501   1.451   3.544   4.439  0.0012 -0.3077 -0.0167
 1832TIP3    H1 5502   1.454   3.527   4.533 -0.2967  1.2270  0.2862
 1832TIP3    H2 5503   1.414   3.464   4.402 -1.3325 -0.3582  1.3293
 1833TIP3   OH2 5504   3.906   2.814   3.566  0.2978  0.1897 -0.1063
 1833TIP3    H1 5505   4.002   2.820   3.561  0.6392 -3.4108 -1.3281
 1833TIP3    H2 5506   3.877   2.821   3.475 -0.4476 -0.1116  0.0989
 1834TIP3   OH2 5507   1.519   2.403   1.529 -0.6643  0.1126 -0.5576
 1834TIP3    H1 5508   1.523   2.488   1.486 -1.4189  1.0818  1.2118
 1834TIP3    H2 5509   1.609   2.372   1.529 -0.4351  0.7319 -1.5436
 1835TIP3   OH2 5510   3.333   3.948   3.867 -0.0396 -0.0951 -0.2801
 1835TIP3    H1 5511   3.297   3.992   3.791 -1.2148 -0.8066 -0.1647
 1835TIP3    H2 5512   3.327   4.012   3.938 -0.3699  0.0549 -0.4438
 1836TIP3   OH2 5513   2.819   5.490   1.044  0.3361  0.8516  0.3891
 1836TIP3    H1 5514   2.910   5.474   1.020  0.1444  0.5034 -0.1384
 1836TIP3    H2 5515   2.797   5.420   1.105 -0.3514 -0.7199 -1.5279
 1837TIP3   OH2 5516   3.245   5.522   3.276  0.0955 -0.7453  0.1175
 1837TIP3    H1 5517   3.335   5.545   3.251 -0.1485 -1.4273 -1.5678
 1837TIP3    H2 5518   3.222   5.450   3.217 -2.0417  0.3166 -0.4457
 1838TIP3   OH2 5519   3.173   1.630   2.177  0.5351 -0.6673  0.8466
 1838TIP3    H1 5520   3.153   1.701   2.239  2.7941 -0.7310  1.7275
 1838TIP3    H2 5521   3.264   1.645   2.152  0.3070 -1.8902 -0.8375
 1839TIP3   OH2 5522   0.824   1.757   1.030  0.2767 -0.0023  0.1934
 1839TIP3    H1 5523   0.835   1.809   0.950  0.2139  0.3033  0.3799
 1839TIP3    H2 5524   0.902   1.776   1.082  0.0058  0.3087  0.4857
 1840TIP3   OH2 5525   3.396   4.129   1.977 -0.4610  0.5076  0.1177
 1840TIP3    H1 5526   3.344   4.191   1.925 -2.4212 -1.1414  0.0141
 1840TIP3    H2 5527   3.388   4.046   1.930  1.0112 -0.1551  0.9767
 1841TIP3   OH2 5528   4.639   2.301   0.532 -0.6606 -0.3509  0.0830
 1841TIP3    H1 5529   4.728   2.266   0.525 -0.7987 -0.7307  0.1897
 1841TIP3    H2 5530   4.612   2.316   0.441 -0.1697  0.5845  0.0871
 1842TIP3   OH2 5531   3.504   3.935   1.262  0.2117  0.0567  0.1775
 1842TIP3    H1 5532   3.513   3.966   1.352  0.2535 -0.0376  0.2064
 1842TIP3    H2 5533   3.424   3.883   1.262  1.9201 -2.8418  1.0136
 1843TIP3   OH2 5534   5.727   1.244   3.719 -0.3500 -0.3846  0.0788
 1843TIP3    H1 5535   5.691   1.318   3.768 -1.2377 -0.9530  0.3165
 1843TIP3    H2 5536   5.806   1.219   3.767  0.0266  0.4733 -0.0711
 1844TIP3   OH2 5537   6.215   3.322   4.626 -0.6190  0.1412 -0.2578
 1844TIP3    H1 5538   6.171   3.400   4.660 -0.1191  0.1127  0.4770
 1844TIP3    H2 5539   6.307   3.335   4.648 -0.3637 -0.1493 -1.1163
 1845TIP3   OH2 5540   3.123   0.208   1.070 -0.5190  0.3330  0.1479
 1845TIP3    H1 5541   3.200   0.221   1.126 -0.9890 -0.4140  1.0011
 1845TIP3    H2 5542   3.051   0.248   1.119 -0.8465  0.1371 -0.1703
 1846TIP3   OH2 5543   1.970   0.252   3.077  0.5030  0.1687  0.0309
 1846TIP3    H1 5544   2.017   0.324   3.118  0.6344 -0.1151  0.3812
 1846TIP3    H2 5545   1.941   0.198   3.150 -1.1522  0.8036 -0.0849
 1847TIP3   OH2 5546   0.292   3.940   2.953 -0.0967 -0.1627 -0.0097
 1847TIP3    H1 5547   0.361   3.890   2.997 -0.3570 -0.6350 -0.1360
 1847TIP3    H2 5548   0.248   3.877   2.897 -0.8235  0.0647  0.2890
 1848TIP3   OH2 5549   6.243   1.847   3.776 -0.0300  0.5973  0.4929
 1848TIP3    H1 5550   6.214   1.796   3.852 -0.7254  0.5647  0.2127
 1848TIP3    H2 5551   6.171   1.908   3.759  0.4357  1.1007  0.3062
 1849TIP3   OH2 5552   5.915   0.214   0.915  0.6553  0.1786  0.4707
 1849TIP3    H1 5553   5.947   0.304   0.901  1.6361 -0.0363  1.2280
 1849TIP3    H2 5554   5.991   0.167   0.950 -0.2520 -0.5824  1.4557
 1850TIP3   OH2 5555   1.206   2.980   3.186  0.2686 -0.0526 -0.1798
 1850TIP3    H1 5556   1.161   3.038   3.248  0.9003  0.5957 -0.3165
 1850TIP3    H2 5557   1.185   3.015   3.100 -0.7331 -1.0431 -0.3665
 1851TIP3   OH2 5558   1.408   0.886   2.952  0.1580  0.4004  0.1624
 1851TIP3    H1 5559   1.432   0.969   2.911  0.0581  0.0473 -0.6283
 1851TIP3    H2 5560   1.489   0.836   2.954 -0.5964 -1.4168 -3.9554
 1852TIP3   OH2 5561   3.651   2.204   3.202  0.3602 -0.4296 -0.4663
 1852TIP3    H1 5562   3.566   2.213   3.159  0.9354  0.9538 -1.4126
 1852TIP3    H2 5563   3.681   2.116   3.179  0.7684  0.3293 -3.2595
 1853TIP3   OH2 5564   3.768   1.947   3.219 -0.2989 -0.5102 -0.5493
 1853TIP3    H1 5565   3.753   1.908   3.305 -0.0954  0.9113  0.1618
 1853TIP3    H2 5566   3.826   1.886   3.175 -1.9841 -2.2841 -0.4731
 1854TIP3   OH2 5567   2.273   1.273   2.798 -0.2764 -0.2512  0.1771
 1854TIP3    H1 5568   2.251   1.314   2.881  2.2487 -0.7674  1.2016
 1854TIP3    H2 5569   2.369   1.278   2.793 -0.0988 -2.9312 -1.2568
 1855TIP3   OH2 5570   1.938   2.932   2.622 -0.4221 -0.5737 -0.1069
 1855TIP3    H1 5571   1.911   2.853   2.576 -1.6463 -0.9545  1.1871
 1855TIP3    H2 5572   1.987   2.900   2.697 -0.9044 -0.1204  0.4105
 1856TIP3   OH2 5573   4.042   0.987   4.851 -0.3109  0.4212 -0.0772
 1856TIP3    H1 5574   3.946   0.986   4.857 -0.2757  1.5943  1.0092
 1856TIP3    H2 5575   4.071   1.008   4.939  1.0180 -1.2752 -0.0616
 1857TIP3   OH2 5576   0.642   2.935   2.333 -0.0337  0.4616  0.5667
 1857TIP3    H1 5577   0.694   3.003   2.376  1.8134 -0.1414 -0.5996
 1857TIP3    H2 5578   0.566   2.982   2.299 -0.1689  1.4281  2.0715
 1858TIP3   OH2 5579   2.536   4.560   4.908 -0.1982 -0.4158  0.5099
 1858TIP3    H1 5580   2.448   4.527   4.927  0.2129 -0.3408  2.7560
 1858TIP3    H2 5581   2.562   4.514   4.829 -1.8813 -1.1486  0.3374
 1859TIP3   OH2 5582   3.042   2.078   3.221  0.2220  0.0114 -0.3599
 1859TIP3    H1 5583   3.132   2.110   3.224  0.1798  0.0923  1.3088
 1859TIP3    H2 5584   2.991   2.146   3.265 -0.1079 -1.5128  1.7746
 1860TIP3   OH2 5585   4.884   2.044   4.192 -0.5005 -0.0806 -0.1640
 1860TIP3    H1 5586   4.962   2.085   4.230  0.1599 -1.3603 -0.0746
 1860TIP3    H2 5587   4.891   2.059   4.098 -0.2630  0.0058 -0.1322
 1861TIP3   OH2 5588   2.674   2.970   1.854  0.0006  0.1717  0.3644
 1861TIP3    H1 5589   2.625   3.002   1.929 -0.7285 -0.2058  0.0660
 1861TIP3    H2 5590   2.736   3.040   1.833  0.8028 -0.0711  1.8280
 1862TIP3   OH2 5591   6.033   2.580   0.363 -0.4610  0.2695 -0.1124
 1862TIP3    H1 5592   6.113   2.527   0.367 -0.9155 -0.3657  1.2578
 1862TIP3    H2 5593   6.022   2.613   0.453 -2.6010 -0.9929  0.1392
 1863TIP3   OH2 5594   2.438   2.266   3.040  0.4500  0.2694  0.3478
 1863TIP3    H1 5595   2.532   2.251   3.026  0.0934 -0.5184 -1.4425
 1863TIP3    H2 5596   2.410   2.317   2.965 -1.1592 -2.2535 -0.9218
 1864TIP3   OH2 5597   6.219   5.864   1.598 -0.2651 -0.1724  0.4400
 1864TIP3    H1 5598   6.243   5.867   1.505  1.7575 -1.6020  0.8539
 1864TIP3    H2 5599   6.298   5.895   1.643  0.2711 -3.1593  1.8018
 1865TIP3   OH2 5600   3.485   1.406   1.203  0.0893 -0.2178 -0.0719
 1865TIP3    H1 5601   3.406   1.392   1.255  1.0465  0.0440  1.5020
 1865TIP3    H2 5602   3.544   1.454   1.261  1.5344 -0.6795 -1.0999
 1866TIP3   OH2 5603   3.589   2.726   0.200 -0.4726  0.0498 -0.4467
 1866TIP3    H1 5604   3.537   2.794   0.157 -1.2435 -0.0328  0.3168
 1866TIP3    H2 5605   3.677   2.765   0.209 -0.6654  0.5862 -0.8504
 1867TIP3   OH2 5606   1.504   2.895   3.733  0.0139 -0.0114 -0.1288
 1867TIP3    H1 5607   1.472   2.928   3.648  1.9046 -0.8569 -1.2346
 1867TIP3    H2 5608   1.444   2.823   3.754 -1.8183  1.5731  0.4096
 1868TIP3   OH2 5609   5.035   5.740   2.232 -0.1618  0.0285  0.3004
 1868TIP3    H1 5610   5.051   5.834   2.229  1.1965 -0.2144 -0.8761
 1868TIP3    H2 5611   5.063   5.707   2.147 -0.5428 -1.4577  0.7123
 1869TIP3   OH2 5612   3.565   0.616   1.385 -0.2732  0.3519 -0.1144
 1869TIP3    H1 5613   3.573   0.522   1.366  1.5711  0.4625 -0.1140
 1869TIP3    H2 5614   3.653   0.642   1.414 -0.9581  1.9166  0.6876
 1870TIP3   OH2 5615   5.812   4.346   4.045  0.0341 -0.0117 -0.2975
 1870TIP3    H1 5616   5.759   4.288   4.099  0.4871 -0.8102 -0.6929
 1870TIP3    H2 5617   5.816   4.303   3.960  0.6637  0.4336 -0.5024
 1871TIP3   OH2 5618   0.458   4.797   3.470 -0.3872  0.3711 -0.0205
 1871TIP3    H1 5619   0.490   4.742   3.399  0.4309 -0.6001  1.0710
 1871TIP3    H2 5620   0.431   4.736   3.538 -0.8917  1.2852  0.6278
 1872TIP3   OH2 5621   0.723   1.277   4.492  0.2234 -0.0944  0.3000
 1872TIP3    H1 5622   0.693   1.186   4.495 -2.1946  0.5873 -0.5606
 1872TIP3    H2 5623   0.754   1.289   4.403 -0.0053  0.0653  0.2403
 1873TIP3   OH2 5624   3.004   4.053   0.135 -0.1107  0.6393 -0.5214
 1873TIP3    H1 5625   2.909   4.050   0.123 -0.0735 -1.7494 -0.6994
 1873TIP3    H2 5626   3.018   4.018   0.223  0.6409 -0.2665 -0.9818
 1874TIP3   OH2 5627   1.965   1.588   0.572  0.5285  0.2669  0.3172
 1874TIP3    H1 5628   2.014   1.618   0.495  1.7505 -1.9821  0.1554
 1874TIP3    H2 5629   1.973   1.660   0.635  3.1218  0.4720 -0.1364
 1875TIP3   OH2 5630   3.724   0.972   3.015  0.2692  0.7692 -0.2994
 1875TIP3    H1 5631   3.685   0.898   3.062 -0.3158  0.8597 -0.6369
 1875TIP3    H2 5632   3.651   1.033   3.001  0.8888  1.7388  0.5930
 1876TIP3   OH2 5633   0.006   5.645   2.585 -0.4631 -0.2958 -0.3283
 1876TIP3    H1 5634   0.059   5.714   2.545 -0.5855  1.5985  2.4891
 1876TIP3    H2 5635  -0.058   5.622   2.518 -1.9416  4.0803 -0.7027
 1877TIP3   OH2 5636   5.907   4.870   0.901 -0.2138 -0.7309  0.1715
 1877TIP3    H1 5637   5.929   4.817   0.978 -1.9235  0.9704  1.9574
 1877TIP3    H2 5638   5.980   4.931   0.892  0.8979 -2.1439 -0.7880
 1878TIP3   OH2 5639   6.011   2.679   4.197 -0.5552 -0.3985  0.1591
 1878TIP3    H1 5640   5.978   2.753   4.146  1.0210 -0.0488 -0.4040
 1878TIP3    H2 5641   5.973   2.692   4.284  0.6888  1.8466  0.4502
 1879TIP3   OH2 5642   1.251   3.910   0.723 -0.9078  0.0503  0.4270
 1879TIP3    H1 5643   1.281   3.960   0.800 -2.4688  0.6502  0.6906
 1879TIP3    H2 5644   1.202   3.836   0.761 -1.5741  0.2791  0.0345
 1880TIP3   OH2 5645   3.397   4.915   4.817  1.0329 -0.4980 -0.6572
 1880TIP3    H1 5646   3.428   4.836   4.861 -0.1130 -0.4837  0.2312
 1880TIP3    H2 5647   3.444   4.916   4.734  1.0096 -2.1648 -0.7251
 1881TIP3   OH2 5648   1.585   3.957   4.330  0.0667 -0.3660 -0.1179
 1881TIP3    H1 5649   1.536   3.926   4.406  0.8920  1.2149  1.1437
 1881TIP3    H2 5650   1.638   3.882   4.304  1.5784 -0.3476  2.4624
 1882TIP3   OH2 5651   5.552   2.073   0.671 -0.7101  0.0323  0.0541
 1882TIP3    H1 5652   5.519   2.078   0.582 -1.0887 -1.3674  0.0817
 1882TIP3    H2 5653   5.535   2.159   0.709  1.4629  1.4110 -1.8698
 1883TIP3   OH2 5654   4.070   4.827   1.949  0.0369 -0.1946 -0.4286
 1883TIP3    H1 5655   4.005   4.801   1.883  0.3105 -0.4689 -0.5955
 1883TIP3    H2 5656   4.033   4.798   2.032  0.6243 -1.7301 -0.6728
 1884TIP3   OH2 5657   3.442   4.165   2.862 -0.4207  0.0730  0.3897
 1884TIP3    H1 5658   3.507   4.234   2.877  1.2845 -1.2520 -0.5945
 1884TIP3    H2 5659   3.397   4.157   2.946  0.9319  0.7999  1.2262
 1885TIP3   OH2 5660   2.395   1.097   0.342  0.0483  0.0718 -0.1281
 1885TIP3    H1 5661   2.443   1.176   0.368 -0.0636  0.8478 -2.1290
 1885TIP3    H2 5662   2.462   1.037   0.310  0.2128 -0.9806  1.9981
 1886TIP3   OH2 5663   5.424   3.639   2.038  0.0194  0.6659  0.2265
 1886TIP3    H1 5664   5.364   3.589   1.982  2.3306 -1.6376 -0.4118
 1886TIP3    H2 5665   5.496   3.663   1.979  0.6568  1.6511  1.3722
 1887TIP3   OH2 5666   3.673   2.448   0.910  0.7698  0.3031  0.7824
 1887TIP3    H1 5667   3.721   2.475   0.988  0.2238  0.8379  0.9486
 1887TIP3    H2 5668   3.599   2.397   0.944  0.5800  0.4613  0.6112
 1888TIP3   OH2 5669   5.586   2.135   3.849 -0.3125 -0.3801 -0.1755
 1888TIP3    H1 5670   5.576   2.060   3.907  0.2280 -0.0877  0.3117
 1888TIP3    H2 5671   5.581   2.211   3.907  0.4780 -0.0896 -0.4675
 1889TIP3   OH2 5672   2.596   1.848   4.147  0.0714  0.5556  0.2979
 1889TIP3    H1 5673   2.566   1.853   4.056 -0.5399  1.4065  0.5364
 1889TIP3    H2 5674   2.517   1.833   4.198  0.1405  1.8862  0.8473
 1890TIP3   OH2 5675   1.927   1.276   0.455  0.5214  0.0932 -0.0294
 1890TIP3    H1 5676   1.920   1.323   0.372  0.5023  1.1425  0.5531
 1890TIP3    H2 5677   2.021   1.280   0.476  0.4022  0.5405  0.4066
 1891TIP3   OH2 5678   2.363   2.941   5.114 -0.4395  0.7229 -0.3940
 1891TIP3    H1 5679   2.306   3.004   5.070  0.0213  0.9988 -0.6016
 1891TIP3    H2 5680   2.410   2.897   5.043  0.4220  1.2766 -0.1859
 1892TIP3   OH2 5681   5.033   5.437   2.085  0.8138  0.2011  0.2137
 1892TIP3    H1 5682   5.105   5.463   2.028  1.1794 -0.0989  0.5400
 1892TIP3    H2 5683   4.955   5.469   2.040  1.0638 -0.3898 -0.6663
 1893TIP3   OH2 5684   2.269   3.290   2.568  0.6719  0.2299 -0.7453
 1893TIP3    H1 5685   2.189   3.251   2.535 -0.3698 -0.2305  2.0340
 1893TIP3    H2 5686   2.332   3.217   2.572  0.6993  0.2199 -1.3389
 1894TIP3   OH2 5687   0.074   0.614   1.553 -0.0641 -0.0827 -0.1168
 1894TIP3    H1 5688   0.161   0.637   1.587  0.6400 -2.4478 -0.0551
 1894TIP3    H2 5689   0.038   0.554   1.619 -3.0665  2.9794  1.2856
 1895TIP3   OH2 5690   4.096   0.153   1.215 -0.0301  0.4076  0.9252
 1895TIP3    H1 5691   4.142   0.110   1.287  0.3183  0.2852  0.6267
 1895TIP3    H2 5692   4.134   0.241   1.212  1.3554 -0.1937 -0.3667
 1896TIP3   OH2 5693   5.282   1.158   1.989 -0.0803  0.3782  0.8605
 1896TIP3    H1 5694   5.340   1.094   2.030  1.4215  0.1915 -1.3897
 1896TIP3    H2 5695   5.335   1.238   1.983 -0.5572  0.6444  0.0993
 1897TIP3   OH2 5696   1.210   3.608   3.838 -0.0800 -0.4553 -0.0624
 1897TIP3    H1 5697   1.251   3.625   3.753  1.9039  1.1754  1.1636
 1897TIP3    H2 5698   1.231   3.516   3.856  0.5592 -0.4620 -0.7738
 1898TIP3   OH2 5699   0.771   2.872   0.842  0.5729  0.2126  0.2425
 1898TIP3    H1 5700   0.767   2.802   0.907  0.0623 -0.4627 -0.4982
 1898TIP3    H2 5701   0.748   2.830   0.759  1.9937  0.8853 -0.5231
 1899TIP3   OH2 5702   5.682   3.635   1.893  0.0318  0.9004 -0.0303
 1899TIP3    H1 5703   5.701   3.559   1.947  0.8239  1.5662  0.6671
 1899TIP3    H2 5704   5.764   3.652   1.845 -0.6415  0.3515 -1.4200
 1900TIP3   OH2 5705   3.739   2.960   0.824 -0.3704  0.2142 -0.5343
 1900TIP3    H1 5706   3.817   3.015   0.833  0.5281 -0.9719 -0.8111
 1900TIP3    H2 5707   3.708   2.948   0.914  1.0644 -1.0931 -0.1871
 1901TIP3   OH2 5708   2.350   3.716   3.856  0.5320  0.0964  0.1109
 1901TIP3    H1 5709   2.289   3.682   3.791  1.9699 -1.1742 -0.6484
 1901TIP3    H2 5710   2.294   3.747   3.928 -1.2010  2.9189 -2.2413
 1902TIP3   OH2 5711   2.379   4.457   4.203 -0.0683 -0.3375  0.2636
 1902TIP3    H1 5712   2.319   4.442   4.130 -0.5322 -2.1184  0.9557
 1902TIP3    H2 5713   2.331   4.515   4.262  0.1736  0.8237 -0.6468
 1903TIP3   OH2 5714   0.462   1.695   2.660 -0.3834  0.1606 -0.4251
 1903TIP3    H1 5715   0.436   1.671   2.571  0.9128 -1.8832 -0.3165
 1903TIP3    H2 5716   0.557   1.688   2.660 -0.3763  0.0440  1.1517
 1904TIP3   OH2 5717   0.613   3.715   4.447 -0.4717  0.2299  0.5459
 1904TIP3    H1 5718   0.637   3.691   4.358 -1.3747  4.8157 -1.2053
 1904TIP3    H2 5719   0.687   3.768   4.479 -0.3726 -0.9245  2.4255
 1905TIP3   OH2 5720   1.823   5.326   2.448 -0.0985 -0.9070  0.2271
 1905TIP3    H1 5721   1.765   5.349   2.375  1.3615  1.4494 -0.2822
 1905TIP3    H2 5722   1.769   5.336   2.526 -0.5710  0.6465 -0.2760
 1906TIP3   OH2 5723   5.269   4.792   0.589  0.1754  0.0723 -0.1329
 1906TIP3    H1 5724   5.194   4.843   0.620  1.5133  1.0734  1.6196
 1906TIP3    H2 5725   5.263   4.797   0.493 -1.3138  1.1441 -0.0146
 1907TIP3   OH2 5726   1.490   3.711   3.996  0.1758  0.5551  0.2320
 1907TIP3    H1 5727   1.529   3.675   4.075  1.4942 -0.5442 -0.8768
 1907TIP3    H2 5728   1.397   3.720   4.017  0.5120  0.3889  1.9168
 1908TIP3   OH2 5729   3.520   5.055   1.585  0.0643 -0.1112 -0.4352
 1908TIP3    H1 5730   3.468   4.975   1.598 -1.1677  0.8782  0.9185
 1908TIP3    H2 5731   3.533   5.090   1.673 -0.0432  1.5725 -1.0548
 1909TIP3   OH2 5732   2.361   2.306   5.161 -0.2295  0.0568  0.1699
 1909TIP3    H1 5733   2.301   2.240   5.127 -1.1248 -0.5084  2.5868
 1909TIP3    H2 5734   2.447   2.279   5.132 -0.9600  0.1858 -2.3399
 1910TIP3   OH2 5735   0.622   5.202   4.414 -0.3620 -0.1466 -0.1281
 1910TIP3    H1 5736   0.549   5.262   4.397  0.4457  0.9448  0.1169
 1910TIP3    H2 5737   0.622   5.142   4.340 -1.8945 -0.5839  0.1806
 1911TIP3   OH2 5738   0.178   4.250   0.129 -0.0742  0.1214  0.3289
 1911TIP3    H1 5739   0.218   4.244   0.216 -2.2633  1.5959  1.5162
 1911TIP3    H2 5740   0.085   4.263   0.146 -0.4845  1.0896 -2.2397
 1912TIP3   OH2 5741   4.027   5.701   3.904  0.6841  0.2005 -0.0062
 1912TIP3    H1 5742   3.940   5.672   3.932  0.9400 -0.4169  0.1529
 1912TIP3    H2 5743   4.088   5.648   3.955  1.1777  1.6192  0.9585
 1913TIP3   OH2 5744   4.555   3.650   2.698 -0.0273 -0.4819 -0.0349
 1913TIP3    H1 5745   4.586   3.645   2.789  0.0054  1.6959  0.1220
 1913TIP3    H2 5746   4.460   3.652   2.705 -0.0193  2.0514  0.1870
 1914TIP3   OH2 5747   1.750   5.579   0.441  0.3892 -0.2801 -0.4520
 1914TIP3    H1 5748   1.817   5.606   0.504 -1.8767  2.3780  1.0422
 1914TIP3    H2 5749   1.684   5.535   0.495 -0.9756  0.8461 -1.1525
 1915TIP3   OH2 5750   1.378   1.050   3.245  0.1996 -0.3563 -0.1878
 1915TIP3    H1 5751   1.405   0.970   3.290  1.1656 -0.4084 -0.8294
 1915TIP3    H2 5752   1.350   1.020   3.158 -0.6696 -0.1399  0.0090
 1916TIP3   OH2 5753   1.401   4.828   0.738 -0.3507  0.7937 -0.0693
 1916TIP3    H1 5754   1.441   4.755   0.691 -0.4781 -0.0881  1.1343
 1916TIP3    H2 5755   1.411   4.903   0.680 -1.8247 -0.5149 -2.1433
 1917TIP3   OH2 5756   4.719   5.256   4.639 -0.3285  0.4235 -0.1399
 1917TIP3    H1 5757   4.693   5.173   4.601  0.8110 -0.0732  0.1322
 1917TIP3    H2 5758   4.776   5.296   4.574 -1.4293  1.3498 -0.5861
 1918TIP3   OH2 5759   1.961   5.894   0.787 -0.3605 -0.1859  0.1977
 1918TIP3    H1 5760   1.873   5.866   0.813 -0.8872 -0.1927 -1.4548
 1918TIP3    H2 5761   2.009   5.902   0.869 -1.6560 -1.0180  1.0797
 1919TIP3   OH2 5762   4.927   3.810   4.023 -0.4232  0.3712  0.2472
 1919TIP3    H1 5763   4.861   3.774   4.083 -0.3479  0.4241  0.3621
 1919TIP3    H2 5764   4.967   3.733   3.983 -1.3125  0.3460 -0.6595
 1920TIP3   OH2 5765   6.284   4.447   4.987  0.4385 -0.2679 -0.1357
 1920TIP3    H1 5766   6.269   4.496   4.906  0.5120  0.4548  0.2820
 1920TIP3    H2 5767   6.377   4.461   5.006  0.5864 -0.9927 -0.2787
 1921TIP3   OH2 5768   2.245   0.885   4.690 -0.6494  0.0146  0.1779
 1921TIP3    H1 5769   2.266   0.961   4.744 -1.0910  0.8695 -0.8072
 1921TIP3    H2 5770   2.321   0.828   4.698  1.2500  2.0841 -1.6859
 1922TIP3   OH2 5771   4.022   0.656   1.994  0.1151  0.2000 -0.1268
 1922TIP3    H1 5772   3.950   0.709   2.027 -1.4411 -1.6151 -0.4497
 1922TIP3    H2 5773   4.065   0.622   2.073 -1.2295 -1.0383  0.1161
 1923TIP3   OH2 5774   5.832   4.959   3.218  0.3920  0.2289 -0.4201
 1923TIP3    H1 5775   5.821   5.017   3.143 -1.4418  0.0623 -0.3189
 1923TIP3    H2 5776   5.743   4.932   3.241  0.9582 -0.2159  1.4207
 1924TIP3   OH2 5777   5.537   1.002   1.881 -0.4020  0.3752 -0.1406
 1924TIP3    H1 5778   5.449   0.969   1.898  0.0200 -0.1871  1.0177
 1924TIP3    H2 5779   5.593   0.925   1.888  0.4343  1.0764  1.2835
 1925TIP3   OH2 5780   0.104   1.243   4.786 -0.0244 -0.6780  0.4057
 1925TIP3    H1 5781   0.196   1.247   4.761  0.2075 -0.8448  1.1967
 1925TIP3    H2 5782   0.056   1.246   4.703  0.6157  1.1706  0.0697
 1926TIP3   OH2 5783   3.760   2.345   3.908  0.3480 -0.1529 -0.4708
 1926TIP3    H1 5784   3.667   2.361   3.889 -0.0122  1.1929  1.8864
 1926TIP3    H2 5785   3.805   2.423   3.876  0.2134  0.5159  0.8750
 1927TIP3   OH2 5786   5.650   4.340   0.628 -0.5870  0.5695  0.0542
 1927TIP3    H1 5787   5.667   4.426   0.590 -0.4635  0.3852 -0.3099
 1927TIP3    H2 5788   5.708   4.335   0.704  0.4319  0.2577 -0.7189
 1928TIP3   OH2 5789   4.353   0.988   3.927  0.4708 -0.3816 -0.1975
 1928TIP3    H1 5790   4.275   0.934   3.938 -0.1576  0.3607 -0.8198
 1928TIP3    H2 5791   4.426   0.929   3.944 -0.2111 -1.2293 -0.1305
 1929TIP3   OH2 5792   4.225   5.050   0.677 -0.3681  0.1142 -0.1914
 1929TIP3    H1 5793   4.245   5.032   0.769  0.4763  1.5593 -0.0645
 1929TIP3    H2 5794   4.267   4.979   0.629  1.7432  0.9046  0.3605
 1930TIP3   OH2 5795   3.529   2.820   2.882 -0.0610  1.3231  0.3716
 1930TIP3    H1 5796   3.594   2.890   2.872  2.5679 -0.9497  0.4564
 1930TIP3    H2 5797   3.520   2.810   2.977  0.8694  0.4667  0.3833
 1931TIP3   OH2 5798   3.887   0.896   1.208  0.3856  0.2842 -0.0146
 1931TIP3    H1 5799   3.794   0.909   1.187  0.6912  2.7891 -0.0954
 1931TIP3    H2 5800   3.886   0.847   1.290 -0.9470 -1.1032 -0.8059
 1932TIP3   OH2 5801   0.720   3.627   4.186  0.2621 -1.1478 -0.1401
 1932TIP3    H1 5802   0.796   3.677   4.214 -0.5090  0.0336 -0.0704
 1932TIP3    H2 5803   0.756   3.548   4.146  1.6619  0.3938 -2.1652
 1933TIP3   OH2 5804   0.592   2.037   3.367  0.1225 -0.5577 -0.6568
 1933TIP3    H1 5805   0.588   1.986   3.286  1.8235  0.0363 -1.1799
 1933TIP3    H2 5806   0.513   2.091   3.366  0.7547  0.4542 -2.6856
 1934TIP3   OH2 5807   6.011   0.528   1.454  0.5414  0.4426  1.0764
 1934TIP3    H1 5808   5.945   0.478   1.406  0.1885  1.5826  0.3455
 1934TIP3    H2 5809   6.095   0.490   1.427  0.2782  0.2380  0.5444
 1935TIP3   OH2 5810   0.110   4.310   1.797  0.2741  0.3116  0.5577
 1935TIP3    H1 5811   0.143   4.317   1.886  0.9653  1.2098  0.2355
 1935TIP3    H2 5812   0.101   4.215   1.782 -0.3763  0.1697  1.7580
 1936TIP3   OH2 5813   5.199   0.098   1.131  0.1190 -0.8191  0.0775
 1936TIP3    H1 5814   5.158   0.053   1.205 -0.0987 -0.4559  0.1755
 1936TIP3    H2 5815   5.197   0.033   1.060 -3.3678  0.1362 -0.8518
 1937TIP3   OH2 5816   4.771   5.056   1.666 -0.2995 -0.7495 -0.2571
 1937TIP3    H1 5817   4.776   5.065   1.761  0.5127 -1.6042 -0.2117
 1937TIP3    H2 5818   4.860   5.037   1.638 -0.5660 -0.7312 -1.1740
 1938TIP3   OH2 5819   3.071   3.283   4.315 -0.4481  0.0524  0.5032
 1938TIP3    H1 5820   3.007   3.308   4.380  1.0187  1.6731  1.4022
 1938TIP3    H2 5821   3.106   3.366   4.281 -0.0610 -0.7596 -1.2300
 1939TIP3   OH2 5822   3.074   0.566   1.698  0.1130 -0.1864  0.0936
 1939TIP3    H1 5823   3.167   0.554   1.713 -0.0864 -0.0851  1.5844
 1939TIP3    H2 5824   3.043   0.614   1.775 -1.4517 -1.6469  0.4256
 1940TIP3   OH2 5825   2.126   2.477   1.272  0.0767  0.2023  0.0274
 1940TIP3    H1 5826   2.196   2.507   1.213  0.0967 -0.3892 -0.2544
 1940TIP3    H2 5827   2.164   2.485   1.359  1.1233 -1.6390 -0.1955
 1941TIP3   OH2 5828   2.501   5.533   3.320  0.8409 -0.1823 -0.3375
 1941TIP3    H1 5829   2.497   5.502   3.410 -1.3732  0.6078 -0.1067
 1941TIP3    H2 5830   2.461   5.462   3.269  1.5348 -0.3674 -0.6340
 1942TIP3   OH2 5831   3.276   2.734   1.891  0.2405 -0.2550 -0.3071
 1942TIP3    H1 5832   3.287   2.657   1.947  2.3295 -0.6157 -1.1176
 1942TIP3    H2 5833   3.293   2.808   1.949 -2.2264 -0.3110  0.5876
 1943TIP3   OH2 5834   4.926   1.681   1.645 -0.1291  0.1773 -0.1744
 1943TIP3    H1 5835   4.946   1.590   1.668  0.8769  0.2045 -0.8518
 1943TIP3    H2 5836   4.977   1.733   1.707 -0.6822  0.2829  0.1950
 1944TIP3   OH2 5837   2.347   2.134   4.194 -0.1635 -0.1803 -0.2267
 1944TIP3    H1 5838   2.333   2.148   4.287  0.8827 -1.0715  0.0813
 1944TIP3    H2 5839   2.398   2.210   4.166  0.6583 -0.5564  0.2224
 1945TIP3   OH2 5840   6.271   5.683   3.495 -0.1819  0.1624  0.6148
 1945TIP3    H1 5841   6.316   5.605   3.463 -0.2229  0.4620 -0.1871
 1945TIP3    H2 5842   6.229   5.654   3.577 -1.3932 -1.0695 -0.3822
 1946TIP3   OH2 5843   3.190   3.207   4.982  0.0675  0.7599 -0.5264
 1946TIP3    H1 5844   3.170   3.123   5.023 -0.5030  1.1625  0.0416
 1946TIP3    H2 5845   3.138   3.206   4.901 -1.8477  1.5235  0.6226
 1947TIP3   OH2 5846   4.423   0.711   0.031 -0.1873 -0.2957  0.2524
 1947TIP3    H1 5847   4.395   0.666  -0.049  0.8866  1.3546 -1.1347
 1947TIP3    H2 5848   4.516   0.689   0.039  0.0544  0.6508  0.2223
 1948TIP3   OH2 5849   0.285   0.772   1.638 -0.3723 -0.6932 -0.4368
 1948TIP3    H1 5850   0.260   0.848   1.691  1.3145 -0.8818  0.7296
 1948TIP3    H2 5851   0.337   0.808   1.566 -0.3795 -0.6538 -0.4219
 1949TIP3   OH2 5852   2.816   1.197   2.309  0.7484  0.0253 -0.0306
 1949TIP3    H1 5853   2.727   1.190   2.345  0.7264  1.4130  0.2643
 1949TIP3    H2 5854   2.816   1.139   2.233 -0.2312 -0.4423  0.3035
 1950TIP3   OH2 5855   2.073   0.513   2.002  0.3674 -0.1755  0.5978
 1950TIP3    H1 5856   2.109   0.453   1.936  0.5717 -0.2898  0.8126
 1950TIP3    H2 5857   2.135   0.509   2.075 -0.3637 -0.7924  1.2010
 1951TIP3   OH2 5858   6.252   0.905   0.495  0.8608  0.0257  0.5341
 1951TIP3    H1 5859   6.223   0.976   0.551 -1.9839 -0.0824 -0.6653
 1951TIP3    H2 5860   6.315   0.945   0.435  0.5520  1.1454  0.9481
 1952TIP3   OH2 5861   4.417   2.496   3.036 -0.7157 -0.0652 -0.2771
 1952TIP3    H1 5862   4.371   2.536   2.962 -2.0460 -1.4440 -0.2351
 1952TIP3    H2 5863   4.391   2.404   3.034 -0.6697 -0.1636  1.8388
 1953TIP3   OH2 5864   6.045   3.764   1.959  0.0034 -0.2534  0.1616
 1953TIP3    H1 5865   5.991   3.771   2.037  0.9425  1.3077  0.7223
 1953TIP3    H2 5866   6.106   3.693   1.979 -0.1703 -0.2845  0.5955
 1954TIP3   OH2 5867   2.720   3.476   4.361 -0.2079 -0.2673 -0.0590
 1954TIP3    H1 5868   2.685   3.467   4.273 -0.8545  0.5519  0.1042
 1954TIP3    H2 5869   2.671   3.548   4.400  2.7522  2.1148 -0.3706
 1955TIP3   OH2 5870   0.435   3.661   2.665  0.7040 -0.3718 -0.1997
 1955TIP3    H1 5871   0.358   3.701   2.706  1.2563 -0.5317  1.0374
 1955TIP3    H2 5872   0.456   3.720   2.592  0.4340  0.6108  0.4947
 1956TIP3   OH2 5873   4.155   1.690   4.551 -0.6926 -0.0526  0.3986
 1956TIP3    H1 5874   4.187   1.764   4.603 -0.3435 -0.5947  0.9644
 1956TIP3    H2 5875   4.111   1.633   4.614 -0.2235 -0.7379  0.1174
 1957TIP3   OH2 5876   5.475   3.342   5.015  0.2537  0.5776  0.3802
 1957TIP3    H1 5877   5.435   3.428   5.031 -0.1693  0.2294  1.2922
 1957TIP3    H2 5878   5.454   3.291   5.094  2.6647  0.4275  1.0002
 1958TIP3   OH2 5879   6.095   5.661   4.507 -0.0900  0.5419  0.1722
 1958TIP3    H1 5880   6.045   5.657   4.426  0.9415  0.0015 -0.4497
 1958TIP3    H2 5881   6.110   5.754   4.521  0.1760  0.6163 -0.5502
 1959TIP3   OH2 5882   1.667   3.763   2.765  0.1898 -0.0612  0.2483
 1959TIP3    H1 5883   1.575   3.783   2.747  0.5221 -0.5571 -2.3143
 1959TIP3    H2 5884   1.676   3.670   2.743  1.2408 -0.1056  0.8168
 1960TIP3   OH2 5885   0.054   5.356   0.046 -0.9989  0.0052 -0.1761
 1960TIP3    H1 5886   0.006   5.274   0.061 -1.4365  0.1113 -0.9372
 1960TIP3    H2 5887   0.050   5.369  -0.048 -0.5003  0.6493 -0.1135
 1961TIP3   OH2 5888   1.916   1.235   1.972  0.4766 -0.2082 -0.1358
 1961TIP3    H1 5889   1.970   1.237   2.051  1.6296 -0.6239 -0.8848
 1961TIP3    H2 5890   1.874   1.149   1.975 -0.5508  0.3090  0.6983
 1962TIP3   OH2 5891   0.738   3.819   1.026  0.1547  0.4492  0.1798
 1962TIP3    H1 5892   0.720   3.734   1.065  0.6088 -0.4019 -1.3920
 1962TIP3    H2 5893   0.793   3.864   1.090 -2.3089  0.6815  2.2697
 1963TIP3   OH2 5894   0.785   5.858   2.694 -0.1791  0.4304 -0.1571
 1963TIP3    H1 5895   0.754   5.823   2.610  0.4270  0.1956 -0.2842
 1963TIP3    H2 5896   0.802   5.780   2.747 -1.2962  0.5857  0.4598
 1964TIP3   OH2 5897   3.444   5.702   0.527 -0.0404 -0.2844  0.0250
 1964TIP3    H1 5898   3.476   5.637   0.590 -1.5076  0.8834  2.0955
 1964TIP3    H2 5899   3.503   5.777   0.537 -1.2854  0.5623  1.3414
 1965TIP3   OH2 5900   5.262   0.926   4.834 -0.0679 -0.2981 -0.1196
 1965TIP3    H1 5901   5.195   0.937   4.900 -0.8752 -0.4277 -0.8990
 1965TIP3    H2 5902   5.218   0.881   4.762  0.9910 -0.8803 -0.4277
 1966TIP3   OH2 5903   2.141   3.456   4.121 -0.0067  0.2506 -0.3109
 1966TIP3    H1 5904   2.062   3.507   4.105 -2.7202 -3.9082 -1.8212
 1966TIP3    H2 5905   2.180   3.444   4.034  1.7763  1.2815  0.2777
 1967TIP3   OH2 5906   1.253   2.813   4.834  0.1464  0.8103 -0.2897
 1967TIP3    H1 5907   1.258   2.728   4.879  0.7116  0.6992 -0.5520
 1967TIP3    H2 5908   1.173   2.809   4.783 -0.8762  1.1932  1.2218
 1968TIP3   OH2 5909   4.555   3.473   4.809 -0.2700 -0.1022  0.0478
 1968TIP3    H1 5910   4.573   3.529   4.885  0.7921 -2.4165  1.6169
 1968TIP3    H2 5911   4.619   3.501   4.743  1.0717 -0.2174  1.2390
 1969TIP3   OH2 5912   4.079   0.214   1.815 -0.1614  0.3714 -0.3439
 1969TIP3    H1 5913   4.047   0.249   1.899 -1.2232 -0.1051 -0.5379
 1969TIP3    H2 5914   4.132   0.286   1.778 -0.5243  0.9624  0.2618
 1970TIP3   OH2 5915   3.127   1.301   2.248 -0.0322  0.0562  0.0505
 1970TIP3    H1 5916   3.084   1.230   2.295  1.3558 -0.7311  0.2119
 1970TIP3    H2 5917   3.182   1.344   2.313 -0.3718  0.8988 -0.1931
 1971TIP3   OH2 5918   3.827   3.725   3.485 -0.4604  0.3521 -0.0397
 1971TIP3    H1 5919   3.868   3.687   3.408 -1.0396 -1.7977  0.6293
 1971TIP3    H2 5920   3.856   3.669   3.557 -2.0665  0.6665  0.9005
 1972TIP3   OH2 5921   0.873   3.594   3.548 -0.5684 -0.4527  0.5199
 1972TIP3    H1 5922   0.816   3.577   3.623  0.9197  0.2646  1.8900
 1972TIP3    H2 5923   0.862   3.688   3.530 -1.0612 -0.6589 -0.3047
 1973TIP3   OH2 5924   2.476   0.133   3.188 -0.7560 -0.3586 -0.1889
 1973TIP3    H1 5925   2.399   0.178   3.223 -1.4157 -2.8951  1.9095
 1973TIP3    H2 5926   2.503   0.073   3.257  2.7485 -0.0937 -1.1109
 1974TIP3   OH2 5927   4.435   3.815   1.849 -0.0664 -0.3941  0.2032
 1974TIP3    H1 5928   4.519   3.840   1.886  0.1730 -0.3463 -0.3629
 1974TIP3    H2 5929   4.370   3.847   1.912  0.2433  1.3867 -0.3183
 1975TIP3   OH2 5930   3.650   1.519   4.560 -0.1989 -0.4892 -0.1552
 1975TIP3    H1 5931   3.730   1.466   4.564 -0.7837 -1.3122  1.4780
 1975TIP3    H2 5932   3.580   1.458   4.584 -1.0115  0.8098  0.9160
 1976TIP3   OH2 5933   0.215   4.451   4.789 -0.3181 -0.2581 -0.0965
 1976TIP3    H1 5934   0.178   4.481   4.872  0.9756  0.3301  0.2906
 1976TIP3    H2 5935   0.287   4.511   4.772 -0.6943 -0.2418 -1.7719
 1977TIP3   OH2 5936   0.257   0.943   2.980 -0.3769  0.3525  0.0224
 1977TIP3    H1 5937   0.350   0.921   2.982 -0.3229  0.4537  3.0094
 1977TIP3    H2 5938   0.255   1.039   2.988 -0.7700  0.7613 -3.5450
 1978TIP3   OH2 5939   0.459   1.951   2.758 -0.4186  0.6804 -0.5199
 1978TIP3    H1 5940   0.530   1.977   2.700  0.5903 -0.4643  0.1811
 1978TIP3    H2 5941   0.430   1.866   2.724 -2.5215  1.7833 -1.7256
 1979TIP3   OH2 5942   1.714   0.835   3.114 -0.1746  0.7128 -0.0788
 1979TIP3    H1 5943   1.733   0.763   3.055  0.6533  0.1102  0.8769
 1979TIP3    H2 5944   1.642   0.803   3.168  0.3484  0.4852  0.5024
 1980TIP3   OH2 5945   3.259   0.142   4.150  0.5117  0.1253 -0.1249
 1980TIP3    H1 5946   3.169   0.127   4.122  0.6348  1.5398 -1.4335
 1980TIP3    H2 5947   3.309   0.072   4.108  0.2395  0.3829 -0.9076
 1981TIP3   OH2 5948   2.632   1.560   4.965  0.7368  0.1103  0.5472
 1981TIP3    H1 5949   2.538   1.549   4.980  0.1410  1.1872 -1.7950
 1981TIP3    H2 5950   2.663   1.472   4.943 -0.2279  0.0514 -0.7597
 1982TIP3   OH2 5951   3.330   4.999   4.304 -0.2256 -0.1162 -0.1830
 1982TIP3    H1 5952   3.254   5.005   4.246 -1.5011 -0.4135  1.3964
 1982TIP3    H2 5953   3.333   5.083   4.349 -1.8389 -1.3033  2.3475
 1983TIP3   OH2 5954   0.040   0.844   4.291 -0.1214  0.5906 -0.1709
 1983TIP3    H1 5955   0.070   0.827   4.201  1.1455 -1.2521  0.5386
 1983TIP3    H2 5956   0.109   0.899   4.329 -0.6040  1.2777 -0.2532
 1984TIP3   OH2 5957   2.718   5.862   3.197 -0.4485 -0.3230 -0.2302
 1984TIP3    H1 5958   2.689   5.817   3.118 -1.9182  0.3837 -0.1149
 1984TIP3    H2 5959   2.749   5.948   3.166 -1.8588  0.3049  0.0239
 1985TIP3   OH2 5960   3.550   3.478   2.506 -0.0571  0.0610  0.2249
 1985TIP3    H1 5961   3.528   3.448   2.594 -4.0582 -0.4538 -0.7367
 1985TIP3    H2 5962   3.518   3.409   2.448 -0.5511  1.7807 -1.6973
 1986TIP3   OH2 5963   3.943   4.139   2.459 -0.3758  0.0288  0.1730
 1986TIP3    H1 5964   3.867   4.144   2.517 -1.9242 -0.6634 -1.7063
 1986TIP3    H2 5965   3.911   4.095   2.381  1.9333 -0.0943 -0.7817
 1987TIP3   OH2 5966   3.184   2.031   4.381 -0.2804 -0.3899  0.2254
 1987TIP3    H1 5967   3.227   1.967   4.324  1.0053  0.7206 -0.0762
 1987TIP3    H2 5968   3.101   2.050   4.336  0.6470  0.3712 -1.2717
 1988TIP3   OH2 5969   4.758   0.836   4.681 -0.5848  0.5400  0.0826
 1988TIP3    H1 5970   4.722   0.753   4.714  0.9877 -0.6315 -1.0018
 1988TIP3    H2 5971   4.687   0.899   4.694 -1.5826 -0.7958  1.5932
 1989TIP3   OH2 5972   2.490   1.920   5.079  0.1364 -0.1295 -0.0464
 1989TIP3    H1 5973   2.501   1.907   4.985  0.5484 -1.1417  0.1361
 1989TIP3    H2 5974   2.397   1.903   5.094 -0.1383  0.9257 -0.3876
 1990TIP3   OH2 5975   3.935   5.187   1.079 -0.4636 -0.1317  0.1607
 1990TIP3    H1 5976   3.886   5.152   1.004 -0.5887  0.5634 -0.0922
 1990TIP3    H2 5977   3.918   5.281   1.076 -1.1942 -0.1977  1.6026
 1991TIP3   OH2 5978   6.151   2.010   0.700 -0.7796  0.2491  0.3164
 1991TIP3    H1 5979   6.097   1.967   0.634 -0.7496 -0.5468  0.7983
 1991TIP3    H2 5980   6.241   1.985   0.678 -0.5405  1.8198 -0.6690
 1992TIP3   OH2 5981   0.361   5.662   4.906 -0.1163 -0.3040  0.3901
 1992TIP3    H1 5982   0.365   5.698   4.995  1.3335 -1.3439  0.7824
 1992TIP3    H2 5983   0.336   5.570   4.918  0.0450 -0.4381 -0.2777
 1993TIP3   OH2 5984   5.785   1.960   4.822 -0.2569  0.3383 -0.1296
 1993TIP3    H1 5985   5.877   1.934   4.819 -0.4280 -0.1933 -1.5600
 1993TIP3    H2 5986   5.787   2.055   4.807 -0.0094  0.0726 -2.1234
 1994TIP3   OH2 5987   5.258   0.392   0.304  0.0493  0.2959 -0.0813
 1994TIP3    H1 5988   5.333   0.366   0.251  0.9089 -1.7082  1.9243
 1994TIP3    H2 5989   5.182   0.360   0.255  0.8438 -1.9117 -0.0020
 1995TIP3   OH2 5990   0.398   3.952   3.354 -0.6476  0.5374 -0.0856
 1995TIP3    H1 5991   0.493   3.958   3.361 -0.1031 -1.7306 -3.1233
 1995TIP3    H2 5992   0.373   3.883   3.416 -0.4703  1.5532  1.1578
 1996TIP3   OH2 5993   5.042   3.081   1.925 -0.1759  0.5053  0.5361
 1996TIP3    H1 5994   5.071   3.006   1.977 -1.9188  1.7856  3.6378
 1996TIP3    H2 5995   4.967   3.049   1.875  1.8887 -0.9091 -1.9140
 1997TIP3   OH2 5996   2.579   2.453   2.848 -0.0000  0.1162 -0.0055
 1997TIP3    H1 5997   2.483   2.455   2.850 -0.2357 -2.8735 -1.8601
 1997TIP3    H2 5998   2.603   2.522   2.786 -1.0917 -0.2988 -0.9246
 1998TIP3   OH2 5999   1.355   5.401   0.053  0.6542 -0.3079 -0.0408
 1998TIP3    H1 6000   1.356   5.404   0.149  0.0452 -0.8587 -0.0133
 1998TIP3    H2 6001   1.406   5.323   0.031  0.2312 -0.5587 -0.1411
 1999TIP3   OH2 6002   0.375   3.476   2.220 -0.1400 -0.3027  0.0951
 1999TIP3    H1 6003   0.285   3.489   2.249  0.0681 -1.5317  1.3978
 1999TIP3    H2 6004   0.401   3.560   2.183 -0.8437  1.0081  2.4182
 2000TIP3   OH2 6005   3.960   5.191   2.269 -0.1744  0.3633  0.0165
 2000TIP3    H1 6006   4.007   5.274   2.275 -2.1192  1.5403 -0.0211
 2000TIP3    H2 6007   3.900   5.192   2.343 -0.1564 -1.0944  0.0881
 2001TIP3   OH2 6008   0.588   1.445   5.044  0.2086  0.2732 -0.6061
 2001TIP3    H1 6009   0.528   1.428   5.117 -0.7968 -2.2839 -1.9208
 2001TIP3    H2 6010   0.531   1.475   4.973  1.2026  2.9772 -0.3728
 2002TIP3   OH2 6011   0.316   0.627   4.375  0.1631  0.1832  0.0464
 2002TIP3    H1 6012   0.252   0.673   4.430 -0.2552  0.9123 -1.0158
 2002TIP3    H2 6013   0.267   0.556   4.334  0.2351  0.2335 -0.1273
 2003TIP3   OH2 6014   5.105   1.321   4.515 -0.1067  0.5321  0.0461
 2003TIP3    H1 6015   5.079   1.368   4.436 -0.7570  1.3301  0.7155
 2003TIP3    H2 6016   5.028   1.270   4.540  0.2984 -0.2036 -0.1643
 2004TIP3   OH2 6017   1.619   3.626   4.220 -0.5503 -0.5765  0.2582
 2004TIP3    H1 6018   1.548   3.618   4.284  0.7385  0.4432  1.8656
 2004TIP3    H2 6019   1.699   3.633   4.272  0.7817 -1.7251 -1.5032
 2005TIP3   OH2 6020   3.409   3.256   0.993  0.5147  0.1633  0.0051
 2005TIP3    H1 6021   3.458   3.230   0.915 -0.2229 -1.6930  0.1256
 2005TIP3    H2 6022   3.364   3.176   1.022  1.8636  0.3875  3.1577
 2006TIP3   OH2 6023   5.808   4.591   3.542  0.0545  0.4237 -0.4419
 2006TIP3    H1 6024   5.753   4.648   3.489  0.8188  2.1375  0.5212
 2006TIP3    H2 6025   5.760   4.582   3.625  0.7279  1.1691  0.0574
 2007TIP3   OH2 6026   1.645   3.481   1.104  0.0018  0.1459 -0.1876
 2007TIP3    H1 6027   1.601   3.500   1.187  0.7819 -0.0441  0.2788
 2007TIP3    H2 6028   1.738   3.484   1.125  0.2768  1.8948 -1.4573
 2008TIP3   OH2 6029   4.318   0.640   2.179  0.1459 -0.0733  0.1178
 2008TIP3    H1 6030   4.412   0.622   2.176 -0.0085 -0.9314 -2.5560
 2008TIP3    H2 6031   4.277   0.553   2.188 -0.3953 -0.0464 -1.6488
 2009TIP3   OH2 6032   5.302   3.840   5.079 -0.3306  0.1829 -0.7101
 2009TIP3    H1 6033   5.292   3.772   5.012 -1.0381 -1.4252  0.9146
 2009TIP3    H2 6034   5.354   3.798   5.148  2.1593  2.4440 -1.0421
 2010TIP3   OH2 6035   5.798   5.427   3.242 -0.4465 -0.1548 -0.0202
 2010TIP3    H1 6036   5.740   5.437   3.167 -0.4627 -0.6893 -0.0813
 2010TIP3    H2 6037   5.746   5.458   3.316 -1.4341 -2.1332  0.1765
 2011TIP3   OH2 6038   0.668   4.497   1.851  0.3347  0.2360 -0.0323
 2011TIP3    H1 6039   0.674   4.414   1.899 -0.9134  0.3330  0.3201
 2011TIP3    H2 6040   0.682   4.472   1.760 -1.9071 -0.7086 -0.1876
 2012TIP3   OH2 6041   2.581   0.431   5.139 -0.4989  0.2693  0.0334
 2012TIP3    H1 6042   2.548   0.520   5.134 -1.5985 -0.1441 -0.3354
 2012TIP3    H2 6043   2.598   0.416   5.232 -2.0025  0.2835  0.3375
 2013TIP3   OH2 6044   4.791   2.056   2.675 -0.0999 -0.5394  0.7575
 2013TIP3    H1 6045   4.830   1.970   2.656 -1.1774 -0.8633 -0.1624
 2013TIP3    H2 6046   4.862   2.118   2.661  0.3336 -1.1763  0.0169
 2014TIP3   OH2 6047   2.489   5.445   3.593  0.0936  0.3611  0.2927
 2014TIP3    H1 6048   2.465   5.433   3.685  1.0353 -3.3266  0.2327
 2014TIP3    H2 6049   2.583   5.464   3.594  0.1036  0.3276  0.1047
 2015TIP3   OH2 6050   5.507   5.713   3.184  0.3117  0.1720  0.1505
 2015TIP3    H1 6051   5.587   5.753   3.151  0.2985 -1.3725 -1.9305
 2015TIP3    H2 6052   5.535   5.659   3.258  0.8234  1.2808  0.7963
 2016TIP3   OH2 6053   1.295   2.158   0.117 -0.0646  0.3134 -1.0139
 2016TIP3    H1 6054   1.363   2.197   0.062  3.3126 -1.3927  1.5589
 2016TIP3    H2 6055   1.287   2.068   0.085 -0.0534  0.0921 -0.4032
 2017TIP3   OH2 6056   6.171   0.976   2.200 -0.1777 -0.0698  0.0559
 2017TIP3    H1 6057   6.167   0.901   2.141 -1.2604 -0.2074  0.2945
 2017TIP3    H2 6058   6.081   1.009   2.204 -0.1048 -0.0009  1.5509
 2018TIP3   OH2 6059   0.415   2.195   1.728 -0.7449  0.7258 -0.2382
 2018TIP3    H1 6060   0.346   2.244   1.773 -1.4397 -0.5716  0.1604
 2018TIP3    H2 6061   0.369   2.150   1.657 -0.4805 -0.7508  0.4891
 2019TIP3   OH2 6062   6.004   1.773   3.284  0.0838 -0.0501  0.6213
 2019TIP3    H1 6063   5.993   1.840   3.216 -0.2681  0.5378  1.2441
 2019TIP3    H2 6064   5.972   1.692   3.243 -0.2349  0.3158  0.1254
 2020TIP3   OH2 6065   5.621   4.549   3.749 -0.6456 -0.2381 -0.5862
 2020TIP3    H1 6066   5.613   4.454   3.755  0.5537 -0.4083 -1.1878
 2020TIP3    H2 6067   5.586   4.571   3.663  0.9618 -0.4163 -1.3143
 2021TIP3   OH2 6068   2.136   5.810   0.569 -1.0857 -0.4427  0.2224
 2021TIP3    H1 6069   2.227   5.838   0.577 -1.6614  3.6977 -3.4835
 2021TIP3    H2 6070   2.089   5.860   0.636 -1.0346  0.7398 -0.5932
 2022TIP3   OH2 6071   2.029   5.315   1.008 -0.1822  0.0323 -0.2522
 2022TIP3    H1 6072   1.986   5.394   0.974 -1.1536 -0.7472 -0.8804
 2022TIP3    H2 6073   2.045   5.262   0.930  1.5835  0.1066  0.0110
 2023TIP3   OH2 6074   2.922   2.023   3.705  0.2492 -0.5478  0.2167
 2023TIP3    H1 6075   2.999   2.052   3.656 -0.0757  0.2526  0.1704
 2023TIP3    H2 6076   2.856   2.003   3.639  0.1590 -0.4888  0.2887
 2024TIP3   OH2 6077   3.849   0.388   4.466  0.1299  0.0575 -0.3700
 2024TIP3    H1 6078   3.865   0.303   4.425  1.0200  0.0311  0.0128
 2024TIP3    H2 6079   3.832   0.447   4.392 -0.9507 -0.5325 -0.6142
 2025TIP3   OH2 6080   3.548   4.836   3.608 -0.5964 -0.0040  0.3447
 2025TIP3    H1 6081   3.542   4.803   3.518  3.2270 -1.0790  0.3197
 2025TIP3    H2 6082   3.506   4.921   3.605 -0.1960  0.2037 -2.6009
 2026TIP3   OH2 6083   3.180   5.252   3.747 -0.3329  0.5865 -0.0546
 2026TIP3    H1 6084   3.164   5.308   3.670 -1.0322  1.2596  0.5672
 2026TIP3    H2 6085   3.272   5.227   3.739 -0.7169 -0.4488 -1.8176
 2027TIP3   OH2 6086   5.099   1.617   0.501  0.5641 -0.7624 -0.2529
 2027TIP3    H1 6087   5.157   1.647   0.431  0.5699 -1.4689 -0.5561
 2027TIP3    H2 6088   5.078   1.526   0.478  1.6466 -1.4641  1.3611
 2028TIP3   OH2 6089   6.126   0.380   4.597 -0.1293 -0.1026 -0.0760
 2028TIP3    H1 6090   6.203   0.431   4.571 -0.4721  1.5363  1.8506
 2028TIP3    H2 6091   6.111   0.405   4.688 -2.8645 -0.4817 -0.3466
 2029TIP3   OH2 6092   2.385   2.994   2.867  0.6452 -0.1738  0.4962
 2029TIP3    H1 6093   2.354   2.972   2.954  0.0707  1.5437  0.7405
 2029TIP3    H2 6094   2.462   3.049   2.881  1.0551 -0.5681 -0.0993
 2030TIP3   OH2 6095   1.876   3.484   5.185 -0.1214 -0.1842 -0.2277
 2030TIP3    H1 6096   1.814   3.551   5.156 -1.1497 -1.1542 -0.3220
 2030TIP3    H2 6097   1.959   3.531   5.193 -0.8104  1.0988 -0.2966
 2031TIP3   OH2 6098   4.314   0.972   4.797  0.5633 -0.9609 -0.3148
 2031TIP3    H1 6099   4.220   0.963   4.811  0.4446 -0.3009 -0.6759
 2031TIP3    H2 6100   4.339   0.892   4.751  0.6994 -2.4935  2.2664
 2032TIP3   OH2 6101   5.557   5.705   2.376 -0.0033  0.0571  0.0510
 2032TIP3    H1 6102   5.522   5.638   2.317 -1.2180  0.0809  0.7049
 2032TIP3    H2 6103   5.491   5.712   2.445  0.1099  1.9321 -0.0006
 2033TIP3   OH2 6104   3.539   3.641   2.222 -0.3425  0.1391 -0.4399
 2033TIP3    H1 6105   3.529   3.591   2.141  4.0559  0.3571 -1.3724
 2033TIP3    H2 6106   3.463   3.698   2.225 -1.8748 -1.5566 -3.1235
 2034TIP3   OH2 6107   4.047   0.925   2.276 -0.1160  0.0087 -0.1532
 2034TIP3    H1 6108   4.112   0.938   2.345  0.1698  1.7972 -0.6981
 2034TIP3    H2 6109   4.037   0.831   2.270  1.8605 -0.2977  0.4906
 2035TIP3   OH2 6110   2.286   2.723   2.802  0.0919  0.3493 -0.4990
 2035TIP3    H1 6111   2.338   2.793   2.762  0.4690 -0.6016 -1.7492
 2035TIP3    H2 6112   2.220   2.702   2.736  0.1125 -0.5945 -0.2276
 2036TIP3   OH2 6113   3.804   3.469   4.670  0.4850 -0.2767  0.3705
 2036TIP3    H1 6114   3.818   3.485   4.763  0.0444 -0.9066  0.5484
 2036TIP3    H2 6115   3.722   3.515   4.650 -0.5638 -1.9038  0.7894
 2037TIP3   OH2 6116   2.842   0.107   4.888 -0.0039  0.0119  0.2299
 2037TIP3    H1 6117   2.762   0.150   4.916 -0.5086 -0.5878 -0.2525
 2037TIP3    H2 6118   2.813   0.021   4.858  0.8945 -0.4050  0.5473
 2038TIP3   OH2 6119   0.585   4.874   1.682  0.0776 -0.2447 -0.2058
 2038TIP3    H1 6120   0.502   4.827   1.672 -0.3055  0.1730  0.8551
 2038TIP3    H2 6121   0.576   4.950   1.625 -0.8867  0.5627  0.9424
 2039TIP3   OH2 6122   3.306   5.945   2.845  0.1122 -0.1236 -0.0753
 2039TIP3    H1 6123   3.353   5.928   2.764  0.4113  0.4701 -0.0342
 2039TIP3    H2 6124   3.257   6.026   2.828  0.3948  0.1594  0.4200
 2040TIP3   OH2 6125   2.170   5.346   4.159  0.2431 -0.5554  0.4821
 2040TIP3    H1 6126   2.259   5.377   4.141  1.0271 -2.4218  0.9332
 2040TIP3    H2 6127   2.169   5.328   4.253 -0.1844 -1.7451  0.2747
 2041TIP3   OH2 6128   2.485   1.146   1.228 -0.5958  0.2337  0.0228
 2041TIP3    H1 6129   2.546   1.076   1.252 -0.6763  0.1848  0.0815
 2041TIP3    H2 6130   2.432   1.161   1.306 -1.4991 -0.5890 -0.4241
 2042TIP3   OH2 6131   2.374   4.697   1.022  0.0223 -0.0090  0.2326
 2042TIP3    H1 6132   2.374   4.769   0.959 -0.8894  0.1044  0.3412
 2042TIP3    H2 6133   2.448   4.642   0.997  1.1274  1.2887  0.5287
 2043TIP3   OH2 6134   0.707   4.749   2.786 -0.1934  0.5690 -0.8432
 2043TIP3    H1 6135   0.656   4.796   2.852 -1.3451  0.6263 -1.7447
 2043TIP3    H2 6136   0.719   4.812   2.716 -0.4175  0.0052 -1.3965
 2044TIP3   OH2 6137   3.152   0.587   3.850  0.3484  0.0480  0.2093
 2044TIP3    H1 6138   3.205   0.655   3.893  0.9398  1.0454 -1.9482
 2044TIP3    H2 6139   3.197   0.505   3.871  0.2967  0.4068  1.8853
 2045TIP3   OH2 6140   3.837   0.967   2.505 -0.1507 -0.4374  0.4061
 2045TIP3    H1 6141   3.836   0.995   2.597 -1.9516 -2.4480  1.0920
 2045TIP3    H2 6142   3.890   0.888   2.504 -0.8309 -0.9012 -0.0992
 2046TIP3   OH2 6143   4.065   3.380   1.184 -0.2643 -0.6712  0.4092
 2046TIP3    H1 6144   4.081   3.414   1.272 -1.2328 -0.1352  0.3935
 2046TIP3    H2 6145   4.010   3.302   1.198 -1.0344 -0.1627  0.2427
 2047TIP3   OH2 6146   0.886   5.697   4.361  0.3634  0.1916  0.6944
 2047TIP3    H1 6147   0.917   5.751   4.434  0.4257 -0.8360  1.4568
 2047TIP3    H2 6148   0.800   5.666   4.389  0.2361  0.0655  0.1782
 2048TIP3   OH2 6149   3.395   2.371   0.618 -0.0817 -0.1037 -0.8104
 2048TIP3    H1 6150   3.469   2.322   0.654 -0.1815 -0.1604 -0.6787
 2048TIP3    H2 6151   3.412   2.376   0.524  0.8633  1.2286 -0.5806
 2049TIP3   OH2 6152   2.500   5.384   1.079  0.4474  0.2195  0.3804
 2049TIP3    H1 6153   2.574   5.385   1.140 -0.2862 -1.2442  1.3396
 2049TIP3    H2 6154   2.424   5.402   1.134 -0.1657 -0.5743 -0.1868
 2050TIP3   OH2 6155   5.906   3.307   1.461 -0.0084 -0.1149  0.0778
 2050TIP3    H1 6156   5.889   3.287   1.553  0.3678 -0.8897 -0.0189
 2050TIP3    H2 6157   5.852   3.245   1.413  2.0252 -1.7391 -0.2353
 2051TIP3   OH2 6158   4.933   1.284   4.123 -0.0405  0.2778  0.8189
 2051TIP3    H1 6159   4.886   1.258   4.203 -1.4490  0.1663 -0.0085
 2051TIP3    H2 6160   4.879   1.353   4.085  1.4493  1.4604  0.7573
 2052TIP3   OH2 6161   3.512   2.748   4.810  0.0637  0.3737 -0.0979
 2052TIP3    H1 6162   3.506   2.652   4.810  0.6064  0.3369 -0.4220
 2052TIP3    H2 6163   3.422   2.777   4.796  0.0860 -0.1145 -1.4356
 2053TIP3   OH2 6164   3.447   5.559   3.480  0.1694  0.3164 -0.5048
 2053TIP3    H1 6165   3.460   5.571   3.385  1.8815 -0.2002 -0.3711
 2053TIP3    H2 6166   3.406   5.473   3.488  2.4011 -0.8351 -0.6982
 2054TIP3   OH2 6167   5.306   4.433   0.884  0.6608  0.4448 -0.5074
 2054TIP3    H1 6168   5.381   4.375   0.898  2.8914  2.7600 -1.8858
 2054TIP3    H2 6169   5.305   4.450   0.790 -0.6403  1.6893 -0.3138
 2055TIP3   OH2 6170   2.346   4.372   0.434  0.2934  0.0695 -0.6113
 2055TIP3    H1 6171   2.336   4.447   0.376  0.5178 -1.0223 -2.1059
 2055TIP3    H2 6172   2.278   4.310   0.406 -0.1605 -0.1437  0.8654
 2056TIP3   OH2 6173   1.265   3.878   2.943  0.2462 -0.5971  0.0365
 2056TIP3    H1 6174   1.195   3.944   2.934 -0.2281 -1.1700 -0.6693
 2056TIP3    H2 6175   1.322   3.912   3.011 -0.3171  0.2593  0.0966
 2057TIP3   OH2 6176   1.020   3.433   1.606 -0.2827 -0.0664 -0.1314
 2057TIP3    H1 6177   1.004   3.350   1.651  0.9045 -0.6342 -0.7199
 2057TIP3    H2 6178   0.982   3.499   1.664  0.2804 -0.8678  1.2020
 2058TIP3   OH2 6179   4.074   2.127   3.254 -0.2420  0.2263  1.0360
 2058TIP3    H1 6180   4.106   2.166   3.336  2.0756  0.7665 -0.0385
 2058TIP3    H2 6181   4.052   2.037   3.278  0.2991  0.3952  2.2794
 2059TIP3   OH2 6182   2.490   1.854   3.345  0.1772 -0.3412 -0.1668
 2059TIP3    H1 6183   2.552   1.788   3.314 -2.9456 -2.6040 -2.1619
 2059TIP3    H2 6184   2.475   1.831   3.437 -0.1121 -1.8901 -0.5654
 2060TIP3   OH2 6185   1.979   2.868   4.119 -0.1917  0.2990  0.1636
 2060TIP3    H1 6186   1.928   2.836   4.193 -1.1116 -1.4017 -1.1266
 2060TIP3    H2 6187   1.996   2.789   4.066  0.7619  1.3870 -1.2250
 2061TIP3   OH2 6188   6.146   0.076   1.968  0.4782 -0.0343 -0.2920
 2061TIP3    H1 6189   6.202   0.005   1.935  0.1801  0.0956 -1.0804
 2061TIP3    H2 6190   6.060   0.036   1.977  0.5100 -0.0109  0.1327
 2062TIP3   OH2 6191   3.323   5.871   4.463 -0.3690 -0.2948  0.0848
 2062TIP3    H1 6192   3.373   5.952   4.451 -1.1420  0.2161  0.2724
 2062TIP3    H2 6193   3.321   5.858   4.558  1.0128 -1.3491  0.0037
 2063TIP3   OH2 6194   4.975   1.413   1.608  0.1246 -0.7169  0.1392
 2063TIP3    H1 6195   4.901   1.358   1.580  1.5035 -1.3577 -2.5296
 2063TIP3    H2 6196   5.030   1.354   1.659  0.1168 -0.9799 -0.1530
 2064TIP3   OH2 6197   1.221   2.983   2.179 -0.0397  0.0589  0.4321
 2064TIP3    H1 6198   1.149   3.001   2.118  0.7932  0.4599 -0.4536
 2064TIP3    H2 6199   1.184   2.921   2.242 -0.6507 -1.1566 -1.0507
 2065TIP3   OH2 6200   2.403   1.014   1.843 -0.5615 -0.0782 -0.4393
 2065TIP3    H1 6201   2.315   0.990   1.814 -1.3006  0.5124  1.1850
 2065TIP3    H2 6202   2.394   1.103   1.878  0.3584 -0.4799  0.9283
 2066TIP3   OH2 6203   2.144   4.393   2.376 -0.4709  0.4202 -0.0286
 2066TIP3    H1 6204   2.154   4.300   2.354 -0.1367  0.4837 -0.1540
 2066TIP3    H2 6205   2.139   4.394   2.471  0.6124  0.3642  0.0416
 2067TIP3   OH2 6206   5.277   1.057   4.576  0.0153 -0.0775  0.1184
 2067TIP3    H1 6207   5.247   1.010   4.654  0.4906 -0.7861 -0.1082
 2067TIP3    H2 6208   5.204   1.114   4.552 -0.9691 -1.3824 -0.1143
 2068TIP3   OH2 6209   4.120   2.931   1.594 -0.3853  0.1295  0.5458
 2068TIP3    H1 6210   4.215   2.924   1.607 -0.4382  1.0326  1.4984
 2068TIP3    H2 6211   4.101   3.024   1.607 -1.1978  0.2247 -1.1327
 2069TIP3   OH2 6212   1.308   3.287   0.784 -0.2003  0.0891  0.1802
 2069TIP3    H1 6213   1.251   3.282   0.861 -0.4541  0.4544  0.0192
 2069TIP3    H2 6214   1.397   3.279   0.819 -0.2996  0.5921  0.5476
 2070TIP3   OH2 6215   0.499   4.205   0.709 -0.0080  0.4648  0.2476
 2070TIP3    H1 6216   0.479   4.113   0.696  1.9407 -0.1986  1.5328
 2070TIP3    H2 6217   0.483   4.222   0.802  2.5038  0.5628  0.7352
 2071TIP3   OH2 6218   3.221   4.778   3.841 -0.3131  0.0406  0.0057
 2071TIP3    H1 6219   3.261   4.830   3.771 -0.1597  0.9645  0.7496
 2071TIP3    H2 6220   3.280   4.789   3.915 -0.7822 -0.4343  0.4596
 2072TIP3   OH2 6221   3.823   2.306   2.991 -0.1241 -0.1391  0.6053
 2072TIP3    H1 6222   3.788   2.324   3.079 -2.2743 -0.2787 -0.1457
 2072TIP3    H2 6223   3.791   2.219   2.970  2.2577 -1.0551  0.4950
 2073TIP3   OH2 6224   2.880   3.327   4.544  0.1511 -0.2617  0.5847
 2073TIP3    H1 6225   2.829   3.372   4.476  1.3635  0.3066  0.0184
 2073TIP3    H2 6226   2.818   3.313   4.615 -0.2231  2.7961  1.0207
 2074TIP3   OH2 6227   5.636   5.600   3.416  0.5652  0.5233 -0.5241
 2074TIP3    H1 6228   5.665   5.684   3.454 -0.4411  1.3338 -1.4737
 2074TIP3    H2 6229   5.683   5.534   3.467  0.3757  1.6069  1.1549
 2075TIP3   OH2 6230   1.238   2.321   0.732 -0.3101  0.0911 -0.3469
 2075TIP3    H1 6231   1.220   2.359   0.646 -0.2863  0.9959  0.0432
 2075TIP3    H2 6232   1.332   2.304   0.731  0.0115  1.6626  0.0929
 2076TIP3   OH2 6233   4.850   5.045   0.221 -0.2421 -0.0150  0.1629
 2076TIP3    H1 6234   4.897   4.989   0.283 -0.7503 -1.9022 -1.0417
 2076TIP3    H2 6235   4.764   5.004   0.212 -0.2435  0.2801 -1.6330
 2077TIP3   OH2 6236   4.127   5.449   4.731  0.6995  0.3639 -0.2973
 2077TIP3    H1 6237   4.205   5.464   4.677  0.2555 -0.7800 -1.3059
 2077TIP3    H2 6238   4.054   5.458   4.671  0.1412 -0.1387  0.2881
 2078TIP3   OH2 6239   4.891   2.272   2.077 -0.2024  0.2187 -0.3363
 2078TIP3    H1 6240   4.937   2.193   2.105 -1.6882  0.2751  2.5727
 2078TIP3    H2 6241   4.806   2.242   2.046 -0.6939  0.6065  0.5826
 2079TIP3   OH2 6242   2.649   1.658   3.236 -0.3631  0.8804 -0.2682
 2079TIP3    H1 6243   2.738   1.624   3.237 -0.5368  0.4062  0.5539
 2079TIP3    H2 6244   2.612   1.626   3.154  0.1872  1.0129 -0.5772
 2080TIP3   OH2 6245   1.224   3.358   3.240  0.3412  0.2876 -0.2594
 2080TIP3    H1 6246   1.177   3.431   3.278 -1.4179  1.0070 -3.4792
 2080TIP3    H2 6247   1.312   3.392   3.224  0.6548  0.4399  1.5634
 2081TIP3   OH2 6248   6.257   0.364   0.480  0.2479  0.1202 -0.4341
 2081TIP3    H1 6249   6.229   0.284   0.524  1.0543  0.2276  0.2841
 2081TIP3    H2 6250   6.191   0.377   0.412  0.4025 -1.4691 -0.9524
 2082TIP3   OH2 6251   3.649   5.242   0.582  0.0361 -0.1754  0.6306
 2082TIP3    H1 6252   3.716   5.299   0.544 -0.2012  0.4678  1.1485
 2082TIP3    H2 6253   3.685   5.216   0.666  0.7787 -2.0045 -0.2071
 2083TIP3   OH2 6254   2.314   1.401   4.559  0.1055 -0.4780 -0.1959
 2083TIP3    H1 6255   2.371   1.378   4.486 -1.2193  0.5731 -1.6312
 2083TIP3    H2 6256   2.343   1.489   4.586 -0.3760 -0.2288 -0.4764
 2084TIP3   OH2 6257   3.095   5.794   2.946  0.0178  0.1017 -0.1396
 2084TIP3    H1 6258   3.114   5.707   2.910 -2.0317  0.5463 -2.6751
 2084TIP3    H2 6259   3.156   5.853   2.901 -2.7035  0.6937 -3.5973
 2085TIP3   OH2 6260   0.043   0.765   3.485  0.0996  0.1055  0.0207
 2085TIP3    H1 6261   0.022   0.698   3.420  0.1837 -0.7645  0.8593
 2085TIP3    H2 6262   0.033   0.848   3.439  0.6148 -0.5049 -1.2299
 2086TIP3   OH2 6263   4.409   1.579   2.583  0.0128 -0.1754 -0.2250
 2086TIP3    H1 6264   4.421   1.538   2.669  0.4431  0.7638  0.1813
 2086TIP3    H2 6265   4.320   1.614   2.587  0.4495  0.9290  0.3266
 2087TIP3   OH2 6266   5.055   5.257   0.437  0.6380 -0.2518  0.3546
 2087TIP3    H1 6267   5.085   5.256   0.528  1.3536  1.1448  0.1665
 2087TIP3    H2 6268   5.104   5.187   0.395  1.1158 -0.2030  0.8196
 2088TIP3   OH2 6269   4.122   3.360   4.785  0.3543  0.3923 -0.2098
 2088TIP3    H1 6270   4.042   3.311   4.801  0.0610  0.3075 -1.7487
 2088TIP3    H2 6271   4.149   3.392   4.871 -0.1010 -1.4530  0.6698
 2089TIP3   OH2 6272   0.045   0.291   3.367  0.6024 -0.6518  0.4775
 2089TIP3    H1 6273   0.046   0.210   3.418 -0.5174  0.5771  2.6373
 2089TIP3    H2 6274   0.070   0.359   3.430  0.9928  0.7565 -1.1195
 2090TIP3   OH2 6275   3.103   2.859   2.741 -0.3787 -0.2489 -0.6437
 2090TIP3    H1 6276   3.146   2.775   2.758  1.0624  0.6212  0.1268
 2090TIP3    H2 6277   3.022   2.856   2.792  1.3655  0.2243  2.3326
 2091TIP3   OH2 6278   1.100   2.725   3.883  0.0692 -0.4074 -0.0644
 2091TIP3    H1 6279   1.135   2.780   3.954 -1.3954 -0.6615  0.9012
 2091TIP3    H2 6280   1.005   2.725   3.898 -0.1470 -1.4987 -1.2993
 2092TIP3   OH2 6281   3.267   1.584   4.432 -0.2297 -0.1635  0.2756
 2092TIP3    H1 6282   3.335   1.560   4.369  0.4534  0.9319  0.5465
 2092TIP3    H2 6283   3.197   1.622   4.379 -0.2023 -0.4035  0.0688
 2093TIP3   OH2 6284   3.632   2.002   3.652  0.1155 -0.1818  0.4210
 2093TIP3    H1 6285   3.569   1.930   3.653  0.2588 -0.3063  0.9564
 2093TIP3    H2 6286   3.707   1.969   3.701  0.8687 -0.2653 -0.7400
 2094TIP3   OH2 6287   3.197   5.123   0.220 -0.2210  0.3270 -0.5681
 2094TIP3    H1 6288   3.102   5.133   0.225 -0.2832  0.9086 -2.4311
 2094TIP3    H2 6289   3.225   5.187   0.155  1.1233 -1.7254 -2.1102
 2095TIP3   OH2 6290   1.654   0.814   2.794  0.3385  0.0422  0.0651
 2095TIP3    H1 6291   1.570   0.848   2.763  0.5362  0.1997 -0.3064
 2095TIP3    H2 6292   1.700   0.786   2.715  0.6986  0.1008  0.2489
 2096TIP3   OH2 6293   3.486   5.292   3.461  0.1154 -0.1336  0.0811
 2096TIP3    H1 6294   3.577   5.319   3.449 -0.1894  0.8105 -0.1582
 2096TIP3    H2 6295   3.482   5.265   3.553  0.2086  1.6025  0.6302
 2097TIP3   OH2 6296   0.264   3.907   0.065  0.2543 -0.1780 -0.5827
 2097TIP3    H1 6297   0.256   3.999   0.040  0.3126 -0.0164 -0.0175
 2097TIP3    H2 6298   0.198   3.895   0.134 -0.2642 -0.7479 -1.1717
 2098TIP3   OH2 6299   5.248   1.311   0.023  0.0027 -0.0875  0.3006
 2098TIP3    H1 6300   5.330   1.295   0.069  0.5511 -0.1274 -0.6681
 2098TIP3    H2 6301   5.245   1.406   0.011  0.7441 -0.2213 -1.1339
 2099TIP3   OH2 6302   5.292   0.823   4.043  0.1722 -0.1720 -0.0572
 2099TIP3    H1 6303   5.369   0.880   4.042 -0.4667  0.7708  1.3559
 2099TIP3    H2 6304   5.306   0.764   4.117 -0.9966  0.8426  1.0276
 2100TIP3   OH2 6305   3.218   3.966   3.332  0.5007 -0.2708 -0.0417
 2100TIP3    H1 6306   3.270   4.037   3.370  0.4471  0.5786 -1.4604
 2100TIP3    H2 6307   3.281   3.896   3.317  0.9895  0.2608 -0.5363
 2101TIP3   OH2 6308   0.934   4.505   1.442 -0.1882 -0.1710  0.3454
 2101TIP3    H1 6309   0.906   4.416   1.462  1.2401 -0.1256  2.9954
 2101TIP3    H2 6310   1.020   4.494   1.400 -0.1510 -0.0412  0.3879
 2102TIP3   OH2 6311   3.638   0.379   1.247 -0.0520  0.2648 -0.5342
 2102TIP3    H1 6312   3.688   0.298   1.255  0.3892  0.6296  0.5948
 2102TIP3    H2 6313   3.581   0.364   1.172 -1.4504 -1.8796  0.8406
 2103TIP3   OH2 6314   1.220   5.681   0.037  0.2039 -0.3684  0.2439
 2103TIP3    H1 6315   1.224   5.669   0.132  1.5474  0.9561  0.3983
 2103TIP3    H2 6316   1.127   5.692   0.019  0.0954  3.4699  2.0808
 2104TIP3   OH2 6317   4.541   2.014   2.778 -0.0687  0.0740 -0.2464
 2104TIP3    H1 6318   4.623   2.023   2.729  0.6710 -0.9859  0.7308
 2104TIP3    H2 6319   4.492   1.947   2.730 -0.3112  0.6242 -0.7673
 2105TIP3   OH2 6320   4.916   4.162   3.757  0.0188  0.0628 -0.8076
 2105TIP3    H1 6321   4.943   4.167   3.665 -0.1007 -0.8709 -0.9123
 2105TIP3    H2 6322   4.917   4.252   3.788  1.2448  0.2681 -1.3796
 2106TIP3   OH2 6323   2.528   1.424   1.280  0.0110  0.6136  1.0287
 2106TIP3    H1 6324   2.596   1.419   1.347  2.7180 -1.3451 -1.6023
 2106TIP3    H2 6325   2.507   1.333   1.260 -0.4762  1.1010 -0.8970
 2107TIP3   OH2 6326   3.347   3.802   2.941  0.2875 -0.0153 -0.4032
 2107TIP3    H1 6327   3.345   3.740   3.013  2.6521  0.5639  0.2722
 2107TIP3    H2 6328   3.258   3.837   2.936 -0.5476 -1.8774  0.5650
 2108TIP3   OH2 6329   5.148   4.450   3.258 -0.5262 -0.1041 -0.3076
 2108TIP3    H1 6330   5.181   4.360   3.260 -1.1603 -0.3834 -1.2917
 2108TIP3    H2 6331   5.102   4.456   3.174  0.8309  1.6244 -0.9869
 2109TIP3   OH2 6332   0.808   1.363   2.167  0.3455 -0.5818  0.6521
 2109TIP3    H1 6333   0.754   1.421   2.220 -0.5670  0.2381 -1.0736
 2109TIP3    H2 6334   0.836   1.417   2.093  2.3055 -1.4242  0.7212
 2110TIP3   OH2 6335   1.904   5.053   4.858 -0.6494 -0.2385 -0.3080
 2110TIP3    H1 6336   1.996   5.076   4.852 -0.2028 -1.8932 -0.3824
 2110TIP3    H2 6337   1.870   5.108   4.928  0.0892  1.2397 -1.0682
 2111TIP3   OH2 6338   1.677   1.030   0.696 -0.4061 -0.1948 -0.9790
 2111TIP3    H1 6339   1.682   1.119   0.730 -1.0982 -0.1217 -1.0678
 2111TIP3    H2 6340   1.753   0.986   0.735 -0.7255  0.0996  0.0025
 2112TIP3   OH2 6341   1.084   3.206   4.119 -0.0312 -0.3055 -0.2448
 2112TIP3    H1 6342   1.148   3.143   4.085  0.0543  0.5047 -1.6675
 2112TIP3    H2 6343   1.120   3.291   4.095 -2.4820  0.1399 -2.8021
 2113TIP3   OH2 6344   1.756   3.754   3.451 -0.0641 -0.3870  0.1845
 2113TIP3    H1 6345   1.819   3.755   3.379 -1.8371 -0.7957 -1.4361
 2113TIP3    H2 6346   1.684   3.700   3.420 -1.9608  1.3587  1.3108
 2114TIP3   OH2 6347   4.832   5.569   3.755 -0.0916  0.3036  0.4253
 2114TIP3    H1 6348   4.889   5.493   3.769 -0.8886 -0.4995 -0.4990
 2114TIP3    H2 6349   4.803   5.594   3.843 -2.0407 -2.2515  0.6257
 2115TIP3   OH2 6350   1.551   5.284   3.344  0.2326 -0.2255 -0.3541
 2115TIP3    H1 6351   1.590   5.286   3.257 -1.7126  1.3795 -1.2863
 2115TIP3    H2 6352   1.539   5.191   3.363 -1.7556 -0.6534 -3.0602
 2116TIP3   OH2 6353   4.388   1.904   2.168 -0.3016 -0.1020 -0.2214
 2116TIP3    H1 6354   4.333   1.982   2.174  0.1867  0.1945  4.9249
 2116TIP3    H2 6355   4.478   1.939   2.165 -0.0941 -0.3303  1.8705
 2117TIP3   OH2 6356   1.412   4.368   4.342  0.3696  0.1959 -0.2285
 2117TIP3    H1 6357   1.395   4.307   4.270 -0.3189 -1.4261  1.2231
 2117TIP3    H2 6358   1.389   4.318   4.421 -0.1502  2.3335  1.0423
 2118TIP3   OH2 6359   6.063   1.852   2.720  0.1355 -0.0370  0.1763
 2118TIP3    H1 6360   6.081   1.759   2.731 -1.0063 -0.1357  1.5397
 2118TIP3    H2 6361   5.994   1.855   2.654  0.6290 -0.0955 -0.3527
 2119TIP3   OH2 6362   3.882   5.549   1.611  0.1548 -0.1468 -0.2144
 2119TIP3    H1 6363   3.916   5.637   1.594 -0.8022  0.1016 -0.8842
 2119TIP3    H2 6364   3.921   5.525   1.695  1.4124  0.4118 -0.6082
 2120TIP3   OH2 6365   6.277   2.825   1.389  0.0480  0.1178 -0.3436
 2120TIP3    H1 6366   6.293   2.731   1.386  0.5922  0.1811  0.3163
 2120TIP3    H2 6367   6.196   2.837   1.340 -0.0203 -0.6948 -0.4419
 2121TIP3   OH2 6368   3.711   2.905   3.789  0.1997  0.1296 -0.0926
 2121TIP3    H1 6369   3.731   2.870   3.702 -0.5760 -1.0608  0.1778
 2121TIP3    H2 6370   3.633   2.857   3.817 -0.2076  1.2692  0.8176
 2122TIP3   OH2 6371   2.168   0.878   0.770  0.5210  0.0894 -0.4485
 2122TIP3    H1 6372   2.198   0.969   0.764 -0.9653  0.6600  0.3185
 2122TIP3    H2 6373   2.143   0.866   0.861  2.6841 -1.7914 -0.0044
 2123TIP3   OH2 6374   0.048   3.704   3.571  0.6149  0.3532  0.6358
 2123TIP3    H1 6375   0.013   3.636   3.629 -0.6223 -1.0121 -1.5407
 2123TIP3    H2 6376   0.007   3.785   3.602 -0.8725 -0.4976  1.0215
 2124TIP3   OH2 6377   4.598   4.135   1.016  0.0743  0.3060 -0.1806
 2124TIP3    H1 6378   4.531   4.120   0.949  1.6787  1.2440 -2.1016
 2124TIP3    H2 6379   4.624   4.226   1.004  1.2572  0.1411  0.9467
 2125TIP3   OH2 6380  -0.026   4.730   4.519  0.9695 -0.1407 -0.1652
 2125TIP3    H1 6381   0.048   4.758   4.574  2.0566  0.6904 -1.9438
 2125TIP3    H2 6382   0.015   4.697   4.439 -0.5825  0.2143 -1.1511
 2126TIP3   OH2 6383   1.536   3.633   3.736  0.3050  0.2793  0.3215
 2126TIP3    H1 6384   1.488   3.662   3.813 -0.7181 -1.0936  0.2345
 2126TIP3    H2 6385   1.626   3.661   3.752 -0.1422  1.1834  1.3843
 2127TIP3   OH2 6386   1.601   0.915   1.417  0.1658 -0.2684 -0.4308
 2127TIP3    H1 6387   1.624   0.842   1.475 -1.0747 -0.0044  0.4280
 2127TIP3    H2 6388   1.532   0.880   1.361 -1.3749  0.5897  0.8629
 2128TIP3   OH2 6389   5.286   1.079   3.023 -0.5384  0.1269 -0.1174
 2128TIP3    H1 6390   5.349   1.024   2.978 -0.5721  0.8237 -1.0493
 2128TIP3    H2 6391   5.208   1.024   3.033 -0.3555 -0.1953 -0.4637
 2129TIP3   OH2 6392   3.026   4.518   1.030 -0.0047  0.2541 -0.3691
 2129TIP3    H1 6393   2.999   4.427   1.044 -2.1817  0.8134 -0.7128
 2129TIP3    H2 6394   3.026   4.557   1.118 -1.9018  0.6329 -0.4975
 2130TIP3   OH2 6395   6.038   4.594   4.091  0.3399 -0.2125 -0.6693
 2130TIP3    H1 6396   6.121   4.604   4.045  0.2189  0.5043 -0.7369
 2130TIP3    H2 6397   6.054   4.525   4.155  1.0213  0.0028 -0.6028
 2131TIP3   OH2 6398   3.868   5.214   3.198  0.1391  0.0117  0.0753
 2131TIP3    H1 6399   3.812   5.141   3.170 -0.3470  0.5907 -0.4672
 2131TIP3    H2 6400   3.920   5.177   3.269 -0.5514 -0.6928  0.2352
 2132TIP3   OH2 6401   4.556   4.422   0.766 -0.3491  0.0091  0.0581
 2132TIP3    H1 6402   4.590   4.491   0.709 -1.1722  0.4433  0.0898
 2132TIP3    H2 6403   4.471   4.454   0.795  1.0042  0.9438  3.4737
 2133TIP3   OH2 6404   3.630   0.180   2.244  0.3600 -0.1527  0.4519
 2133TIP3    H1 6405   3.690   0.229   2.187 -0.1154  0.8595  0.8111
 2133TIP3    H2 6406   3.554   0.236   2.253 -1.2396 -1.9433 -1.0158
 2134TIP3   OH2 6407   3.923   5.742   1.185  0.2441 -0.8426 -0.0572
 2134TIP3    H1 6408   3.945   5.822   1.233 -0.8815 -0.0675 -0.8056
 2134TIP3    H2 6409   3.913   5.676   1.254 -0.0747 -0.0467  0.6810
 2135TIP3   OH2 6410   2.475   5.955   5.053 -0.3769  0.3854  0.0619
 2135TIP3    H1 6411   2.490   5.981   5.144  4.6453  0.6429 -0.5668
 2135TIP3    H2 6412   2.411   6.017   5.020 -0.2967  2.0262  2.7030
 2136TIP3   OH2 6413   6.336   0.623   0.597  0.4785 -0.2939  0.1983
 2136TIP3    H1 6414   6.304   0.543   0.555  1.3897 -0.9149  0.6395
 2136TIP3    H2 6415   6.267   0.687   0.582  0.0322 -0.9630 -0.7775
 2137TIP3   OH2 6416   4.736   5.809   2.208 -0.0217  0.0766 -0.3419
 2137TIP3    H1 6417   4.773   5.889   2.245 -2.4235  1.6074 -1.0282
 2137TIP3    H2 6418   4.745   5.744   2.278 -0.1718  1.6111  1.1607
 2138TIP3   OH2 6419   5.551   1.266   1.241 -0.2775  0.5950 -0.0866
 2138TIP3    H1 6420   5.498   1.327   1.292  0.2045  0.6968  0.3102
 2138TIP3    H2 6421   5.513   1.268   1.153 -1.3510  0.1387  0.3606
 2139TIP3   OH2 6422   5.951   3.656   2.760  0.1098  0.0722 -0.5467
 2139TIP3    H1 6423   6.017   3.629   2.823  0.7999 -1.1402 -1.7385
 2139TIP3    H2 6424   5.991   3.728   2.712  0.6286 -0.7224 -1.3302
 2140TIP3   OH2 6425   0.465   2.864   2.118  0.1904 -0.0616  0.0665
 2140TIP3    H1 6426   0.556   2.835   2.119  0.0490 -0.7663 -2.1216
 2140TIP3    H2 6427   0.449   2.891   2.028 -1.6771  0.3404  0.4747
 2141TIP3   OH2 6428   5.836   1.366   2.390 -0.1698  0.7384 -0.5274
 2141TIP3    H1 6429   5.803   1.296   2.334  1.1251  0.5663 -1.0955
 2141TIP3    H2 6430   5.767   1.432   2.387 -2.0285 -0.9905  1.0575
 2142TIP3   OH2 6431   6.171   5.912   3.789  0.2711  0.1257 -0.0552
 2142TIP3    H1 6432   6.218   5.866   3.859  0.6604  1.1036  0.3422
 2142TIP3    H2 6433   6.126   5.983   3.834 -0.4489  0.0506 -0.6452
 2143TIP3   OH2 6434   0.610   2.203   0.760 -0.5975 -0.2652  0.5238
 2143TIP3    H1 6435   0.562   2.280   0.790  0.2898  0.4546  0.1770
 2143TIP3    H2 6436   0.671   2.183   0.831 -0.1631 -0.0401  0.2260
 2144TIP3   OH2 6437   3.992   3.271   3.922 -0.5053 -0.0329 -0.0038
 2144TIP3    H1 6438   3.983   3.176   3.929  1.4537 -0.3146 -0.7712
 2144TIP3    H2 6439   3.943   3.305   3.997  1.4200 -1.8189  2.2224
 2145TIP3   OH2 6440   0.860   3.853   3.611 -0.0568 -0.5874 -0.0338
 2145TIP3    H1 6441   0.773   3.893   3.604 -0.2201 -0.0395  3.4238
 2145TIP3    H2 6442   0.919   3.927   3.626  0.4339 -1.2065  1.1955
 2146TIP3   OH2 6443   3.117   0.064   3.841 -0.0992 -0.3049  0.2669
 2146TIP3    H1 6444   3.034   0.019   3.860  0.3105 -0.7525  1.0395
 2146TIP3    H2 6445   3.124   0.130   3.910  0.7257 -1.0173  0.8905
 2147TIP3   OH2 6446   5.169   4.491   0.366  0.2075 -0.3115 -0.2868
 2147TIP3    H1 6447   5.116   4.551   0.313  0.4917 -0.2616 -0.5119
 2147TIP3    H2 6448   5.233   4.454   0.305 -0.1783 -1.0992 -0.2234
 2148TIP3   OH2 6449   4.246   1.492   5.041  0.2816  0.0667 -0.1666
 2148TIP3    H1 6450   4.264   1.556   4.972  0.9684  0.5424  0.4394
 2148TIP3    H2 6451   4.188   1.429   5.000  1.2740 -0.0793 -1.4191
 2149TIP3   OH2 6452   2.352   2.029   2.103 -0.3955 -0.0628  0.3220
 2149TIP3    H1 6453   2.348   2.099   2.038 -0.2527 -0.1199  0.2508
 2149TIP3    H2 6454   2.400   2.067   2.176 -0.4802 -0.0262  0.3577
 2150TIP3   OH2 6455   6.327   5.896   1.356 -0.2084  0.0781  1.0152
 2150TIP3    H1 6456   6.313   5.827   1.292  1.0826 -1.2783  2.1251
 2150TIP3    H2 6457   6.310   5.977   1.308  1.9581 -0.7758 -1.4592
 2151TIP3   OH2 6458   1.164   4.947   0.810  0.0728 -0.2171  0.2763
 2151TIP3    H1 6459   1.230   4.898   0.761 -0.2797  1.4854 -2.0839
 2151TIP3    H2 6460   1.092   4.958   0.749 -0.2569  2.3601  0.9895
 2152TIP3   OH2 6461   3.814   0.177   1.231  0.0432  0.5784 -0.2802
 2152TIP3    H1 6462   3.803   0.152   1.139 -0.7252 -1.2316  0.2466
 2152TIP3    H2 6463   3.907   0.167   1.248 -0.2022 -2.2120 -0.1083
 2153TIP3   OH2 6464   0.581   5.860   4.824  0.2210 -0.9485 -0.4565
 2153TIP3    H1 6465   0.496   5.858   4.781 -0.7342  1.8126  1.0428
 2153TIP3    H2 6466   0.573   5.796   4.895 -1.0240 -0.0479  0.2618
 2154TIP3   OH2 6467   3.216   1.360   0.907 -0.0719 -0.5128 -0.0646
 2154TIP3    H1 6468   3.137   1.384   0.956  0.8986 -0.6634  1.6392
 2154TIP3    H2 6469   3.265   1.442   0.899 -0.1828 -0.5045 -0.7533
 2155TIP3   OH2 6470   6.150   1.347   2.787  0.1938  0.4203 -0.2306
 2155TIP3    H1 6471   6.070   1.296   2.783  1.1640 -1.1137 -0.9369
 2155TIP3    H2 6472   6.149   1.400   2.707 -0.3802  0.8261  0.0449
 2156TIP3   OH2 6473   3.656   1.884   1.942 -0.3751 -0.0426  0.5767
 2156TIP3    H1 6474   3.698   1.821   1.884  0.2515  1.0655 -0.2161
 2156TIP3    H2 6475   3.564   1.881   1.918 -0.0372  0.8719 -0.9793
 2157TIP3   OH2 6476   5.337   2.889   2.737 -0.2939 -0.2209  0.9826
 2157TIP3    H1 6477   5.329   2.930   2.823  0.7349 -1.3592  1.6378
 2157TIP3    H2 6478   5.247   2.868   2.712 -0.5036 -1.1560  2.4250
 2158TIP3   OH2 6479   3.861   3.878   0.323  0.3574  0.5044 -0.6651
 2158TIP3    H1 6480   3.931   3.821   0.355  0.5883  0.4357 -1.2970
 2158TIP3    H2 6481   3.882   3.964   0.360  0.0220  0.2080  0.2684
 2159TIP3   OH2 6482   5.382   1.535   3.364 -0.1257 -0.3259 -0.2723
 2159TIP3    H1 6483   5.368   1.515   3.457  1.9863 -0.9053 -0.0394
 2159TIP3    H2 6484   5.367   1.629   3.358 -2.1081 -0.5494  0.2470
 2160TIP3   OH2 6485   4.735   1.032   3.004  0.3276  0.2515  0.4804
 2160TIP3    H1 6486   4.765   0.994   3.086  0.2021 -0.2537  0.2963
 2160TIP3    H2 6487   4.672   0.969   2.969 -0.0824  0.7563  0.2976
 2161TIP3   OH2 6488   1.343   3.457   4.758 -0.1573  0.1408 -0.2750
 2161TIP3    H1 6489   1.423   3.407   4.744  0.6110  1.1531  0.3959
 2161TIP3    H2 6490   1.281   3.394   4.795  1.8505  0.3444  3.9354
 2162TIP3   OH2 6491   4.105   3.432   1.782  0.2993 -0.8328  0.4539
 2162TIP3    H1 6492   4.035   3.495   1.763 -0.3262 -0.6659  3.0291
 2162TIP3    H2 6493   4.184   3.485   1.784  0.0215 -0.4251  0.8691
 2163TIP3   OH2 6494   5.223   5.299   3.478  0.2334 -0.0555 -0.4492
 2163TIP3    H1 6495   5.239   5.268   3.389  4.3831 -0.5462  0.2780
 2163TIP3    H2 6496   5.292   5.363   3.494 -0.3544 -0.0105  2.4334
 2164TIP3   OH2 6497   3.194  -0.013   2.873 -0.3308 -0.2627 -0.4172
 2164TIP3    H1 6498   3.198   0.082   2.882  0.3661 -0.3051 -0.2467
 2164TIP3    H2 6499   3.184  -0.028   2.779  0.5030 -0.0368 -0.5521
 2165TIP3   OH2 6500   6.317   5.836   0.879 -0.0979 -0.3432 -0.0771
 2165TIP3    H1 6501   6.394   5.799   0.835 -1.7555 -1.0817 -2.5607
 2165TIP3    H2 6502   6.293   5.912   0.826 -2.2556 -1.3402 -0.6442
 2166TIP3   OH2 6503   5.273   3.562   0.465  0.3230 -0.3545 -0.0293
 2166TIP3    H1 6504   5.257   3.592   0.376  0.3444  1.0793  0.4125
 2166TIP3    H2 6505   5.369   3.563   0.473  0.3089  1.7638  0.6626
 2167TIP3   OH2 6506   5.834   0.683   1.709 -0.0459 -0.4837  0.3972
 2167TIP3    H1 6507   5.760   0.669   1.650  0.5589 -2.4758  0.0426
 2167TIP3    H2 6508   5.897   0.733   1.658  0.0691 -1.3580 -0.3370
 2168TIP3   OH2 6509   0.784   0.898   2.630  0.7033 -0.4110  0.0750
 2168TIP3    H1 6510   0.829   0.918   2.712 -1.5282 -1.7824  1.7478
 2168TIP3    H2 6511   0.848   0.849   2.578  2.3512  1.0014  0.7025
 2169TIP3   OH2 6512   3.229   5.110   2.453  0.0021  0.6025 -0.4851
 2169TIP3    H1 6513   3.171   5.037   2.432 -0.0615  0.4048  0.3661
 2169TIP3    H2 6514   3.201   5.180   2.395 -0.8786  0.4031 -0.3044
 2170TIP3   OH2 6515   0.434   3.720   0.181 -0.5209  0.6629 -0.0490
 2170TIP3    H1 6516   0.482   3.756   0.255  0.2215 -1.0781  0.3623
 2170TIP3    H2 6517   0.388   3.795   0.143  0.3264  1.8621  1.2194
 2171TIP3   OH2 6518   5.878   2.182   0.124 -0.0346 -0.0369 -0.8548
 2171TIP3    H1 6519   5.792   2.218   0.144 -0.4255 -1.1169 -0.4990
 2171TIP3    H2 6520   5.940   2.245   0.160 -0.7040 -0.5262  1.2706
 2172TIP3   OH2 6521   5.312   3.102   0.746  0.2847  0.1073  0.2455
 2172TIP3    H1 6522   5.314   3.075   0.838  1.5460 -0.3565  0.1004
 2172TIP3    H2 6523   5.256   3.180   0.745  0.0715 -0.0141  1.3630
 2173TIP3   OH2 6524   5.804   2.609   2.416 -0.2533  0.1068  0.6538
 2173TIP3    H1 6525   5.867   2.680   2.413 -0.1192 -0.0162 -2.4054
 2173TIP3    H2 6526   5.722   2.647   2.385 -0.4540 -0.8280 -0.0031
 2174TIP3   OH2 6527   6.032   1.083   3.311  0.3311  0.3115  0.3517
 2174TIP3    H1 6528   6.043   1.029   3.233  1.4989 -0.5194  1.0719
 2174TIP3    H2 6529   5.958   1.141   3.289 -0.7465 -1.3232 -0.5613
 2175TIP3   OH2 6530   3.894   1.486   1.001 -0.0505 -0.3382  0.4640
 2175TIP3    H1 6531   3.851   1.570   1.020 -0.9970 -0.8803  0.7852
 2175TIP3    H2 6532   3.977   1.511   0.961  0.8445  0.8282  2.8170
 2176TIP3   OH2 6533   3.984   1.500   4.723 -0.4385 -0.5729  0.4683
 2176TIP3    H1 6534   4.007   1.432   4.787  1.4640  0.3055  0.8079
 2176TIP3    H2 6535   3.937   1.453   4.655  1.7088 -2.5015  0.1547
 2177TIP3   OH2 6536   5.868   5.939   3.984  0.5443 -0.3540 -0.0695
 2177TIP3    H1 6537   5.789   5.965   4.031  0.1190 -1.5904 -0.0795
 2177TIP3    H2 6538   5.899   6.020   3.943 -0.4850  0.2195  0.2600
 2178TIP3   OH2 6539   0.863   5.597   0.230 -0.2602 -0.0119  0.7844
 2178TIP3    H1 6540   0.957   5.578   0.235 -0.1693 -0.0154 -0.5695
 2178TIP3    H2 6541   0.851   5.676   0.282  0.5174  0.0689  0.8467
 2179TIP3   OH2 6542   1.405   3.039   4.841 -0.1872  0.2742  0.6439
 2179TIP3    H1 6543   1.458   3.012   4.916  0.3777 -0.5730 -0.0442
 2179TIP3    H2 6544   1.348   2.965   4.824 -1.1015  0.9019  0.9238
 2180TIP3   OH2 6545   5.112   3.457   2.206 -0.0582  0.2670 -0.0467
 2180TIP3    H1 6546   5.103   3.377   2.257 -0.6959  0.9868  1.0111
 2180TIP3    H2 6547   5.130   3.427   2.117  2.1573 -1.0276  0.7504
 2181TIP3   OH2 6548   0.970   1.581   3.308 -0.4021 -0.5074 -0.1517
 2181TIP3    H1 6549   1.012   1.599   3.224  0.1045  1.9617  0.5636
 2181TIP3    H2 6550   0.877   1.574   3.287 -0.2109 -0.5731 -0.9962
 2182TIP3   OH2 6551   2.364   0.750   3.684 -0.5440  0.1989  0.0831
 2182TIP3    H1 6552   2.297   0.683   3.672 -0.4996 -0.0147  0.9304
 2182TIP3    H2 6553   2.321   0.820   3.732 -0.1206 -0.0397  0.8405
 2183TIP3   OH2 6554   0.799   5.752   5.195  0.0536  0.4523  0.1817
 2183TIP3    H1 6555   0.716   5.704   5.195 -0.6558  1.5828  1.7369
 2183TIP3    H2 6556   0.864   5.688   5.166 -0.9532 -1.2664  1.4912
 2184TIP3   OH2 6557   1.554   0.425   2.924 -0.0571  0.1060 -0.7473
 2184TIP3    H1 6558   1.501   0.355   2.962 -2.7794  1.5442 -1.6077
 2184TIP3    H2 6559   1.561   0.402   2.831  1.7596 -0.5691 -0.4708
 2185TIP3   OH2 6560   1.435   2.352   4.386 -0.4795 -0.2907  0.2600
 2185TIP3    H1 6561   1.438   2.257   4.397 -1.9484 -0.5448 -1.1696
 2185TIP3    H2 6562   1.439   2.366   4.292 -2.2466  0.9452  0.3268
 2186TIP3   OH2 6563   2.290   1.750   0.510 -0.2083 -0.0253  0.2914
 2186TIP3    H1 6564   2.365   1.690   0.507 -1.5636 -1.7936 -1.3175
 2186TIP3    H2 6565   2.257   1.743   0.599 -0.0349 -1.3515  0.2733
 2187TIP3   OH2 6566   4.662   0.552   2.386  0.4421 -0.1472  0.2763
 2187TIP3    H1 6567   4.581   0.509   2.410  0.5675 -0.5261  0.0304
 2187TIP3    H2 6568   4.722   0.481   2.363  1.0648  0.0872  1.1318
 2188TIP3   OH2 6569   3.702   0.731   4.803 -0.4625  0.1286 -0.2230
 2188TIP3    H1 6570   3.707   0.649   4.754  1.7402  0.4414 -0.6312
 2188TIP3    H2 6571   3.609   0.754   4.802 -1.3365 -2.8853  0.8624
 2189TIP3   OH2 6572   2.035   2.143   0.110  0.3513  0.4356  0.1763
 2189TIP3    H1 6573   1.973   2.145   0.038 -0.4210 -0.4377  0.7979
 2189TIP3    H2 6574   2.086   2.063   0.097  1.2417  1.0494 -0.2241
 2190TIP3   OH2 6575   0.621   4.796   0.042  0.0910  0.0323  0.1013
 2190TIP3    H1 6576   0.622   4.707   0.007 -0.7843  0.5669 -1.3485
 2190TIP3    H2 6577   0.619   4.852  -0.035 -1.7012  1.2621  0.9748
 2191TIP3   OH2 6578   0.791   1.276   3.921  0.3204 -0.0866 -0.1084
 2191TIP3    H1 6579   0.773   1.368   3.940 -0.3185 -0.3521  0.6234
 2191TIP3    H2 6580   0.705   1.233   3.923  0.5647 -0.6325 -0.8263
 2192TIP3   OH2 6581   5.495   4.254   0.333 -0.3411  0.4944 -0.3987
 2192TIP3    H1 6582   5.575   4.303   0.318  0.1063 -0.3979 -1.0685
 2192TIP3    H2 6583   5.509   4.208   0.416 -0.3111  0.6332 -0.3273
 2193TIP3   OH2 6584   3.486   2.032   0.286 -0.1443 -0.3334  0.3354
 2193TIP3    H1 6585   3.445   2.043   0.201  1.5807  1.6723 -0.3434
 2193TIP3    H2 6586   3.483   2.119   0.326  0.1785 -0.9554  1.7933
 2194TIP3   OH2 6587   5.410   0.519   0.004  0.2945 -0.2812  0.7671
 2194TIP3    H1 6588   5.423   0.435   0.047 -1.3946 -0.8942  0.1512
 2194TIP3    H2 6589   5.356   0.569   0.066  1.5747  0.5109  1.2861
 2195TIP3   OH2 6590   5.156   4.168   0.879 -0.2491  0.5483 -0.4461
 2195TIP3    H1 6591   5.172   4.141   0.789  1.1927  0.4965 -0.1866
 2195TIP3    H2 6592   5.243   4.179   0.917 -0.7522 -1.8505  1.6533
 2196TIP3   OH2 6593   1.140   4.917   4.296  0.1491 -0.0214 -0.1690
 2196TIP3    H1 6594   1.134   4.852   4.365  0.6188 -1.0115 -1.0469
 2196TIP3    H2 6595   1.078   4.887   4.229 -0.4914  1.0607 -0.0890
 2197TIP3   OH2 6596   3.309   0.020   2.575 -0.0096 -0.0860  0.0505
 2197TIP3    H1 6597   3.399  -0.009   2.558  0.9951  2.7387  0.0647
 2197TIP3    H2 6598   3.261  -0.004   2.495  1.9143  2.4858 -2.0728
 2198TIP3   OH2 6599   0.890   2.398   4.345  0.0436 -0.1414  0.1604
 2198TIP3    H1 6600   0.859   2.427   4.260  0.3296 -1.4670 -0.4163
 2198TIP3    H2 6601   0.835   2.323   4.367 -2.1043  1.9626  2.5937
 2199TIP3   OH2 6602   1.952   0.537   1.071  0.1083 -0.1835 -0.1240
 2199TIP3    H1 6603   1.877   0.596   1.063  1.0070  0.9700 -0.2809
 2199TIP3    H2 6604   1.982   0.523   0.981  1.1858  0.8392  0.0603
 2200TIP3   OH2 6605   0.077   3.607   0.825 -0.3145  0.0482  0.3690
 2200TIP3    H1 6606   0.041   3.524   0.793 -0.8713  0.9834 -1.6235
 2200TIP3    H2 6607   0.159   3.618   0.776  0.0000  0.4360  0.9804
 2201TIP3   OH2 6608   3.250   4.622   4.578 -0.3194  0.7006 -0.3624
 2201TIP3    H1 6609   3.199   4.697   4.612 -2.1370 -0.7259  0.2529
 2201TIP3    H2 6610   3.298   4.590   4.654 -0.8952  0.2266 -0.1865
 2202TIP3   OH2 6611   0.196   1.571   0.305 -0.0460  0.7816 -0.4663
 2202TIP3    H1 6612   0.267   1.620   0.346  0.3516  0.8662 -1.2347
 2202TIP3    H2 6613   0.233   1.541   0.221 -0.2945 -0.8004 -0.0318
 2203TIP3   OH2 6614   3.565   3.972   3.148  0.2607  0.0048 -0.0825
 2203TIP3    H1 6615   3.501   4.042   3.133  0.0626 -0.3429 -0.8850
 2203TIP3    H2 6616   3.648   4.007   3.116  0.5004  0.4760  1.0067
 2204TIP3   OH2 6617   0.946   5.308   3.847 -0.6287 -0.1199  0.0882
 2204TIP3    H1 6618   0.930   5.240   3.913 -2.9947  1.3313  1.1380
 2204TIP3    H2 6619   1.015   5.363   3.885 -0.0901 -0.8009  0.1118
 2205TIP3   OH2 6620   3.618   3.029   3.527  0.1799 -0.1465 -0.0499
 2205TIP3    H1 6621   3.567   3.091   3.475  2.2905  1.8592  0.1402
 2205TIP3    H2 6622   3.700   3.074   3.545  0.4271 -1.6299  3.1797
 2206TIP3   OH2 6623   5.055   2.407   3.798 -0.1236 -0.2446  0.2611
 2206TIP3    H1 6624   4.996   2.482   3.793  0.7114  0.5194  1.2555
 2206TIP3    H2 6625   5.120   2.433   3.864  0.3076 -1.7581  0.4590
 2207TIP3   OH2 6626   1.281   5.418   0.852  0.2508 -0.3768  0.1845
 2207TIP3    H1 6627   1.255   5.327   0.842 -0.1017 -0.4119  1.3237
 2207TIP3    H2 6628   1.306   5.427   0.943 -1.0756  0.9996  0.4646
 2208TIP3   OH2 6629   4.785   4.168   2.314 -0.0700  0.4950  0.7450
 2208TIP3    H1 6630   4.704   4.149   2.266 -0.0345 -2.1392  1.5757
 2208TIP3    H2 6631   4.846   4.201   2.248 -0.1537 -2.5810 -1.0097
 2209TIP3   OH2 6632   2.373   1.184   3.157  0.2608  0.2473  0.1714
 2209TIP3    H1 6633   2.346   1.253   3.097  1.2677  1.9002  1.5200
 2209TIP3    H2 6634   2.291   1.156   3.198  0.0142  2.2527  1.1952
 2210TIP3   OH2 6635   4.954   1.945   0.227  0.1023 -0.7746  0.0229
 2210TIP3    H1 6636   4.983   1.856   0.206 -1.0054 -1.3487  0.7529
 2210TIP3    H2 6637   4.933   1.941   0.321 -1.0694 -0.0902 -0.1848
 2211TIP3   OH2 6638   1.861   5.399   2.866  0.1424 -0.1439  0.5364
 2211TIP3    H1 6639   1.882   5.464   2.933  0.8991 -1.0655  1.2251
 2211TIP3    H2 6640   1.946   5.373   2.831 -0.2924  1.4879 -1.9899
 2212TIP3   OH2 6641   4.993   3.507   2.561 -0.0709 -0.4847 -0.8853
 2212TIP3    H1 6642   5.023   3.597   2.573  1.1803 -0.8170 -1.4757
 2212TIP3    H2 6643   5.070   3.458   2.533 -0.8730 -1.6228 -1.2029
 2213TIP3   OH2 6644   3.263   4.704   1.833 -0.0811  0.2087 -0.7707
 2213TIP3    H1 6645   3.346   4.735   1.797  0.5091 -0.7073 -0.2328
 2213TIP3    H2 6646   3.285   4.673   1.921 -0.9082 -0.4591 -0.7887
 2214TIP3   OH2 6647   2.104   4.242   1.341  0.2572 -0.9231  0.7732
 2214TIP3    H1 6648   2.134   4.168   1.288  0.1454  0.3192 -1.1249
 2214TIP3    H2 6649   2.183   4.293   1.356  0.1289 -0.8026  1.0254
 2215TIP3   OH2 6650   0.639   0.232   4.342 -0.3999 -0.3092  0.2922
 2215TIP3    H1 6651   0.572   0.176   4.303 -1.0061  0.9478 -0.5284
 2215TIP3    H2 6652   0.604   0.320   4.335  0.2855  0.1539  2.0856
 2216TIP3   OH2 6653   5.967   0.208   2.361 -0.9755 -0.4023  0.3306
 2216TIP3    H1 6654   5.930   0.122   2.338 -3.2728  0.8944 -1.2226
 2216TIP3    H2 6655   6.000   0.196   2.450 -2.6838 -2.4872  0.7797
 2217TIP3   OH2 6656   5.469   3.967   2.802 -0.2766 -0.4636 -0.4069
 2217TIP3    H1 6657   5.395   3.957   2.862 -0.0508  1.2660  0.2149
 2217TIP3    H2 6658   5.545   3.933   2.850  0.4897  3.6046  1.6758
 2218TIP3   OH2 6659   2.301   1.453   4.094 -0.2876 -0.2672 -0.5181
 2218TIP3    H1 6660   2.246   1.375   4.092  0.0862 -0.7027  2.1969
 2218TIP3    H2 6661   2.240   1.526   4.085 -1.1315 -0.7907  0.7939
 2219TIP3   OH2 6662   4.304   5.151   4.230 -0.3665 -0.4691  0.3288
 2219TIP3    H1 6663   4.281   5.058   4.238 -0.3045 -0.5339 -0.2146
 2219TIP3    H2 6664   4.399   5.152   4.221 -0.4221 -0.3999 -0.2912
 2220TIP3   OH2 6665   5.968   5.279   4.454  0.6344 -0.4741 -0.2885
 2220TIP3    H1 6666   5.884   5.260   4.496  1.1426  1.4727  1.8266
 2220TIP3    H2 6667   5.961   5.240   4.367 -1.9192 -1.5241  0.2967
 2221TIP3   OH2 6668   2.103   4.410   2.679  0.5134 -0.4122 -0.3608
 2221TIP3    H1 6669   2.135   4.500   2.687 -0.7695 -0.0262  0.9168
 2221TIP3    H2 6670   2.179   4.356   2.700  1.0083  0.4022  0.0016
 2222TIP3   OH2 6671   5.387   2.780   2.076  0.3409 -0.5461 -0.1244
 2222TIP3    H1 6672   5.324   2.824   2.019  0.7433 -0.3548 -0.4280
 2222TIP3    H2 6673   5.446   2.849   2.105  0.4412 -0.7316  0.1219
 2223TIP3   OH2 6674   6.286   3.774   2.576  0.3282 -0.2488 -0.1544
 2223TIP3    H1 6675   6.244   3.856   2.600  2.2429  1.3036 -1.7344
 2223TIP3    H2 6676   6.308   3.733   2.660 -3.0008 -0.5554  0.7104
 2224TIP3   OH2 6677   2.329   3.975   3.601  0.3229  0.0168 -0.1482
 2224TIP3    H1 6678   2.262   3.969   3.669 -0.9746  0.3247 -1.3630
 2224TIP3    H2 6679   2.358   3.884   3.588  1.7505  0.1017  1.8672
 2225TIP3   OH2 6680   2.419   3.016   1.247  0.5926 -0.1603  0.4992
 2225TIP3    H1 6681   2.444   3.023   1.339  0.6740 -3.2319  0.8342
 2225TIP3    H2 6682   2.500   2.989   1.202  0.7388  2.0138 -0.6589
 2226TIP3   OH2 6683   3.523   1.490   1.453  0.3926  0.2329 -0.0323
 2226TIP3    H1 6684   3.474   1.572   1.461  0.0723  0.5986 -3.8685
 2226TIP3    H2 6685   3.612   1.512   1.481 -0.3232  1.0849  1.6674
 2227TIP3   OH2 6686   6.297   3.025   1.948  0.1513 -0.3796 -0.3304
 2227TIP3    H1 6687   6.339   3.077   1.880  1.2507 -0.7343  0.0665
 2227TIP3    H2 6688   6.364   3.011   2.015 -0.9501  0.1299  0.9441
 2228TIP3   OH2 6689   3.368   3.345   3.733 -0.3365 -0.6277  0.4070
 2228TIP3    H1 6690   3.361   3.320   3.641 -0.6402 -1.5407  0.6635
 2228TIP3    H2 6691   3.357   3.440   3.733 -1.2173 -0.7160 -0.4123
 2229TIP3   OH2 6692   6.080   5.104   2.922 -0.5190 -0.8803 -0.1220
 2229TIP3    H1 6693   6.058   5.141   2.836  1.6295  1.3614  0.1905
 2229TIP3    H2 6694   6.175   5.112   2.928 -0.6308 -0.6313  2.5983
 2230TIP3   OH2 6695   2.697   1.072   1.809 -0.4758  0.0614 -0.1044
 2230TIP3    H1 6696   2.740   1.002   1.761 -0.0167  0.0117  0.3669
 2230TIP3    H2 6697   2.610   1.079   1.770 -0.8527 -1.3718  0.4115
 2231TIP3   OH2 6698   4.040   5.916   3.473  0.1686  0.2042 -0.0975
 2231TIP3    H1 6699   3.947   5.937   3.461 -0.3067 -0.5894  1.9079
 2231TIP3    H2 6700   4.059   5.851   3.406 -0.9770 -0.3168  0.0688
 2232TIP3   OH2 6701   0.587   5.693   0.411  0.0553  0.3307  0.3029
 2232TIP3    H1 6702   0.613   5.611   0.453 -0.1586  0.4910  0.7536
 2232TIP3    H2 6703   0.667   5.745   0.408  0.1349  0.2059  0.2456
 2233TIP3   OH2 6704   0.121   2.930   0.745 -0.2830  0.4884  0.3842
 2233TIP3    H1 6705   0.049   2.911   0.805 -1.2302  3.5166  0.3975
 2233TIP3    H2 6706   0.161   3.010   0.780  1.2992  0.4469 -1.1638
 2234TIP3   OH2 6707   1.564   6.005   0.051 -0.1526  0.1577  0.1829
 2234TIP3    H1 6708   1.632   6.038   0.109  0.0415 -0.5403  0.3647
 2234TIP3    H2 6709   1.576   5.910   0.052 -0.5541  0.0934 -0.4954
 2235TIP3   OH2 6710   1.210   1.162   4.923  0.2646  0.4885 -0.8957
 2235TIP3    H1 6711   1.129   1.190   4.964 -0.6047 -2.1191 -0.6537
 2235TIP3    H2 6712   1.275   1.227   4.949 -1.1833  1.2059  1.0788
 2236TIP3   OH2 6713   1.540   0.113   3.641 -0.1166  0.1962  0.4778
 2236TIP3    H1 6714   1.624   0.122   3.687  0.4641  3.6369 -0.8882
 2236TIP3    H2 6715   1.543   0.181   3.574 -3.5872 -0.3064 -0.3688
 2237TIP3   OH2 6716   2.910   4.141   0.469 -0.0855 -0.1009  0.4703
 2237TIP3    H1 6717   2.880   4.053   0.450 -0.5498  0.0137  0.6741
 2237TIP3    H2 6718   3.005   4.132   0.482 -0.2606 -0.7071  1.3341
 2238TIP3   OH2 6719   3.247   4.704   4.325 -0.4127  0.6318  0.1092
 2238TIP3    H1 6720   3.245   4.684   4.419  1.8067 -2.0400 -0.2609
 2238TIP3    H2 6721   3.281   4.793   4.319  0.8913  0.3070  1.8692
 2239TIP3   OH2 6722   1.872   0.651   1.401 -0.0501 -0.1461 -0.0463
 2239TIP3    H1 6723   1.826   0.701   1.468  0.9764  0.2735  0.3709
 2239TIP3    H2 6724   1.817   0.574   1.387 -0.0695 -0.4710  1.6136
 2240TIP3   OH2 6725   1.303   4.624   3.036 -0.5032  0.4438 -0.1492
 2240TIP3    H1 6726   1.362   4.548   3.040 -0.9976  0.0472 -0.2243
 2240TIP3    H2 6727   1.334   4.674   2.961  0.1229  0.5688  0.1844
 2241TIP3   OH2 6728   2.892   4.354   1.883 -0.0832  0.3102  0.1620
 2241TIP3    H1 6729   2.950   4.428   1.900 -0.8172  0.7323  0.9578
 2241TIP3    H2 6730   2.810   4.378   1.926 -0.3613 -0.9362  0.3752
 2242TIP3   OH2 6731   5.089   5.129   2.611 -0.3260 -0.3207 -0.4799
 2242TIP3    H1 6732   5.109   5.129   2.705 -0.5952 -0.1432 -0.4195
 2242TIP3    H2 6733   5.052   5.216   2.595  0.8496  0.0990 -1.0091
 2243TIP3   OH2 6734   5.968   1.388   4.843  0.2897  0.9117  0.0159
 2243TIP3    H1 6735   5.954   1.466   4.790  0.8707  0.3889 -0.9300
 2243TIP3    H2 6736   5.984   1.421   4.931 -1.9909  1.7379  0.1707
 2244TIP3   OH2 6737   1.257   1.245   0.829  0.0015 -0.3706 -0.3299
 2244TIP3    H1 6738   1.287   1.181   0.764  1.1368  0.9480 -1.1938
 2244TIP3    H2 6739   1.193   1.299   0.782 -1.4018 -1.2200  0.5692
 2245TIP3   OH2 6740   0.082   0.834   4.010 -0.2996  0.0578  0.3977
 2245TIP3    H1 6741   0.038   0.773   3.951  0.0110 -0.1062  0.3322
 2245TIP3    H2 6742   0.175   0.826   3.988 -0.0610 -0.7440  1.5785
 2246TIP3   OH2 6743   1.036   4.989   1.328 -0.1426 -0.5779 -0.3108
 2246TIP3    H1 6744   1.062   5.056   1.392 -1.3732 -0.4136  0.0417
 2246TIP3    H2 6745   1.104   4.993   1.260  0.8709 -0.3515  0.6881
 2247TIP3   OH2 6746   5.420   4.789   4.677 -0.3888 -0.4996 -0.2544
 2247TIP3    H1 6747   5.490   4.725   4.689  0.0499  0.2531  1.4673
 2247TIP3    H2 6748   5.392   4.812   4.766 -1.8029  0.3344 -0.8740
 2248TIP3   OH2 6749   3.417   2.398   3.545 -0.6588  0.0443 -0.3690
 2248TIP3    H1 6750   3.504   2.430   3.569 -2.1704  2.8577  2.0787
 2248TIP3    H2 6751   3.393   2.340   3.617 -1.2755  0.3367 -0.3345
 2249TIP3   OH2 6752   3.390   4.138   3.477  0.5160 -0.4378  0.0608
 2249TIP3    H1 6753   3.398   4.232   3.459  0.0206 -0.6129 -1.1833
 2249TIP3    H2 6754   3.450   4.122   3.550 -0.3529  1.0847  1.1574
 2250TIP3   OH2 6755   5.862   3.053   0.623  0.0135 -0.4322  0.7481
 2250TIP3    H1 6756   5.776   3.094   0.634 -0.4961 -1.6521  1.5901
 2250TIP3    H2 6757   5.856   3.006   0.540 -1.0623 -2.5197  1.9053
 2251TIP3   OH2 6758   2.828   1.860   4.304  0.5555 -0.5952 -0.1101
 2251TIP3    H1 6759   2.766   1.848   4.233  1.7376 -0.1434 -1.2621
 2251TIP3    H2 6760   2.878   1.938   4.280  0.7143 -0.1765  1.4292
 2252TIP3   OH2 6761   5.618   1.235   5.008 -0.1269  0.0619  0.4382
 2252TIP3    H1 6762   5.610   1.331   5.007 -1.2776  0.0120  2.0728
 2252TIP3    H2 6763   5.635   1.214   5.099 -2.1095 -1.4457  0.5133
 2253TIP3   OH2 6764   1.596   3.537   1.940 -0.2580  0.5512  0.1533
 2253TIP3    H1 6765   1.553   3.548   1.856 -1.1938  0.3038  0.5954
 2253TIP3    H2 6766   1.686   3.566   1.924 -0.3969  0.4233 -0.9480
 2254TIP3   OH2 6767   4.042   0.598   4.616  0.0892  0.0695 -0.0653
 2254TIP3    H1 6768   4.114   0.591   4.554  0.9284  1.1567  0.7323
 2254TIP3    H2 6769   3.963   0.599   4.562  0.7315 -0.1155 -1.0266
 2255TIP3   OH2 6770   6.012   1.790   0.989  0.1035 -0.3647 -0.1161
 2255TIP3    H1 6771   6.047   1.878   0.976  1.2517 -0.2666  2.8212
 2255TIP3    H2 6772   5.918   1.799   0.975  0.5429  0.5366 -3.0781
 2256TIP3   OH2 6773   5.442   1.697   2.954 -0.0357 -0.0599 -0.0412
 2256TIP3    H1 6774   5.422   1.790   2.965 -0.4081  0.1077 -1.8748
 2256TIP3    H2 6775   5.529   1.696   2.915 -0.1944 -0.4791 -0.3858
 2257TIP3   OH2 6776   0.745   4.946   0.248  0.3514  0.1643 -0.6240
 2257TIP3    H1 6777   0.714   4.872   0.196 -1.0304 -0.0175  0.4067
 2257TIP3    H2 6778   0.732   5.022   0.192 -0.3570 -0.1191 -0.8581
 2258TIP3   OH2 6779   1.062   1.271   0.273 -0.3239  0.1445  0.3295
 2258TIP3    H1 6780   1.122   1.344   0.288  0.9055 -0.7380 -0.1854
 2258TIP3    H2 6781   1.099   1.199   0.324 -1.3963 -0.1996  0.6486
 2259TIP3   OH2 6782   6.213   2.437   2.444 -0.0687  0.3454  0.4061
 2259TIP3    H1 6783   6.134   2.419   2.495  0.8077  0.0107  1.7073
 2259TIP3    H2 6784   6.267   2.492   2.501  0.3629  1.1358 -0.7219
 2260TIP3   OH2 6785   5.795   3.846   0.546 -0.5479 -0.0379  0.0503
 2260TIP3    H1 6786   5.817   3.939   0.553 -1.2501  0.2531 -1.2613
 2260TIP3    H2 6787   5.868   3.808   0.497  0.9255 -0.7023  2.5575
 2261TIP3   OH2 6788   1.311   0.784   5.064  0.1920 -0.5028 -0.5496
 2261TIP3    H1 6789   1.372   0.783   4.990 -0.0896 -1.1368 -0.7774
 2261TIP3    H2 6790   1.315   0.695   5.099 -0.1983 -0.3955 -0.2251
 2262TIP3   OH2 6791   0.330   5.637   0.322 -0.5930 -0.1172  0.0406
 2262TIP3    H1 6792   0.280   5.603   0.397 -0.5423 -0.2580  0.0106
 2262TIP3    H2 6793   0.420   5.643   0.355 -0.4276 -0.9163 -0.2461
 2263TIP3   OH2 6794   3.891   4.600   4.836 -0.0551  0.5321  0.5217
 2263TIP3    H1 6795   3.895   4.547   4.756  1.1221  1.3151  0.0346
 2263TIP3    H2 6796   3.914   4.689   4.807 -1.1788  1.1618  1.4633
 2264TIP3   OH2 6797   2.223   0.294   0.595  0.4452  0.1764  0.4684
 2264TIP3    H1 6798   2.263   0.369   0.639  1.7073 -0.8549  1.1507
 2264TIP3    H2 6799   2.283   0.274   0.523  0.2381 -0.3306  0.4365
 2265TIP3   OH2 6800   2.773   2.328   4.857  0.0207 -0.1414 -0.2644
 2265TIP3    H1 6801   2.716   2.259   4.823 -0.1374  0.1875 -0.6669
 2265TIP3    H2 6802   2.827   2.283   4.923  0.2967 -0.7677 -0.9020
 2266TIP3   OH2 6803   5.919   3.486   3.285 -1.1145  0.0504  0.0146
 2266TIP3    H1 6804   5.878   3.507   3.200  0.0542  1.5839 -0.2234
 2266TIP3    H2 6805   5.848   3.497   3.348 -1.6977  0.1775 -0.6412
 2267TIP3   OH2 6806   0.128   0.430   3.602 -1.2847 -0.0433  0.4820
 2267TIP3    H1 6807   0.182   0.363   3.643 -0.7556 -1.2219 -1.9510
 2267TIP3    H2 6808   0.183   0.508   3.601 -0.4020 -0.6630 -0.1057
 2268TIP3   OH2 6809   2.941   2.271   5.116 -0.3548 -0.2019  0.5611
 2268TIP3    H1 6810   2.897   2.303   5.194  0.5760  0.4409  0.8323
 2268TIP3    H2 6811   3.010   2.335   5.098 -0.2110 -0.6142 -0.4796
 2269TIP3   OH2 6812   4.763   0.086   3.909  0.0465  0.1044 -0.1247
 2269TIP3    H1 6813   4.831   0.039   3.861 -1.0421 -1.8761  0.1647
 2269TIP3    H2 6814   4.744   0.031   3.984 -0.3345  1.7330  1.0177
 2270TIP3   OH2 6815   1.603   2.777   2.597  0.5510 -0.2668 -0.3492
 2270TIP3    H1 6816   1.606   2.866   2.561  0.6853 -0.5604 -1.0729
 2270TIP3    H2 6817   1.511   2.763   2.618  0.3080 -0.4266 -1.4597
 2271TIP3   OH2 6818   0.020   5.284   2.853  0.4276  0.1914  0.3038
 2271TIP3    H1 6819   0.020   5.292   2.758 -0.2281  3.0039  0.4616
 2271TIP3    H2 6820   0.107   5.251   2.874  0.6311 -0.3383 -1.2366
 2272TIP3   OH2 6821   4.110   3.995   2.667  0.3925 -0.2294  0.3647
 2272TIP3    H1 6822   4.051   4.061   2.631 -1.1846  0.1957  3.4286
 2272TIP3    H2 6823   4.198   4.032   2.655 -0.2378  0.9931 -0.6803
 2273TIP3   OH2 6824   5.168   3.321   0.797  0.1555  0.0112  0.1793
 2273TIP3    H1 6825   5.174   3.385   0.726  0.2755  0.1872  0.3491
 2273TIP3    H2 6826   5.180   3.372   0.877  0.7421 -0.2943  0.2939
 2274TIP3   OH2 6827   4.015   1.751   1.178  0.4480 -0.1135 -0.0951
 2274TIP3    H1 6828   3.940   1.744   1.120  0.9799  0.1491 -0.8254
 2274TIP3    H2 6829   4.035   1.844   1.181  2.0722 -0.3716 -1.6447
 2275TIP3   OH2 6830   6.351   4.433   0.444 -0.8639  0.3442  0.0151
 2275TIP3    H1 6831   6.287   4.497   0.473 -2.8352 -1.9153  1.0503
 2275TIP3    H2 6832   6.408   4.419   0.520  0.6912  2.0277 -0.7639
 2276TIP3   OH2 6833   3.136   3.029   4.336 -0.4735 -0.3632  0.4092
 2276TIP3    H1 6834   3.062   2.995   4.386 -0.9818  1.7832  1.2375
 2276TIP3    H2 6835   3.121   3.123   4.333  2.0804  0.0975  0.3217
 2277TIP3   OH2 6836   2.723   3.891   0.675 -0.0250  0.2778  0.3285
 2277TIP3    H1 6837   2.682   3.859   0.755 -0.4016 -0.6568 -0.2264
 2277TIP3    H2 6838   2.715   3.986   0.680 -2.4310  0.1311  0.1496
 2278TIP3   OH2 6839   2.092   0.091   2.881  0.6896  0.4551  0.3992
 2278TIP3    H1 6840   2.086   0.015   2.938  0.2524  0.7231  0.7114
 2278TIP3    H2 6841   2.042   0.159   2.925  1.0541  0.9194  0.1075
 2279TIP3   OH2 6842   3.305   6.002   3.237  0.0269  0.6931  0.1735
 2279TIP3    H1 6843   3.356   5.947   3.177 -1.6068 -0.8713  0.1664
 2279TIP3    H2 6844   3.319   5.963   3.323 -0.2446  0.9651  0.3400
 2280TIP3   OH2 6845   3.176   3.863   0.740 -0.0488  0.5305  0.1906
 2280TIP3    H1 6846   3.182   3.934   0.803 -1.3690 -0.8145  1.9412
 2280TIP3    H2 6847   3.245   3.801   0.766 -0.9814 -0.3102  0.7322
 2281TIP3   OH2 6848   4.460   5.790   4.396 -0.3453 -0.8771  0.7913
 2281TIP3    H1 6849   4.383   5.763   4.447  0.6649 -0.1216  2.8278
 2281TIP3    H2 6850   4.504   5.854   4.452  1.3223 -0.6604 -0.6944
 2282TIP3   OH2 6851   3.501   4.656   1.416 -0.1996  0.1415  1.0045
 2282TIP3    H1 6852   3.524   4.718   1.346 -0.5816 -0.1690  0.6015
 2282TIP3    H2 6853   3.415   4.685   1.446  0.2104  0.6205  1.7436
 2283TIP3   OH2 6854   5.321   2.343   4.237  0.0827  0.3658  0.0986
 2283TIP3    H1 6855   5.395   2.404   4.234 -1.3667  2.2690  0.8499
 2283TIP3    H2 6856   5.268   2.374   4.310 -0.3236 -2.3776  1.1047
 2284TIP3   OH2 6857   1.393   0.633   2.250 -0.2032 -0.1219  0.2356
 2284TIP3    H1 6858   1.324   0.689   2.215  0.7905  2.4015  2.0427
 2284TIP3    H2 6859   1.353   0.590   2.326 -0.0981  0.6074  0.7157
 2285TIP3   OH2 6860   1.695   5.864   1.208 -0.0863  0.3362  0.6292
 2285TIP3    H1 6861   1.776   5.864   1.260 -0.1699 -0.4659  0.7732
 2285TIP3    H2 6862   1.636   5.806   1.256 -0.3938  0.1126 -0.0135
 2286TIP3   OH2 6863   5.009   0.107   0.119 -0.0723  0.2184 -0.2879
 2286TIP3    H1 6864   4.926   0.126   0.075 -1.3746 -1.2374  1.3879
 2286TIP3    H2 6865   4.993   0.130   0.210  1.2432 -0.4655  0.1422
 2287TIP3   OH2 6866   1.181   4.625   0.840 -0.1947 -0.0149 -0.1669
 2287TIP3    H1 6867   1.242   4.697   0.829  1.2458 -1.3588 -1.6519
 2287TIP3    H2 6868   1.101   4.653   0.796 -0.1394  1.1821  0.4736
 2288TIP3   OH2 6869   1.143   1.080   0.468 -0.1239 -0.4433 -0.0129
 2288TIP3    H1 6870   1.093   1.002   0.494  1.1317 -1.8134 -1.4824
 2288TIP3    H2 6871   1.228   1.070   0.511 -0.4499  0.9634  1.0414
 2289TIP3   OH2 6872   6.057   2.371   2.972 -0.4836 -0.4465  0.1329
 2289TIP3    H1 6873   5.990   2.407   3.031  0.2310  0.6536  0.3015
 2289TIP3    H2 6874   6.064   2.279   2.997 -0.6581 -0.1556  1.3244
 2290TIP3   OH2 6875   1.130   2.197   4.965  0.4243 -0.5048 -0.1245
 2290TIP3    H1 6876   1.115   2.111   5.004 -0.0374  0.1050  1.1037
 2290TIP3    H2 6877   1.045   2.222   4.929  0.6666 -0.7432 -0.8721
 2291TIP3   OH2 6878   5.868   0.425   0.623  0.3947 -0.6247 -0.3843
 2291TIP3    H1 6879   5.891   0.456   0.535 -0.2784  3.5911  0.6927
 2291TIP3    H2 6880   5.784   0.381   0.612  0.5968 -0.6967 -1.9096
 2292TIP3   OH2 6881   5.142   5.644   1.106  0.5361  0.3060  0.4859
 2292TIP3    H1 6882   5.116   5.641   1.198 -2.5773  0.0471 -0.2694
 2292TIP3    H2 6883   5.161   5.736   1.089 -0.9787  0.7363  0.9561
 2293TIP3   OH2 6884   2.108   5.036   1.583  0.7435  0.1401  0.4364
 2293TIP3    H1 6885   2.059   5.018   1.503  1.7748  0.0356 -0.1902
 2293TIP3    H2 6886   2.130   4.950   1.617 -0.2978  0.1728  1.2317
 2294TIP3   OH2 6887   6.041   0.415   5.150 -0.1205 -0.1238  0.1109
 2294TIP3    H1 6888   5.986   0.419   5.228  0.7317  0.1050  0.7165
 2294TIP3    H2 6889   6.084   0.500   5.146 -0.5112  0.0378 -0.8857
 2295TIP3   OH2 6890   5.771   0.628   4.127 -0.2360 -0.4135 -0.3809
 2295TIP3    H1 6891   5.851   0.631   4.076  1.2137 -0.4367  1.7574
 2295TIP3    H2 6892   5.746   0.720   4.138 -0.2045 -0.3794 -0.5914
 2296TIP3   OH2 6893   6.318   4.080   4.918 -0.1917 -0.0196 -0.1128
 2296TIP3    H1 6894   6.315   4.081   5.013 -0.4964  0.6747 -0.1227
 2296TIP3    H2 6895   6.359   4.163   4.894 -0.5441  0.0213 -0.5951
 2297TIP3   OH2 6896   4.206   1.279   3.421  0.1829 -0.0759  0.3534
 2297TIP3    H1 6897   4.268   1.211   3.449  1.9246  0.9139 -0.8839
 2297TIP3    H2 6898   4.132   1.271   3.481 -0.0758 -3.5969 -0.2359
 2298TIP3   OH2 6899   3.161   5.415   3.496 -0.3248 -0.2966 -0.3020
 2298TIP3    H1 6900   3.193   5.470   3.424 -1.7347 -1.0162 -1.5446
 2298TIP3    H2 6901   3.114   5.476   3.553 -2.9498 -0.2566 -2.3116
 2299TIP3   OH2 6902   2.851   1.952   2.738  0.0312  0.3364 -0.4539
 2299TIP3    H1 6903   2.862   1.986   2.827 -1.2732  1.6930 -0.7647
 2299TIP3    H2 6904   2.824   1.861   2.749 -0.6368  0.6457  0.5544
 2300TIP3   OH2 6905   5.938   4.303   4.497 -0.3979 -0.5723  0.1933
 2300TIP3    H1 6906   5.894   4.223   4.523 -0.4480 -0.4717  0.4227
 2300TIP3    H2 6907   6.005   4.317   4.564 -0.7523 -0.1294  0.4662
 2301TIP3   OH2 6908   3.899   2.122   3.791  0.1005 -0.1094 -0.3911
 2301TIP3    H1 6909   3.855   2.041   3.767 -0.5668 -0.0392  0.5528
 2301TIP3    H2 6910   3.828   2.185   3.805  0.5097  0.1103  0.7680
 2302TIP3   OH2 6911   6.076   1.850   0.506  0.3381 -0.1187  0.0290
 2302TIP3    H1 6912   6.065   1.756   0.500  1.4814 -0.2091 -0.9679
 2302TIP3    H2 6913   6.114   1.876   0.422  0.2199  1.2003  0.3532
 2303TIP3   OH2 6914   3.470   2.008   5.082 -0.3346 -0.2834  0.7141
 2303TIP3    H1 6915   3.482   1.980   4.991 -3.3400 -2.2655  0.8104
 2303TIP3    H2 6916   3.443   2.100   5.075 -2.0972 -0.8515 -0.5653
 2304TIP3   OH2 6917   4.704   3.309   1.667 -0.2861  0.0144  0.2516
 2304TIP3    H1 6918   4.657   3.317   1.584  0.4324  0.7214 -0.0998
 2304TIP3    H2 6919   4.777   3.251   1.648 -1.0683 -1.2124  0.8392
 2305TIP3   OH2 6920   3.059   1.318   0.042 -0.2775  0.5107  0.3716
 2305TIP3    H1 6921   3.001   1.323   0.117  0.6253 -1.9513  1.3268
 2305TIP3    H2 6922   3.133   1.375   0.064  0.0712 -0.3322  1.4904
 2306TIP3   OH2 6923   0.098   3.121   0.453 -0.0406  0.1002  0.0481
 2306TIP3    H1 6924   0.159   3.068   0.503  0.9681  1.3982  0.2443
 2306TIP3    H2 6925   0.148   3.148   0.375 -0.2919  1.2829  0.2747
 2307TIP3   OH2 6926   2.722   0.889   4.224  0.2512 -0.0788 -0.1675
 2307TIP3    H1 6927   2.686   0.802   4.209 -0.3301 -0.0896  1.1892
 2307TIP3    H2 6928   2.729   0.927   4.136  3.2082 -2.4667 -1.1087
 2308TIP3   OH2 6929   0.054   3.014   3.271 -0.2706  0.3359  0.2655
 2308TIP3    H1 6930   0.110   3.085   3.302  0.8039 -1.0455  1.5965
 2308TIP3    H2 6931   0.095   2.985   3.190  1.7209 -1.4304  1.8125
 2309TIP3   OH2 6932   3.656   0.168   4.656 -0.3496  0.3320 -0.5748
 2309TIP3    H1 6933   3.691   0.245   4.702 -0.8223  0.7723 -0.9428
 2309TIP3    H2 6934   3.577   0.200   4.612 -0.5826 -0.3805 -0.6875
 2310TIP3   OH2 6935   1.907   2.352   5.065  0.4330  0.0814 -0.1536
 2310TIP3    H1 6936   1.895   2.259   5.045  0.4085  0.0032  0.2259
 2310TIP3    H2 6937   1.941   2.354   5.154 -1.1966  0.5142  0.4824
 2311TIP3   OH2 6938   5.774   4.901   0.056 -0.3203  0.2529  0.1192
 2311TIP3    H1 6939   5.753   4.924   0.147  1.7280  1.8786  0.2584
 2311TIP3    H2 6940   5.743   4.976   0.005 -1.7691 -0.7970 -0.6236
 2312TIP3   OH2 6941   0.442   1.653   4.760  0.0385 -0.3689  0.5666
 2312TIP3    H1 6942   0.440   1.665   4.855  1.0500  0.0082  0.5513
 2312TIP3    H2 6943   0.367   1.703   4.728  0.6357  0.8650  1.0450
 2313TIP3   OH2 6944   3.523   0.568   5.093  0.2045 -0.1634 -0.0895
 2313TIP3    H1 6945   3.502   0.661   5.083  1.9954  0.3201  0.2203
 2313TIP3    H2 6946   3.540   0.556   5.186  0.1973 -0.7559 -0.1568
 2314TIP3   OH2 6947   4.299   3.872   1.589 -0.3134  0.2199 -0.0512
 2314TIP3    H1 6948   4.367   3.805   1.582 -1.5442 -1.3760  2.2394
 2314TIP3    H2 6949   4.241   3.854   1.515 -1.1984 -1.9918  1.1089
 2315TIP3   OH2 6950   0.673   5.366   3.471 -0.0551 -0.0186 -0.4026
 2315TIP3    H1 6951   0.716   5.371   3.386  0.5131 -2.5035 -0.3455
 2315TIP3    H2 6952   0.728   5.305   3.522 -2.0061 -0.9709  0.6849
 2316TIP3   OH2 6953   5.867   1.901   2.513  0.0292  0.5010 -0.3742
 2316TIP3    H1 6954   5.805   1.937   2.577 -1.5812 -1.2027 -0.8753
 2316TIP3    H2 6955   5.839   1.937   2.429  0.5974  0.7861 -0.4487
 2317TIP3   OH2 6956   5.254   3.057   2.946  0.3164 -0.4632 -0.1715
 2317TIP3    H1 6957   5.231   3.147   2.922  0.3133 -0.3237  0.3546
 2317TIP3    H2 6958   5.189   3.032   3.011  0.2594 -0.8847 -0.3856
 2318TIP3   OH2 6959   3.529   3.719   1.027 -0.0042 -0.0423 -0.0044
 2318TIP3    H1 6960   3.611   3.670   1.022 -0.6243 -1.1955  0.6474
 2318TIP3    H2 6961   3.542   3.782   1.098  0.3454 -0.1506  0.0264
 2319TIP3   OH2 6962   1.113   1.105   4.081 -0.4834 -0.6021  0.0487
 2319TIP3    H1 6963   1.088   1.151   4.001 -0.2520  1.1329  0.9220
 2319TIP3    H2 6964   1.148   1.022   4.051 -1.1690 -0.3395 -1.5930
 2320TIP3   OH2 6965   5.756   4.949   3.520 -0.0602  0.2163 -0.4070
 2320TIP3    H1 6966   5.707   5.031   3.522  0.7646  0.7562 -1.1152
 2320TIP3    H2 6967   5.720   4.902   3.445 -1.1488 -0.4881  0.5348
 2321TIP3   OH2 6968   1.198   4.888   4.601 -0.1744 -0.3628 -0.2055
 2321TIP3    H1 6969   1.156   4.812   4.559 -0.7136 -0.0810 -0.1814
 2321TIP3    H2 6970   1.130   4.924   4.657  1.1636 -2.0753  2.7550
 2322TIP3   OH2 6971   4.841   2.089   1.613 -0.7332  0.0994  0.0753
 2322TIP3    H1 6972   4.881   2.161   1.661 -0.9513 -0.7365  1.5663
 2322TIP3    H2 6973   4.783   2.047   1.676 -3.0310  0.5042 -1.6683
 2323TIP3   OH2 6974   2.885   1.500   2.551 -0.2028  0.0675  0.3733
 2323TIP3    H1 6975   2.979   1.510   2.542 -0.3259  0.9344 -0.0503
 2323TIP3    H2 6976   2.849   1.587   2.532 -1.0806 -0.2254  0.6160
 2324TIP3   OH2 6977   5.094   0.106   3.547 -0.2728 -0.1848 -0.0909
 2324TIP3    H1 6978   5.103   0.095   3.452  0.1241  1.3129 -0.2416
 2324TIP3    H2 6979   5.146   0.034   3.584  1.2775  0.3963 -1.0208
 2325TIP3   OH2 6980   1.830   2.661   4.791  0.5656  0.5350  0.2407
 2325TIP3    H1 6981   1.759   2.599   4.811 -1.0345  1.8232 -1.1352
 2325TIP3    H2 6982   1.908   2.606   4.785 -0.9644 -1.5990 -2.0719
 2326TIP3   OH2 6983   2.901   3.580   3.983 -0.6554  0.5429  0.7107
 2326TIP3    H1 6984   2.894   3.494   4.024  1.1175 -0.1051 -0.2416
 2326TIP3    H2 6985   2.952   3.632   4.045 -1.0555  0.6765  0.9313
 2327TIP3   OH2 6986   2.418   3.058   4.795  0.5583 -0.0204  0.0824
 2327TIP3    H1 6987   2.502   3.027   4.829  1.0131 -1.3196 -2.0428
 2327TIP3    H2 6988   2.356   2.987   4.815  0.0466  0.6958  1.1521
 2328TIP3   OH2 6989   4.362   1.560   1.227 -0.0717  0.2905  0.1859
 2328TIP3    H1 6990   4.299   1.505   1.275  1.7753 -2.4319 -0.3011
 2328TIP3    H2 6991   4.317   1.582   1.146 -0.8625 -0.6105  0.3555
 2329TIP3   OH2 6992   1.178   3.426   1.037  0.4884  0.1671  0.2074
 2329TIP3    H1 6993   1.219   3.350   1.077  0.1508 -0.4546 -0.6205
 2329TIP3    H2 6994   1.101   3.392   0.992  0.9111  0.8374 -1.0577
 2330TIP3   OH2 6995   0.594   2.305   4.874  0.3676 -0.0336  0.1764
 2330TIP3    H1 6996   0.618   2.252   4.799 -0.1124 -0.0600  0.0370
 2330TIP3    H2 6997   0.671   2.359   4.891  1.0753 -1.1736  0.6809
 2331TIP3   OH2 6998   1.774   4.301   1.943 -0.8658  0.3666 -0.2144
 2331TIP3    H1 6999   1.750   4.225   1.995 -0.4001  0.4894  0.1986
 2331TIP3    H2 7000   1.748   4.376   1.997  0.0689  0.4964  0.0782
 2332TIP3   OH2 7001   0.702   1.566   0.281 -0.0592  0.3950 -0.2836
 2332TIP3    H1 7002   0.690   1.476   0.252  0.0794  0.3485 -0.1991
 2332TIP3    H2 7003   0.652   1.572   0.362  1.5216 -0.1819  0.7962
 2333TIP3   OH2 7004   0.392   0.533   2.452  0.1438 -0.6277  0.0344
 2333TIP3    H1 7005   0.418   0.539   2.360  0.0933 -1.2148 -0.0185
 2333TIP3    H2 7006   0.473   0.551   2.500 -0.1112  1.0542 -0.0994
 2334TIP3   OH2 7007   6.259   2.099   2.779 -0.3172 -0.0234 -0.0399
 2334TIP3    H1 7008   6.334   2.158   2.771 -0.4307 -0.1164 -2.5788
 2334TIP3    H2 7009   6.297   2.011   2.780 -0.2931 -0.0087  0.9723
 2335TIP3   OH2 7010   4.995   5.497   2.853  0.5504 -0.1285  0.0966
 2335TIP3    H1 7011   4.964   5.512   2.942 -0.0336  2.9726 -0.5102
 2335TIP3    H2 7012   4.924   5.528   2.797  1.3184 -1.0593 -1.4529
 2336TIP3   OH2 7013   5.606   0.340   4.710  0.4901 -0.2350  0.0564
 2336TIP3    H1 7014   5.577   0.257   4.671 -0.4830 -0.2896  0.8476
 2336TIP3    H2 7015   5.660   0.381   4.642 -0.7703 -0.5384 -1.1857
 2337TIP3   OH2 7016   2.059   3.856   0.287  0.0524 -0.5927 -0.1170
 2337TIP3    H1 7017   2.142   3.855   0.334  0.6967 -1.6421 -1.2240
 2337TIP3    H2 7018   1.995   3.825   0.351  0.9176 -2.0721  0.0871
 2338TIP3   OH2 7019   0.389   5.561   2.343  0.0940 -0.2613  0.1779
 2338TIP3    H1 7020   0.362   5.614   2.269 -0.4140 -2.3962 -1.2808
 2338TIP3    H2 7021   0.485   5.565   2.341  0.0880 -0.2373 -0.5945
 2339TIP3   OH2 7022   0.864   5.670   3.958  0.4043 -0.3392 -0.9676
 2339TIP3    H1 7023   0.800   5.676   3.887 -0.7275 -1.6791 -0.1005
 2339TIP3    H2 7024   0.946   5.647   3.913  0.1230  0.5738 -2.0011
 2340TIP3   OH2 7025   2.486   4.871   3.853 -0.0452  0.6242  0.2691
 2340TIP3    H1 7026   2.416   4.849   3.915  0.2085 -1.8089 -0.2424
 2340TIP3    H2 7027   2.566   4.839   3.895 -0.0027 -2.2461 -1.7721
 2341TIP3   OH2 7028   3.281   5.466   5.079 -0.2370  0.0857 -0.2788
 2341TIP3    H1 7029   3.220   5.530   5.042  1.4686  0.5279 -2.5986
 2341TIP3    H2 7030   3.253   5.382   5.041 -0.5673 -0.0333  0.2243
 2342TIP3   OH2 7031   3.706   3.835   2.452  0.4038 -0.4487 -0.3297
 2342TIP3    H1 7032   3.632   3.774   2.447  0.0780 -0.0815 -0.0165
 2342TIP3    H2 7033   3.776   3.784   2.494  0.3044 -0.7677 -0.5423
 2343TIP3   OH2 7034   2.883   1.994   2.996 -0.0057 -0.3479  0.2586
 2343TIP3    H1 7035   2.810   2.004   3.057  1.1430 -0.9475  1.8280
 2343TIP3    H2 7036   2.960   2.019   3.048  0.8299  1.4551 -1.6866
 2344TIP3   OH2 7037   2.714   4.954   2.332 -0.4819  0.0278  0.6983
 2344TIP3    H1 7038   2.688   4.907   2.411 -0.5765 -0.4690  0.3720
 2344TIP3    H2 7039   2.779   4.898   2.290  0.1586  0.6590  0.8280
 2345TIP3   OH2 7040   2.606   1.659   0.614  0.4804  0.1946  0.1573
 2345TIP3    H1 7041   2.578   1.674   0.705  2.4002  0.1769  0.7988
 2345TIP3    H2 7042   2.668   1.587   0.620  1.6913  1.1046 -0.9488
 2346TIP3   OH2 7043   1.084   0.920   5.089 -0.5197 -0.2153 -0.1911
 2346TIP3    H1 7044   1.166   0.875   5.070  1.1700  1.8279  1.6041
 2346TIP3    H2 7045   1.095   1.007   5.050 -1.3143  0.4840  1.0803
 2347TIP3   OH2 7046   2.729   5.842   1.767  0.0011  0.0588  0.4492
 2347TIP3    H1 7047   2.816   5.857   1.730  0.1285  0.8226  1.0385
 2347TIP3    H2 7048   2.701   5.928   1.799 -0.8860 -0.2175  0.4497
 2348TIP3   OH2 7049   4.432   5.152   4.580  0.5425  0.2157 -0.4432
 2348TIP3    H1 7050   4.418   5.230   4.633  1.9308 -2.0976  3.7487
 2348TIP3    H2 7051   4.344   5.122   4.556 -0.0655  2.1145 -0.6946
 2349TIP3   OH2 7052   5.068   2.658   0.878  0.5639 -0.3505  0.4607
 2349TIP3    H1 7053   5.081   2.752   0.882  0.3170 -0.3119  0.3794
 2349TIP3    H2 7054   5.113   2.624   0.955  1.0867 -0.2168  0.2203
 2350TIP3   OH2 7055   0.079   2.173   3.202 -0.4804  0.4183 -0.2982
 2350TIP3    H1 7056   0.073   2.115   3.278  0.8475 -2.6487 -2.3455
 2350TIP3    H2 7057  -0.009   2.173   3.165 -0.4613 -0.4374 -0.3555
 2351TIP3   OH2 7058   5.160   0.729   1.256 -0.4383  0.2713  0.1490
 2351TIP3    H1 7059   5.177   0.689   1.171 -1.4382 -0.9835  0.4990
 2351TIP3    H2 7060   5.138   0.820   1.237  1.5867  0.6266 -0.7076
 2352TIP3   OH2 7061   2.977   4.532   3.106 -0.0277  0.1282 -0.2547
 2352TIP3    H1 7062   2.886   4.503   3.104 -0.2233  0.7580 -0.9661
 2352TIP3    H2 7063   2.982   4.590   3.182  0.1499 -1.0354  0.6473
 2353TIP3   OH2 7064   1.844   3.958   4.037  0.0516 -0.3296 -0.1831
 2353TIP3    H1 7065   1.854   4.047   4.070 -2.6527 -0.5589  1.5710
 2353TIP3    H2 7066   1.861   3.965   3.943 -1.9719  2.4890 -0.4575
 2354TIP3   OH2 7067   4.481   0.683   1.060 -0.3562 -0.1359  0.1157
 2354TIP3    H1 7068   4.443   0.736   0.990 -0.8538 -0.5064  0.1089
 2354TIP3    H2 7069   4.500   0.746   1.129  0.2137  0.2471 -0.3724
 2355TIP3   OH2 7070   0.397   1.112   3.787 -0.3395  0.0009  0.4710
 2355TIP3    H1 7071   0.326   1.088   3.728  0.3304  0.8353 -0.7109
 2355TIP3    H2 7072   0.465   1.046   3.771  0.3008  0.8896 -0.5616
 2356TIP3   OH2 7073   1.712   2.711   0.562 -0.2344  0.1207  0.2193
 2356TIP3    H1 7074   1.667   2.730   0.479  2.8903  0.8536 -1.4680
 2356TIP3    H2 7075   1.707   2.616   0.571  3.5723 -0.7463 -3.6820
 2357TIP3   OH2 7076   4.800   0.474   3.749  0.3962  0.4587 -0.2524
 2357TIP3    H1 7077   4.816   0.482   3.843 -1.2137 -0.4613  0.1318
 2357TIP3    H2 7078   4.824   0.384   3.728 -0.2587  0.3296 -0.4839
 2358TIP3   OH2 7079   4.756   0.993   1.969 -0.7764  0.2802  0.2273
 2358TIP3    H1 7080   4.842   1.009   2.007 -0.1992 -0.5144 -0.6717
 2358TIP3    H2 7081   4.704   0.957   2.040 -0.2523  0.4420  0.6978
 2359TIP3   OH2 7082   5.911   1.567   0.642  0.2291 -0.5228 -0.4980
 2359TIP3    H1 7083   5.991   1.566   0.589  0.1398 -0.6988 -0.6323
 2359TIP3    H2 7084   5.938   1.537   0.729  0.8263  1.9199  0.2246
 2360TIP3   OH2 7085   4.787   2.879   1.406 -0.2489 -0.1695  0.0424
 2360TIP3    H1 7086   4.789   2.820   1.331  1.1851 -1.4393  1.0116
 2360TIP3    H2 7087   4.752   2.826   1.477  0.5022  0.3143  0.7946
 2361TIP3   OH2 7088   3.746   4.043   2.637 -0.1345  0.0138 -0.3506
 2361TIP3    H1 7089   3.743   3.973   2.572  1.5934 -1.8152  1.3843
 2361TIP3    H2 7090   3.690   4.013   2.708  0.4817  0.4686  0.3470
 2362TIP3   OH2 7091   0.297   1.080   0.770  0.0732 -0.6492  0.1581
 2362TIP3    H1 7092   0.254   1.002   0.736  0.8580 -0.6146 -0.9835
 2362TIP3    H2 7093   0.259   1.152   0.719  1.0702 -0.5680 -0.5069
 2363TIP3   OH2 7094   2.116   0.818   3.377 -0.2422  0.3993  0.9576
 2363TIP3    H1 7095   2.172   0.769   3.438 -1.4010 -2.8851 -0.3964
 2363TIP3    H2 7096   2.039   0.761   3.364 -1.2667  2.1772 -1.5186
 2364TIP3   OH2 7097   0.535   3.600   1.965  0.5860  0.4528 -0.3110
 2364TIP3    H1 7098   0.559   3.532   1.901  1.6389  0.8081 -0.3235
 2364TIP3    H2 7099   0.443   3.617   1.949  0.3049 -0.9721 -0.3135
 2365TIP3   OH2 7100   4.186   1.422   1.021  0.5892 -0.1691  0.7573
 2365TIP3    H1 7101   4.171   1.376   1.103 -2.1567 -1.5991 -0.3910
 2365TIP3    H2 7102   4.205   1.353   0.958  1.2760  0.7597 -0.0786
 2366TIP3   OH2 7103   5.840   2.346   1.595  0.1680  0.0133  0.0008
 2366TIP3    H1 7104   5.753   2.378   1.574  1.4310  1.4458 -4.0356
 2366TIP3    H2 7105   5.893   2.424   1.607  1.1931 -0.8092  1.1315
 2367TIP3   OH2 7106   0.854   1.990   4.082 -0.4846  0.0938  0.4986
 2367TIP3    H1 7107   0.921   2.036   4.032 -1.1109 -0.0967 -0.5600
 2367TIP3    H2 7108   0.780   1.984   4.022 -1.7274  0.9637  1.8881
 2368TIP3   OH2 7109   1.988   0.020   4.264  0.2635 -0.4207 -0.1291
 2368TIP3    H1 7110   1.973  -0.041   4.337  1.7605  0.0003  0.5628
 2368TIP3    H2 7111   1.915   0.082   4.270  0.2572 -0.5077  0.8989
 2369TIP3   OH2 7112   4.017   3.117   2.298 -0.4124  0.0551 -0.0739
 2369TIP3    H1 7113   4.067   3.043   2.265 -0.5796  0.4972 -1.3821
 2369TIP3    H2 7114   4.030   3.115   2.393  0.5659 -0.9227 -0.2135
 2370TIP3   OH2 7115   2.648   0.464   4.858  0.0483 -0.0150 -0.1473
 2370TIP3    H1 7116   2.625   0.486   4.948  0.5309  2.3053 -0.5376
 2370TIP3    H2 7117   2.728   0.514   4.840 -0.6891  0.5424 -2.2154
 2371TIP3   OH2 7118   6.362   4.887   3.823  0.6773 -0.1168 -0.3629
 2371TIP3    H1 7119   6.274   4.871   3.856  0.9968 -1.7147 -0.2104
 2371TIP3    H2 7120   6.350   4.946   3.748 -0.6128 -1.0974 -0.9535
 2372TIP3   OH2 7121   1.410   1.105   0.609  0.1226 -0.2301 -0.0001
 2372TIP3    H1 7122   1.453   1.172   0.556  0.9660  0.4910  1.5213
 2372TIP3    H2 7123   1.480   1.041   0.626 -0.5602 -1.2980 -1.0663
 2373TIP3   OH2 7124   0.620   2.287   3.813 -0.1005 -0.2907  0.1299
 2373TIP3    H1 7125   0.697   2.277   3.758  0.2411 -0.5612  0.6522
 2373TIP3    H2 7126   0.557   2.333   3.758  0.8346  0.9692  0.0817
 2374TIP3   OH2 7127   0.768   1.416   0.517 -0.2615  0.0560  0.0086
 2374TIP3    H1 7128   0.728   1.368   0.445 -0.0901 -1.0557  0.6279
 2374TIP3    H2 7129   0.748   1.364   0.595 -0.4731  1.2516  0.7762
 2375TIP3   OH2 7130   2.545   3.707   1.834  0.0584 -0.2251  0.1167
 2375TIP3    H1 7131   2.597   3.640   1.790  1.0536 -0.4034  1.4965
 2375TIP3    H2 7132   2.610   3.768   1.869 -0.6934  0.0144  1.1379
 2376TIP3   OH2 7133   3.710   5.245   0.011 -0.0698 -0.3635  0.1939
 2376TIP3    H1 7134   3.798   5.224  -0.020 -0.9557 -2.1529 -1.2807
 2376TIP3    H2 7135   3.705   5.206   0.098  0.9201  0.7144  0.7682
 2377TIP3   OH2 7136   6.351   1.866   2.654  0.3189 -0.3561 -0.1828
 2377TIP3    H1 7137   6.269   1.823   2.680 -0.0747 -1.0030 -2.3344
 2377TIP3    H2 7138   6.419   1.802   2.676  0.4664  0.6004  2.6144
 2378TIP3   OH2 7139   0.410   5.231   4.849  0.3290 -0.2927  0.4375
 2378TIP3    H1 7140   0.364   5.275   4.778 -0.2099  0.3094  1.1412
 2378TIP3    H2 7141   0.484   5.288   4.869  2.0742 -1.7662 -1.3931
 2379TIP3   OH2 7142   5.096   0.672   1.659  0.1102 -0.1085 -0.0087
 2379TIP3    H1 7143   5.102   0.586   1.619  1.3885 -0.1304  0.1959
 2379TIP3    H2 7144   5.002   0.685   1.676 -0.0256 -1.7219  0.5728
 2380TIP3   OH2 7145   1.222   2.729   3.621  0.1478 -0.0106 -0.0052
 2380TIP3    H1 7146   1.169   2.732   3.700  0.9562 -1.0744  0.6103
 2380TIP3    H2 7147   1.168   2.771   3.554 -0.4587  1.1217  1.1480
 2381TIP3   OH2 7148   5.689   4.952   0.302  0.5635 -0.0132 -0.0591
 2381TIP3    H1 7149   5.680   4.988   0.390  1.4178 -0.0622  0.0583
 2381TIP3    H2 7150   5.603   4.962   0.263  0.6547  1.7378  0.1271
 2382TIP3   OH2 7151   3.756   1.339   3.305  0.6910  0.2492 -0.1711
 2382TIP3    H1 7152   3.772   1.407   3.371  1.1045 -0.4476  0.4737
 2382TIP3    H2 7153   3.689   1.376   3.248  0.3294  0.8821  0.6401
 2383TIP3   OH2 7154   1.738   2.195   3.668  0.0534  0.4139  0.0825
 2383TIP3    H1 7155   1.683   2.118   3.653 -0.2782  0.7665 -0.5552
 2383TIP3    H2 7156   1.827   2.164   3.658 -0.1128  0.3323 -1.2716
 2384TIP3   OH2 7157   4.122   2.028   5.123  0.0327  0.2344 -0.1367
 2384TIP3    H1 7158   4.182   2.068   5.060 -1.4146  1.5741 -0.7455
 2384TIP3    H2 7159   4.079   2.103   5.165 -1.7501 -0.6333 -0.2884
 2385TIP3   OH2 7160   3.549   3.224   4.138 -0.1508  0.1804 -0.2914
 2385TIP3    H1 7161   3.560   3.135   4.172 -0.1558  0.4722  0.4977
 2385TIP3    H2 7162   3.532   3.212   4.044 -0.8428 -0.6899 -0.0698
 2386TIP3   OH2 7163   4.680   1.927   4.978 -0.1805 -0.3622  0.3271
 2386TIP3    H1 7164   4.606   1.866   4.973 -1.1074  0.7617 -0.1071
 2386TIP3    H2 7165   4.675   1.964   5.066 -0.8887  0.5822 -0.0821
 2387TIP3   OH2 7166   5.754   4.197   1.148  0.0071 -0.3211 -0.2241
 2387TIP3    H1 7167   5.832   4.223   1.196 -0.1498  0.6418 -0.4809
 2387TIP3    H2 7168   5.681   4.223   1.204 -0.1572  0.1257 -0.6374
 2388TIP3   OH2 7169   3.415   5.720   4.223 -0.6497 -0.7248  0.1191
 2388TIP3    H1 7170   3.397   5.766   4.304 -1.9189  1.0093 -1.0834
 2388TIP3    H2 7171   3.484   5.657   4.246 -2.0810 -1.4316  2.8684
 2389TIP3   OH2 7172   0.092   0.748   4.538 -0.2438  0.2210 -0.2637
 2389TIP3    H1 7173   0.055   0.791   4.616 -0.0259 -0.0725  0.0000
 2389TIP3    H2 7174   0.051   0.794   4.465 -0.9465  0.0703  0.0229
 2390TIP3   OH2 7175   2.247   4.899   0.120  0.4692  0.4127  0.2475
 2390TIP3    H1 7176   2.186   4.826   0.125  0.8434  0.1386  0.9818
 2390TIP3    H2 7177   2.213   4.954   0.050  0.6806 -0.9153 -0.9535
 2391TIP3   OH2 7178   6.111   2.932   0.731 -0.4301  0.7884 -0.2418
 2391TIP3    H1 7179   6.113   2.929   0.826  1.7547  0.7615 -0.2260
 2391TIP3    H2 7180   6.024   2.966   0.709 -0.5157  2.0641  1.7974
 2392TIP3   OH2 7181   1.300   2.142   3.803  0.2457  0.4639 -0.5964
 2392TIP3    H1 7182   1.346   2.154   3.887 -0.8969 -0.0111  0.1217
 2392TIP3    H2 7183   1.346   2.200   3.742  1.8758 -0.0932  0.0482
 2393TIP3   OH2 7184   3.110   5.145   1.037  0.0072  0.0280  0.1625
 2393TIP3    H1 7185   3.069   5.078   1.091  0.9860  0.5022  1.5587
 2393TIP3    H2 7186   3.161   5.198   1.099  0.5907  1.0427 -1.1308
 2394TIP3   OH2 7187   5.042   2.783   4.904  0.8902 -0.1439 -0.4517
 2394TIP3    H1 7188   4.953   2.817   4.894  0.8625  0.6959  1.9115
 2394TIP3    H2 7189   5.098   2.857   4.882  0.9218  0.1080  0.4277
 2395TIP3   OH2 7190   2.067   2.028   4.700  0.0045 -0.3782 -0.1446
 2395TIP3    H1 7191   2.121   2.106   4.714 -1.2353  0.2976  1.2650
 2395TIP3    H2 7192   2.079   1.976   4.780 -0.6018 -0.7222 -0.2699
 2396TIP3   OH2 7193   6.011   1.953   3.702  0.1530 -0.0497  0.5335
 2396TIP3    H1 7194   5.928   1.992   3.675  0.8283  1.2826  0.3148
 2396TIP3    H2 7195   6.000   1.859   3.685 -1.2992  0.1005  0.5225
 2397TIP3   OH2 7196   1.310   5.021   5.095 -0.1672  0.1773  0.3553
 2397TIP3    H1 7197   1.384   5.080   5.108 -0.9263  1.1569  0.3068
 2397TIP3    H2 7198   1.309   4.968   5.175 -0.0451  0.8686  0.8287
 2398TIP3   OH2 7199   1.004   1.896   3.343  0.6876  0.0639 -0.2770
 2398TIP3    H1 7200   1.035   1.806   3.341 -1.0976 -0.5932 -0.6527
 2398TIP3    H2 7201   0.974   1.908   3.433  1.2602  0.4132 -0.1306
 2399TIP3   OH2 7202   5.368   5.896   0.836 -0.0852 -0.2359  0.2176
 2399TIP3    H1 7203   5.373   5.801   0.836 -0.0971 -0.2385  0.5043
 2399TIP3    H2 7204   5.314   5.917   0.913  2.3737  0.1344  1.9674
 2400TIP3   OH2 7205   1.371   5.384   1.188  0.1465 -0.7139 -0.1301
 2400TIP3    H1 7206   1.416   5.336   1.258 -0.3371 -0.2448  0.5094
 2400TIP3    H2 7207   1.442   5.430   1.142  0.2102  3.9771  3.7761
 2401TIP3   OH2 7208   3.386   1.946   0.691  0.0528 -0.1176  0.1570
 2401TIP3    H1 7209   3.375   1.989   0.775 -1.4919  2.4329 -1.2205
 2401TIP3    H2 7210   3.479   1.953   0.672  0.5423 -1.3236  1.8575
 2402TIP3   OH2 7211   0.869   5.121   4.779 -0.4188  0.3973  0.1610
 2402TIP3    H1 7212   0.949   5.078   4.810 -0.5406  0.9532  1.2829
 2402TIP3    H2 7213   0.884   5.134   4.685 -0.3224 -1.9669 -0.2314
 2403TIP3   OH2 7214   3.760   2.709   4.448  0.1027  0.2662 -0.0373
 2403TIP3    H1 7215   3.665   2.699   4.461  0.2844 -0.2387  1.0267
 2403TIP3    H2 7216   3.787   2.626   4.408  0.5862 -1.1242  2.8301
 2404TIP3   OH2 7217   5.934   2.846   1.129  0.3694  0.0527  0.5446
 2404TIP3    H1 7218   5.853   2.841   1.078 -0.5192  3.1712  1.4564
 2404TIP3    H2 7219   6.002   2.859   1.063  0.1912 -2.3633 -0.2190
 2405TIP3   OH2 7220   3.851   1.716   4.464 -0.0445 -0.1871 -0.0008
 2405TIP3    H1 7221   3.813   1.636   4.499 -0.2767  0.4064  1.1920
 2405TIP3    H2 7222   3.941   1.693   4.443 -0.1699 -0.8095  0.1330
 2406TIP3   OH2 7223   5.927   4.689   3.267 -0.2899 -0.4252  0.2524
 2406TIP3    H1 7224   5.900   4.771   3.226  0.2286  0.4587  1.6059
 2406TIP3    H2 7225   5.859   4.671   3.332  1.3995  0.9690  2.5714
 2407TIP3   OH2 7226   5.505   4.079   2.037 -0.4276  0.5881 -0.2397
 2407TIP3    H1 7227   5.595   4.089   2.005  0.8002  1.9298  3.1500
 2407TIP3    H2 7228   5.510   4.012   2.105 -2.8521 -1.9826 -2.3260
 2408TIP3   OH2 7229   3.584   3.252   1.584 -0.2085 -0.1572  0.2607
 2408TIP3    H1 7230   3.534   3.210   1.653 -0.5088  0.1977  0.2635
 2408TIP3    H2 7231   3.601   3.340   1.617  0.0700 -0.1442  0.0880
 2409TIP3   OH2 7232   2.854   1.072   4.623  0.2121  0.3650  0.6474
 2409TIP3    H1 7233   2.883   0.983   4.605  0.3656  0.0878  2.1879
 2409TIP3    H2 7234   2.785   1.088   4.558  0.3881 -0.7535  0.1576
 2410TIP3   OH2 7235   0.876   3.388   0.973  0.2415  0.4631 -0.4221
 2410TIP3    H1 7236   0.843   3.302   0.947 -0.2832  0.6877 -0.4920
 2410TIP3    H2 7237   0.798   3.439   0.993  0.5035  1.2242 -1.2939
 2411TIP3   OH2 7238   0.013   1.090   1.536 -0.2491 -0.2207 -0.3965
 2411TIP3    H1 7239  -0.057   1.127   1.590 -2.1530 -1.5751 -1.8255
 2411TIP3    H2 7240   0.071   1.047   1.599 -0.6880  0.8971  0.8151
 2412TIP3   OH2 7241   1.055   5.742   2.676 -0.4207 -0.9275 -0.0193
 2412TIP3    H1 7242   1.125   5.770   2.735 -1.0454  0.4262  0.1211
 2412TIP3    H2 7243   0.994   5.694   2.731 -0.7611 -0.0818  0.3544
 2413TIP3   OH2 7244   1.059   2.120   4.650 -0.0726  0.6765 -1.0191
 2413TIP3    H1 7245   0.989   2.055   4.661 -0.9193  1.9999  2.7926
 2413TIP3    H2 7246   1.025   2.199   4.691  2.2337  2.5963 -2.5525
 2414TIP3   OH2 7247   1.097   4.659   4.480 -0.1927  0.1191 -0.6025
 2414TIP3    H1 7248   1.064   4.614   4.402 -1.3471  0.4463 -0.3193
 2414TIP3    H2 7249   1.081   4.598   4.552 -2.8188  1.3156 -0.0343
 2415TIP3   OH2 7250   1.793   1.970   3.152 -0.1604  0.5629  0.1027
 2415TIP3    H1 7251   1.729   1.989   3.221 -0.0212  1.6162 -0.0373
 2415TIP3    H2 7252   1.870   1.937   3.200  0.1214  1.7686  0.5224
 2416TIP3   OH2 7253   2.378   1.224   4.760  0.0116  0.3506  0.5105
 2416TIP3    H1 7254   2.320   1.271   4.701 -0.9867 -0.0319  1.1604
 2416TIP3    H2 7255   2.463   1.225   4.716 -0.5237  0.7559 -0.5498
 2417TIP3   OH2 7256   3.452   5.778   1.853  0.0122 -0.1954  0.2937
 2417TIP3    H1 7257   3.545   5.773   1.831 -0.3692  1.2136 -2.0087
 2417TIP3    H2 7258   3.422   5.860   1.813 -1.5747  1.1183  3.7408
 2418TIP3   OH2 7259   5.512   0.021   1.181  0.6540  1.0633  0.1768
 2418TIP3    H1 7260   5.555  -0.064   1.174 -1.2457  0.0134  0.6751
 2418TIP3    H2 7261   5.499   0.050   1.090 -0.8950 -0.3811 -0.1041
 2419TIP3   OH2 7262   2.785   2.728   1.805 -0.1023  0.9180 -0.5568
 2419TIP3    H1 7263   2.734   2.801   1.840  0.6670  1.7677 -1.1829
 2419TIP3    H2 7264   2.874   2.762   1.797  0.1900  0.0333 -1.2165
 2420TIP3   OH2 7265   1.046   0.806   0.483 -0.1700 -0.0390  0.3614
 2420TIP3    H1 7266   1.032   0.711   0.485 -0.6406 -0.0046 -0.5964
 2420TIP3    H2 7267   0.959   0.843   0.464  0.1617  0.5351 -0.0696
 2421TIP3   OH2 7268   0.248   1.802   4.653 -0.4204 -0.0645  0.2987
 2421TIP3    H1 7269   0.209   1.728   4.605 -0.8625  1.1102 -1.2362
 2421TIP3    H2 7270   0.319   1.832   4.596 -0.5277  0.9553  0.6997
 2422TIP3   OH2 7271   2.159   2.802   3.817 -0.1119  0.2910 -0.4924
 2422TIP3    H1 7272   2.094   2.742   3.854  1.0589 -0.7656 -0.0723
 2422TIP3    H2 7273   2.226   2.745   3.779  1.6143  1.2740  0.9137
 2423TIP3   OH2 7274   3.717   1.061   4.636 -0.4841  0.0817  0.4130
 2423TIP3    H1 7275   3.629   1.100   4.642 -0.2044  0.5235  2.0141
 2423TIP3    H2 7276   3.739   1.037   4.726  0.0653 -2.2810 -0.2918
 2424TIP3   OH2 7277   1.879   1.818   4.610 -0.0360  0.0965  0.1560
 2424TIP3    H1 7278   1.942   1.753   4.580 -0.4428 -0.2086 -0.0425
 2424TIP3    H2 7279   1.928   1.901   4.610  0.6145 -0.2826  0.8711
 2425TIP3   OH2 7280   4.635   1.729   0.869 -0.4892 -0.5250  0.0976
 2425TIP3    H1 7281   4.710   1.743   0.927  0.8047  0.1680 -1.6398
 2425TIP3    H2 7282   4.674   1.701   0.786 -2.2437 -1.2039 -0.5447
 2426TIP3   OH2 7283   4.106   5.493   2.929 -0.0490  0.3988  0.0666
 2426TIP3    H1 7284   4.013   5.513   2.913  0.3714  1.5047 -1.0901
 2426TIP3    H2 7285   4.146   5.578   2.946  0.9764  0.0661 -0.6378
 2427TIP3   OH2 7286   4.688   3.854   1.500  0.0888  0.0006  0.3088
 2427TIP3    H1 7287   4.752   3.913   1.461  0.5612 -0.8594 -0.2244
 2427TIP3    H2 7288   4.709   3.854   1.594  0.2133  0.5067  0.2825
 2428TIP3   OH2 7289   5.753   2.085   3.615 -0.0207 -0.7014 -0.6635
 2428TIP3    H1 7290   5.687   2.077   3.546 -0.5271  0.3681 -0.3149
 2428TIP3    H2 7291   5.703   2.102   3.695  0.6851  0.5203 -0.4597
 2429TIP3   OH2 7292   4.825   0.411   4.920  0.4652 -0.4408 -0.0918
 2429TIP3    H1 7293   4.825   0.491   4.973  0.0571 -0.0900 -0.5987
 2429TIP3    H2 7294   4.910   0.370   4.937  1.0418  0.5567 -0.4893
 2430TIP3   OH2 7295   0.972   4.984   2.318 -0.1427 -0.1265  0.1375
 2430TIP3    H1 7296   0.978   4.951   2.407 -0.7030  0.2606  0.3232
 2430TIP3    H2 7297   0.913   4.924   2.273 -0.0408 -0.1887  0.0845
 2431TIP3   OH2 7298   2.557   3.448   4.135  0.7741  0.0052  0.0991
 2431TIP3    H1 7299   2.562   3.362   4.094 -0.1910  0.3759 -0.8349
 2431TIP3    H2 7300   2.483   3.442   4.196 -0.1929  0.5526 -0.9727
 2432TIP3   OH2 7301   4.202   0.373   2.679 -0.2029  0.1634  0.1183
 2432TIP3    H1 7302   4.174   0.439   2.615  1.0211  0.9248  0.3410
 2432TIP3    H2 7303   4.193   0.416   2.763  0.7109  0.0862  0.2614
 2433TIP3   OH2 7304   3.973   3.683   2.800  0.5724 -0.1187  0.4702
 2433TIP3    H1 7305   3.970   3.664   2.707  2.1585 -0.5515  0.4750
 2433TIP3    H2 7306   3.889   3.723   2.820 -0.6787 -2.0528 -0.6768
 2434TIP3   OH2 7307   1.207   4.114   3.443 -0.7298 -0.1115  0.0747
 2434TIP3    H1 7308   1.218   4.154   3.529  1.4783 -0.6526  0.1145
 2434TIP3    H2 7309   1.224   4.021   3.457 -3.4642 -0.7561 -0.4328
 2435TIP3   OH2 7310   5.881   2.748   3.859  0.1348 -0.2990 -0.5045
 2435TIP3    H1 7311   5.851   2.770   3.948  2.1466 -1.0071  0.4084
 2435TIP3    H2 7312   5.825   2.675   3.833 -0.0302 -0.5475  0.4804
 2436TIP3   OH2 7313   2.008   1.549   3.154  0.0098  0.0387  0.0029
 2436TIP3    H1 7314   2.089   1.581   3.194 -0.7201  0.6783  1.0258
 2436TIP3    H2 7315   1.993   1.608   3.080 -1.1808  2.0446  1.7125
 2437TIP3   OH2 7316   4.860   0.331   3.213 -0.0935  0.1406  0.5554
 2437TIP3    H1 7317   4.879   0.350   3.304  0.5535  0.2532  0.4023
 2437TIP3    H2 7318   4.773   0.368   3.198  0.3439  1.2994  0.7829
 2438TIP3   OH2 7319   3.695   0.490   4.672  0.0033 -0.1946  0.1865
 2438TIP3    H1 7320   3.611   0.454   4.644  0.4041 -0.9693 -0.0308
 2438TIP3    H2 7321   3.752   0.481   4.596 -0.5635  3.3346 -0.8584
 2439TIP3   OH2 7322   5.971   2.109   2.866 -0.4906 -0.3677  0.4081
 2439TIP3    H1 7323   6.043   2.083   2.809  0.2867  0.6767  0.8718
 2439TIP3    H2 7324   5.894   2.110   2.809 -0.1454 -1.4932 -0.0924
 2440TIP3   OH2 7325   4.479   5.524   5.027 -0.0403  0.3655 -0.9511
 2440TIP3    H1 7326   4.401   5.483   4.990  0.0982  0.4283 -1.3196
 2440TIP3    H2 7327   4.449   5.609   5.058 -0.2249  0.1869 -0.6303
 2441TIP3   OH2 7328   3.728   3.010   2.929  0.2235 -0.7198 -0.1367
 2441TIP3    H1 7329   3.714   3.077   2.862 -1.1200 -0.0289  0.7815
 2441TIP3    H2 7330   3.812   3.033   2.968 -0.1470  0.3766  0.0632
 2442TIP3   OH2 7331   4.741   1.164   2.359  0.3026  0.2425 -0.2866
 2442TIP3    H1 7332   4.683   1.240   2.363  1.4922  1.1366  0.8282
 2442TIP3    H2 7333   4.692   1.099   2.309 -1.8866  0.7534  1.0501
 2443TIP3   OH2 7334   0.173   1.277   1.980 -0.2933 -0.6853  0.0077
 2443TIP3    H1 7335   0.174   1.290   2.075  0.6797 -1.6508  0.1480
 2443TIP3    H2 7336   0.121   1.198   1.967  1.6411 -2.0292 -0.0124
 2444TIP3   OH2 7337   4.729   1.345   1.352  0.3386 -0.0211 -0.3241
 2444TIP3    H1 7338   4.721   1.390   1.436 -1.2960  1.5342 -1.2578
 2444TIP3    H2 7339   4.676   1.396   1.291  0.0809 -2.0574 -1.9414
 2445TIP3   OH2 7340   5.023   3.249   4.029  0.1068  0.0593  0.6251
 2445TIP3    H1 7341   5.036   3.202   3.946 -0.8157  0.3923  0.2762
 2445TIP3    H2 7342   4.974   3.187   4.083  0.5270 -0.0792  0.8460
 2446TIP3   OH2 7343   2.768   2.310   1.439 -0.7344 -0.2544 -0.0409
 2446TIP3    H1 7344   2.817   2.228   1.439 -2.6961 -1.4647 -0.1707
 2446TIP3    H2 7345   2.712   2.305   1.362 -0.0575  1.7570 -0.7264
 2447TIP3   OH2 7346   5.618   0.738   4.954  0.5483 -0.4332 -0.1627
 2447TIP3    H1 7347   5.707   0.761   4.981  1.1725  1.1467 -3.1558
 2447TIP3    H2 7348   5.566   0.816   4.974 -0.0784 -1.0938  0.9210
 2448TIP3   OH2 7349   3.974   3.210   0.417 -0.0015  0.6439  0.1220
 2448TIP3    H1 7350   4.056   3.207   0.367  0.2678 -0.2614  0.5950
 2448TIP3    H2 7351   3.970   3.300   0.451  1.2028  0.4845  0.7395
 2449TIP3   OH2 7352   3.179   3.779   1.952 -0.7359 -0.1993 -0.1304
 2449TIP3    H1 7353   3.229   3.829   2.016  0.8266 -1.4930 -0.2836
 2449TIP3    H2 7354   3.178   3.690   1.987  1.6048 -1.3301 -2.6462
 2450TIP3   OH2 7355   1.686   3.498   2.668  0.4563  0.5602  0.2900
 2450TIP3    H1 7356   1.623   3.521   2.599 -1.8642  1.8510  2.6283
 2450TIP3    H2 7357   1.684   3.403   2.671 -2.4705  0.5351  1.0570
 2451TIP3   OH2 7358   5.912   1.049   2.124 -0.0487  0.1860 -0.2425
 2451TIP3    H1 7359   5.860   1.127   2.142 -1.8692 -1.0123 -0.0620
 2451TIP3    H2 7360   5.877   1.014   2.042 -0.6190 -1.4724  0.6587
 2452TIP3   OH2 7361   0.040   5.528   1.358  0.0703 -0.1090  0.2341
 2452TIP3    H1 7362   0.035   5.465   1.286  0.5908 -0.3727  0.4223
 2452TIP3    H2 7363  -0.019   5.599   1.333 -1.2721 -1.1078  0.4574
 2453TIP3   OH2 7364   2.787   4.548   0.576 -0.4116  0.4455  0.7159
 2453TIP3    H1 7365   2.769   4.468   0.625  0.8923  0.0001  0.5105
 2453TIP3    H2 7366   2.700   4.585   0.557 -1.2556 -2.2791 -1.4700
 2454TIP3   OH2 7367   4.206   4.890   1.360 -0.2434  0.1449  0.4996
 2454TIP3    H1 7368   4.194   4.982   1.381  0.7166  1.0997 -2.5231
 2454TIP3    H2 7369   4.122   4.862   1.324 -0.8845 -0.5342  2.4509
 2455TIP3   OH2 7370   0.085   0.827   2.212 -0.1141  0.1110  0.1371
 2455TIP3    H1 7371   0.051   0.740   2.191  1.0123 -0.1054 -0.8858
 2455TIP3    H2 7372   0.011   0.873   2.251 -1.0577 -0.9201 -0.3910
 2456TIP3   OH2 7373   1.469   2.807   4.617 -0.1418  0.2624 -0.0252
 2456TIP3    H1 7374   1.458   2.713   4.597  1.1635  0.3761 -1.4803
 2456TIP3    H2 7375   1.385   2.833   4.655 -0.2868 -1.6539  1.0754
 2457TIP3   OH2 7376   3.763   4.213   1.684  0.4605  0.4432  0.3866
 2457TIP3    H1 7377   3.841   4.249   1.641 -0.0551  0.7483 -0.3083
 2457TIP3    H2 7378   3.778   4.227   1.777  0.3202  2.4059  0.1497
 2458TIP3   OH2 7379   4.255   4.635   3.169  0.3306 -0.2268  0.0113
 2458TIP3    H1 7380   4.297   4.552   3.146  0.6453  0.0406 -0.3972
 2458TIP3    H2 7381   4.277   4.693   3.097 -0.5375 -0.0057 -0.0915
 2459TIP3   OH2 7382   2.318   5.373   0.278 -0.0793  0.3112 -0.4682
 2459TIP3    H1 7383   2.360   5.308   0.221 -0.7676  1.2512 -2.1227
 2459TIP3    H2 7384   2.344   5.457   0.242  0.6305  1.0078  1.5154
 2460TIP3   OH2 7385   0.102   2.736   0.100 -0.2725 -0.7432  0.0237
 2460TIP3    H1 7386   0.186   2.749   0.056  1.0120 -2.5760  1.6968
 2460TIP3    H2 7387   0.037   2.771   0.040  1.6541  0.4189 -1.5046
 2461TIP3   OH2 7388   3.245   0.686   0.757  0.1607  0.0829  0.0748
 2461TIP3    H1 7389   3.170   0.635   0.790  0.3937  0.6477  1.5784
 2461TIP3    H2 7390   3.321   0.632   0.776  0.1673 -0.4313 -1.3330
 2462TIP3   OH2 7391   0.551   1.981   0.568 -0.3727  0.5433 -0.0005
 2462TIP3    H1 7392   0.601   1.899   0.569  0.4983  1.0201 -1.7688
 2462TIP3    H2 7393   0.582   2.027   0.646 -0.2614 -0.4411  0.5614
 2463TIP3   OH2 7394   5.248   2.137   3.980  0.1640  0.3848 -0.1554
 2463TIP3    H1 7395   5.270   2.057   3.932 -1.3610  0.6480 -1.3698
 2463TIP3    H2 7396   5.289   2.207   3.930  1.3059  0.4116  0.7804
 2464TIP3   OH2 7397   4.322   0.316   1.412 -0.8027  0.4561  0.3921
 2464TIP3    H1 7398   4.405   0.323   1.460  0.9791 -0.0326 -2.3932
 2464TIP3    H2 7399   4.322   0.390   1.351 -1.8068 -0.2366 -0.4933
 2465TIP3   OH2 7400   2.620   4.570   4.501  0.3920 -0.3303  0.0054
 2465TIP3    H1 7401   2.665   4.513   4.563 -0.1704 -1.3459 -0.5041
 2465TIP3    H2 7402   2.561   4.623   4.556  0.4584 -0.6779  0.4129
 2466TIP3   OH2 7403   3.413   4.046   0.370  0.1584  0.0632 -0.3605
 2466TIP3    H1 7404   3.411   3.990   0.292 -1.6094  0.9671 -1.0443
 2466TIP3    H2 7405   3.449   4.129   0.338  0.4124  0.1130  0.0475
 2467TIP3   OH2 7406   4.955   5.538   0.631 -0.9462  0.3320 -0.0741
 2467TIP3    H1 7407   4.947   5.581   0.716 -1.0201 -0.6483  0.4368
 2467TIP3    H2 7408   4.865   5.512   0.610 -0.8677  0.2032 -0.2487
 2468TIP3   OH2 7409   0.325   4.509   2.363 -1.0790 -0.0265 -0.0893
 2468TIP3    H1 7410   0.394   4.546   2.419 -0.3021 -0.8333 -0.4930
 2468TIP3    H2 7411   0.254   4.489   2.424 -1.2891  1.5314  0.2253
 2469TIP3   OH2 7412   4.997   2.380   1.015 -0.5908 -0.3936 -0.1887
 2469TIP3    H1 7413   5.035   2.383   1.103 -2.2338 -3.5754  0.7557
 2469TIP3    H2 7414   5.067   2.415   0.958  0.6457  1.4143  2.2512
 2470TIP3   OH2 7415   5.498   0.798   0.113 -0.0009  0.2414 -0.3507
 2470TIP3    H1 7416   5.434   0.730   0.135  1.2103 -1.2763 -1.2281
 2470TIP3    H2 7417   5.461   0.842   0.036  0.5867 -1.5956 -1.7675
 2471TIP3   OH2 7418   0.782   4.981   2.622  0.0158  0.0390  0.3012
 2471TIP3    H1 7419   0.858   4.958   2.568  0.6607 -0.6853  1.4630
 2471TIP3    H2 7420   0.739   5.052   2.574  0.3690 -0.7764 -1.3070
 2472TIP3   OH2 7421   0.330   2.493   0.616 -0.5020  0.0791 -0.1522
 2472TIP3    H1 7422   0.276   2.470   0.692  1.0366 -1.6334  0.5169
 2472TIP3    H2 7423   0.286   2.452   0.542 -0.2465 -1.1751  0.3653
 2473TIP3   OH2 7424   5.286   4.262   2.095  0.4701  0.3510 -0.7116
 2473TIP3    H1 7425   5.290   4.271   2.190  0.1451  0.3469 -0.6947
 2473TIP3    H2 7426   5.291   4.168   2.079 -1.5771  0.1717 -0.5677
 2474TIP3   OH2 7427   2.805   4.330   4.114  0.2586 -0.3271 -0.6498
 2474TIP3    H1 7428   2.748   4.406   4.107  2.0330  1.0763 -0.6296
 2474TIP3    H2 7429   2.795   4.285   4.030 -2.2534 -1.2255  0.0441
 2475TIP3   OH2 7430   4.605   3.928   2.842 -0.7290  0.0080 -0.6369
 2475TIP3    H1 7431   4.529   3.986   2.846 -1.2304 -0.6128 -0.8808
 2475TIP3    H2 7432   4.574   3.852   2.793  0.2304  0.0041 -1.2659
 2476TIP3   OH2 7433   1.960   3.308   2.477 -0.3218  0.1697  0.4755
 2476TIP3    H1 7434   1.976   3.373   2.409 -0.8900 -0.6290 -0.4416
 2476TIP3    H2 7435   1.965   3.224   2.432 -0.4742 -0.3862  1.4659
 2477TIP3   OH2 7436   5.130   1.976   1.704 -0.1224  0.5162 -0.6670
 2477TIP3    H1 7437   5.048   1.987   1.656 -0.7813  0.2698  0.3749
 2477TIP3    H2 7438   5.106   1.990   1.796  1.0235  0.5286 -0.3581
 2478TIP3   OH2 7439   4.878   4.553   4.399  0.5959  0.3042  0.0514
 2478TIP3    H1 7440   4.853   4.645   4.399  0.6750  0.3559  1.6050
 2478TIP3    H2 7441   4.800   4.507   4.432 -0.2972 -0.5062 -2.8816
 2479TIP3   OH2 7442   1.727   1.343   2.628 -0.0213 -0.4055 -0.1399
 2479TIP3    H1 7443   1.656   1.368   2.688 -0.3222 -1.4332 -0.0425
 2479TIP3    H2 7444   1.692   1.362   2.541  0.7820  2.0146 -0.0177
 2480TIP3   OH2 7445   4.297   3.630   4.307  0.0946 -0.9129  0.1092
 2480TIP3    H1 7446   4.340   3.621   4.392  0.5287 -0.4981 -0.0599
 2480TIP3    H2 7447   4.278   3.724   4.300  1.9354 -0.5593 -1.1160
 2481TIP3   OH2 7448   3.167   5.515   4.188  0.1386  0.1104 -0.3073
 2481TIP3    H1 7449   3.212   5.587   4.232 -0.1492  0.2633 -0.2656
 2481TIP3    H2 7450   3.127   5.555   4.111  0.0626 -0.0257 -0.3392
 2482TIP3   OH2 7451   3.526   0.123   0.882  0.3185  0.0893 -0.7718
 2482TIP3    H1 7452   3.527   0.027   0.886 -1.4327  0.0012 -1.6290
 2482TIP3    H2 7453   3.619   0.148   0.887  0.7337 -1.5569  0.9991
 2483TIP3   OH2 7454   4.236   5.286   3.199  0.5347  0.4945 -0.3960
 2483TIP3    H1 7455   4.170   5.353   3.183 -2.4896 -1.8629  1.1139
 2483TIP3    H2 7456   4.245   5.241   3.116  0.4337  0.9852 -0.6785
 2484TIP3   OH2 7457   6.080   4.014   4.733 -0.0118  0.1251  0.5991
 2484TIP3    H1 7458   6.139   3.948   4.768  0.3567  0.2643  0.2511
 2484TIP3    H2 7459   6.023   3.966   4.673 -0.0256  0.0475  0.6753
 2485TIP3   OH2 7460   6.021   2.666   0.614 -0.2611 -0.3955 -0.1846
 2485TIP3    H1 7461   6.060   2.585   0.648 -0.5312  0.3657  2.1364
 2485TIP3    H2 7462   6.089   2.733   0.629 -1.5536  0.5475  1.9526
 2486TIP3   OH2 7463   3.558   1.852   4.836 -0.8724 -0.4616  0.3853
 2486TIP3    H1 7464   3.653   1.847   4.843 -0.9437 -1.9509  0.6474
 2486TIP3    H2 7465   3.542   1.908   4.761  0.2230 -0.5613  0.0647
 2487TIP3   OH2 7466   5.423   1.247   3.210  0.0307  0.4695  0.3652
 2487TIP3    H1 7467   5.427   1.319   3.147  1.9539  0.5829  0.5351
 2487TIP3    H2 7468   5.366   1.182   3.170  0.1856  1.0881 -0.8925
 2488TIP3   OH2 7469   0.147   1.552   4.611 -0.3125 -0.6576  0.4997
 2488TIP3    H1 7470   0.200   1.495   4.666  0.5423 -0.7095 -0.3563
 2488TIP3    H2 7471   0.118   1.496   4.539  0.5748 -0.0296 -0.3730
 2489TIP3   OH2 7472   2.869   0.833   4.464  0.1567 -0.1574  0.0408
 2489TIP3    H1 7473   2.932   0.776   4.420  1.0153  0.2626  0.6988
 2489TIP3    H2 7474   2.804   0.854   4.397  1.2110  0.1271 -0.9090
 2490TIP3   OH2 7475   0.650   3.597   4.696 -0.3238  0.6351  0.1403
 2490TIP3    H1 7476   0.640   3.661   4.626 -0.2723 -0.2588 -0.6999
 2490TIP3    H2 7477   0.566   3.600   4.743 -1.4623 -0.7374 -1.6815
 2491TIP3   OH2 7478   0.675   4.329   0.126 -0.6146  0.2306 -0.5420
 2491TIP3    H1 7479   0.680   4.379   0.207  0.0511  0.4079 -0.6811
 2491TIP3    H2 7480   0.659   4.239   0.154 -2.9611  0.6570 -0.3345
 2492TIP3   OH2 7481   0.761   2.502   3.351 -0.4099  0.1278  0.3898
 2492TIP3    H1 7482   0.683   2.521   3.299  0.1296  0.3533 -0.3511
 2492TIP3    H2 7483   0.831   2.493   3.286 -0.1274 -1.7760  0.8899
 2493TIP3   OH2 7484   4.359   3.534   1.812 -0.3363 -0.9025  0.1691
 2493TIP3    H1 7485   4.401   3.526   1.897 -1.1783 -0.6074  0.6264
 2493TIP3    H2 7486   4.353   3.629   1.796 -1.8438 -0.8811  0.6603
 2494TIP3   OH2 7487   3.341   5.363   1.773  0.0885  0.0184 -0.1041
 2494TIP3    H1 7488   3.373   5.386   1.860 -0.4912 -1.6190  0.5736
 2494TIP3    H2 7489   3.318   5.270   1.779 -0.0769 -0.1013 -1.9760
 2495TIP3   OH2 7490   5.985   2.208   2.498  0.2973  0.1989  0.5125
 2495TIP3    H1 7491   5.923   2.158   2.552 -0.4425  0.3519 -0.1809
 2495TIP3    H2 7492   6.071   2.185   2.533 -0.2013  2.5462  3.8019
 2496TIP3   OH2 7493   5.951   0.791   2.725 -0.3598 -0.4714 -0.0922
 2496TIP3    H1 7494   5.880   0.846   2.759  0.7912  0.4414  0.9651
 2496TIP3    H2 7495   5.961   0.818   2.634  0.0072  0.9526  0.3351
 2497TIP3   OH2 7496   4.595   0.163   0.923  0.4153 -0.2985  0.4146
 2497TIP3    H1 7497   4.608   0.253   0.893 -0.7549 -0.1978  0.1640
 2497TIP3    H2 7498   4.598   0.169   1.019 -0.2185  0.1009  0.4121
 2498TIP3   OH2 7499   2.611   5.963   0.245 -0.5158 -0.1012  0.2694
 2498TIP3    H1 7500   2.701   5.932   0.248 -0.3947  0.3210  2.3115
 2498TIP3    H2 7501   2.578   5.950   0.334 -2.6859 -0.8269 -0.5703
 2499TIP3   OH2 7502   3.400   5.540   1.996  0.1887 -0.0675  0.2974
 2499TIP3    H1 7503   3.423   5.614   1.939 -2.2918 -0.9165 -2.0325
 2499TIP3    H2 7504   3.482   5.517   2.039  1.7733  1.9716 -1.3928
 2500TIP3   OH2 7505   3.917   5.715   4.206  0.3061 -0.0891  0.0940
 2500TIP3    H1 7506   3.923   5.652   4.278 -2.7386  1.2392  1.7333
 2500TIP3    H2 7507   3.979   5.784   4.228  0.9303 -0.7164  0.3094
 2501TIP3   OH2 7508   4.204   4.005   4.764 -0.3503 -0.7179 -0.7551
 2501TIP3    H1 7509   4.169   4.070   4.704  0.2939 -0.0815 -0.4599
 2501TIP3    H2 7510   4.216   3.926   4.711 -0.3764 -0.3498 -1.3085
 2502TIP3   OH2 7511   1.422   3.666   3.156  0.1679 -0.2700 -0.6200
 2502TIP3    H1 7512   1.335   3.660   3.115 -0.4686  1.5208  0.3408
 2502TIP3    H2 7513   1.448   3.757   3.141  0.3172  0.2136  2.0579
 2503TIP3   OH2 7514   0.377   2.760   0.849 -0.6613 -0.1247 -0.4930
 2503TIP3    H1 7515   0.376   2.736   0.942 -1.1351  1.8325  0.0541
 2503TIP3    H2 7516   0.287   2.746   0.820 -0.5232 -0.6933 -0.6684
 2504TIP3   OH2 7517   1.720   0.536   5.129  0.4428 -0.4499  0.0113
 2504TIP3    H1 7518   1.798   0.494   5.091  0.0551 -1.7940  0.6533
 2504TIP3    H2 7519   1.702   0.486   5.208 -0.4813  0.5059  0.4292
 2505TIP3   OH2 7520   0.561   2.227   2.270 -0.5077 -0.6335 -0.1793
 2505TIP3    H1 7521   0.609   2.148   2.293 -0.0347 -0.4350 -0.4759
 2505TIP3    H2 7522   0.531   2.212   2.180 -0.2934 -0.4161 -0.2873
 2506TIP3   OH2 7523   2.634   3.436   0.864  0.1077  0.2910 -0.1861
 2506TIP3    H1 7524   2.596   3.372   0.924  0.0006  0.5531  0.0273
 2506TIP3    H2 7525   2.661   3.508   0.920  2.7480 -0.6838 -0.0298
 2507TIP3   OH2 7526   5.057   2.609   4.196  0.0448  0.2205 -0.1442
 2507TIP3    H1 7527   5.070   2.684   4.254  0.7749 -1.1054  1.4841
 2507TIP3    H2 7528   4.969   2.577   4.218  0.2467 -0.1699  0.1044
 2508TIP3   OH2 7529   3.996   3.374   3.091 -0.1286  0.6952  0.4171
 2508TIP3    H1 7530   4.075   3.374   3.146 -0.4958  0.1618  0.9490
 2508TIP3    H2 7531   3.947   3.451   3.121  0.8900  1.9675 -0.9735
 2509TIP3   OH2 7532   3.711   5.793   5.143 -0.1620  0.1592 -0.6084
 2509TIP3    H1 7533   3.649   5.804   5.215 -0.6303 -2.8432 -0.4407
 2509TIP3    H2 7534   3.662   5.817   5.065 -1.2245 -1.1079 -0.3616
 2510TIP3   OH2 7535   5.440   1.870   0.187  0.2943  0.1565 -0.0207
 2510TIP3    H1 7536   5.474   1.858   0.275  0.8685  2.4430  0.1278
 2510TIP3    H2 7537   5.502   1.823   0.131 -0.7136 -2.3200  0.7980
 2511TIP3   OH2 7538   1.448   2.830   0.934  0.1062 -0.0014 -0.2941
 2511TIP3    H1 7539   1.524   2.780   0.962  0.4266  0.0978 -0.9756
 2511TIP3    H2 7540   1.392   2.835   1.012  1.1570  0.6057  0.4425
 2512TIP3   OH2 7541   3.390   1.909   3.242 -0.3220  0.1611  0.0434
 2512TIP3    H1 7542   3.451   1.873   3.306 -0.8802  0.6652  0.8815
 2512TIP3    H2 7543   3.365   1.994   3.277 -1.4983 -0.0312 -0.2790
 2513TIP3   OH2 7544   3.328   0.173   5.161  0.4698 -0.1322 -0.4799
 2513TIP3    H1 7545   3.394   0.167   5.092 -1.0056 -2.5586 -1.7881
 2513TIP3    H2 7546   3.244   0.166   5.116 -0.6258 -0.1981  1.4281
 2514TIP3   OH2 7547   2.132   3.632   3.701  0.2366 -0.8945 -0.7234
 2514TIP3    H1 7548   2.139   3.588   3.786  1.1518  0.5190 -0.0300
 2514TIP3    H2 7549   2.038   3.639   3.686  0.0408 -0.3031  0.6497
 2515TIP3   OH2 7550   2.945   5.219   0.278  0.1941  0.3920  0.3857
 2515TIP3    H1 7551   2.850   5.227   0.263  0.1527 -0.1170  0.3784
 2515TIP3    H2 7552   2.966   5.292   0.337 -0.3434  0.0223  1.0468
 2516TIP3   OH2 7553   3.724   3.437   2.861 -0.6446 -0.3736 -0.1156
 2516TIP3    H1 7554   3.767   3.510   2.906  1.4596 -0.0107 -2.4578
 2516TIP3    H2 7555   3.645   3.474   2.824 -1.2898 -0.1586  1.4117
 2517TIP3   OH2 7556   2.769   3.489   2.938  0.1568 -0.3568 -0.1640
 2517TIP3    H1 7557   2.816   3.565   2.903 -2.3225  1.1496 -0.5463
 2517TIP3    H2 7558   2.744   3.439   2.861 -2.2855  1.0869 -0.4222
 2518TIP3   OH2 7559   4.945   1.916   0.531 -0.2321 -0.3066  0.4881
 2518TIP3    H1 7560   4.922   1.839   0.584  0.9892 -0.6226  0.6004
 2518TIP3    H2 7561   4.878   1.981   0.552 -0.9944 -1.1704  0.7772
 2519TIP3   OH2 7562   4.725   4.882   1.998 -0.5673 -0.0307  0.5073
 2519TIP3    H1 7563   4.788   4.826   2.042 -1.4793 -1.0953  0.5190
 2519TIP3    H2 7564   4.720   4.847   1.909 -0.2197  0.8393  0.1356
 2520TIP3   OH2 7565   0.952   4.203   4.961 -0.4214 -0.1154  0.3611
 2520TIP3    H1 7566   1.041   4.188   4.931 -0.2153 -0.7142  1.2269
 2520TIP3    H2 7567   0.962   4.233   5.052 -1.1441 -2.4998  1.3182
 2521TIP3   OH2 7568   1.850   5.140   5.101 -0.0485 -0.1774  0.7323
 2521TIP3    H1 7569   1.797   5.124   5.179 -1.4584  0.0407 -0.1542
 2521TIP3    H2 7570   1.931   5.180   5.134 -0.9121  0.5578  2.0122
 2522TIP3   OH2 7571   1.850   3.114   3.807 -0.2923  0.1511  0.0639
 2522TIP3    H1 7572   1.781   3.099   3.871  0.4709 -0.3448  0.7959
 2522TIP3    H2 7573   1.928   3.133   3.859  0.2898 -0.0091 -0.7228
 2523TIP3   OH2 7574   0.449   0.074   0.866 -0.0051 -0.6787  0.0159
 2523TIP3    H1 7575   0.353   0.070   0.873 -0.1764 -0.6084 -1.7835
 2523TIP3    H2 7576   0.466   0.077   0.772  1.8105 -1.2652  0.2886
 2524TIP3   OH2 7577   4.752   3.346   4.593 -0.3230 -0.4467 -0.0630
 2524TIP3    H1 7578   4.786   3.433   4.571  0.2331 -0.2022  1.5854
 2524TIP3    H2 7579   4.738   3.303   4.509  0.1236  0.9593 -0.8887
 2525TIP3   OH2 7580   0.617   3.136   0.376  0.0434 -0.2718  1.1701
 2525TIP3    H1 7581   0.641   3.114   0.286 -2.5275 -0.9311  0.5694
 2525TIP3    H2 7582   0.685   3.094   0.429  1.6445  0.1641 -0.4133
 2526TIP3   OH2 7583   3.433   0.391   4.906  0.2105 -0.4304  0.9641
 2526TIP3    H1 7584   3.459   0.463   4.962  1.2523  0.2981 -0.4007
 2526TIP3    H2 7585   3.515   0.351   4.878 -0.1674  0.1266 -1.1453
 2527TIP3   OH2 7586   1.557   2.973   4.426  0.5395  0.1328 -0.7425
 2527TIP3    H1 7587   1.520   2.947   4.342 -0.0026 -1.0321 -0.1569
 2527TIP3    H2 7588   1.522   2.910   4.489  3.0985 -0.7417 -0.0706
 2528TIP3   OH2 7589   3.533   3.935   2.806 -0.2643  0.4106  0.6013
 2528TIP3    H1 7590   3.505   4.021   2.837  1.6282  0.9043  1.0516
 2528TIP3    H2 7591   3.479   3.873   2.855 -0.9093  1.3031  1.0580
 2529TIP3   OH2 7592   4.141   4.922   4.352 -0.4572  0.0410 -0.1785
 2529TIP3    H1 7593   4.185   4.880   4.278 -1.1044 -1.6122  0.3297
 2529TIP3    H2 7594   4.053   4.941   4.319  0.0782  1.8161 -0.6669
 2530TIP3   OH2 7595   2.706   3.459   3.839 -0.1771 -0.1132  0.2342
 2530TIP3    H1 7596   2.708   3.539   3.891 -1.1479  0.4968 -0.6280
 2530TIP3    H2 7597   2.798   3.437   3.825  0.1013  0.6459  0.7840
 2531TIP3   OH2 7598   2.066   5.412   2.514 -0.1671  0.1631 -0.3755
 2531TIP3    H1 7599   1.979   5.389   2.482  0.4833 -0.3655 -1.8468
 2531TIP3    H2 7600   2.054   5.495   2.560 -1.9820 -1.3658  2.1372
 2532TIP3   OH2 7601   1.691   2.661   5.160  0.1135 -0.1207  0.2208
 2532TIP3    H1 7602   1.756   2.618   5.215 -0.3751 -0.1194  0.8164
 2532TIP3    H2 7603   1.737   2.679   5.078  0.3540 -1.6704 -0.0106
 2533TIP3   OH2 7604   4.139   2.786   5.100  0.1195  0.7133  0.4781
 2533TIP3    H1 7605   4.049   2.784   5.068  0.6039  0.3648 -0.9279
 2533TIP3    H2 7606   4.174   2.870   5.067  0.7518  0.1623 -0.2909
 2534TIP3   OH2 7607   3.221   4.906   0.395  0.6727  0.4187 -0.7063
 2534TIP3    H1 7608   3.228   4.975   0.329  1.8372  1.3138  0.3224
 2534TIP3    H2 7609   3.200   4.953   0.476 -4.1086 -0.8799 -0.8990
 2535TIP3   OH2 7610   4.547   5.086   2.794 -0.1606 -0.1030 -0.2983
 2535TIP3    H1 7611   4.573   5.177   2.787  0.7058 -0.2932  0.3468
 2535TIP3    H2 7612   4.454   5.085   2.769  0.1828  0.7296 -1.7071
 2536TIP3   OH2 7613   3.696   2.343   2.187  0.5521 -0.0813  0.2082
 2536TIP3    H1 7614   3.786   2.374   2.177  0.4472  0.5983  1.1852
 2536TIP3    H2 7615   3.700   2.249   2.169  1.3577  0.0382 -0.2643
 2537TIP3   OH2 7616   0.908   2.137   1.220  0.0622  0.3444  0.0932
 2537TIP3    H1 7617   0.978   2.203   1.224  1.3100 -0.8538 -0.8231
 2537TIP3    H2 7618   0.955   2.053   1.223 -1.4786 -0.5181  1.1640
 2538TIP3   OH2 7619   3.081   5.666   0.250 -0.6171 -0.0703 -0.0258
 2538TIP3    H1 7620   3.164   5.646   0.294 -0.1851  1.1774 -0.2186
 2538TIP3    H2 7621   3.061   5.587   0.200  1.2163  0.0910 -1.1124
 2539TIP3   OH2 7622   0.228   0.674   3.657 -0.2998  0.2701  0.0527
 2539TIP3    H1 7623   0.150   0.713   3.616  0.4495  1.8227  0.0204
 2539TIP3    H2 7624   0.295   0.678   3.589  0.0468 -0.2459  0.3625
 2540TIP3   OH2 7625   2.874   3.877   0.410 -0.2460 -0.3979  0.3789
 2540TIP3    H1 7626   2.858   3.853   0.501 -0.1891 -0.3736  0.3956
 2540TIP3    H2 7627   2.947   3.822   0.382  0.4029  0.2943  0.6567
 2541TIP3   OH2 7628   3.206   5.609   4.536  0.1749 -0.3620  0.0687
 2541TIP3    H1 7629   3.116   5.636   4.552  0.5530  0.1878  1.3849
 2541TIP3    H2 7630   3.243   5.679   4.482  0.2096  0.1217  0.7152
 2542TIP3   OH2 7631   2.552   2.273  -0.016 -0.2773  0.2538 -0.0577
 2542TIP3    H1 7632   2.485   2.205  -0.002 -0.0567  0.0259 -0.1061
 2542TIP3    H2 7633   2.626   2.245   0.038  0.5072 -0.5264 -1.4768
 2543TIP3   OH2 7634   2.733   2.383   2.438  0.9375 -0.0101 -0.3208
 2543TIP3    H1 7635   2.822   2.351   2.453  0.7902 -0.1190  0.3582
 2543TIP3    H2 7636   2.710   2.428   2.520  1.3225  2.2875 -1.4048
 2544TIP3   OH2 7637   4.668   4.848   3.023 -0.5509  0.3254  0.0172
 2544TIP3    H1 7638   4.667   4.940   3.048  2.6212  0.2058  0.9881
 2544TIP3    H2 7639   4.719   4.805   3.092 -1.0229 -1.9988 -0.9803
 2545TIP3   OH2 7640   3.124   2.228   4.094 -0.0312 -0.2204 -0.1026
 2545TIP3    H1 7641   3.201   2.278   4.121 -1.3685  2.5170 -1.0118
 2545TIP3    H2 7642   3.158   2.162   4.034  1.7236  0.1861  0.3920
 2546TIP3   OH2 7643   2.965   2.568   2.619  1.0405  0.5703  0.2102
 2546TIP3    H1 7644   3.049   2.532   2.591  0.7453 -0.6215  0.7765
 2546TIP3    H2 7645   2.948   2.526   2.704  0.8358  2.3428  1.1029
 2547TIP3   OH2 7646   3.036   2.615   3.169 -0.6137 -0.4022 -0.0138
 2547TIP3    H1 7647   2.980   2.617   3.091  0.7385  2.3876 -1.0536
 2547TIP3    H2 7648   3.110   2.561   3.143  0.8035  2.0647 -1.5622
 2548TIP3   OH2 7649   3.278   3.693   0.476 -0.2750  0.0969 -0.2203
 2548TIP3    H1 7650   3.343   3.764   0.482 -0.0411 -0.1467  0.1628
 2548TIP3    H2 7651   3.310   3.626   0.536 -0.2756 -0.5150 -0.8921
 2549TIP3   OH2 7652   1.313   5.257   4.741 -0.4086 -0.4760  0.2539
 2549TIP3    H1 7653   1.400   5.297   4.735 -0.9410  0.5351 -2.0696
 2549TIP3    H2 7654   1.261   5.320   4.790 -0.4126  0.1340 -0.5083
 2550TIP3   OH2 7655   2.702   4.771   3.030  0.3383  0.6191 -0.0088
 2550TIP3    H1 7656   2.759   4.770   2.953  0.0393 -2.2215 -0.2812
 2550TIP3    H2 7657   2.639   4.701   3.014 -1.5484  1.8602  1.5585
 2551TIP3   OH2 7658   5.903   1.832   0.169 -0.9041 -0.1320 -0.1436
 2551TIP3    H1 7659   5.984   1.879   0.189  0.0488 -1.0688 -1.6139
 2551TIP3    H2 7660   5.903   1.758   0.230 -1.0556  0.2913  0.3767
 2552TIP3   OH2 7661   4.880   5.128   4.233  0.2849 -0.3853 -0.1870
 2552TIP3    H1 7662   4.898   5.040   4.201  2.6745  0.0246 -0.1507
 2552TIP3    H2 7663   4.937   5.138   4.309  1.2070  1.6470 -1.0501
 2553TIP3   OH2 7664   2.576   4.401   3.958 -0.1711  0.1666  0.0423
 2553TIP3    H1 7665   2.617   4.430   3.876  0.7542  2.0900  1.1121
 2553TIP3    H2 7666   2.488   4.437   3.955 -0.1445  0.2209 -0.1074
 2554TIP3   OH2 7667   1.476   1.934   5.021 -0.4181  0.2139 -0.5058
 2554TIP3    H1 7668   1.463   1.965   5.111  0.3429 -0.0774 -0.2892
 2554TIP3    H2 7669   1.535   1.859   5.030  0.3846  0.7215 -1.3193
 2555TIP3   OH2 7670   4.655   1.549   4.986 -0.4462  0.2680 -0.0669
 2555TIP3    H1 7671   4.707   1.552   5.066 -0.0390 -0.9945 -0.2575
 2555TIP3    H2 7672   4.584   1.612   5.000  1.0201  1.8897  0.2707
 2556TIP3   OH2 7673   0.697   3.344   1.979 -0.1453  0.5673 -0.0269
 2556TIP3    H1 7674   0.674   3.388   1.898  1.7328  1.5707 -0.0762
 2556TIP3    H2 7675   0.790   3.362   1.991 -0.5242  1.1549  2.7683
 2557TIP3   OH2 7676   3.373   5.521   4.723  0.3831  0.1657 -0.5060
 2557TIP3    H1 7677   3.314   5.525   4.648  0.0909 -0.0413 -0.2881
 2557TIP3    H2 7678   3.328   5.465   4.786  1.4646 -1.2596 -0.9271
 2558TIP3   OH2 7679   3.390   3.888   4.654  0.6577 -0.4632  0.0822
 2558TIP3    H1 7680   3.413   3.856   4.567 -1.1340  1.1228 -1.0441
 2558TIP3    H2 7681   3.472   3.925   4.688  1.6403 -2.0398 -0.4215
 2559TIP3   OH2 7682   3.783   3.974   2.236  0.3405  0.4895  0.0369
 2559TIP3    H1 7683   3.721   4.046   2.227  0.3262  0.3752 -0.9414
 2559TIP3    H2 7684   3.752   3.925   2.311  0.0949  1.2557  0.4499
 2560TIP3   OH2 7685   1.023   0.687   4.113 -0.7777  0.3642 -0.5128
 2560TIP3    H1 7686   0.941   0.693   4.065 -0.3643  0.8620 -1.1728
 2560TIP3    H2 7687   0.998   0.701   4.204 -1.4733  0.1177 -0.6582
 2561TIP3   OH2 7688   3.803   3.313   1.361  0.8626  0.3971 -0.0268
 2561TIP3    H1 7689   3.747   3.266   1.423  0.6422 -0.7248 -1.0382
 2561TIP3    H2 7690   3.800   3.260   1.282  0.3766  2.2802 -1.3260
 2562TIP3   OH2 7691   3.422   5.259   2.220  0.5634  0.2205  0.1602
 2562TIP3    H1 7692   3.512   5.281   2.198  1.4722 -1.7442  1.5748
 2562TIP3    H2 7693   3.384   5.340   2.254  1.1074  1.6064 -2.3076
 2563TIP3   OH2 7694   0.382   0.283   4.005 -0.4437 -0.1660 -0.3695
 2563TIP3    H1 7695   0.346   0.370   4.018 -0.6936 -0.2716 -0.3418
 2563TIP3    H2 7696   0.363   0.237   4.087  3.5505  1.0469  1.4795
 2564TIP3   OH2 7697   1.956   4.731   0.385 -0.0357  0.2032  0.7257
 2564TIP3    H1 7698   2.017   4.805   0.394  0.0157  0.2300  0.1589
 2564TIP3    H2 7699   1.980   4.691   0.302 -1.6231  0.9689 -0.1337
 2565TIP3   OH2 7700   1.121   4.113   1.369 -0.6400 -0.3704 -0.2348
 2565TIP3    H1 7701   1.093   4.083   1.283  1.7017 -1.5293 -0.6864
 2565TIP3    H2 7702   1.202   4.162   1.352  0.0384 -0.8838  1.3166
 2566TIP3   OH2 7703   4.892   2.356   0.147 -0.1292  0.1343  0.3654
 2566TIP3    H1 7704   4.867   2.437   0.102  1.4434  0.5293  0.1551
 2566TIP3    H2 7705   4.939   2.306   0.081  1.2505  0.2388  1.2283
 2567TIP3   OH2 7706   5.421   0.909   2.105 -0.3905  0.4271  0.0212
 2567TIP3    H1 7707   5.449   0.827   2.145  1.2100  0.9185 -0.0237
 2567TIP3    H2 7708   5.367   0.951   2.171 -0.6731 -0.3652  0.2980
 2568TIP3   OH2 7709   4.820   2.561   3.752 -0.6250  0.2741  0.0877
 2568TIP3    H1 7710   4.790   2.470   3.758 -0.0125  0.1284  1.3464
 2568TIP3    H2 7711   4.741   2.612   3.736 -0.8808 -0.5382 -1.3773
 2569TIP3   OH2 7712   2.004   2.907   3.056  0.5123 -0.0314 -0.6860
 2569TIP3    H1 7713   2.031   2.815   3.050 -0.2326 -0.2685 -0.4634
 2569TIP3    H2 7714   2.077   2.950   3.100  0.1131 -0.8599  0.8542
 2570TIP3   OH2 7715   4.626   2.679   3.105  0.1623  0.1498  0.5367
 2570TIP3    H1 7716   4.585   2.714   3.184 -1.2852 -1.8522  0.7434
 2570TIP3    H2 7717   4.565   2.613   3.073  1.8859 -0.8680 -0.8577
 2571TIP3   OH2 7718   3.137   4.768   4.793 -0.1983 -0.0218 -0.1811
 2571TIP3    H1 7719   3.140   4.682   4.836  1.2492 -0.2845 -0.7566
 2571TIP3    H2 7720   3.187   4.825   4.851  0.1728  0.0640 -0.5886
 2572TIP3   OH2 7721   2.908   5.638   4.396 -0.3948 -0.1459 -0.3932
 2572TIP3    H1 7722   2.902   5.724   4.436  2.6305 -0.8201  1.8178
 2572TIP3    H2 7723   2.983   5.644   4.336  0.6581 -1.5124  0.7244
 2573TIP3   OH2 7724   2.219   2.269   1.962 -0.2302 -0.2968 -0.3372
 2573TIP3    H1 7725   2.170   2.264   1.879  0.6864 -0.2404 -0.8895
 2573TIP3    H2 7726   2.151   2.280   2.029 -0.9025  1.1165 -1.2067
 2574TIP3   OH2 7727   3.974   1.110   3.058  0.0238  0.5158  0.0035
 2574TIP3    H1 7728   3.916   1.153   3.121 -0.1079  1.3562 -0.6759
 2574TIP3    H2 7729   4.059   1.151   3.073  0.1695  0.1473  0.1771
 2575TIP3   OH2 7730   0.812   3.270   2.886  0.0145  0.0199  0.2650
 2575TIP3    H1 7731   0.860   3.187   2.888 -1.1628 -0.6833  0.3051
 2575TIP3    H2 7732   0.725   3.248   2.920 -0.2638  1.3097  0.4307
 2576TIP3   OH2 7733   0.670   2.127   1.671 -0.8184 -0.3738  0.1145
 2576TIP3    H1 7734   0.598   2.178   1.707 -0.3563  0.8946 -0.7013
 2576TIP3    H2 7735   0.632   2.081   1.596 -1.0531 -0.6461  0.3974
 2577TIP3   OH2 7736   5.626   0.445   3.163 -0.7302  0.0239 -0.1356
 2577TIP3    H1 7737   5.662   0.418   3.248  0.8534 -1.1868 -1.1316
 2577TIP3    H2 7738   5.564   0.375   3.141  0.4038 -0.7685 -0.8944
 2578TIP3   OH2 7739   3.298   0.263   1.277  0.2778  0.1617 -0.0117
 2578TIP3    H1 7740   3.277   0.328   1.343 -1.9225 -0.7996  0.3114
 2578TIP3    H2 7741   3.328   0.187   1.327  0.3472  0.0442 -0.2310
 2579TIP3   OH2 7742   4.381   1.594   2.270  0.2596 -0.4483 -0.3782
 2579TIP3    H1 7743   4.430   1.624   2.346 -0.6327  0.4397 -0.1333
 2579TIP3    H2 7744   4.397   1.661   2.203  0.5346 -0.9022 -0.7781
 2580TIP3   OH2 7745   3.439   2.287   2.702 -0.0505 -0.5247 -0.1206
 2580TIP3    H1 7746   3.452   2.378   2.729 -0.0038 -1.2007  2.2904
 2580TIP3    H2 7747   3.492   2.279   2.622  0.8578  1.2502  0.2405
 2581TIP3   OH2 7748   1.528   0.601   2.523 -0.0462  1.1870  0.0977
 2581TIP3    H1 7749   1.598   0.666   2.511  0.9871  0.0176 -0.4875
 2581TIP3    H2 7750   1.572   0.527   2.566 -1.3418  1.1022  1.3642
 2582TIP3   OH2 7751   1.277   4.474   0.240 -0.0065  0.1280 -0.6258
 2582TIP3    H1 7752   1.319   4.557   0.265 -0.8029  1.1991 -2.6165
 2582TIP3    H2 7753   1.184   4.491   0.251 -0.1200 -1.2048  0.7940
 2583TIP3   OH2 7754   1.905   3.214   5.056 -0.1401 -0.2076 -0.6864
 2583TIP3    H1 7755   1.872   3.297   5.092  0.2362 -0.6863  0.8520
 2583TIP3    H2 7756   1.941   3.238   4.970  1.0773  1.4932  0.2273
 2584TIP3   OH2 7757   2.617   5.059   4.679 -0.0395  0.0540  0.0541
 2584TIP3    H1 7758   2.608   5.110   4.598 -0.8594  0.8871  0.6453
 2584TIP3    H2 7759   2.653   5.121   4.743  1.2925 -0.7980  0.1540
 2585TIP3   OH2 7760   3.353   2.601   1.345  0.4644 -0.2353 -0.1306
 2585TIP3    H1 7761   3.427   2.661   1.351 -0.7790  1.2463  1.3298
 2585TIP3    H2 7762   3.337   2.574   1.436  0.8191 -2.6074 -0.7248
 2586TIP3   OH2 7763   1.344   2.579   0.078  0.4541  0.8037  0.1851
 2586TIP3    H1 7764   1.397   2.500   0.068 -0.6982 -0.0479  0.5808
 2586TIP3    H2 7765   1.264   2.560   0.029  0.6429  2.2233 -0.7354
 2587TIP3   OH2 7766   4.048   1.875   0.347 -0.5340 -0.0253  0.0930
 2587TIP3    H1 7767   3.955   1.895   0.359 -0.7358 -0.0517 -1.2622
 2587TIP3    H2 7768   4.061   1.878   0.252  0.5751 -1.2256  0.1799
 2588TIP3   OH2 7769   4.294   4.394   3.641 -0.3565  0.0988  0.2939
 2588TIP3    H1 7770   4.379   4.403   3.684 -0.5364 -0.2104  0.7303
 2588TIP3    H2 7771   4.278   4.478   3.599  0.2650  0.0868  0.0215
 2589TIP3   OH2 7772   4.702   3.378   3.147  0.5267 -0.1719 -0.1970
 2589TIP3    H1 7773   4.663   3.368   3.061  1.2040 -0.5147 -0.4742
 2589TIP3    H2 7774   4.797   3.370   3.132  0.6875  0.3358  0.4945
 2590TIP3   OH2 7775   0.056   1.455   1.134 -0.8506 -0.3913  0.5018
 2590TIP3    H1 7776   0.017   1.376   1.173 -2.2698 -0.4389 -0.9153
 2590TIP3    H2 7777  -0.009   1.523   1.150 -0.0318  0.3080  0.9272
 2591TIP3   OH2 7778   4.183   2.954   0.289 -0.4211 -0.0952  0.1741
 2591TIP3    H1 7779   4.186   3.049   0.292 -0.4089 -0.1218  2.0555
 2591TIP3    H2 7780   4.172   2.927   0.380 -0.7299 -1.8890 -0.3509
 2592TIP3   OH2 7781   2.746   0.141   4.558 -0.4209 -0.3294 -0.2492
 2592TIP3    H1 7782   2.703   0.073   4.609 -1.3448  0.2712 -0.2038
 2592TIP3    H2 7783   2.768   0.099   4.475 -0.2352 -0.9037  0.0873
 2593TIP3   OH2 7784   5.747   3.433   4.074  0.2372 -0.2222  0.2027
 2593TIP3    H1 7785   5.797   3.514   4.079  1.5683 -0.6907 -3.1961
 2593TIP3    H2 7786   5.813   3.364   4.076 -0.6657 -1.1041  0.3239
 2594TIP3   OH2 7787   0.482   0.003   4.512 -0.3588  0.6036 -0.2838
 2594TIP3    H1 7788   0.440   0.088   4.499  1.3267  1.2524 -2.1279
 2594TIP3    H2 7789   0.547   0.018   4.581 -1.0815  0.3941  0.4513
 2595TIP3   OH2 7790   1.099   5.200   4.348  0.1389 -0.1954 -0.2273
 2595TIP3    H1 7791   1.122   5.107   4.357  0.9012  0.0611  0.6232
 2595TIP3    H2 7792   1.017   5.209   4.396  0.6284 -0.2324  0.6514
 2596TIP3   OH2 7793   4.520   3.357   2.962  0.3814  0.5044 -0.3001
 2596TIP3    H1 7794   4.430   3.390   2.958 -0.7010 -1.6889  2.5091
 2596TIP3    H2 7795   4.524   3.290   2.894 -0.7760 -0.6397  0.6936
 2597TIP3   OH2 7796   5.237   5.570   2.358  0.0347 -0.3696  0.1736
 2597TIP3    H1 7797   5.281   5.601   2.437  2.0519  0.3602 -1.1490
 2597TIP3    H2 7798   5.179   5.642   2.334 -1.5080 -1.0733  1.5718
 2598TIP3   OH2 7799   3.965   5.573   3.496  0.5888  0.4685  0.0584
 2598TIP3    H1 7800   4.042   5.612   3.454 -0.1629  0.6030 -1.2530
 2598TIP3    H2 7801   3.914   5.649   3.527  1.1889  0.3688  1.3706
 2599TIP3   OH2 7802   4.745   0.876   4.411 -0.2327  0.0815  0.4713
 2599TIP3    H1 7803   4.748   0.844   4.501 -0.3208 -0.8948  0.1437
 2599TIP3    H2 7804   4.778   0.965   4.415  1.3456 -0.5079  1.2231
 2600TIP3   OH2 7805   2.332   2.314   3.878 -0.2125 -0.6801 -0.3166
 2600TIP3    H1 7806   2.252   2.283   3.922 -0.1912  0.7067  0.7644
 2600TIP3    H2 7807   2.390   2.340   3.949  0.1373  0.8740 -1.1261
 2601TIP3   OH2 7808   3.508   5.104   1.854  0.5814 -0.4860 -0.0090
 2601TIP3    H1 7809   3.441   5.080   1.918 -0.5440  1.2873 -0.4363
 2601TIP3    H2 7810   3.556   5.175   1.895  2.5980 -2.0427  0.4840
 2602TIP3   OH2 7811   2.286   4.222   0.147  0.7721 -0.5872  0.0983
 2602TIP3    H1 7812   2.221   4.167   0.103  0.8426  0.4420 -1.3686
 2602TIP3    H2 7813   2.346   4.160   0.189 -0.1347 -1.5803 -0.0286
 2603TIP3   OH2 7814   5.361   0.652   4.675  0.1244 -0.2545 -0.5824
 2603TIP3    H1 7815   5.430   0.711   4.644  0.0651  0.2458  0.2080
 2603TIP3    H2 7816   5.376   0.645   4.770 -0.5195 -0.6647 -0.5009
 2604TIP3   OH2 7817   6.356   5.080   3.216 -0.6442  0.6231 -0.2359
 2604TIP3    H1 7818   6.333   5.172   3.209 -0.5021  0.7976  1.2984
 2604TIP3    H2 7819   6.296   5.045   3.282  0.3235 -0.0119  0.3344
 2605TIP3   OH2 7820   5.737   1.616   2.397  0.3242 -0.0287 -0.8097
 2605TIP3    H1 7821   5.787   1.685   2.354  2.0051  0.9335  2.3458
 2605TIP3    H2 7822   5.664   1.662   2.439  0.2173 -0.5013 -0.4728
 2606TIP3   OH2 7823   0.396   4.859   3.869  0.7055 -0.1405 -0.2060
 2606TIP3    H1 7824   0.352   4.884   3.788  1.0822 -0.4388 -0.5061
 2606TIP3    H2 7825   0.488   4.850   3.844  1.1087  1.3605  0.6063
 2607TIP3   OH2 7826   4.406   3.322   3.285 -0.3600  0.0095 -0.1846
 2607TIP3    H1 7827   4.388   3.272   3.364 -1.8974  1.6361  0.5473
 2607TIP3    H2 7828   4.416   3.256   3.217  0.7206 -1.4149  1.2733
 2608TIP3   OH2 7829   2.260   0.424   1.463 -0.0611 -0.0850 -0.3632
 2608TIP3    H1 7830   2.196   0.483   1.422  0.7166  1.4155  0.5312
 2608TIP3    H2 7831   2.328   0.413   1.396 -0.6931 -0.7813 -0.9008
 2609TIP3   OH2 7832   5.729   5.482   3.846  0.4095  0.3607 -0.4913
 2609TIP3    H1 7833   5.650   5.535   3.832 -0.0759 -0.2519 -0.1212
 2609TIP3    H2 7834   5.793   5.544   3.879 -0.4212  0.5781  0.7829
 2610TIP3   OH2 7835   0.579   1.066   4.784  0.3033 -0.2335 -0.0803
 2610TIP3    H1 7836   0.550   0.983   4.822 -1.1526  0.5237  0.5718
 2610TIP3    H2 7837   0.497   1.114   4.768  1.1541  1.6380  0.8846
 2611TIP3   OH2 7838   6.128   4.354   4.715  0.4329 -0.3672  1.0617
 2611TIP3    H1 7839   6.134   4.447   4.740  2.2193  0.1559 -1.0052
 2611TIP3    H2 7840   6.217   4.321   4.726  0.4623 -1.0600 -0.8632
 2612TIP3   OH2 7841   4.352   0.693   1.651  0.0297  0.1189  0.2209
 2612TIP3    H1 7842   4.426   0.720   1.597 -1.2224  0.3346 -1.5091
 2612TIP3    H2 7843   4.391   0.650   1.727  1.9281 -2.1724 -1.8783
 2613TIP3   OH2 7844   3.327   5.030   2.053 -0.0264 -0.1986 -0.1070
 2613TIP3    H1 7845   3.239   5.023   2.090 -0.3130  0.1257 -0.7171
 2613TIP3    H2 7846   3.371   5.093   2.109  0.2607 -1.3694  1.0272
 2614TIP3   OH2 7847   1.887   2.218   4.698  0.1249  0.8499  0.4778
 2614TIP3    H1 7848   1.824   2.188   4.763 -0.6363  0.7168 -0.3114
 2614TIP3    H2 7849   1.937   2.140   4.675 -2.5972 -0.2509 -2.4168
 2615TIP3   OH2 7850   4.442   3.317   0.820  0.6582  0.0686  0.0978
 2615TIP3    H1 7851   4.366   3.347   0.771  0.8394  1.5732  0.6779
 2615TIP3    H2 7852   4.435   3.361   0.905  1.3504 -1.0058  0.7392
 2616TIP3   OH2 7853   0.560   0.638   1.207  0.2849  0.1658 -0.7382
 2616TIP3    H1 7854   0.466   0.636   1.188  0.0972 -1.1779  0.2141
 2616TIP3    H2 7855   0.573   0.719   1.256 -0.2767  0.6095 -1.3020
 2617TIP3   OH2 7856   2.680   5.027   4.170  0.8050  0.0208  0.8371
 2617TIP3    H1 7857   2.604   4.971   4.184  0.3520  0.0123 -1.3474
 2617TIP3    H2 7858   2.745   4.969   4.130  0.6899  0.7693 -0.5014
 2618TIP3   OH2 7859   3.941   4.109   4.912  0.8299  0.0442 -0.6134
 2618TIP3    H1 7860   3.995   4.163   4.970  0.2136  0.5381 -0.4936
 2618TIP3    H2 7861   3.907   4.170   4.847 -0.5838 -0.0238  0.0348
 2619TIP3   OH2 7862   5.791   5.283   3.994 -0.1419 -0.8819  0.1557
 2619TIP3    H1 7863   5.861   5.273   3.930  1.2645  2.0538  1.0967
 2619TIP3    H2 7864   5.732   5.348   3.956  1.0669  1.4130  1.9858
 2620TIP3   OH2 7865   4.947   5.085   4.892  0.0816  0.6448  0.2755
 2620TIP3    H1 7866   4.864   5.096   4.938  0.3764  0.0663  0.9666
 2620TIP3    H2 7867   4.947   4.994   4.863  0.1348  0.8578 -0.4133
 2621TIP3   OH2 7868   5.720   1.593   0.278  0.0022 -0.5371 -0.1097
 2621TIP3    H1 7869   5.641   1.540   0.282 -1.3539  1.0226 -3.0773
 2621TIP3    H2 7870   5.717   1.647   0.357 -2.7713  0.5193 -0.8127
 2622TIP3   OH2 7871   0.798   3.142   0.908 -0.1684 -0.0842  0.4717
 2622TIP3    H1 7872   0.791   3.051   0.880 -0.2691 -0.0825  0.4912
 2622TIP3    H2 7873   0.807   3.137   1.003 -0.6126 -0.0542  0.5167
 2623TIP3   OH2 7874   4.709   4.816   0.411 -0.2190  0.1313  0.2622
 2623TIP3    H1 7875   4.647   4.851   0.347  0.4489 -2.4479 -1.9456
 2623TIP3    H2 7876   4.662   4.744   0.453 -0.9212  2.2326  3.3841
 2624TIP3   OH2 7877   6.378   3.948   0.194 -0.4751  0.2847 -0.2130
 2624TIP3    H1 7878   6.325   3.870   0.210 -1.2922  0.6087 -1.2027
 2624TIP3    H2 7879   6.321   4.005   0.141  0.0297  1.6334  0.6533
 2625TIP3   OH2 7880   4.532   0.327   1.583 -0.3006 -0.1168  0.8107
 2625TIP3    H1 7881   4.587   0.249   1.576 -1.1117 -0.6244 -0.0640
 2625TIP3    H2 7882   4.593   0.397   1.609  0.4182 -1.0419  1.7217
 2626TIP3   OH2 7883   1.855   1.476   1.407 -0.2513 -0.0177 -0.2141
 2626TIP3    H1 7884   1.888   1.386   1.410  3.5348  1.1563 -1.5536
 2626TIP3    H2 7885   1.806   1.481   1.325  1.9643 -0.2530 -1.6408
 2627TIP3   OH2 7886   5.351   0.373   1.511  0.4372  0.1059 -0.2454
 2627TIP3    H1 7887   5.385   0.333   1.431 -1.0619 -1.2410 -0.2745
 2627TIP3    H2 7888   5.296   0.446   1.481 -0.5387 -0.7138 -0.5213
 2628TIP3   OH2 7889   5.704   4.608   4.026  0.5062  0.4915  0.1476
 2628TIP3    H1 7890   5.657   4.578   3.948 -0.1358  0.9550  0.3428
 2628TIP3    H2 7891   5.745   4.529   4.062  0.1018  0.1241 -0.1899
 2629TIP3   OH2 7892   4.383   4.270   1.979  0.5701  0.3983  0.0446
 2629TIP3    H1 7893   4.299   4.275   1.933  0.8632  0.4011 -0.4947
 2629TIP3    H2 7894   4.440   4.329   1.931  1.3449 -0.8370 -0.5818
 2630TIP3   OH2 7895   0.925   4.868   3.045  0.0007  0.4492  0.0320
 2630TIP3    H1 7896   0.909   4.899   3.134 -0.5351 -0.7997  0.3981
 2630TIP3    H2 7897   0.839   4.843   3.012  0.5400 -2.5775  0.5591
 2631TIP3   OH2 7898   5.754   0.137   4.290  0.0871  0.2364 -0.0003
 2631TIP3    H1 7899   5.770   0.043   4.301 -0.1570  0.3013  1.0989
 2631TIP3    H2 7900   5.840   0.177   4.294  0.0745  0.1816  1.1431
 2632TIP3   OH2 7901   5.510   3.920   0.744  0.1339  0.1255 -0.3349
 2632TIP3    H1 7902   5.520   3.830   0.775  0.6675  0.0950 -0.5765
 2632TIP3    H2 7903   5.559   3.973   0.807 -2.3904  0.5862  1.3658
 2633TIP3   OH2 7904   3.978   2.719   4.632  0.3663 -0.1512 -0.2384
 2633TIP3    H1 7905   4.028   2.796   4.603  0.5421 -0.3224 -0.3921
 2633TIP3    H2 7906   3.922   2.698   4.558 -1.7359  1.4994  0.7592
 2634TIP3   OH2 7907   3.357   2.923   2.062  0.9930 -0.4529  0.3753
 2634TIP3    H1 7908   3.306   3.005   2.059  1.1959 -0.3004  1.1268
 2634TIP3    H2 7909   3.372   2.907   2.155  0.9986 -1.3248  0.2286
 2635TIP3   OH2 7910   1.661   1.619   3.897  0.1123 -0.4081 -0.2330
 2635TIP3    H1 7911   1.660   1.580   3.984 -0.7996 -1.5095 -0.7019
 2635TIP3    H2 7912   1.738   1.676   3.896  0.0446 -0.2550  1.3279
 2636TIP3   OH2 7913   4.660   1.858   3.602 -0.4433  0.0117 -0.3193
 2636TIP3    H1 7914   4.719   1.924   3.638  0.7944 -1.4741  0.4736
 2636TIP3    H2 7915   4.657   1.789   3.669 -0.7456 -1.2899 -1.6318
 2637TIP3   OH2 7916   1.000   5.387   2.731 -0.0777  0.4075 -0.3930
 2637TIP3    H1 7917   1.028   5.296   2.722  0.9194  0.7194 -0.5305
 2637TIP3    H2 7918   0.939   5.401   2.658  0.5748  0.1486 -0.9918
 2638TIP3   OH2 7919   3.178   4.508   2.088  0.1937 -0.3656  0.2892
 2638TIP3    H1 7920   3.126   4.546   2.159  2.0547  0.0192  1.5109
 2638TIP3    H2 7921   3.266   4.501   2.124  1.1066 -0.5737 -1.8478
 2639TIP3   OH2 7922   1.233   5.419   4.417  0.6495 -0.1549  0.0603
 2639TIP3    H1 7923   1.312   5.380   4.454  0.2439 -0.5841  0.4897
 2639TIP3    H2 7924   1.182   5.345   4.385 -0.6231 -0.1205  1.8511
 2640TIP3   OH2 7925   3.904   4.545   5.120  0.5196 -0.0662  0.1200
 2640TIP3    H1 7926   3.963   4.470   5.119  0.7841  0.1384 -0.6475
 2640TIP3    H2 7927   3.885   4.561   5.028  0.1795  0.5835  0.2994
 2641TIP3   OH2 7928   0.511   5.447   2.048 -0.4019  0.0319 -0.2941
 2641TIP3    H1 7929   0.537   5.538   2.060 -2.0593  0.4049  0.6806
 2641TIP3    H2 7930   0.564   5.417   1.974  0.7468  1.5298 -0.1225
 2642TIP3   OH2 7931   3.918   4.341   1.442  0.1915  0.0485  0.6355
 2642TIP3    H1 7932   3.986   4.292   1.488  0.7182 -0.6315 -0.8129
 2642TIP3    H2 7933   3.960   4.425   1.421  0.5678 -0.3235 -0.1485
 2643TIP3   OH2 7934   0.753   4.561   3.932  0.3222  0.2727 -0.6985
 2643TIP3    H1 7935   0.763   4.494   3.865  0.3106  0.6255 -1.0540
 2643TIP3    H2 7936   0.827   4.620   3.919 -0.9243  1.6399 -1.8949
 2644TIP3   OH2 7937   1.240   1.888   4.756  0.1165 -0.1816  0.0048
 2644TIP3    H1 7938   1.214   1.976   4.729  0.3814  0.5362  1.9353
 2644TIP3    H2 7939   1.334   1.884   4.740  0.2172  0.1287  0.4939
 2645TIP3   OH2 7940   0.660   3.084   4.177  0.2485 -0.2718 -0.6232
 2645TIP3    H1 7941   0.644   3.178   4.172  0.2181 -0.2266  0.1871
 2645TIP3    H2 7942   0.594   3.052   4.238 -0.6465 -1.0472 -1.9549
 2646TIP3   OH2 7943   6.185   0.618   3.313  0.4345  0.1452  0.6828
 2646TIP3    H1 7944   6.147   0.565   3.243  1.2123 -1.5239  1.4518
 2646TIP3    H2 7945   6.110   0.660   3.355 -0.1229  0.3912 -0.5198
 2647TIP3   OH2 7946   4.497   2.320   0.085  0.4171 -0.1426  0.0564
 2647TIP3    H1 7947   4.544   2.245   0.048 -1.0327 -0.6106 -0.9391
 2647TIP3    H2 7948   4.451   2.284   0.162 -0.4994 -0.3767 -0.5799
 2648TIP3   OH2 7949   3.228   5.138   3.437 -0.7890  0.6503  0.0514
 2648TIP3    H1 7950   3.278   5.218   3.421 -0.8773  0.7088  0.0683
 2648TIP3    H2 7951   3.142   5.154   3.398 -0.3007 -0.0495 -1.3845
 2649TIP3   OH2 7952   5.444   1.936   3.096 -0.1603  0.1822  0.3445
 2649TIP3    H1 7953   5.413   1.985   3.020  0.7128 -1.0956 -0.8828
 2649TIP3    H2 7954   5.522   1.983   3.125  0.2157 -0.0146 -0.3313
 2650TIP3   OH2 7955   5.562   2.802   3.812  0.2013  0.5111 -0.4739
 2650TIP3    H1 7956   5.631   2.815   3.877  0.9216  0.0663 -1.1264
 2650TIP3    H2 7957   5.542   2.708   3.817  0.0064  0.5429 -0.6347
 2651TIP3   OH2 7958   1.970   5.375   3.259  0.1468  0.1333 -0.0192
 2651TIP3    H1 7959   2.011   5.435   3.321 -0.1573 -0.3461  0.6515
 2651TIP3    H2 7960   1.928   5.308   3.313 -1.4796  0.5661 -0.6826
 2652TIP3   OH2 7961   2.666   0.954   3.941  0.2776  0.2105  0.3567
 2652TIP3    H1 7962   2.654   0.962   3.846  3.0276 -0.8373 -0.1700
 2652TIP3    H2 7963   2.696   1.041   3.968 -1.0127  0.6615  0.3845
 2653TIP3   OH2 7964   2.729   4.426   3.161  0.7259 -0.1959 -0.0030
 2653TIP3    H1 7965   2.671   4.480   3.215  0.0244 -0.9884  0.0690
 2653TIP3    H2 7966   2.674   4.352   3.134  1.4879 -0.5634 -0.5936
 2654TIP3   OH2 7967   4.738   3.094   2.977  0.2120 -0.0477  0.1476
 2654TIP3    H1 7968   4.820   3.122   3.017 -0.3469  0.5249  0.9211
 2654TIP3    H2 7969   4.760   3.079   2.885  0.6792  2.3596 -0.1856
 2655TIP3   OH2 7970   0.377   3.293   1.381  0.1811  0.5590 -0.2078
 2655TIP3    H1 7971   0.318   3.217   1.383 -0.8216  1.2548 -1.4726
 2655TIP3    H2 7972   0.456   3.261   1.340 -0.2876  0.2205 -0.8600
 2656TIP3   OH2 7973   4.189   5.063   4.573  0.3148  0.2185 -0.6052
 2656TIP3    H1 7974   4.191   5.005   4.497  0.5329  0.4194 -0.7575
 2656TIP3    H2 7975   4.157   5.009   4.645  1.2443 -0.3046 -0.5657
 2657TIP3   OH2 7976   0.411   4.288   0.985  0.0528 -0.3726  0.4519
 2657TIP3    H1 7977   0.336   4.240   1.021  0.5053 -1.5229 -0.0950
 2657TIP3    H2 7978   0.453   4.326   1.062  0.8082 -2.5248  1.1752
 2658TIP3   OH2 7979   0.376   0.046   2.022  0.2206  0.1119  0.1011
 2658TIP3    H1 7980   0.459   0.064   1.978  0.4532 -0.9264  0.1050
 2658TIP3    H2 7981   0.380  -0.047   2.044 -1.6534 -0.3986 -1.4203
 2659TIP3   OH2 7982   1.397   0.606   4.620 -0.8458 -0.4728 -0.5795
 2659TIP3    H1 7983   1.314   0.629   4.579  0.1363 -0.6923 -2.7959
 2659TIP3    H2 7984   1.412   0.515   4.595 -1.2620 -1.4168  2.2132
 2660TIP3   OH2 7985   0.423   1.900   3.159  0.3452  0.2595  0.0981
 2660TIP3    H1 7986   0.336   1.938   3.164  0.2403 -0.0095  0.4339
 2660TIP3    H2 7987   0.418   1.821   3.213  1.1275  0.8964  1.1562
 2661TIP3   OH2 7988   4.388   5.787   3.276  0.1676 -0.0888 -0.0336
 2661TIP3    H1 7989   4.393   5.863   3.218  0.9630 -0.4467 -0.4473
 2661TIP3    H2 7990   4.470   5.790   3.326 -0.4961  0.2009  1.0693
 2662TIP3   OH2 7991   1.957   0.665   0.571 -0.5257  0.0763 -0.7720
 2662TIP3    H1 7992   1.994   0.588   0.528  2.7355  1.4465 -0.6848
 2662TIP3    H2 7993   1.933   0.723   0.499 -0.5778  0.0070 -0.8105
 2663TIP3   OH2 7994   2.543   0.860   2.820 -0.1182 -0.1039 -0.3913
 2663TIP3    H1 7995   2.585   0.854   2.734 -0.0015  0.3546 -0.3682
 2663TIP3    H2 7996   2.496   0.777   2.829  2.1779 -1.3986  0.3338
 2664TIP3   OH2 7997   1.784   3.062   3.243 -0.1675 -0.1142 -0.1073
 2664TIP3    H1 7998   1.865   3.048   3.195 -0.7053 -1.3719 -0.7069
 2664TIP3    H2 7999   1.733   3.122   3.189  0.4406  0.8784  0.3925
 2665TIP3   OH2 8000   5.707   5.459   4.488 -0.0599 -0.1995  0.2237
 2665TIP3    H1 8001   5.741   5.490   4.404 -0.2027 -0.9357 -0.1148
 2665TIP3    H2 8002   5.672   5.372   4.469 -0.9514  0.0115  0.8443
 2666TIP3   OH2 8003   1.573   4.746   4.159  0.2557 -0.2076 -0.7707
 2666TIP3    H1 8004   1.511   4.674   4.153  0.6286 -0.5807 -0.2918
 2666TIP3    H2 8005   1.529   4.811   4.214  1.4241 -1.7700  2.2813
 2667TIP3   OH2 8006   4.659   3.881   4.426  0.0152 -0.0674  0.0495
 2667TIP3    H1 8007   4.671   3.814   4.358 -0.3230 -1.4199  1.2904
 2667TIP3    H2 8008   4.568   3.908   4.416 -0.3123 -0.9453  0.5482
 2668TIP3   OH2 8009   3.502   5.031   2.541 -0.1787 -0.3942 -0.5791
 2668TIP3    H1 8010   3.477   4.966   2.608  1.4641  0.4794  0.9851
 2668TIP3    H2 8011   3.419   5.053   2.498 -1.1691 -1.6950  0.5187
 2669TIP3   OH2 8012   5.342   1.975   2.772  0.0453 -0.3244 -0.3125
 2669TIP3    H1 8013   5.436   1.970   2.757  0.4275  1.1894  1.1894
 2669TIP3    H2 8014   5.303   1.984   2.685  1.4633  1.0185 -0.8371
 2670TIP3   OH2 8015   3.019   5.699   4.004  0.1108 -0.1868 -0.8340
 2670TIP3    H1 8016   2.966   5.737   4.075  1.8131 -0.8291  0.8664
 2670TIP3    H2 8017   2.964   5.628   3.969 -0.9432  0.4297 -0.4912
 2671TIP3   OH2 8018   1.064   2.651   0.169  0.0334  0.1707  0.1787
 2671TIP3    H1 8019   1.082   2.717   0.102 -1.4626 -0.0276 -0.4749
 2671TIP3    H2 8020   1.072   2.698   0.252 -0.7480  1.1335 -0.2648
 2672TIP3   OH2 8021   5.071   1.648   4.911  0.0562 -0.2021  0.6801
 2672TIP3    H1 8022   5.122   1.686   4.983  0.0607  0.4321  0.3484
 2672TIP3    H2 8023   5.127   1.660   4.834 -1.4004  2.4582 -0.1096
 2673TIP3   OH2 8024   6.329   1.058   3.734 -0.1571 -0.5139 -0.0423
 2673TIP3    H1 8025   6.419   1.069   3.704 -0.7879 -0.5737 -2.1707
 2673TIP3    H2 8026   6.280   1.127   3.689 -1.1934 -0.5908  0.9328
 2674TIP3   OH2 8027   0.367   2.215   4.629 -0.6858  0.0967 -0.6330
 2674TIP3    H1 8028   0.276   2.237   4.645 -0.5444  0.8453 -0.7994
 2674TIP3    H2 8029   0.406   2.297   4.598  0.3642  0.1395  0.7399
 2675TIP3   OH2 8030   1.055   3.898   5.136 -0.5225  0.1876  0.4095
 2675TIP3    H1 8031   1.005   3.853   5.204 -2.2633  0.0459 -0.8725
 2675TIP3    H2 8032   1.006   3.879   5.055  1.8137 -0.1990 -0.9864
 2676TIP3   OH2 8033   2.485   2.799   4.914 -0.5098 -0.0640  0.1339
 2676TIP3    H1 8034   2.507   2.709   4.890 -0.2978 -0.1954  0.8220
 2676TIP3    H2 8035   2.570   2.843   4.922 -0.6366  0.6293 -1.7854
 2677TIP3   OH2 8036   2.212   4.127   2.325 -0.3144  0.0811 -0.4401
 2677TIP3    H1 8037   2.183   4.075   2.251  1.1862 -1.4202 -0.0297
 2677TIP3    H2 8038   2.175   4.083   2.401 -0.4580  0.6247 -0.1935
 2678TIP3   OH2 8039   1.291   4.728   4.045  0.0905  0.1495 -0.1827
 2678TIP3    H1 8040   1.276   4.703   4.136 -2.0908  0.4035 -0.4041
 2678TIP3    H2 8041   1.297   4.645   3.998  3.0553 -0.0403  0.3556
 2679TIP3   OH2 8042   0.928   3.172   1.746  0.4523  0.0441 -0.3469
 2679TIP3    H1 8043   0.942   3.096   1.689  1.5822 -0.1368  0.1310
 2679TIP3    H2 8044   0.959   3.144   1.832  0.7480  0.9923 -0.1283
 2680TIP3   OH2 8045   2.458   3.926   1.683  0.5359 -0.5905 -0.0581
 2680TIP3    H1 8046   2.511   3.950   1.607  1.1986 -0.9211  0.2910
 2680TIP3    H2 8047   2.520   3.886   1.744  0.1679  0.4482  1.0237
 2681TIP3   OH2 8048   3.449   3.861   4.973 -0.0993  0.8167 -0.0462
 2681TIP3    H1 8049   3.398   3.790   4.935 -0.5079  1.2326 -0.2818
 2681TIP3    H2 8050   3.534   3.821   4.994  0.3712  0.7320 -1.9639
 2682TIP3   OH2 8051   1.944   5.227   1.324  0.0481 -0.0135  0.6094
 2682TIP3    H1 8052   1.994   5.263   1.250 -0.4186  1.1086  0.8081
 2682TIP3    H2 8053   1.992   5.255   1.401 -0.2196  0.0338  0.7611
 2683TIP3   OH2 8054   4.370   1.577   4.118  0.6240 -0.1892  0.4112
 2683TIP3    H1 8055   4.390   1.620   4.202  0.5527  0.7918 -0.0694
 2683TIP3    H2 8056   4.455   1.542   4.090  0.8848  0.4757  0.3435
 2684TIP3   OH2 8057   4.219   4.351   0.649 -0.1763 -0.8012 -0.8123
 2684TIP3    H1 8058   4.125   4.355   0.665 -0.2818 -1.0383 -1.3598
 2684TIP3    H2 8059   4.258   4.386   0.729 -0.5805 -4.0225  0.9493
 2685TIP3   OH2 8060   0.048   2.213   4.243  1.0322  0.1275  0.0881
 2685TIP3    H1 8061   0.124   2.242   4.193  0.5758  1.4934  0.1513
 2685TIP3    H2 8062  -0.022   2.273   4.218  0.2991 -0.3369  0.9532
 2686TIP3   OH2 8063   5.433   5.424   4.549  0.2656 -0.4745  0.6417
 2686TIP3    H1 8064   5.525   5.452   4.549  0.6784 -1.7932  0.9847
 2686TIP3    H2 8065   5.429   5.351   4.611 -0.7538 -1.2799 -0.3289
 2687TIP3   OH2 8066   2.047   2.233   1.753 -0.6190  0.0363 -0.4239
 2687TIP3    H1 8067   2.008   2.316   1.727 -0.1339  0.1342 -0.8535
 2687TIP3    H2 8068   1.972   2.177   1.774 -0.9308  1.3370  2.4181
 2688TIP3   OH2 8069   6.325   4.086   1.485 -0.2429  0.1152  0.0870
 2688TIP3    H1 8070   6.291   4.143   1.417 -0.4473 -1.2717 -1.0356
 2688TIP3    H2 8071   6.259   4.089   1.554 -0.5573  0.7310 -0.2326
 2689TIP3   OH2 8072   1.618   3.426   0.149  0.0419  0.4565  0.3726
 2689TIP3    H1 8073   1.630   3.335   0.176 -0.4746  0.3591  0.2949
 2689TIP3    H2 8074   1.526   3.445   0.170 -0.0319  0.7592 -0.2158
 2690TIP3   OH2 8075   1.799   0.220   4.298 -0.0191  0.6183  0.7090
 2690TIP3    H1 8076   1.783   0.267   4.216  0.1052 -1.0914 -0.3395
 2690TIP3    H2 8077   1.714   0.182   4.320  0.6168 -1.5839 -0.4018
 2691TIP3   OH2 8078   2.978   1.398   1.630  0.1079 -0.3346 -0.2811
 2691TIP3    H1 8079   3.035   1.459   1.677  1.1599 -1.6478  0.2220
 2691TIP3    H2 8080   2.892   1.409   1.671 -0.2922  2.2967 -1.6209
 2692TIP3   OH2 8081   5.234   4.398   2.970 -0.1170 -0.4526  0.6990
 2692TIP3    H1 8082   5.166   4.389   2.903 -1.4942  1.7629  1.7005
 2692TIP3    H2 8083   5.267   4.487   2.959  1.6619 -1.0228  1.1703
 2693TIP3   OH2 8084   2.421   5.067   5.022 -0.6195  0.5066  0.3329
 2693TIP3    H1 8085   2.422   4.971   5.028  2.3386 -0.0681 -4.2420
 2693TIP3    H2 8086   2.507   5.093   5.054 -0.2137  1.2280 -1.2785
 2694TIP3   OH2 8087   4.809   3.848   3.507  0.5800  0.8064 -0.3462
 2694TIP3    H1 8088   4.904   3.842   3.498  0.4649  0.7760 -1.7409
 2694TIP3    H2 8089   4.785   3.771   3.558  1.3707  1.2295  0.7049
 2695TIP3   OH2 8090   1.690   5.151   4.443 -0.1301  0.5149 -0.1900
 2695TIP3    H1 8091   1.599   5.132   4.420 -0.4688  0.4064  1.1478
 2695TIP3    H2 8092   1.685   5.227   4.500  0.5865  0.2507  0.2413
 2696TIP3   OH2 8093   1.074   5.557   3.178 -0.9314 -0.0124  0.0792
 2696TIP3    H1 8094   0.998   5.510   3.212 -0.1201 -2.3313 -1.0996
 2696TIP3    H2 8095   1.038   5.639   3.146 -2.6779 -0.3937  0.9281
 2697TIP3   OH2 8096   2.355   5.021   1.939 -0.2944  0.1369 -0.3683
 2697TIP3    H1 8097   2.366   5.020   2.035 -1.7464 -0.2303 -0.1834
 2697TIP3    H2 8098   2.387   4.935   1.912  2.4787  1.1281 -0.5584
 2698TIP3   OH2 8099   2.113   0.477   3.196  0.3478 -0.2489 -0.1339
 2698TIP3    H1 8100   2.198   0.501   3.158 -0.5190  1.8478 -0.9400
 2698TIP3    H2 8101   2.055   0.550   3.172 -1.3495 -0.9589  1.5506
 2699TIP3   OH2 8102   5.127   2.884   4.020  0.1933  0.0972  0.4453
 2699TIP3    H1 8103   5.064   2.812   4.025  0.7977 -0.4701  0.0860
 2699TIP3    H2 8104   5.087   2.948   3.961  0.0165 -0.3179  0.1144
 2700TIP3   OH2 8105   4.753   0.760   2.834 -0.2791 -0.3161 -0.4950
 2700TIP3    H1 8106   4.779   0.687   2.889 -1.0027 -0.2102  0.0107
 2700TIP3    H2 8107   4.728   0.721   2.750 -0.6220 -0.6500 -0.2391
 2701TIP3   OH2 8108   1.111   2.663   2.877  0.1409 -0.5723  0.0753
 2701TIP3    H1 8109   1.155   2.599   2.934 -1.1607  0.3609  2.2567
 2701TIP3    H2 8110   1.091   2.736   2.935  0.4712  1.3315 -2.0733
 2702TIP3   OH2 8111   0.399   3.770   1.619  0.1082  0.2158  0.0219
 2702TIP3    H1 8112   0.317   3.812   1.641  0.2926  0.9173 -0.5851
 2702TIP3    H2 8113   0.386   3.678   1.642  0.3615  0.8507  3.1769
 2703TIP3   OH2 8114   3.234   1.949   1.449 -0.7136  0.2153  0.2112
 2703TIP3    H1 8115   3.200   2.020   1.502 -1.8529  0.1968 -0.4505
 2703TIP3    H2 8116   3.156   1.899   1.423 -0.0647 -0.5203 -0.3897
 2704TIP3   OH2 8117   1.861   2.107   0.431  0.5381 -0.3167 -0.3340
 2704TIP3    H1 8118   1.813   2.079   0.509  1.3745 -1.8054 -0.3275
 2704TIP3    H2 8119   1.881   2.026   0.384  0.2973  0.5207 -1.9756
 2705TIP3   OH2 8120   2.828   3.115   0.205  0.1788 -0.0248  0.4790
 2705TIP3    H1 8121   2.774   3.052   0.254 -0.2580 -0.5590 -0.6532
 2705TIP3    H2 8122   2.917   3.095   0.232  0.4497 -3.4061 -2.1347
 2706TIP3   OH2 8123   2.006   0.273   0.252 -0.1912 -0.1226  1.3190
 2706TIP3    H1 8124   2.054   0.215   0.192  0.6603  0.8247  1.0474
 2706TIP3    H2 8125   1.915   0.248   0.242  0.2325 -2.0750  1.9422
 2707TIP3   OH2 8126   2.978   2.285   2.510 -0.2643  0.2508  0.3830
 2707TIP3    H1 8127   3.061   2.238   2.505  0.9921  2.2329  1.1607
 2707TIP3    H2 8128   2.983   2.332   2.594 -1.7830  1.1150  0.0192
 2708TIP3   OH2 8129   4.005   1.223   3.579  0.0550  0.1282  0.0687
 2708TIP3    H1 8130   3.978   1.147   3.632  1.2365  0.1848  0.7912
 2708TIP3    H2 8131   3.991   1.298   3.636  1.7980  0.1488  0.5379
 2709TIP3   OH2 8132   1.469   4.653   0.314 -0.0587 -0.4941 -0.2073
 2709TIP3    H1 8133   1.537   4.700   0.266 -0.3875 -0.3843 -0.5678
 2709TIP3    H2 8134   1.426   4.721   0.367 -0.4752 -0.4027 -0.6602
 2710TIP3   OH2 8135   0.748   0.111   4.781 -0.1647  0.3358 -0.1488
 2710TIP3    H1 8136   0.816   0.095   4.848 -1.1262 -0.8591  0.6004
 2710TIP3    H2 8137   0.689   0.036   4.790 -0.4930  0.3052 -2.1682
 2711TIP3   OH2 8138   2.578   5.773   4.843 -0.1978 -0.1110 -0.6547
 2711TIP3    H1 8139   2.496   5.737   4.810 -1.1301 -0.2349  1.5923
 2711TIP3    H2 8140   2.552   5.827   4.917  1.7895 -0.6044  0.4789
 2712TIP3   OH2 8141   4.754   4.353   0.940 -0.1227  0.5077  0.3567
 2712TIP3    H1 8142   4.820   4.343   0.872 -0.7773  0.3704 -0.2722
 2712TIP3    H2 8143   4.677   4.388   0.894 -0.4407  0.8061  1.0987
 2713TIP3   OH2 8144   1.764   5.326   0.747  0.2873  0.0451 -0.1666
 2713TIP3    H1 8145   1.858   5.327   0.767  0.4212 -0.7317 -0.7348
 2713TIP3    H2 8146   1.722   5.302   0.830  0.6984 -1.1768 -0.2994
 2714TIP3   OH2 8147   2.971   3.465   0.324  0.2774 -0.5767 -0.3188
 2714TIP3    H1 8148   2.882   3.489   0.300  0.3377 -1.4792 -1.5222
 2714TIP3    H2 8149   3.026   3.535   0.289  0.2749 -1.4043 -2.0456
 2715TIP3   OH2 8150   2.780   2.883   3.380 -0.7143  0.2252 -0.3953
 2715TIP3    H1 8151   2.801   2.961   3.432 -0.9208 -0.6272  1.0007
 2715TIP3    H2 8152   2.864   2.856   3.343  0.0507 -0.8626  1.9394
 2716TIP3   OH2 8153   4.211   5.642   1.951  0.5798  0.2039  0.0817
 2716TIP3    H1 8154   4.275   5.702   1.912 -0.5914  1.5649  0.1545
 2716TIP3    H2 8155   4.161   5.697   2.012 -3.0120  0.1559 -2.5544
 2717TIP3   OH2 8156   2.075   0.252   1.583  0.3387 -0.3407  0.2387
 2717TIP3    H1 8157   2.158   0.300   1.586  0.5195 -0.5949 -0.3874
 2717TIP3    H2 8158   2.030   0.287   1.506  0.8960 -1.8205 -0.8002
 2718TIP3   OH2 8159   5.583   4.875   2.059  0.2096 -0.1895  1.0937
 2718TIP3    H1 8160   5.601   4.936   2.131  0.6883  1.1540 -0.1347
 2718TIP3    H2 8161   5.501   4.906   2.021  1.6808  1.2756 -1.0901
 2719TIP3   OH2 8162   2.914   4.042   4.823 -0.0196  0.3064  0.2100
 2719TIP3    H1 8163   2.906   4.133   4.796 -0.2676  0.3228  0.3318
 2719TIP3    H2 8164   3.005   4.019   4.807 -0.4710 -0.1250 -2.0642
 2720TIP3   OH2 8165   3.890   2.510   4.313 -0.0291 -0.1217 -0.1296
 2720TIP3    H1 8166   3.882   2.431   4.259  2.7483 -1.4402  1.1787
 2720TIP3    H2 8167   3.952   2.565   4.266  0.7910 -0.3484  0.6596
 2721TIP3   OH2 8168   2.923   3.758  -0.001 -0.3041 -0.2084  0.0564
 2721TIP3    H1 8169   2.996   3.819  -0.014 -1.0769  0.5567 -0.9483
 2721TIP3    H2 8170   2.877   3.792   0.076 -0.6987  0.4753 -0.4663
 2722TIP3   OH2 8171   0.874   0.368   1.994  0.6603 -0.1240 -0.4156
 2722TIP3    H1 8172   0.813   0.339   2.062 -0.7022  0.9626 -1.1387
 2722TIP3    H2 8173   0.961   0.358   2.034 -0.0309 -0.7229  1.0025
 2723TIP3   OH2 8174   2.981   1.817   0.906  0.0966  0.4660 -0.0883
 2723TIP3    H1 8175   3.009   1.769   0.828  0.5513  1.8806 -0.8126
 2723TIP3    H2 8176   3.016   1.905   0.895 -2.0634  1.4662  0.4092
 2724TIP3   OH2 8177   2.562   4.594   3.587  0.1314 -0.4862 -0.2271
 2724TIP3    H1 8178   2.483   4.604   3.639  0.4604 -0.0106  0.1908
 2724TIP3    H2 8179   2.619   4.537   3.638  1.0390  1.1213  0.6615
 2725TIP3   OH2 8180   0.023   3.633   0.244  0.4553 -0.3889 -0.4425
 2725TIP3    H1 8181  -0.020   3.621   0.159  2.6798  1.2698 -1.9052
 2725TIP3    H2 8182   0.084   3.559   0.251  0.2562 -0.5378 -0.2738
 2726TIP3   OH2 8183   2.479   2.847   4.571  0.0131  0.2130 -0.1061
 2726TIP3    H1 8184   2.550   2.788   4.544  0.9410  0.5531  1.4470
 2726TIP3    H2 8185   2.425   2.794   4.629 -0.2315  0.3419 -0.2185
 2727TIP3   OH2 8186   1.731   0.750   1.045  0.2604 -1.1783  0.3685
 2727TIP3    H1 8187   1.719   0.827   1.101  0.1822 -0.4276 -0.6521
 2727TIP3    H2 8188   1.744   0.786   0.957  0.3948 -2.3304 -0.0998
 2728TIP3   OH2 8189   5.778   2.450   0.519 -0.3647 -0.2859  0.2295
 2728TIP3    H1 8190   5.841   2.472   0.450 -1.0394 -2.3442 -1.1256
 2728TIP3    H2 8191   5.693   2.463   0.478 -0.8620  1.3188  1.6689
 2729TIP3   OH2 8192   2.112   1.878   3.581  0.1953 -0.3129  0.4342
 2729TIP3    H1 8193   2.070   1.878   3.667  1.2983 -1.9591  1.0304
 2729TIP3    H2 8194   2.202   1.850   3.599 -0.1832 -3.1788 -1.4942
 2730TIP3   OH2 8195   1.157   3.282   4.541  0.8908  0.9408  0.2947
 2730TIP3    H1 8196   1.118   3.350   4.486  1.9946  1.6097  0.3068
 2730TIP3    H2 8197   1.237   3.257   4.496  0.5043 -0.3638  0.3033
 2731TIP3   OH2 8198   2.910   3.598   2.173  0.2105 -0.0900  0.3754
 2731TIP3    H1 8199   2.869   3.594   2.259  0.3709  0.7135  0.4976
 2731TIP3    H2 8200   2.899   3.689   2.145 -2.5510 -0.9650 -1.8070
 2732TIP3   OH2 8201   1.763   2.876   4.641 -0.0948  0.0688  0.1162
 2732TIP3    H1 8202   1.779   2.790   4.680  0.7448  0.2776  0.2617
 2732TIP3    H2 8203   1.669   2.879   4.627 -0.4010 -0.1563  1.8307
 2733TIP3   OH2 8204   4.806   5.108   3.125  0.0867  0.4426  0.1343
 2733TIP3    H1 8205   4.725   5.142   3.163  0.0363 -0.7853  1.2007
 2733TIP3    H2 8206   4.876   5.154   3.172  0.0305  1.5320 -0.8142
 2734TIP3   OH2 8207   4.720   2.558   1.437  0.2195  0.6015 -0.4752
 2734TIP3    H1 8208   4.802   2.513   1.454 -1.5585 -2.3412  1.0388
 2734TIP3    H2 8209   4.709   2.552   1.342  0.7904 -0.8266 -0.4789
 2735TIP3   OH2 8210   0.631   3.685   3.232  0.1588 -0.3124 -0.5447
 2735TIP3    H1 8211   0.570   3.671   3.305  0.6860 -1.1346 -0.2513
 2735TIP3    H2 8212   0.618   3.609   3.175  0.1776  0.0277 -1.0050
 2736TIP3   OH2 8213   1.714   3.014   4.939  0.4367  0.2095  0.3265
 2736TIP3    H1 8214   1.784   2.964   4.980 -2.1458 -1.9570  2.5108
 2736TIP3    H2 8215   1.688   2.962   4.862  2.1604  1.8475 -1.4679
 2737TIP3   OH2 8216   2.001   1.972   5.049 -0.2997 -0.0536 -0.0562
 2737TIP3    H1 8217   1.919   2.011   5.018  0.5931 -0.4718 -3.2828
 2737TIP3    H2 8218   1.992   1.878   5.029  1.3046  0.0451 -1.5129
 2738TIP3   OH2 8219   3.132   4.628   3.317  0.0120  0.4762  0.2572
 2738TIP3    H1 8220   3.109   4.712   3.356 -1.6738  0.2765 -0.2471
 2738TIP3    H2 8221   3.109   4.563   3.383  0.0645  0.3182  0.1205
 2739TIP3   OH2 8222   1.445   0.918   4.330 -0.5548  0.2393  0.1575
 2739TIP3    H1 8223   1.483   0.894   4.414  0.1708 -2.6440 -0.8894
 2739TIP3    H2 8224   1.362   0.962   4.353  0.9299  2.1503  2.3408
 2740TIP3   OH2 8225   2.750   4.937   2.008  0.2220  0.3673 -0.1467
 2740TIP3    H1 8226   2.716   4.983   2.086 -1.2141  0.4111 -0.7717
 2740TIP3    H2 8227   2.781   4.853   2.042 -0.3813  0.3866  0.4886
 2741TIP3   OH2 8228   4.804   1.839   4.343  0.0410 -0.1631 -0.1151
 2741TIP3    H1 8229   4.718   1.877   4.361  1.5003  3.1298  0.5939
 2741TIP3    H2 8230   4.845   1.898   4.280  2.0519 -1.2623  0.0506
 2742TIP3   OH2 8231   3.148   0.247   3.031 -0.3463  0.0203 -0.0724
 2742TIP3    H1 8232   3.188   0.293   2.957 -0.3623  0.1364 -0.0092
 2742TIP3    H2 8233   3.160   0.307   3.105  1.6274 -0.9995  0.5000
 2743TIP3   OH2 8234   0.145   5.817   2.432 -0.4753  0.1757 -0.1733
 2743TIP3    H1 8235   0.228   5.857   2.457 -1.7770  3.8784 -0.9806
 2743TIP3    H2 8236   0.167   5.759   2.359  1.5761 -0.4259  0.8518
 2744TIP3   OH2 8237   0.785   0.279   3.473 -0.1885  0.3218  0.0889
 2744TIP3    H1 8238   0.802   0.185   3.476 -1.6244 -0.0690 -1.7304
 2744TIP3    H2 8239   0.794   0.301   3.380  0.4296  2.0667  0.5329
 2745TIP3   OH2 8240   4.472   3.734   1.364  0.0313 -0.0064  0.0288
 2745TIP3    H1 8241   4.550   3.770   1.406 -1.3576  2.9535  0.3186
 2745TIP3    H2 8242   4.485   3.752   1.271 -0.0476 -0.1092 -0.0031
 2746TIP3   OH2 8243   5.252   2.443   0.912 -0.2231 -0.0175  0.1627
 2746TIP3    H1 8244   5.312   2.443   0.986 -1.8717 -2.0692  1.6201
 2746TIP3    H2 8245   5.275   2.363   0.863 -1.3942 -0.5584  0.4679
 2747TIP3   OH2 8246   4.968   5.325   3.984  0.1252  1.0002 -0.1698
 2747TIP3    H1 8247   4.919   5.357   4.060  1.2892  0.6296  0.7751
 2747TIP3    H2 8248   4.910   5.261   3.944  0.2006 -0.2310  1.5622
 2748TIP3   OH2 8249   0.200   0.515   0.743  0.1329 -0.1665  0.2925
 2748TIP3    H1 8250   0.133   0.558   0.689  0.4340  1.0848  0.8759
 2748TIP3    H2 8251   0.269   0.491   0.681 -1.2005 -2.3501 -0.4842
 2749TIP3   OH2 8252   1.268   2.589   0.942 -0.3799  0.3489  0.1854
 2749TIP3    H1 8253   1.240   2.595   0.851 -1.8189  2.4720  0.7059
 2749TIP3    H2 8254   1.359   2.616   0.942 -0.4098  0.4473 -0.5947
 2750TIP3   OH2 8255   3.329   2.239   4.515  0.1352 -0.1305 -0.1177
 2750TIP3    H1 8256   3.294   2.166   4.464 -2.0147  0.0097  1.0327
 2750TIP3    H2 8257   3.261   2.306   4.512  1.0830  0.9247  0.7512
 2751TIP3   OH2 8258   3.645   1.661   0.602  0.1989  0.0363 -0.0669
 2751TIP3    H1 8259   3.615   1.662   0.511 -0.9592 -2.5206  0.1851
 2751TIP3    H2 8260   3.566   1.642   0.652  0.8587  1.1987  1.4712
 2752TIP3   OH2 8261   2.551   2.737   1.338 -0.2599  0.2001 -0.0718
 2752TIP3    H1 8262   2.624   2.758   1.398 -0.7425  1.7972  0.0165
 2752TIP3    H2 8263   2.475   2.731   1.394 -0.3985 -0.2163 -0.3061
 2753TIP3   OH2 8264   2.345   0.561   3.080  0.0073  1.0311  0.0319
 2753TIP3    H1 8265   2.420   0.550   3.138  1.0399  0.9417 -1.2774
 2753TIP3    H2 8266   2.337   0.655   3.068  0.2374  1.0205 -0.2227
 2754TIP3   OH2 8267   5.617   2.202   2.910  0.4045 -0.7941  0.3214
 2754TIP3    H1 8268   5.603   2.133   2.845  0.9485 -1.4100  0.8410
 2754TIP3    H2 8269   5.695   2.248   2.880  1.6349 -2.0979  1.3420
 2755TIP3   OH2 8270   4.467   4.413   1.699  0.3740 -0.2793  0.4464
 2755TIP3    H1 8271   4.512   4.452   1.624 -0.9460  0.7088  0.1441
 2755TIP3    H2 8272   4.467   4.319   1.681  0.3978 -0.0910 -0.6051
 2756TIP3   OH2 8273   4.047   2.946   2.807 -0.2672 -0.8034 -0.0310
 2756TIP3    H1 8274   4.142   2.948   2.816 -0.4337 -1.6206  2.5733
 2756TIP3    H2 8275   4.015   3.015   2.866 -1.2866  1.3896 -2.8967
 2757TIP3   OH2 8276   5.786   2.125   1.175  0.0889  0.0390 -0.4478
 2757TIP3    H1 8277   5.837   2.124   1.094  1.8660  1.5567  0.5710
 2757TIP3    H2 8278   5.836   2.182   1.234 -1.1986 -0.9423  1.6965
 2758TIP3   OH2 8279   0.520   0.878   0.661  0.4015  0.6580 -0.0314
 2758TIP3    H1 8280   0.513   0.972   0.677  0.5349  1.2197 -2.8666
 2758TIP3    H2 8281   0.429   0.847   0.658  0.2342  1.2275 -1.6515
 2759TIP3   OH2 8282   0.426   0.654   2.214  0.6932  0.0438 -0.0877
 2759TIP3    H1 8283   0.351   0.628   2.161 -0.6835  0.6502  1.5034
 2759TIP3    H2 8284   0.474   0.715   2.158  0.1503 -0.5234 -1.2090
 2760TIP3   OH2 8285   0.610   4.720   0.731  0.1917  0.0267 -0.0064
 2760TIP3    H1 8286   0.675   4.750   0.666 -1.2154  1.0746 -0.9928
 2760TIP3    H2 8287   0.560   4.799   0.751  0.0078 -0.5022  1.6912
 2761TIP3   OH2 8288   2.656   0.876   3.460  0.2136  0.2639  0.0404
 2761TIP3    H1 8289   2.649   0.950   3.400  0.6653  0.0916 -0.2309
 2761TIP3    H2 8290   2.747   0.846   3.451 -0.0652 -0.5669 -0.1573
 2762TIP3   OH2 8291   1.695   2.062   1.050  0.3712 -0.2217  0.8515
 2762TIP3    H1 8292   1.744   2.018   1.118 -0.2710 -1.0694  0.7851
 2762TIP3    H2 8293   1.761   2.092   0.988  1.0530  1.3764  2.2685
 2763TIP3   OH2 8294   2.391   3.925   0.652 -0.1056 -0.0766 -0.1557
 2763TIP3    H1 8295   2.298   3.947   0.650 -0.1026  0.0308 -2.6158
 2763TIP3    H2 8296   2.414   3.911   0.560  2.2167 -0.5517  0.4317
 2764TIP3   OH2 8297   2.323   5.252   1.656 -0.4854 -0.2038  0.5388
 2764TIP3    H1 8298   2.240   5.204   1.658 -0.1777 -0.7557  2.7586
 2764TIP3    H2 8299   2.386   5.189   1.622 -1.1647  0.6904 -2.6528
 2765TIP3   OH2 8300   2.001   2.456   4.401 -0.2354 -0.1614  0.0490
 2765TIP3    H1 8301   2.073   2.464   4.464 -0.5662  2.4666  0.2047
 2765TIP3    H2 8302   1.922   2.457   4.455 -0.4735  0.0435 -0.3022
 2766TIP3   OH2 8303   5.751   0.299   2.033 -0.0360 -0.1810  0.1530
 2766TIP3    H1 8304   5.759   0.261   2.121 -1.4419 -1.1066 -0.0864
 2766TIP3    H2 8305   5.714   0.386   2.048 -0.0812 -0.2570  0.4940
 2767TIP3   OH2 8306   2.360   0.039   4.752 -0.3081 -0.4395 -0.1903
 2767TIP3    H1 8307   2.389   0.130   4.752  0.6613 -0.7415 -0.3267
 2767TIP3    H2 8308   2.420  -0.005   4.692 -0.6569 -1.2019  0.0151
 2768TIP3   OH2 8309   1.433   5.090   1.795  0.6887 -0.3164 -0.3221
 2768TIP3    H1 8310   1.369   5.028   1.761 -0.5253  0.7025  0.0284
 2768TIP3    H2 8311   1.410   5.100   1.888  0.5059  1.0342 -0.4869
 2769TIP3   OH2 8312   3.610   5.021   3.046  0.1414 -0.2846 -0.1627
 2769TIP3    H1 8313   3.594   5.073   2.968  2.8421  1.0118  0.0119
 2769TIP3    H2 8314   3.555   5.060   3.114 -0.9991 -0.3839 -1.0138
 2770TIP3   OH2 8315   4.968   3.491   3.397  0.1085 -0.6194  0.8272
 2770TIP3    H1 8316   4.929   3.541   3.326  1.5193  0.8115  1.0224
 2770TIP3    H2 8317   4.971   3.401   3.363  0.1389 -0.0887 -0.6547
 2771TIP3   OH2 8318   1.174   3.634   1.440  0.2773 -0.5021 -0.1247
 2771TIP3    H1 8319   1.161   3.555   1.493  1.3227 -0.7828 -0.2659
 2771TIP3    H2 8320   1.112   3.624   1.368  0.4147 -1.2162 -0.1552
 2772TIP3   OH2 8321   1.122   0.775   1.989 -0.0461  0.1077  0.3879
 2772TIP3    H1 8322   1.040   0.726   1.993  0.5397 -0.9532 -0.0583
 2772TIP3    H2 8323   1.156   0.757   1.901 -0.4034  2.3246 -0.2602
 2773TIP3   OH2 8324   4.956   0.147   0.390 -0.3146  0.0208 -0.0896
 2773TIP3    H1 8325   4.878   0.179   0.435  1.2314  0.1962  2.7380
 2773TIP3    H2 8326   5.001   0.093   0.455  2.4419  0.7779 -1.1968
 2774TIP3   OH2 8327   0.435   5.394   4.390 -0.1871  0.0015  0.4521
 2774TIP3    H1 8328   0.361   5.369   4.335 -0.8475  0.0248  1.3011
 2774TIP3    H2 8329   0.455   5.484   4.364 -0.2240 -0.1330 -0.0351
 2775TIP3   OH2 8330   0.933   3.162   0.395  0.6462  0.3975 -0.2039
 2775TIP3    H1 8331   0.863   3.102   0.419 -0.3856  1.3925 -0.6621
 2775TIP3    H2 8332   0.996   3.154   0.467 -0.0172 -0.3527  0.3193
 2776TIP3   OH2 8333   5.721   0.665   0.458 -0.5564 -0.3248 -0.2973
 2776TIP3    H1 8334   5.768   0.605   0.401 -0.2279 -0.0732 -0.2979
 2776TIP3    H2 8335   5.756   0.752   0.436 -0.1115 -0.2709  0.5785
 2777TIP3   OH2 8336   4.266   3.403   5.015  0.8605 -0.0826  0.1783
 2777TIP3    H1 8337   4.279   3.393   5.109  1.1707  0.0443  0.1487
 2777TIP3    H2 8338   4.271   3.497   5.000 -1.3611  0.1177  0.3535
 2778TIP3   OH2 8339   3.418   0.676   4.816  0.4330 -0.0604  0.3727
 2778TIP3    H1 8340   3.343   0.730   4.841 -0.9912 -1.2826 -1.0412
 2778TIP3    H2 8341   3.399   0.589   4.852  0.2140 -0.8516 -1.5273
 2779TIP3   OH2 8342   4.238   3.375   2.916 -0.2154 -0.3516 -0.3963
 2779TIP3    H1 8343   4.149   3.373   2.952  0.2191 -1.3504  0.6750
 2779TIP3    H2 8344   4.227   3.351   2.824 -0.9747 -1.2588 -0.0845
 2780TIP3   OH2 8345   5.348   3.299   4.135 -0.4924 -0.5888  0.2933
 2780TIP3    H1 8346   5.263   3.279   4.176  0.4916 -1.8984  1.7827
 2780TIP3    H2 8347   5.367   3.388   4.164 -1.1314 -0.4541  0.3327
 2781TIP3   OH2 8348   5.748   3.341   0.769 -0.0112  0.1862 -0.4281
 2781TIP3    H1 8349   5.706   3.422   0.739  2.4102  1.9885  0.7707
 2781TIP3    H2 8350   5.821   3.328   0.708  1.7285  0.9247  1.3987
 2782TIP3   OH2 8351   3.344   0.321   3.723 -0.1160  0.4042  0.0816
 2782TIP3    H1 8352   3.428   0.366   3.733 -0.2780  0.4135  1.5152
 2782TIP3    H2 8353   3.335   0.268   3.802 -2.5654  2.2460  1.1638
 2783TIP3   OH2 8354   0.537   1.142   0.496 -0.2632  1.7457 -0.0533
 2783TIP3    H1 8355   0.568   1.197   0.568  0.5811 -0.7115  1.5893
 2783TIP3    H2 8356   0.442   1.141   0.506 -0.1369  1.0627  1.3911
 2784TIP3   OH2 8357   2.889   1.793   4.571  0.6259 -0.3399 -0.3484
 2784TIP3    H1 8358   2.916   1.883   4.588 -2.4373  0.5811  0.3327
 2784TIP3    H2 8359   2.844   1.797   4.487 -1.8150 -0.5883  0.8595
 2785TIP3   OH2 8360   0.473   2.689   4.603 -0.1593 -0.6957 -0.0625
 2785TIP3    H1 8361   0.387   2.664   4.634 -0.6732 -0.1558 -0.9945
 2785TIP3    H2 8362   0.513   2.735   4.677 -1.6505  1.2445 -0.3563
 2786TIP3   OH2 8363   1.760   3.544   3.144  0.4641  0.0315 -0.6579
 2786TIP3    H1 8364   1.686   3.604   3.135  1.4813  1.2903 -0.9685
 2786TIP3    H2 8365   1.814   3.562   3.067  2.3743  1.0157  0.8215
 2787TIP3   OH2 8366   5.598   1.805   0.742 -0.9235  0.1598  0.7096
 2787TIP3    H1 8367   5.582   1.899   0.735 -1.0305  0.1895  1.3554
 2787TIP3    H2 8368   5.588   1.773   0.652 -1.8266  0.6144  0.6404
 2788TIP3   OH2 8369   2.594   2.297   0.506 -0.0326 -0.0347 -0.1106
 2788TIP3    H1 8370   2.653   2.260   0.441  1.4654 -0.2732  1.3169
 2788TIP3    H2 8371   2.596   2.236   0.579  0.0932  1.3102  1.0648
 2789TIP3   OH2 8372   6.036   2.738   2.722  0.7449  0.1938  0.2630
 2789TIP3    H1 8373   6.010   2.717   2.812  2.4023 -1.8232  0.3453
 2789TIP3    H2 8374   6.058   2.654   2.683  0.5854  1.0867 -1.9002
 2790TIP3   OH2 8375   5.303   1.781   3.268  0.4786  0.9466 -0.2168
 2790TIP3    H1 8376   5.214   1.803   3.242  0.5261 -0.3165 -1.6010
 2790TIP3    H2 8377   5.359   1.828   3.207  0.6531 -0.2976 -1.0699
 2791TIP3   OH2 8378   3.472   0.991   0.747  1.1459 -0.0573  0.2945
 2791TIP3    H1 8379   3.559   1.027   0.768  0.7422 -0.0174  1.9553
 2791TIP3    H2 8380   3.460   0.920   0.809  1.1503 -1.9794 -1.7607
 2792TIP3   OH2 8381   3.564   4.654   3.406 -0.4745 -0.3425 -0.1539
 2792TIP3    H1 8382   3.520   4.569   3.412  0.7305 -0.9146  0.8001
 2792TIP3    H2 8383   3.534   4.689   3.322  0.8761 -2.7935 -1.8005
 2793TIP3   OH2 8384   0.960   2.692   1.718  0.0611  0.0644 -0.0904
 2793TIP3    H1 8385   0.904   2.747   1.772 -1.2024 -2.1126  0.9715
 2793TIP3    H2 8386   0.920   2.693   1.632 -1.1399 -0.7295  0.4314
 2794TIP3   OH2 8387   4.859   0.448   4.027 -1.0950 -0.1407 -0.0442
 2794TIP3    H1 8388   4.804   0.391   4.081  0.3187 -1.2566  0.2848
 2794TIP3    H2 8389   4.883   0.520   4.086  0.2224 -1.2174  0.8237
 2795TIP3   OH2 8390   4.825   2.238   1.337  0.1938 -0.0882 -0.3567
 2795TIP3    H1 8391   4.912   2.273   1.315  0.3097  0.3529  0.7429
 2795TIP3    H2 8392   4.823   2.238   1.433 -0.7152 -0.8774 -0.3660
 2796TIP3   OH2 8393   5.442   5.650   0.596 -0.0145  0.1612  0.4013
 2796TIP3    H1 8394   5.406   5.630   0.510  0.0734 -0.0150  0.4039
 2796TIP3    H2 8395   5.516   5.590   0.605  0.7874  1.0768  0.0578
 2797TIP3   OH2 8396   1.508   1.557   3.324  0.3451 -0.2492  0.4222
 2797TIP3    H1 8397   1.588   1.582   3.370 -0.5397  0.5170  1.6062
 2797TIP3    H2 8398   1.523   1.583   3.233  1.3520  0.0640  0.6645
 2798TIP3   OH2 8399   1.316   5.647   3.248  0.2165  0.7507  0.5243
 2798TIP3    H1 8400   1.224   5.629   3.228  0.7742 -1.0942 -0.5352
 2798TIP3    H2 8401   1.326   5.624   3.340  0.2630 -2.0467 -0.0985
 2799TIP3   OH2 8402   2.381   2.997   3.904 -0.6267 -0.4344  0.1509
 2799TIP3    H1 8403   2.316   2.957   3.846 -0.3862 -0.2022 -0.2792
 2799TIP3    H2 8404   2.416   2.923   3.954 -0.3637 -0.7376 -0.4644
 2800TIP3   OH2 8405   5.860   4.268   3.468  0.6563  0.6180 -0.2495
 2800TIP3    H1 8406   5.778   4.226   3.444  0.4889  0.2439  0.9290
 2800TIP3    H2 8407   5.841   4.361   3.468  0.4183  0.5686 -0.6549
 2801TIP3   OH2 8408   2.459   5.728   0.633  0.2313 -0.0076  0.1591
 2801TIP3    H1 8409   2.460   5.642   0.675  1.6425 -0.4112 -0.6177
 2801TIP3    H2 8410   2.470   5.790   0.704  1.5352 -0.6215  0.5198
 2802TIP3   OH2 8411   5.908   4.884   4.914  0.2045 -0.3368 -0.3801
 2802TIP3    H1 8412   5.991   4.927   4.937 -0.5420  0.8176  0.2733
 2802TIP3    H2 8413   5.844   4.955   4.914 -0.8503 -1.2681 -0.5279
 2803TIP3   OH2 8414   1.881   0.970   1.956 -0.2706  0.5037  0.0973
 2803TIP3    H1 8415   1.872   0.980   2.051 -1.1901 -0.5533  0.1441
 2803TIP3    H2 8416   1.868   0.876   1.941  1.4480  0.3871 -0.9269
 2804TIP3   OH2 8417   2.213   5.421   1.178  0.0658 -0.1332 -0.5125
 2804TIP3    H1 8418   2.168   5.385   1.102 -0.0592 -0.6262 -0.2087
 2804TIP3    H2 8419   2.155   5.491   1.209  0.5552  0.6896 -1.4061
 2805TIP3   OH2 8420   1.987   2.812   2.283  0.0420 -0.2433 -0.3656
 2805TIP3    H1 8421   1.934   2.744   2.326 -0.4593  0.5407  0.2874
 2805TIP3    H2 8422   1.923   2.872   2.245  0.4041  1.1950  1.1931
 2806TIP3   OH2 8423   5.204   2.068   2.067  0.0947 -0.2386  0.0587
 2806TIP3    H1 8424   5.273   2.001   2.066  0.3992  0.0510 -1.9352
 2806TIP3    H2 8425   5.249   2.149   2.090  0.0982 -0.3476  0.4429
 2807TIP3   OH2 8426   5.605   1.438   3.852 -0.1134 -0.5351  0.1136
 2807TIP3    H1 8427   5.545   1.501   3.892  1.0513  1.1699 -0.7261
 2807TIP3    H2 8428   5.692   1.472   3.870  0.6167 -2.3756  0.3543
 2808TIP3   OH2 8429   2.874   4.704   3.598  0.6741 -0.4983 -0.2023
 2808TIP3    H1 8430   2.835   4.783   3.635  1.8949  0.1454 -0.2548
 2808TIP3    H2 8431   2.852   4.707   3.505 -2.3064 -2.0642  0.3235
 2809TIP3   OH2 8432   3.217   4.098   1.577 -0.2040 -0.1588  0.0631
 2809TIP3    H1 8433   3.190   4.175   1.526  0.5789 -0.8960 -1.5110
 2809TIP3    H2 8434   3.311   4.110   1.591  0.1670 -1.3957 -1.2396
 2810TIP3   OH2 8435   1.325   5.084   2.052 -0.4265  0.3073  0.4817
 2810TIP3    H1 8436   1.231   5.080   2.033 -0.6387  0.7826  1.3342
 2810TIP3    H2 8437   1.332   5.147   2.124  0.5029 -0.0096  0.6916
 2811TIP3   OH2 8438   5.855   5.914   4.512 -0.1620 -0.6121 -0.5066
 2811TIP3    H1 8439   5.796   5.864   4.569  1.2539 -0.2999  1.3489
 2811TIP3    H2 8440   5.890   5.850   4.451 -0.6919 -1.2508 -0.1517
 2812TIP3   OH2 8441   2.041   5.033   0.351  0.5541 -0.7241 -0.7006
 2812TIP3    H1 8442   2.137   5.024   0.353  0.6443 -0.5397 -2.5699
 2812TIP3    H2 8443   2.025   5.114   0.302 -0.5578  1.1869  2.5082
 2813TIP3   OH2 8444   3.299   0.407   2.427  0.2326 -0.3122  0.5508
 2813TIP3    H1 8445   3.222   0.384   2.479  0.3314 -0.4130  0.6543
 2813TIP3    H2 8446   3.342   0.477   2.478 -0.5838  0.7946 -0.2349
 2814TIP3   OH2 8447   5.562   2.912   5.083 -0.0160  0.3891  0.0893
 2814TIP3    H1 8448   5.531   2.840   5.138  1.7228 -0.6709 -0.2463
 2814TIP3    H2 8449   5.642   2.942   5.126  0.5376  0.5682 -1.0436
 2815TIP3   OH2 8450   5.760   2.010   0.365 -0.0542  1.0778 -0.1313
 2815TIP3    H1 8451   5.677   2.056   0.367 -1.5496 -1.3669 -1.2245
 2815TIP3    H2 8452   5.752   1.948   0.292  2.2708 -0.0460  0.4465
 2816TIP3   OH2 8453   3.909   2.775   0.429  0.3522  0.4096 -0.3852
 2816TIP3    H1 8454   3.911   2.693   0.477 -1.2168  0.4863 -0.1458
 2816TIP3    H2 8455   3.949   2.755   0.345  3.1402  0.2709  0.8557
 2817TIP3   OH2 8456   3.843   0.590   4.300 -0.2096 -0.1171 -0.2243
 2817TIP3    H1 8457   3.880   0.677   4.317 -0.4372 -0.0266 -0.1865
 2817TIP3    H2 8458   3.766   0.607   4.246 -0.9686 -0.1917  0.8228
 2818TIP3   OH2 8459   2.913   2.924   4.040 -0.6414  0.2220 -0.4781
 2818TIP3    H1 8460   2.873   2.886   3.962 -0.0441  0.8527 -1.1129
 2818TIP3    H2 8461   2.860   3.001   4.060 -0.3968  0.4468 -0.6780
 2819TIP3   OH2 8462   3.308   0.285   1.683 -0.4854  0.2788 -0.1967
 2819TIP3    H1 8463   3.376   0.269   1.748 -0.0659  1.0513 -0.4264
 2819TIP3    H2 8464   3.229   0.247   1.720 -0.4700  1.5447  1.2032
 2820TIP3   OH2 8465   4.846   1.234   1.855  0.2073 -0.0217 -0.0094
 2820TIP3    H1 8466   4.850   1.150   1.901 -0.4439  0.4811  1.0059
 2820TIP3    H2 8467   4.788   1.219   1.782 -0.6425 -0.2339  0.6947
 2821TIP3   OH2 8468   3.191   0.898   4.181 -0.3955 -0.3223  0.1146
 2821TIP3    H1 8469   3.128   0.829   4.202 -0.1981 -0.3142  0.7351
 2821TIP3    H2 8470   3.183   0.961   4.252 -1.0961  0.6726 -0.8166
 2822TIP3   OH2 8471   5.010   4.696   0.176 -0.3912 -0.4678  0.1306
 2822TIP3    H1 8472   4.930   4.692   0.124  0.6077 -0.4160 -1.4689
 2822TIP3    H2 8473   5.081   4.690   0.112  0.9026 -1.5664  1.5933
 2823TIP3   OH2 8474   0.306   3.541   1.720  0.2438  0.0390  0.2009
 2823TIP3    H1 8475   0.222   3.584   1.736 -0.0761 -0.0846 -1.0206
 2823TIP3    H2 8476   0.289   3.448   1.736 -0.0640 -0.0796 -0.7413
 2824TIP3   OH2 8477   1.198   0.109   1.393 -0.3481 -0.6112  0.0563
 2824TIP3    H1 8478   1.124   0.067   1.349  1.5977 -2.3818 -1.7760
 2824TIP3    H2 8479   1.274   0.060   1.362  1.5750  0.8784  2.1517
 2825TIP3   OH2 8480   0.319   5.743   3.779  0.1301  0.1211 -0.1318
 2825TIP3    H1 8481   0.338   5.678   3.712 -0.5817 -0.5763  0.3196
 2825TIP3    H2 8482   0.284   5.692   3.852  2.9662  0.5418  1.7046
 2826TIP3   OH2 8483   3.309   2.715   4.591  0.0216 -0.0641 -0.0434
 2826TIP3    H1 8484   3.221   2.730   4.625 -0.3695 -1.7323 -0.1946
 2826TIP3    H2 8485   3.301   2.729   4.496 -0.6832 -2.3136 -0.3862
 2827TIP3   OH2 8486   5.254   1.634   0.266 -0.9667  0.3810 -0.0819
 2827TIP3    H1 8487   5.294   1.698   0.207 -0.0771 -1.1574 -1.2191
 2827TIP3    H2 8488   5.164   1.625   0.234 -0.4003 -0.6913 -1.5147
 2828TIP3   OH2 8489   6.025   5.895   5.194 -0.4607  0.2506 -0.1856
 2828TIP3    H1 8490   5.948   5.860   5.150  0.0506 -1.7401  0.4056
 2828TIP3    H2 8491   6.051   5.970   5.141 -2.2348  0.3832 -0.9236
 2829TIP3   OH2 8492   1.726   2.876   2.197  0.0561 -0.1404 -0.1966
 2829TIP3    H1 8493   1.724   2.911   2.286  2.9000  3.5846 -1.3554
 2829TIP3    H2 8494   1.650   2.916   2.155  0.1727  0.1923 -0.0954
 2830TIP3   OH2 8495   2.212   1.035   4.412 -0.5617 -0.0956  0.2839
 2830TIP3    H1 8496   2.294   1.078   4.391 -0.4346 -0.8243 -0.7714
 2830TIP3    H2 8497   2.235   0.971   4.480 -0.6516  1.0817  1.4533
 2831TIP3   OH2 8498   1.461   3.368   3.098 -0.0821  0.3347  0.0432
 2831TIP3    H1 8499   1.449   3.462   3.084 -1.8035  0.0535 -0.5839
 2831TIP3    H2 8500   1.435   3.328   3.015  0.5327 -0.7121  0.3354
 2832TIP3   OH2 8501   2.143   3.900   4.866  0.0721  0.4014  0.6504
 2832TIP3    H1 8502   2.163   3.847   4.943 -0.0227 -0.2035  0.2672
 2832TIP3    H2 8503   2.224   3.900   4.815  0.0508  0.5724  0.6145
 2833TIP3   OH2 8504   1.504   5.465   2.323  0.4457  0.0177 -0.2641
 2833TIP3    H1 8505   1.450   5.509   2.389  0.2271 -0.0871 -0.3735
 2833TIP3    H2 8506   1.573   5.529   2.303  1.5120 -0.5698  1.3010
 2834TIP3   OH2 8507   5.133   5.772   1.932 -0.0206 -0.2079  0.1057
 2834TIP3    H1 8508   5.163   5.740   1.847 -0.2536  1.4035 -0.6230
 2834TIP3    H2 8509   5.212   5.810   1.972 -0.3396  0.9295 -0.3197
 2835TIP3   OH2 8510   0.129   1.403   4.077 -0.5244  0.5313 -0.3323
 2835TIP3    H1 8511   0.121   1.444   3.991 -0.1078 -2.7668 -2.1419
 2835TIP3    H2 8512   0.065   1.331   4.075  0.9455 -0.9123  1.2282
 2836TIP3   OH2 8513   1.147   3.206   3.005  0.3270 -0.4554  0.3729
 2836TIP3    H1 8514   1.178   3.244   2.922  1.6081 -2.1190  0.0206
 2836TIP3    H2 8515   1.152   3.278   3.068  1.2040  0.3555 -0.5806
 2837TIP3   OH2 8516   6.370   2.100   5.127  0.1151 -0.4927 -0.4235
 2837TIP3    H1 8517   6.319   2.152   5.189  0.1878 -0.5770 -0.2959
 2837TIP3    H2 8518   6.342   2.133   5.041  1.3813  0.9407 -0.3218
 2838TIP3   OH2 8519   5.736   2.546   1.131  0.0753  0.3075 -0.4655
 2838TIP3    H1 8520   5.695   2.619   1.084  0.7655  1.7637  1.0821
 2838TIP3    H2 8521   5.807   2.518   1.074  0.1033  1.1783 -0.8844
 2839TIP3   OH2 8522   0.776   4.222   1.136 -0.4238 -0.2844  0.5901
 2839TIP3    H1 8523   0.771   4.302   1.187  0.4247  0.2543 -0.1415
 2839TIP3    H2 8524   0.691   4.180   1.150 -1.6800  1.6890 -0.5237
 2840TIP3   OH2 8525   0.958   4.356   3.527 -0.2076 -0.7153 -0.1528
 2840TIP3    H1 8526   0.978   4.446   3.551 -0.0103 -0.3838 -1.4876
 2840TIP3    H2 8527   0.992   4.346   3.438  3.6944 -3.4179  1.3905
 2841TIP3   OH2 8528   2.253   4.009   1.531 -0.7724 -0.1045 -0.1841
 2841TIP3    H1 8529   2.319   3.981   1.595 -0.6151 -2.0584 -1.1167
 2841TIP3    H2 8530   2.229   4.097   1.559  1.4062  0.2492  0.8631
 2842TIP3   OH2 8531   5.984   4.653   2.073  0.4134  0.3034 -0.0373
 2842TIP3    H1 8532   6.019   4.640   2.161  1.4848  1.5573 -0.2328
 2842TIP3    H2 8533   5.949   4.742   2.074 -0.9828 -0.2215 -0.4421
 2843TIP3   OH2 8534   3.631   4.527   5.138  0.7383 -0.0151  0.1683
 2843TIP3    H1 8535   3.637   4.454   5.075  0.6290 -2.5386  2.8797
 2843TIP3    H2 8536   3.722   4.553   5.152  0.8245  0.0282 -0.4410
 2844TIP3   OH2 8537   3.943   5.034   1.383 -0.0961 -0.3806 -0.3505
 2844TIP3    H1 8538   3.987   5.066   1.462  0.2023 -0.0008 -0.6713
 2844TIP3    H2 8539   3.979   5.086   1.312 -3.1774  2.0472 -0.3212
 2845TIP3   OH2 8540   2.322   4.476   0.740 -0.3952 -0.2479  0.0394
 2845TIP3    H1 8541   2.346   4.453   0.650  0.1904 -1.5474  0.5081
 2845TIP3    H2 8542   2.270   4.402   0.771  0.4616 -0.4098  1.1720
 2846TIP3   OH2 8543   1.588   4.820   0.972 -0.5449  0.0446 -0.1732
 2846TIP3    H1 8544   1.512   4.813   0.915 -0.2584  2.4076 -0.9797
 2846TIP3    H2 8545   1.567   4.892   1.032  1.2283  1.1425 -0.7845
 2847TIP3   OH2 8546   4.302   5.624   2.278  0.2124 -0.2672  0.2507
 2847TIP3    H1 8547   4.349   5.617   2.361  0.4309  0.7132  0.2139
 2847TIP3    H2 8548   4.238   5.693   2.292  0.2078 -0.1378 -0.3804
 2848TIP3   OH2 8549   5.621   4.283   3.661  0.2982 -0.9667 -0.7935
 2848TIP3    H1 8550   5.544   4.337   3.643  0.8593 -0.0539 -0.4891
 2848TIP3    H2 8551   5.633   4.231   3.582 -0.4338 -0.8788 -0.9691
 2849TIP3   OH2 8552   4.070   1.374   0.250 -0.7913 -0.4849  0.0418
 2849TIP3    H1 8553   4.109   1.462   0.246 -0.3839 -0.6892 -0.8386
 2849TIP3    H2 8554   4.130   1.323   0.304  0.0354 -0.7194 -1.0629
 2850TIP3   OH2 8555   4.017   5.244   1.819  0.1243  0.4825 -0.7523
 2850TIP3    H1 8556   4.020   5.178   1.750 -1.2429 -0.7216  0.2857
 2850TIP3    H2 8557   4.033   5.195   1.899 -2.5516  1.0241  0.2313
 2851TIP3   OH2 8558   4.102   3.768   1.107  0.2594  0.8780  0.7045
 2851TIP3    H1 8559   4.104   3.822   1.028 -1.8920  0.5561  0.3597
 2851TIP3    H2 8560   4.043   3.696   1.086  0.3571  0.2764  2.3005
 2852TIP3   OH2 8561   5.685   0.882   3.791 -0.4885 -0.0158  0.1471
 2852TIP3    H1 8562   5.693   0.913   3.882 -0.6374  0.9039 -0.1403
 2852TIP3    H2 8563   5.765   0.913   3.749  0.1446 -1.4681  0.2362
 2853TIP3   OH2 8564   4.571   5.591   1.577 -0.2153  0.1320  0.1654
 2853TIP3    H1 8565   4.561   5.499   1.599  1.2960 -0.2794 -0.7339
 2853TIP3    H2 8566   4.481   5.625   1.576 -0.7742 -1.2456  0.7879
 2854TIP3   OH2 8567   0.401   0.088   2.977 -0.3233 -0.0110 -0.5432
 2854TIP3    H1 8568   0.347   0.147   3.030  0.5821 -0.8565  1.4524
 2854TIP3    H2 8569   0.484   0.135   2.967 -0.0779 -0.3497 -0.1442
 2855TIP3   OH2 8570   2.279   2.805   4.359 -0.1082  0.6140  0.2585
 2855TIP3    H1 8571   2.374   2.815   4.347 -0.0470  1.8489  1.5095
 2855TIP3    H2 8572   2.256   2.871   4.424 -1.6000 -0.6275  1.0585
 2856TIP3   OH2 8573   1.448   5.128   2.965 -0.5827  0.0353  0.0062
 2856TIP3    H1 8574   1.534   5.160   2.993 -0.9552  0.7393  0.3750
 2856TIP3    H2 8575   1.467   5.061   2.899  0.2870 -0.9720  1.2494
 2857TIP3   OH2 8576   3.996   1.196   4.325  0.3836  0.6865 -0.1536
 2857TIP3    H1 8577   4.070   1.165   4.378  0.4647  0.5487 -0.3459
 2857TIP3    H2 8578   4.028   1.194   4.235  0.1225  0.5512 -0.2462
 2858TIP3   OH2 8579   0.868   3.627   1.721 -1.2159  0.3427  0.6257
 2858TIP3    H1 8580   0.854   3.709   1.769  1.7352  0.7087  1.0763
 2858TIP3    H2 8581   0.830   3.643   1.634  1.1031  3.0865 -0.0365
 2859TIP3   OH2 8582   3.675   0.922   2.270 -0.3102  0.7531  0.0570
 2859TIP3    H1 8583   3.607   0.990   2.279  0.2360  1.3502 -0.2406
 2859TIP3    H2 8584   3.739   0.943   2.338 -0.7014 -0.1584  0.7227
 2860TIP3   OH2 8585   6.189   0.615   1.001  0.0491 -0.1967 -0.3017
 2860TIP3    H1 8586   6.140   0.672   1.060  0.1548 -0.0287 -0.3727
 2860TIP3    H2 8587   6.138   0.615   0.920  1.3036  1.8373 -1.1805
 2861TIP3   OH2 8588   0.345   5.799   4.208  0.2296 -0.4194  0.1360
 2861TIP3    H1 8589   0.263   5.795   4.257 -0.0323  0.3776 -0.2219
 2861TIP3    H2 8590   0.413   5.784   4.275 -0.1906 -1.0065  0.4441
 2862TIP3   OH2 8591   4.079   3.089   4.937  0.0997  1.1854 -0.2182
 2862TIP3    H1 8592   4.015   3.031   4.979  1.6883 -0.9845 -0.6456
 2862TIP3    H2 8593   4.053   3.089   4.845  1.4278 -0.8734 -0.6701
 2863TIP3   OH2 8594   1.880   3.517   0.763  0.4302  0.6033  0.2565
 2863TIP3    H1 8595   1.873   3.425   0.737  0.0785 -0.2849  3.1733
 2863TIP3    H2 8596   1.975   3.532   0.769  0.5379  0.9483 -1.7037
 2864TIP3   OH2 8597   1.336   4.368   3.218  0.1096  0.4171 -0.1715
 2864TIP3    H1 8598   1.310   4.277   3.205 -0.5108  0.8336 -2.0313
 2864TIP3    H2 8599   1.412   4.380   3.161 -0.3324  1.2918 -0.5920
 2865TIP3   OH2 8600   3.006   0.905   3.024 -0.1067  0.8225 -0.4407
 2865TIP3    H1 8601   2.980   0.841   3.090  1.0037 -0.2519 -0.9993
 2865TIP3    H2 8602   3.100   0.891   3.013 -0.0403  1.8278 -1.3604
 2866TIP3   OH2 8603   5.460   2.034   3.597 -0.2683  0.8036  0.4013
 2866TIP3    H1 8604   5.463   2.089   3.674 -0.9017  1.6952 -0.1930
 2866TIP3    H2 8605   5.476   2.093   3.524  0.5270 -0.0561 -0.1479
 2867TIP3   OH2 8606   4.061   5.821   2.163 -0.3060  0.0222  0.3558
 2867TIP3    H1 8607   4.011   5.900   2.144  1.7610  1.4713  0.6571
 2867TIP3    H2 8608   4.083   5.829   2.256  1.4876  0.0663 -0.0403
 2868TIP3   OH2 8609   2.746   0.375   2.519  0.5369  0.0764  0.1991
 2868TIP3    H1 8610   2.775   0.371   2.610  0.3976  1.0738  0.2976
 2868TIP3    H2 8611   2.790   0.452   2.483  0.8912 -0.5275 -0.6910
 2869TIP3   OH2 8612   3.869   0.854   4.056 -0.2187 -0.0684 -0.8768
 2869TIP3    H1 8613   3.831   0.770   4.030  1.9710 -1.2817 -0.4867
 2869TIP3    H2 8614   3.795   0.914   4.062 -2.0986 -2.3577  0.3827
 2870TIP3   OH2 8615   2.640   2.649   3.342  0.1510 -0.3037 -0.3237
 2870TIP3    H1 8616   2.559   2.673   3.388 -0.5141 -2.1138 -0.4664
 2870TIP3    H2 8617   2.708   2.700   3.385 -0.8209 -0.0349  0.9663
 2871TIP3   OH2 8618   0.473   4.521   2.103 -0.2165  0.0444 -0.0602
 2871TIP3    H1 8619   0.526   4.529   2.182 -2.2757  0.3268  1.3863
 2871TIP3    H2 8620   0.383   4.530   2.134 -1.0818  0.6324 -2.5229
 2872TIP3   OH2 8621   3.868   4.719   2.150 -0.1008  0.4472  0.0816
 2872TIP3    H1 8622   3.801   4.761   2.096  0.4637  0.5399 -0.5630
 2872TIP3    H2 8623   3.820   4.681   2.223 -0.7795  1.0430 -0.0471
 2873TIP3   OH2 8624   1.253   4.252   3.708 -0.2263 -0.1790 -0.5258
 2873TIP3    H1 8625   1.310   4.273   3.781 -0.2824  1.4660 -0.9139
 2873TIP3    H2 8626   1.166   4.280   3.736 -0.2348  0.5406 -1.2371
 2874TIP3   OH2 8627   5.872   1.646   4.793 -0.3948  0.0796 -0.4854
 2874TIP3    H1 8628   5.915   1.716   4.743  1.3350 -1.0476 -0.6528
 2874TIP3    H2 8629   5.807   1.692   4.846  0.5142  1.7963 -0.7709
 2875TIP3   OH2 8630   5.301   1.193   5.107  0.1726  0.4771 -0.4177
 2875TIP3    H1 8631   5.374   1.172   5.165  0.2594 -0.0322 -0.7015
 2875TIP3    H2 8632   5.295   1.289   5.109  0.0228  0.4523  0.6047
 2876TIP3   OH2 8633   1.878   2.696   0.794  0.5916  0.0608  0.0356
 2876TIP3    H1 8634   1.816   2.627   0.815  0.1249  0.7060  0.8286
 2876TIP3    H2 8635   1.870   2.709   0.699  0.0360 -0.3482  0.0280
 2877TIP3   OH2 8636   4.862   1.679   3.218  0.0727 -0.3887 -0.0612
 2877TIP3    H1 8637   4.858   1.589   3.188 -0.1044 -0.6359  0.6737
 2877TIP3    H2 8638   4.770   1.703   3.232  0.1096 -0.0460 -0.3782
 2878TIP3   OH2 8639   2.686   3.919   1.906  0.1679 -0.4358  0.1400
 2878TIP3    H1 8640   2.770   3.909   1.952  0.2936  1.0512  0.2684
 2878TIP3    H2 8641   2.638   3.983   1.958  1.3030  3.3544 -3.0106
 2879TIP3   OH2 8642   4.922   1.466   2.532  0.0581  0.0896 -0.5421
 2879TIP3    H1 8643   4.961   1.461   2.619 -0.5859 -1.6030 -0.3131
 2879TIP3    H2 8644   4.844   1.520   2.544  0.3649  0.4713 -0.2403
 2880TIP3   OH2 8645   5.075   3.947   0.169 -0.9595  0.4988  0.1391
 2880TIP3    H1 8646   4.983   3.972   0.166 -1.1734 -0.2204  0.6275
 2880TIP3    H2 8647   5.121   4.027   0.196 -1.4650  0.7865  0.1498
 2881TIP3   OH2 8648   5.111   2.914   4.559 -0.8803 -0.0843 -0.2620
 2881TIP3    H1 8649   5.108   2.861   4.479 -1.6774  0.8569 -0.8893
 2881TIP3    H2 8650   5.022   2.948   4.568 -0.9109 -0.5476  1.3032
 2882TIP3   OH2 8651   1.363   3.027   2.599 -0.3753 -0.0913 -0.4178
 2882TIP3    H1 8652   1.283   3.033   2.548 -1.1292  3.1102  0.8970
 2882TIP3    H2 8653   1.334   3.015   2.689  0.6263  0.6172  0.0210
 2883TIP3   OH2 8654   5.088   1.489   0.886  0.0187 -0.2871  0.1213
 2883TIP3    H1 8655   5.034   1.548   0.938 -0.0774  0.5629 -0.9135
 2883TIP3    H2 8656   5.149   1.547   0.840  0.5399 -1.0770 -0.2057
 2884TIP3   OH2 8657   0.771   5.461   1.928 -0.2140  0.2844  1.0240
 2884TIP3    H1 8658   0.752   5.391   1.990 -0.6542 -0.4369  0.0834
 2884TIP3    H2 8659   0.825   5.421   1.860 -0.3454  0.8828  0.5494
 2885TIP3   OH2 8660   4.133   3.732   1.401 -0.3001 -0.7056 -0.1326
 2885TIP3    H1 8661   4.128   3.638   1.413  0.0240 -0.7988 -0.6894
 2885TIP3    H2 8662   4.140   3.744   1.306 -1.6381 -0.0583 -0.1779
 2886TIP3   OH2 8663   5.675   1.095   3.168  0.1775  0.5114  0.0961
 2886TIP3    H1 8664   5.588   1.127   3.193  0.3739  0.6070  0.6814
 2886TIP3    H2 8665   5.657   1.012   3.124 -0.1544 -0.0792  1.2919
 2887TIP3   OH2 8666   0.178   2.752   1.850 -0.3803 -0.4286 -0.0906
 2887TIP3    H1 8667   0.218   2.711   1.773  0.3802  0.2202 -0.0493
 2887TIP3    H2 8668   0.249   2.801   1.891 -1.2327  0.8168 -0.0458
 2888TIP3   OH2 8669   0.183   4.117   2.731  0.2133  0.2418 -0.0364
 2888TIP3    H1 8670   0.224   4.141   2.815 -1.6785  0.3238  0.9165
 2888TIP3    H2 8671   0.222   4.178   2.668  0.1562  1.6154  1.1861
 2889TIP3   OH2 8672   6.202   1.702   4.728 -0.3850 -0.0104 -0.4584
 2889TIP3    H1 8673   6.290   1.708   4.693  0.3283  2.2788  1.4767
 2889TIP3    H2 8674   6.166   1.623   4.689  2.8798 -1.6263 -0.5083
 2890TIP3   OH2 8675   4.712   1.643   2.605  0.1268  0.2325  0.4795
 2890TIP3    H1 8676   4.639   1.684   2.559  0.3592 -0.7709 -0.8331
 2890TIP3    H2 8677   4.687   1.647   2.698 -1.6783 -0.2393  0.0488
 2891TIP3   OH2 8678   5.105   3.699   0.268 -0.0720  0.0972 -0.1054
 2891TIP3    H1 8679   5.109   3.793   0.249  0.4698  0.1453  0.2371
 2891TIP3    H2 8680   5.018   3.687   0.307  0.7262  0.8839  2.0407
 2892TIP3   OH2 8681   3.045   1.640   4.783  0.2368  0.2647 -0.8027
 2892TIP3    H1 8682   3.008   1.683   4.706 -0.0469  2.7714  0.6320
 2892TIP3    H2 8683   3.014   1.693   4.857  2.0008 -0.9634  0.8972
 2893TIP3   OH2 8684   2.588   0.690   2.176  0.0725 -0.5475  0.0244
 2893TIP3    H1 8685   2.529   0.685   2.101 -1.6081 -0.5647  1.2879
 2893TIP3    H2 8686   2.531   0.711   2.250  1.6866 -0.4389  1.2941
 2894TIP3   OH2 8687   5.895   0.757   4.585 -0.5255 -0.2365 -0.4615
 2894TIP3    H1 8688   5.802   0.764   4.565 -0.3451  1.3713 -0.9247
 2894TIP3    H2 8689   5.912   0.829   4.646  0.5123 -0.1355 -0.8475
 2895TIP3   OH2 8690   5.297   4.681   2.987 -0.1789  0.5652  0.0432
 2895TIP3    H1 8691   5.371   4.728   2.949 -0.0985 -0.3787 -1.0335
 2895TIP3    H2 8692   5.221   4.734   2.963  0.1142  1.4228  0.9657
 2896TIP3   OH2 8693   6.257   3.586   0.507  0.3859 -0.7642  0.0859
 2896TIP3    H1 8694   6.342   3.604   0.467  1.4921 -1.7923  1.8939
 2896TIP3    H2 8695   6.238   3.495   0.485 -1.2230 -0.0423 -1.9073
 2897TIP3   OH2 8696   2.830   4.808   2.775  0.0460 -0.8907 -0.0724
 2897TIP3    H1 8697   2.892   4.740   2.747 -0.2223 -1.0869 -0.1983
 2897TIP3    H2 8698   2.885   4.876   2.815  0.3795 -0.8672 -0.5687
 2898TIP3   OH2 8699   0.596   5.852   0.784  0.4660  0.2942  0.3008
 2898TIP3    H1 8700   0.642   5.932   0.758 -0.5590  0.4899 -1.0047
 2898TIP3    H2 8701   0.529   5.883   0.845 -1.0590  0.7209 -1.5224
 2899TIP3   OH2 8702   0.396   1.097   4.313 -0.5053  0.2361 -0.2488
 2899TIP3    H1 8703   0.371   1.176   4.266  0.1936 -0.5586 -2.0725
 2899TIP3    H2 8704   0.343   1.098   4.393 -0.0680  2.8192  0.0954
 2900TIP3   OH2 8705   2.847   2.024   2.448  0.3253 -0.2748 -0.1105
 2900TIP3    H1 8706   2.818   1.992   2.534  1.0318 -1.2997 -0.2367
 2900TIP3    H2 8707   2.885   2.110   2.467 -0.1284 -0.2009  0.4945
 2901TIP3   OH2 8708   0.504   3.453   0.598 -0.7389 -0.1464 -0.1514
 2901TIP3    H1 8709   0.492   3.467   0.504  0.3737  0.4638 -0.2228
 2901TIP3    H2 8710   0.427   3.404   0.626 -1.5099  0.4349 -1.2152
 2902TIP3   OH2 8711   6.231   4.866   0.467 -0.2710  0.0639 -0.2726
 2902TIP3    H1 8712   6.199   4.816   0.542 -2.9367  0.5706 -0.9783
 2902TIP3    H2 8713   6.267   4.800   0.407 -2.9901 -1.0044 -0.8423
 2903TIP3   OH2 8714   1.351   1.237   2.533  0.1819  0.3460  0.1056
 2903TIP3    H1 8715   1.306   1.319   2.555  3.0366  1.5026  2.3351
 2903TIP3    H2 8716   1.390   1.254   2.447 -1.1402  0.4257 -0.4942
 2904TIP3   OH2 8717   2.952   1.346   5.014  0.0714  0.5555 -0.0802
 2904TIP3    H1 8718   2.882   1.317   4.956  0.7847  0.3218 -0.8430
 2904TIP3    H2 8719   3.006   1.405   4.960  0.9832  0.0007  0.1932
 2905TIP3   OH2 8720   5.887   3.412   2.608 -0.0829 -0.1865 -0.2710
 2905TIP3    H1 8721   5.910   3.490   2.658  0.1439  1.0051 -2.1105
 2905TIP3    H2 8722   5.958   3.351   2.624  0.6232  0.6537 -0.1437
 2906TIP3   OH2 8723   6.055  -0.027   1.341  0.1323  0.0291 -0.3892
 2906TIP3    H1 8724   6.084   0.035   1.408 -0.7570 -0.1766  0.1919
 2906TIP3    H2 8725   5.967   0.001   1.318 -0.0030 -0.5906 -0.6521
 2907TIP3   OH2 8726   4.016   3.974   2.944  0.3318 -0.4377 -0.1535
 2907TIP3    H1 8727   3.967   3.892   2.938 -0.4855 -0.0160  0.5518
 2907TIP3    H2 8728   4.040   3.994   2.853 -2.0600  0.0708 -0.7306
 2908TIP3   OH2 8729   3.329   3.675   0.858  0.3065  0.2221 -0.4266
 2908TIP3    H1 8730   3.405   3.669   0.915 -0.0964  0.3269  0.1337
 2908TIP3    H2 8731   3.281   3.593   0.873 -1.3665  1.4883  1.6821
 2909TIP3   OH2 8732   0.888   2.939   3.712  0.5177 -1.2835 -0.1055
 2909TIP3    H1 8733   0.887   2.893   3.795  1.2768  0.1291  0.7352
 2909TIP3    H2 8734   0.797   2.936   3.681 -0.6369  1.2296  2.5917
 2910TIP3   OH2 8735   4.238   4.075   3.210 -0.2364  0.5303 -0.4991
 2910TIP3    H1 8736   4.291   3.996   3.198 -1.2493  0.0312 -2.0972
 2910TIP3    H2 8737   4.263   4.108   3.296  1.0033 -0.9283 -0.2513
 2911TIP3   OH2 8738   1.196   0.840   2.256 -0.4239 -0.2167 -0.7388
 2911TIP3    H1 8739   1.125   0.831   2.193 -2.0998 -2.7239  1.2793
 2911TIP3    H2 8740   1.157   0.891   2.328 -0.1553 -1.3818  0.2702
 2912TIP3   OH2 8741   0.757   3.362   4.814  0.0944 -0.4530  0.2126
 2912TIP3    H1 8742   0.727   3.434   4.759  0.0549 -0.3115  0.4181
 2912TIP3    H2 8743   0.853   3.369   4.813  0.1496 -1.1937 -0.8308
 2913TIP3   OH2 8744   3.272   1.075   3.670 -0.3494  0.8598  0.9136
 2913TIP3    H1 8745   3.288   1.164   3.704 -0.8920  0.2259  3.0302
 2913TIP3    H2 8746   3.229   1.030   3.743  0.4519 -1.3261  0.1069
 2914TIP3   OH2 8747   1.317   0.691   1.474  0.3966  0.1367 -0.6253
 2914TIP3    H1 8748   1.367   0.609   1.471 -0.2994 -0.3972  1.0674
 2914TIP3    H2 8749   1.230   0.666   1.444 -0.4911 -0.3557  2.1010
 2915TIP3   OH2 8750   4.838   3.656   4.324  0.0952 -0.0965  0.0267
 2915TIP3    H1 8751   4.749   3.659   4.287 -0.1893  0.9592  0.7502
 2915TIP3    H2 8752   4.888   3.606   4.260 -0.5515  1.0566 -1.4497
 2916TIP3   OH2 8753   4.090   1.348   4.082 -0.4837  0.0049 -0.2733
 2916TIP3    H1 8754   4.109   1.440   4.066 -1.7805  0.7011  1.7525
 2916TIP3    H2 8755   3.997   1.338   4.060 -0.7654 -0.3983  1.0137
 2917TIP3   OH2 8756   1.887   3.571   1.495  0.1993  0.1878  0.3432
 2917TIP3    H1 8757   1.904   3.637   1.428 -0.7003  0.2774  0.1856
 2917TIP3    H2 8758   1.878   3.489   1.446 -0.9793  0.3399  0.2864
 2918TIP3   OH2 8759   2.893   5.293   0.847  0.2148 -0.4196  0.2984
 2918TIP3    H1 8760   2.979   5.322   0.814 -0.6548 -1.3844 -3.3018
 2918TIP3    H2 8761   2.907   5.202   0.872  0.3195 -0.5032 -0.0502
 2919TIP3   OH2 8762   1.149   0.796   4.829  0.4766 -0.7069 -0.1077
 2919TIP3    H1 8763   1.206   0.739   4.880  1.1692  1.8045  2.1450
 2919TIP3    H2 8764   1.066   0.797   4.877  0.8188  0.9281  0.5323
 2920TIP3   OH2 8765   3.184   5.787   2.070 -0.1433  0.4730 -0.0059
 2920TIP3    H1 8766   3.166   5.749   1.984 -0.7284 -0.0648  0.3507
 2920TIP3    H2 8767   3.225   5.872   2.050 -0.3640  0.3981 -0.8120
 2921TIP3   OH2 8768   3.133   3.130   2.109  0.1463 -1.0381  0.5582
 2921TIP3    H1 8769   3.072   3.178   2.165 -0.4281 -0.6663 -0.3613
 2921TIP3    H2 8770   3.189   3.198   2.070  0.6176 -1.3012  0.7718
 2922TIP3   OH2 8771   2.711   0.246   1.790  0.1227 -0.0771 -0.2542
 2922TIP3    H1 8772   2.671   0.211   1.711  0.1024  1.0533 -0.7719
 2922TIP3    H2 8773   2.665   0.203   1.862  1.1102 -2.1863 -0.8385
 2923TIP3   OH2 8774   5.053   5.396   2.571  0.9447 -0.5094  0.0957
 2923TIP3    H1 8775   5.034   5.412   2.478 -0.3679  1.8581  0.6877
 2923TIP3    H2 8776   5.015   5.471   2.616 -1.1904 -3.0323  2.8740
 2924TIP3   OH2 8777   2.730   2.202   0.181 -0.4304  0.3974  0.3233
 2924TIP3    H1 8778   2.731   2.107   0.188  0.2750  0.2890 -0.9620
 2924TIP3    H2 8779   2.800   2.232   0.239 -0.1119  0.0711  0.1120
 2925TIP3   OH2 8780   5.885   3.098   0.138  0.1718  0.1486 -0.0592
 2925TIP3    H1 8781   5.974   3.091   0.173  0.1767 -0.6799 -0.2133
 2925TIP3    H2 8782   5.866   3.010   0.104 -0.7661  0.2641  0.1368
 2926TIP3   OH2 8783   0.476   1.464   0.417 -0.3051 -0.4204  0.4913
 2926TIP3    H1 8784   0.409   1.406   0.453  0.5066 -1.3361  0.5707
 2926TIP3    H2 8785   0.473   1.449   0.322 -2.2096  1.7395  0.1265
 2927TIP3   OH2 8786   5.379   2.748   0.834 -0.2431 -0.0695 -0.0536
 2927TIP3    H1 8787   5.341   2.758   0.922 -0.4694  2.7139 -0.3884
 2927TIP3    H2 8788   5.320   2.686   0.790 -0.8047 -0.6007  1.3774
 2928TIP3   OH2 8789   5.455   2.023   4.995  0.7713 -0.4289 -0.4253
 2928TIP3    H1 8790   5.414   1.971   5.064 -0.2134  1.5123  0.5383
 2928TIP3    H2 8791   5.537   2.053   5.034  0.0579  0.9458  0.0880
 2929TIP3   OH2 8792   1.755   1.581   4.793  0.5753 -0.2737 -0.6631
 2929TIP3    H1 8793   1.696   1.607   4.864  0.3211 -1.0950 -0.5585
 2929TIP3    H2 8794   1.701   1.587   4.714  0.5394 -0.4023 -0.6487
 2930TIP3   OH2 8795   0.358   2.238   2.753 -0.1879 -0.0766 -0.4599
 2930TIP3    H1 8796   0.372   2.150   2.786  0.5764  0.9124  2.1250
 2930TIP3    H2 8797   0.426   2.251   2.687 -0.2409 -1.3420 -0.7777
 2931TIP3   OH2 8798   2.551   4.621   0.418 -0.1117 -0.9053  0.3627
 2931TIP3    H1 8799   2.470   4.628   0.469 -0.6649 -0.6996 -0.5147
 2931TIP3    H2 8800   2.540   4.684   0.347  0.9670 -0.6395  0.4140
 2932TIP3   OH2 8801   3.808   3.661   3.910  0.4260  0.3291  0.3886
 2932TIP3    H1 8802   3.737   3.601   3.933  0.5350  0.5124  1.2465
 2932TIP3    H2 8803   3.832   3.637   3.821 -0.9698  0.5064 -0.0597
 2933TIP3   OH2 8804   5.526   1.017   4.304  0.3197 -0.8215  1.2664
 2933TIP3    H1 8805   5.542   1.008   4.397 -0.4216 -3.3607  1.2158
 2933TIP3    H2 8806   5.434   1.042   4.297  0.4891 -0.1835  1.1939
 2934TIP3   OH2 8807   1.757   2.366   3.431  0.0863  0.0945 -0.2273
 2934TIP3    H1 8808   1.687   2.431   3.428  0.3933  0.3995 -1.8232
 2934TIP3    H2 8809   1.809   2.389   3.508 -1.0443  0.4157  0.4554
 2935TIP3   OH2 8810   1.721   2.063   0.685 -0.0387  0.1284 -0.0386
 2935TIP3    H1 8811   1.691   1.990   0.740 -1.6367  1.2818  0.6968
 2935TIP3    H2 8812   1.785   2.109   0.739 -0.7939  0.6282  0.4399
 2936TIP3   OH2 8813   0.479   2.792   0.214 -0.3152 -0.1647  0.2230
 2936TIP3    H1 8814   0.521   2.763   0.295  0.6530  1.3464  0.3063
 2936TIP3    H2 8815   0.548   2.791   0.148 -0.3938  1.2192  0.0810
 2937TIP3   OH2 8816   3.876   0.104   0.216 -0.1325 -0.8996 -0.0526
 2937TIP3    H1 8817   3.899   0.195   0.231 -0.5556 -0.6049 -1.0895
 2937TIP3    H2 8818   3.946   0.054   0.258 -0.0127 -0.1119  0.7158
 2938TIP3   OH2 8819   2.564   5.151   2.213  0.3272 -0.3098 -0.5365
 2938TIP3    H1 8820   2.477   5.112   2.219  0.2875  0.0035  2.0053
 2938TIP3    H2 8821   2.622   5.087   2.255  0.9059  0.5447  0.0070
 2939TIP3   OH2 8822   0.976   0.782   2.461  0.0683  0.0566  0.4606
 2939TIP3    H1 8823   0.957   0.793   2.368 -0.7347 -1.0638  0.4688
 2939TIP3    H2 8824   1.018   0.864   2.487  0.9112  0.1314 -1.0325
 2940TIP3   OH2 8825   2.347   5.752   1.087 -0.6261  0.4785 -0.0153
 2940TIP3    H1 8826   2.439   5.774   1.070 -0.2079 -2.1175 -1.6387
 2940TIP3    H2 8827   2.335   5.772   1.180  2.2104 -1.0114  0.8088
 2941TIP3   OH2 8828   2.229   2.951   1.699 -0.2881 -0.0329 -0.2648
 2941TIP3    H1 8829   2.257   2.904   1.778  0.4124 -0.0661 -0.5266
 2941TIP3    H2 8830   2.133   2.949   1.703 -0.2701 -1.2044 -0.1123
 2942TIP3   OH2 8831   0.159   2.987   2.122 -0.5105 -0.1272  0.0472
 2942TIP3    H1 8832   0.237   3.009   2.072 -0.7677 -0.8754 -0.7105
 2942TIP3    H2 8833   0.184   2.911   2.175 -0.3301  0.4732  0.8477
 2943TIP3   OH2 8834   5.263   3.788   2.499 -0.4052 -0.0103  0.2989
 2943TIP3    H1 8835   5.248   3.759   2.409  0.4533  1.8786 -0.4964
 2943TIP3    H2 8836   5.176   3.799   2.536 -0.7651 -1.3850 -0.0684
 2944TIP3   OH2 8837   4.347   5.622   4.170  0.0633 -0.3211 -0.1106
 2944TIP3    H1 8838   4.329   5.689   4.103  0.6107 -0.9946 -0.9567
 2944TIP3    H2 8839   4.369   5.672   4.248  0.0908  0.4908 -0.6245
 2945TIP3   OH2 8840   5.323   1.616   2.471  0.3684  0.1963 -0.2476
 2945TIP3    H1 8841   5.401   1.670   2.482 -0.4405  1.3749 -0.1181
 2945TIP3    H2 8842   5.356   1.534   2.435  1.6136  0.8546 -0.6837
 2946TIP3   OH2 8843   0.126   1.465   4.345  0.3094 -0.4898 -0.2856
 2946TIP3    H1 8844   0.040   1.502   4.366  0.4615 -0.9108  1.1991
 2946TIP3    H2 8845   0.125   1.456   4.250 -0.3934  1.6970 -0.5598
 2947TIP3   OH2 8846   4.194   5.805   0.467  0.4906  0.2654  0.0503
 2947TIP3    H1 8847   4.205   5.887   0.419  2.7268 -0.1805 -0.3303
 2947TIP3    H2 8848   4.112   5.768   0.435  1.9307 -0.0906 -3.6447
 2948TIP3   OH2 8849   1.919   1.751   1.080 -0.0810  0.1974 -0.3436
 2948TIP3    H1 8850   1.853   1.688   1.110  0.6026 -0.2756  0.2055
 2948TIP3    H2 8851   1.895   1.833   1.123 -1.1508  0.4087 -1.2905
 2949TIP3   OH2 8852   5.477   2.843   4.484 -0.5254 -0.3160 -0.4016
 2949TIP3    H1 8853   5.527   2.799   4.553  0.7376  0.8569 -0.5098
 2949TIP3    H2 8854   5.390   2.804   4.488  0.0596 -1.5858  0.6142
 2950TIP3   OH2 8855   0.829   3.920   3.132 -0.1040  0.0188  0.2932
 2950TIP3    H1 8856   0.884   3.986   3.175  1.0945 -0.7961  0.0639
 2950TIP3    H2 8857   0.775   3.970   3.070  1.3968  0.7014 -0.5075
 2951TIP3   OH2 8858   2.281   2.891   2.050 -0.3950 -0.0659 -0.3198
 2951TIP3    H1 8859   2.216   2.958   2.031  0.9870  0.8406 -2.2165
 2951TIP3    H2 8860   2.273   2.828   1.979  0.0642 -0.5337  0.0300
 2952TIP3   OH2 8861   3.095   5.519   0.985 -0.4482 -0.1017  0.4658
 2952TIP3    H1 8862   3.180   5.563   0.981 -0.8866  0.7876  0.6633
 2952TIP3    H2 8863   3.087   5.474   0.901 -0.0316  0.2800  0.2173
 2953TIP3   OH2 8864   4.602   5.503   1.155  0.4357  0.1924 -0.0992
 2953TIP3    H1 8865   4.584   5.529   1.064 -0.8044  0.1416  0.1116
 2953TIP3    H2 8866   4.589   5.408   1.156  0.8134  0.1412  0.0505
 2954TIP3   OH2 8867   4.704   2.745   4.536  0.3874 -0.0372  0.0991
 2954TIP3    H1 8868   4.746   2.664   4.563  0.2356  0.0240  0.5390
 2954TIP3    H2 8869   4.616   2.719   4.509  0.5189 -0.0901 -0.2849
 2955TIP3   OH2 8870   4.053   4.479   4.397  0.9447  0.4384 -0.4113
 2955TIP3    H1 8871   4.028   4.431   4.319  0.6220  1.9109 -1.2637
 2955TIP3    H2 8872   4.009   4.564   4.388 -0.5905  0.0432  2.2434
 2956TIP3   OH2 8873   2.682   1.969  -0.014  0.2585  0.3318  0.2252
 2956TIP3    H1 8874   2.671   1.965   0.081 -1.4532 -1.3168  0.0182
 2956TIP3    H2 8875   2.607   2.021  -0.044  1.1212  1.3734 -0.2167
 2957TIP3   OH2 8876   1.283   3.549   0.659  0.6775 -0.5662  0.2206
 2957TIP3    H1 8877   1.273   3.457   0.684 -2.1314 -0.6806 -0.9990
 2957TIP3    H2 8878   1.220   3.596   0.712 -0.9646  0.0111 -2.0938
 2958TIP3   OH2 8879   0.610   0.271   2.686  0.4449  0.5450  0.0272
 2958TIP3    H1 8880   0.697   0.273   2.644  0.1297  1.4046 -0.6275
 2958TIP3    H2 8881   0.623   0.221   2.766  1.0809 -1.1454 -1.0659
 2959TIP3   OH2 8882   3.224   4.322   1.857 -0.3595  0.3579  0.0973
 2959TIP3    H1 8883   3.152   4.298   1.799  0.6886 -1.9212 -0.3957
 2959TIP3    H2 8884   3.185   4.381   1.921 -2.1931  0.7213 -1.2725
 2960TIP3   OH2 8885   4.723   0.664   3.339 -0.4467 -0.1151  0.7298
 2960TIP3    H1 8886   4.731   0.579   3.382  1.2572 -0.3334  0.0826
 2960TIP3    H2 8887   4.641   0.659   3.290  0.0012 -1.7227  0.0696
 2961TIP3   OH2 8888   3.232   2.548   1.608 -0.0520  0.3088 -0.4745
 2961TIP3    H1 8889   3.213   2.583   1.695  0.0376 -1.5337  0.3317
 2961TIP3    H2 8890   3.297   2.481   1.623  0.8374  0.7419 -2.1499
 2962TIP3   OH2 8891   4.665   5.958   0.149  0.0370 -0.2259 -0.0128
 2962TIP3    H1 8892   4.636   5.891   0.211 -0.0589 -0.2758 -0.1110
 2962TIP3    H2 8893   4.629   5.930   0.065 -0.5709  0.3061  0.0662
 2963TIP3   OH2 8894   0.416   4.442   1.313 -0.0311 -0.3622 -0.1917
 2963TIP3    H1 8895   0.442   4.512   1.373 -0.7777  0.8541 -1.2576
 2963TIP3    H2 8896   0.444   4.362   1.357  2.1784  0.6578  0.3841
 2964TIP3   OH2 8897   4.384   0.135   4.992  0.5444 -0.5420 -0.1200
 2964TIP3    H1 8898   4.337   0.065   4.947  0.9878 -0.8497 -0.1041
 2964TIP3    H2 8899   4.333   0.214   4.972  0.1802 -0.8277 -0.3368
 2965TIP3   OH2 8900   4.823   0.466   1.386 -0.2216  0.7373 -0.3953
 2965TIP3    H1 8901   4.788   0.489   1.472  2.7039 -0.2546  1.2028
 2965TIP3    H2 8902   4.750   0.422   1.342 -2.5183  3.2108  0.6067
 2966TIP3   OH2 8903   5.225   3.482   5.093  0.1209 -0.0851 -0.9740
 2966TIP3    H1 8904   5.155   3.436   5.139 -0.4190  0.9962 -0.6711
 2966TIP3    H2 8905   5.194   3.489   5.003 -0.2151  0.4561 -0.8244
 2967TIP3   OH2 8906   5.245   2.370   1.932 -0.4866 -0.0442  0.2320
 2967TIP3    H1 8907   5.226   2.350   2.023  0.2009 -0.9464  0.1936
 2967TIP3    H2 8908   5.188   2.444   1.911 -1.3630 -0.4503  1.1055
 2968TIP3   OH2 8909   0.832   2.498   0.856 -0.3987  0.4404  0.0877
 2968TIP3    H1 8910   0.881   2.500   0.774  0.0911 -0.4158  0.3451
 2968TIP3    H2 8911   0.745   2.531   0.833 -0.3660 -0.0891 -0.8530
 2969TIP3   OH2 8912   1.799   0.083   1.936  0.1203 -0.5419  0.2637
 2969TIP3    H1 8913   1.707   0.064   1.916  0.0676  1.3745 -1.7897
 2969TIP3    H2 8914   1.843   0.079   1.851  1.6084  0.1714  0.9681
 2970TIP3   OH2 8915   5.392   4.476   0.639  0.5257  0.2867  0.6511
 2970TIP3    H1 8916   5.484   4.462   0.619  0.1953  0.2514 -0.9439
 2970TIP3    H2 8917   5.360   4.532   0.568 -0.8431 -0.2675  0.8072
 2971TIP3   OH2 8918   1.633   5.091   4.151 -0.1860 -0.5916  0.1684
 2971TIP3    H1 8919   1.578   5.021   4.186  2.1031 -1.8795  1.4845
 2971TIP3    H2 8920   1.624   5.084   4.056 -3.0202 -0.0246  0.3003
 2972TIP3   OH2 8921   5.340   2.954   3.347 -0.1949 -0.6284  0.0282
 2972TIP3    H1 8922   5.351   3.049   3.341 -0.3438 -0.5141  1.3008
 2972TIP3    H2 8923   5.426   2.918   3.324  0.6131 -0.0656  1.9599
 2973TIP3   OH2 8924   1.940   1.714   4.987 -0.0437  0.0495 -0.1187
 2973TIP3    H1 8925   1.997   1.675   4.920 -0.4324 -0.3369 -0.2273
 2973TIP3    H2 8926   1.853   1.713   4.948 -0.6794 -2.2084  1.2219
 2974TIP3   OH2 8927   4.061   0.231   0.937 -0.4053  0.0151 -0.3898
 2974TIP3    H1 8928   4.052   0.191   1.024 -1.3996  0.4181 -0.2979
 2974TIP3    H2 8929   4.094   0.319   0.954 -0.6006  0.0943 -0.4196
 2975TIP3   OH2 8930   0.704   2.742   4.165  0.7930  0.2141  0.0140
 2975TIP3    H1 8931   0.634   2.772   4.223  1.6257  0.3820  0.9483
 2975TIP3    H2 8932   0.671   2.659   4.130 -0.1346  0.5977 -0.0450
 2976TIP3   OH2 8933   6.008   2.305   4.451 -0.1271 -0.6554 -0.4187
 2976TIP3    H1 8934   5.956   2.372   4.497 -0.1636 -0.6860 -0.4149
 2976TIP3    H2 8935   6.095   2.344   4.442 -0.6582  0.2118 -2.1910
 2977TIP3   OH2 8936   0.697   5.917   1.854 -0.3088  0.0521 -0.0950
 2977TIP3    H1 8937   0.723   6.002   1.892  0.1092 -0.9588  2.0472
 2977TIP3    H2 8938   0.780   5.873   1.837 -0.5452 -0.3719 -0.1473
 2978TIP3   OH2 8939   0.270   1.186   1.279 -0.3986 -0.0786 -0.8541
 2978TIP3    H1 8940   0.240   1.142   1.359  1.4427  1.0746  0.5602
 2978TIP3    H2 8941   0.323   1.120   1.235  2.2922  0.4897  1.2244
 2979TIP3   OH2 8942   0.676   0.689   4.475  0.0651 -0.3277  0.2576
 2979TIP3    H1 8943   0.742   0.627   4.444 -1.0725 -1.4678  0.0711
 2979TIP3    H2 8944   0.727   0.765   4.503  1.3331 -0.3133 -1.8653
 2980TIP3   OH2 8945   4.322   3.927   4.260 -0.3204 -0.3772  0.2125
 2980TIP3    H1 8946   4.229   3.942   4.242 -0.5237 -3.0087 -1.5519
 2980TIP3    H2 8947   4.367   3.995   4.210 -1.2675  0.0813 -0.0448
 2981TIP3   OH2 8948   1.454   2.954   1.816  0.1102 -0.0116 -0.0230
 2981TIP3    H1 8949   1.376   2.991   1.775  0.6308  1.8089  0.5221
 2981TIP3    H2 8950   1.526   2.983   1.761  0.5416 -0.1759  0.4502
 2982TIP3   OH2 8951   4.391   5.728   3.901 -0.2880 -0.0188  0.0066
 2982TIP3    H1 8952   4.461   5.664   3.907  0.5353  0.4648 -2.6820
 2982TIP3    H2 8953   4.375   5.736   3.807 -2.3868  1.5685  0.4317
 2983TIP3   OH2 8954   2.268   3.918   1.879  0.9121 -0.4867  0.3109
 2983TIP3    H1 8955   2.329   3.919   1.806  2.2703 -0.7518  1.3831
 2983TIP3    H2 8956   2.311   3.863   1.945 -0.9618 -1.5445  0.7432
 2984TIP3   OH2 8957   3.731   5.163   4.923 -0.4291  0.1492  0.0648
 2984TIP3    H1 8958   3.742   5.070   4.905  1.9131  0.2335  0.6780
 2984TIP3    H2 8959   3.659   5.190   4.867  1.8246 -1.0749 -3.8110
 2985TIP3   OH2 8960   2.337   5.689   2.332 -0.3550  0.0583  0.7387
 2985TIP3    H1 8961   2.354   5.696   2.426  0.2323  0.6121  0.5902
 2985TIP3    H2 8962   2.259   5.633   2.327 -2.3310  2.5210  1.7100
 2986TIP3   OH2 8963   6.337   4.074   3.822  0.2642 -0.2906  0.2551
 2986TIP3    H1 8964   6.400   4.131   3.778 -0.0809  1.1756  1.5582
 2986TIP3    H2 8965   6.295   4.025   3.751  1.0192  0.6219 -0.8625
 2987TIP3   OH2 8966   4.201   4.928   4.998 -0.0367 -0.0000  0.3611
 2987TIP3    H1 8967   4.245   4.887   5.073  0.0069 -0.8230 -0.1088
 2987TIP3    H2 8968   4.109   4.907   5.011 -0.0429 -0.0413  0.2495
 2988TIP3   OH2 8969   0.351   1.310   5.083 -0.4116 -0.1291  0.0121
 2988TIP3    H1 8970   0.303   1.357   5.151 -0.0612  1.1583 -0.5915
 2988TIP3    H2 8971   0.294   1.316   5.006  1.0382  2.2630 -0.9863
 2989TIP3   OH2 8972   4.512   3.797   4.864  0.4518  0.4659  0.2330
 2989TIP3    H1 8973   4.490   3.843   4.945  0.0329  2.1137 -0.7728
 2989TIP3    H2 8974   4.589   3.843   4.830 -1.5916  2.4057 -2.2187
 2990TIP3   OH2 8975   2.118   1.653   4.250  0.3773 -0.2605  0.0166
 2990TIP3    H1 8976   2.052   1.583   4.249  0.3289 -0.2444 -2.5223
 2990TIP3    H2 8977   2.068   1.733   4.233  0.6190  0.2743  1.6236
 2991TIP3   OH2 8978   2.410   5.010   3.329 -0.5253  0.3820  0.4683
 2991TIP3    H1 8979   2.457   4.953   3.390 -0.2010  2.4807  2.3015
 2991TIP3    H2 8980   2.390   4.954   3.254  0.4794 -1.8873  1.8048
 2992TIP3   OH2 8981   2.698   2.544   0.567 -0.0849  0.6442 -0.5995
 2992TIP3    H1 8982   2.673   2.455   0.544  1.0450  0.5176 -1.4019
 2992TIP3    H2 8983   2.704   2.543   0.663 -0.6301  0.0172 -0.5671
 2993TIP3   OH2 8984   3.608   3.921   4.152  0.3979  0.1930  0.2841
 2993TIP3    H1 8985   3.622   3.918   4.057  1.4175 -0.5582  0.4473
 2993TIP3    H2 8986   3.554   3.844   4.169  1.4366 -0.5025  0.4960
 2994TIP3   OH2 8987   0.951   0.951   1.691 -0.0660 -0.1810 -0.3991
 2994TIP3    H1 8988   1.021   0.913   1.638 -0.5878 -1.9335  0.1318
 2994TIP3    H2 8989   0.979   1.041   1.706  2.0339 -0.8251 -0.2411
 2995TIP3   OH2 8990   1.079   3.836   1.115 -0.9394 -0.4294  0.0264
 2995TIP3    H1 8991   1.037   3.920   1.097  0.3891  0.5019  1.1131
 2995TIP3    H2 8992   1.137   3.853   1.189 -0.5597 -2.2887  0.2057
 2996TIP3   OH2 8993   1.074   0.700   2.808  0.5543  0.3159  0.2202
 2996TIP3    H1 8994   1.114   0.637   2.868 -0.0700  0.2230  0.5447
 2996TIP3    H2 8995   1.081   0.657   2.722 -0.1999 -0.3864  0.4883
 2997TIP3   OH2 8996   4.457   0.848   0.462  0.5043  0.2436  0.0872
 2997TIP3    H1 8997   4.505   0.907   0.406 -0.1828  0.4169 -0.3282
 2997TIP3    H2 8998   4.417   0.784   0.403 -0.5710  0.6730  0.3153
 2998TIP3   OH2 8999   0.729   2.203   4.643 -0.3982  0.3783 -0.9257
 2998TIP3    H1 9000   0.725   2.218   4.548 -2.0057 -0.4489 -1.0216
 2998TIP3    H2 9001   0.728   2.108   4.652 -0.9534  0.4619 -0.0558
 2999TIP3   OH2 9002   3.713   0.091   1.497 -0.0367 -0.5670  0.7132
 2999TIP3    H1 9003   3.741   0.111   1.408 -0.7385 -1.1041  0.3698
 2999TIP3    H2 9004   3.792   0.057   1.539  0.3426 -0.1430  0.3598
 3000TIP3   OH2 9005   4.138   1.202   0.855 -1.0015  0.0702  0.0990
 3000TIP3    H1 9006   4.098   1.157   0.929  1.3351 -1.8002  0.3437
 3000TIP3    H2 9007   4.203   1.140   0.821  1.9094  2.9454 -0.0302
 3001TIP3   OH2 9008   2.914   0.355   0.008  0.4759  0.0928  0.2130
 3001TIP3    H1 9009   2.867   0.341   0.090 -2.2165 -1.1742 -1.3928
 3001TIP3    H2 9010   2.937   0.267  -0.022  0.1589  0.4024 -1.0159
 3002TIP3   OH2 9011   2.881   1.890   1.313 -0.0571  0.4988 -0.0972
 3002TIP3    H1 9012   2.917   1.964   1.264 -0.7919 -0.1289 -1.6109
 3002TIP3    H2 9013   2.882   1.817   1.252  1.7439 -1.1167  1.7025
 3003TIP3   OH2 9014   1.619   0.395   2.273 -0.2599 -0.3971 -0.4185
 3003TIP3    H1 9015   1.572   0.478   2.282  0.3548 -0.1948  1.3661
 3003TIP3    H2 9016   1.554   0.329   2.295 -0.2150 -0.2353  0.2316
 3004TIP3   OH2 9017   1.042   1.827   1.191  0.1126 -0.6146  0.2404
 3004TIP3    H1 9018   1.061   1.779   1.271  1.1753 -3.2495 -1.4352
 3004TIP3    H2 9019   1.126   1.864   1.165 -0.1125 -0.2112  0.0912
 3005TIP3   OH2 9020   6.187   3.552   4.755 -0.0491  0.4280 -0.2477
 3005TIP3    H1 9021   6.103   3.558   4.802  0.2314 -1.2080  0.5487
 3005TIP3    H2 9022   6.236   3.629   4.784 -1.0021  1.0180 -0.1636
 3006TIP3   OH2 9023   1.443   3.503   2.201  0.0817  0.2153 -0.6855
 3006TIP3    H1 9024   1.449   3.523   2.108 -1.2141  0.9178 -0.6444
 3006TIP3    H2 9025   1.358   3.461   2.211 -0.2216  1.0091  0.3014
 3007TIP3   OH2 9026   6.186   0.809   2.485 -0.7923 -0.1471 -0.2481
 3007TIP3    H1 9027   6.146   0.896   2.486 -1.5896 -0.4886  1.6536
 3007TIP3    H2 9028   6.263   0.817   2.541  0.8891  0.0432 -2.4658
 3008TIP3   OH2 9029   2.925   1.156   0.767  0.2084 -0.0233 -0.3189
 3008TIP3    H1 9030   3.010   1.118   0.744  0.3769  0.2056 -0.0782
 3008TIP3    H2 9031   2.915   1.230   0.708  0.8765  0.8801  0.6616
 3009TIP3   OH2 9032   0.254   2.498   3.504 -0.1472  0.0967  0.4490
 3009TIP3    H1 9033   0.200   2.426   3.471 -1.8230  1.9100 -1.0000
 3009TIP3    H2 9034   0.208   2.577   3.476  1.7524  1.7572  1.7636
 3010TIP3   OH2 9035   2.569   3.295   3.169  0.5141 -0.2774  0.2743
 3010TIP3    H1 9036   2.475   3.289   3.188  0.2530 -0.8791 -1.1382
 3010TIP3    H2 9037   2.611   3.250   3.243 -0.2874  0.0968  0.9787
 3011TIP3   OH2 9038   2.609   5.564   2.614  0.2246 -0.0727 -0.0594
 3011TIP3    H1 9039   2.527   5.532   2.653  1.0245 -0.5428  1.3025
 3011TIP3    H2 9040   2.583   5.599   2.529 -2.3161  4.2916  2.1556
 3012TIP3   OH2 9041   1.070   0.223   0.867  1.1012 -0.0502 -0.3086
 3012TIP3    H1 9042   1.010   0.276   0.920  0.4395  0.6596 -1.7126
 3012TIP3    H2 9043   1.044   0.132   0.885 -0.1320  0.2353 -0.5688
 3013TIP3   OH2 9044   4.776   3.947   5.011 -0.3465  0.2835  0.1263
 3013TIP3    H1 9045   4.770   3.861   5.053  0.3801  0.2565  0.1801
 3013TIP3    H2 9046   4.868   3.970   5.016 -0.1606  0.0944 -1.8685
 3014TIP3   OH2 9047   5.749   1.856   0.964 -0.2209 -0.6096  0.0343
 3014TIP3    H1 9048   5.702   1.834   0.883 -0.8196  1.0016 -0.0831
 3014TIP3    H2 9049   5.680   1.866   1.030 -0.0110  0.9858  0.0461
 3015TIP3   OH2 9050   6.335   5.724   1.140 -0.2310 -0.3529 -0.6266
 3015TIP3    H1 9051   6.421   5.758   1.115 -1.1177  1.7016 -1.1459
 3015TIP3    H2 9052   6.275   5.758   1.073 -1.6368 -0.5986  0.4366
 3016TIP3   OH2 9053   2.647   5.071   3.005  0.1049 -0.2259 -0.0308
 3016TIP3    H1 9054   2.619   4.984   3.034 -0.6198 -0.0878 -0.3049
 3016TIP3    H2 9055   2.725   5.089   3.057  0.1697 -0.9688  0.1487
 3017TIP3   OH2 9056   3.548   2.099   1.592  0.4372 -0.0922 -0.0965
 3017TIP3    H1 9057   3.484   2.065   1.655  1.6239  0.7498  1.6451
 3017TIP3    H2 9058   3.593   2.022   1.559  1.2153 -0.4817  1.7289
 3018TIP3   OH2 9059   0.595   5.136   3.175 -0.1793  0.0764 -0.5136
 3018TIP3    H1 9060   0.511   5.172   3.146  0.9387  1.5168 -2.1403
 3018TIP3    H2 9061   0.646   5.212   3.203  0.3138 -0.8697  1.3542
 3019TIP3   OH2 9062   6.005   0.794   1.548  0.3244 -0.1021  0.3334
 3019TIP3    H1 9063   6.013   0.709   1.505  0.7943 -0.5025  1.1844
 3019TIP3    H2 9064   5.947   0.844   1.491 -2.2081 -1.8830  1.1499
 3020TIP3   OH2 9065   2.379   3.104   4.486  0.2064  0.0507 -0.4330
 3020TIP3    H1 9066   2.422   3.082   4.568  0.8223 -2.0377 -1.2644
 3020TIP3    H2 9067   2.290   3.129   4.511  0.9556  1.4715  1.0187
 3021TIP3   OH2 9068   3.666   0.319   2.675 -0.5441  0.3280  0.2029
 3021TIP3    H1 9069   3.734   0.302   2.610 -0.4161 -1.7402  0.8208
 3021TIP3    H2 9070   3.606   0.379   2.631 -0.1349 -0.5111 -1.6080
 3022TIP3   OH2 9071   3.754   3.747   1.475 -0.0206 -0.2728 -0.1584
 3022TIP3    H1 9072   3.787   3.826   1.431  0.9741 -0.5308  0.0882
 3022TIP3    H2 9073   3.725   3.778   1.560  1.7581 -0.3657  0.5304
 3023TIP3   OH2 9074   0.422   3.057   0.125 -0.2142 -0.7384  0.0025
 3023TIP3    H1 9075   0.478   3.005   0.183 -0.8812 -0.5243  0.8642
 3023TIP3    H2 9076   0.349   3.085   0.181 -1.0581 -0.8090 -1.0273
 3024TIP3   OH2 9077   1.593   1.652   4.999 -0.0497  0.5448  0.5099
 3024TIP3    H1 9078   1.526   1.584   5.004  0.7396 -0.1834  1.3194
 3024TIP3    H2 9079   1.619   1.667   5.089  2.9380 -1.2684  0.0669
 3025TIP3   OH2 9080   3.175   1.101   0.204 -0.0021 -0.1107  0.0522
 3025TIP3    H1 9081   3.119   1.137   0.134  0.9933 -2.1712 -1.9497
 3025TIP3    H2 9082   3.113   1.061   0.265 -0.8356  0.2125 -0.5481
 3026TIP3   OH2 9083   6.326   1.735   1.497 -0.3748  0.9071 -0.5524
 3026TIP3    H1 9084   6.382   1.769   1.567 -1.0738 -0.8896  0.9564
 3026TIP3    H2 9085   6.241   1.776   1.512  0.1169  2.6565 -2.0914
 3027TIP3   OH2 9086   5.730   1.242   2.149 -0.6651 -0.7261  0.1475
 3027TIP3    H1 9087   5.656   1.230   2.208 -0.4346 -0.3679  0.5096
 3027TIP3    H2 9088   5.700   1.307   2.085 -1.3691 -2.0392 -0.9047
 3028TIP3   OH2 9089   3.045   0.739   0.273 -0.2348 -0.1490 -1.0034
 3028TIP3    H1 9090   3.107   0.666   0.279 -0.1175 -0.1602 -2.1221
 3028TIP3    H2 9091   2.963   0.703   0.306  0.3140 -0.1452  0.4813
 3029TIP3   OH2 9092   2.003   4.728   4.562  0.1222 -0.5910  0.0283
 3029TIP3    H1 9093   2.014   4.823   4.554 -1.8346 -0.3781 -0.5350
 3029TIP3    H2 9094   2.045   4.706   4.645  1.4769  0.5993 -0.3018
 3030TIP3   OH2 9095   4.128   2.845   2.134  0.1649  0.4237 -0.0604
 3030TIP3    H1 9096   4.152   2.884   2.050  0.5875 -0.0297 -0.1583
 3030TIP3    H2 9097   4.064   2.778   2.111  0.4655  0.1304 -0.0549
 3031TIP3   OH2 9098   5.252   2.583   3.077  0.3079 -0.2562  0.3235
 3031TIP3    H1 9099   5.286   2.572   3.166 -0.8674 -1.2261  0.6865
 3031TIP3    H2 9100   5.281   2.504   3.031 -0.1821 -0.3856  0.2288
 3032TIP3   OH2 9101   2.723   0.305   3.373 -0.6591 -0.1328 -0.2929
 3032TIP3    H1 9102   2.812   0.273   3.385 -0.4783  0.3958 -0.2158
 3032TIP3    H2 9103   2.687   0.251   3.303 -1.1839 -2.1647  1.4379
 3033TIP3   OH2 9104   2.102   3.367   4.371 -0.1002 -0.0511 -0.3102
 3033TIP3    H1 9105   2.022   3.417   4.389 -0.0804  0.2684 -1.0738
 3033TIP3    H2 9106   2.116   3.377   4.277  0.6405 -0.4073 -0.2463
 3034TIP3   OH2 9107   6.325   3.433   3.315 -0.3942 -0.5575 -0.0728
 3034TIP3    H1 9108   6.347   3.526   3.304  2.2600 -1.0675  0.3837
 3034TIP3    H2 9109   6.259   3.432   3.384 -1.7751  1.0845 -1.2791
 3035TIP3   OH2 9110   4.318   4.616   0.576 -0.2569 -0.1042 -0.2305
 3035TIP3    H1 9111   4.244   4.607   0.516 -0.3541  0.9378 -0.2793
 3035TIP3    H2 9112   4.285   4.581   0.659 -0.5189 -0.4293 -0.4651
 3036TIP3   OH2 9113   1.644   1.918   3.870  0.3888  0.0107  0.2984
 3036TIP3    H1 9114   1.662   1.827   3.894 -1.6138 -0.6362 -0.4564
 3036TIP3    H2 9115   1.717   1.968   3.906  1.9548 -1.9930  0.0051
 3037TIP3   OH2 9116   0.207   0.204   1.882  0.3891  0.0943 -0.1825
 3037TIP3    H1 9117   0.273   0.139   1.904  1.1386  0.3346 -1.5857
 3037TIP3    H2 9118   0.156   0.164   1.812 -1.4205 -0.3508  1.3089
 3038TIP3   OH2 9119   3.077   5.269   4.278  0.4424  0.9270  0.1730
 3038TIP3    H1 9120   2.998   5.279   4.331  0.1543 -0.1586 -0.0365
 3038TIP3    H2 9121   3.107   5.359   4.264 -0.4258  1.3257  0.7361
 3039TIP3   OH2 9122   1.930   5.834   3.223 -0.0255  0.1739  0.5267
 3039TIP3    H1 9123   1.937   5.865   3.314  0.1384  1.5120  0.0798
 3039TIP3    H2 9124   1.873   5.898   3.181  1.2141  0.5074 -0.7150
 3040TIP3   OH2 9125   4.998   4.391   2.383 -0.2748 -0.3019  0.2065
 3040TIP3    H1 9126   5.029   4.304   2.360 -1.0587 -0.4699 -0.2698
 3040TIP3    H2 9127   4.968   4.383   2.473 -0.7806 -0.6579  0.0147
 3041TIP3   OH2 9128   1.705   2.050   2.896  0.0062 -0.0972  0.0398
 3041TIP3    H1 9129   1.741   2.038   2.984 -0.8964 -0.5306  0.3623
 3041TIP3    H2 9130   1.648   2.126   2.904  0.6077  0.4084 -0.3961
 3042TIP3   OH2 9131   0.451   5.924   2.896  0.0966  0.0459 -0.3317
 3042TIP3    H1 9132   0.468   6.018   2.897 -0.1611  0.0904 -0.0283
 3042TIP3    H2 9133   0.356   5.916   2.898  0.1122 -0.2187 -0.5531
 3043TIP3   OH2 9134   2.407   2.139   1.460  0.4565 -0.2246  0.1513
 3043TIP3    H1 9135   2.336   2.132   1.524 -1.6632 -0.9150 -2.1623
 3043TIP3    H2 9136   2.409   2.232   1.437  0.6704 -0.1170  0.5903
 3044TIP3   OH2 9137   2.291   4.834   4.055  0.0407  0.4107 -0.6388
 3044TIP3    H1 9138   2.213   4.868   4.100  0.9879 -0.0699  1.5022
 3044TIP3    H2 9139   2.268   4.744   4.032 -0.7018  0.8784 -1.7885
 3045TIP3   OH2 9140   3.301   5.838   3.472 -0.3706  0.5395 -0.4082
 3045TIP3    H1 9141   3.209   5.812   3.472 -0.0226 -0.7617 -0.7271
 3045TIP3    H2 9142   3.345   5.768   3.519  0.5543  0.8372 -0.8251
 3046TIP3   OH2 9143   1.732   0.345   4.648 -0.1805 -0.6648 -0.4089
 3046TIP3    H1 9144   1.733   0.434   4.613 -0.4609  0.5283  2.3983
 3046TIP3    H2 9145   1.808   0.303   4.607 -0.0868  0.8084 -1.8503
 3047TIP3   OH2 9146   2.851   2.307   2.164  0.3231  0.5607 -0.0832
 3047TIP3    H1 9147   2.936   2.263   2.169 -0.0632 -0.4439 -1.5200
 3047TIP3    H2 9148   2.859   2.383   2.222  1.0620 -1.2988  2.4203
 3048TIP3   OH2 9149   2.449   4.024   0.234 -0.0624  0.6175 -0.1962
 3048TIP3    H1 9150   2.421   3.945   0.280 -0.6632  0.8410 -0.1833
 3048TIP3    H2 9151   2.499   4.073   0.299  0.5076  0.1500 -0.2669
 3049TIP3   OH2 9152   0.760   2.715   2.468 -0.1957  0.6613  0.3479
 3049TIP3    H1 9153   0.737   2.797   2.425  0.7592  0.3399 -0.8197
 3049TIP3    H2 9154   0.844   2.732   2.510 -0.0064  0.3070  0.1257
 3050TIP3   OH2 9155   0.150   3.847   1.634 -0.8063  0.7311 -0.5319
 3050TIP3    H1 9156   0.103   3.778   1.682 -0.2399 -0.0613 -1.0975
 3050TIP3    H2 9157   0.087   3.919   1.628 -1.1702  0.5469  0.6870
 3051TIP3   OH2 9158   0.967   5.550   5.120  0.2457  0.1031  0.6977
 3051TIP3    H1 9159   0.955   5.478   5.058  1.3606 -0.4389  1.0901
 3051TIP3    H2 9160   0.938   5.515   5.204  0.0541  0.3769  0.7482
 3052TIP3   OH2 9161   0.881   0.655   2.013 -0.3914 -0.3826 -0.2185
 3052TIP3    H1 9162   0.827   0.663   1.935  0.8828 -0.5360 -1.1447
 3052TIP3    H2 9163   0.864   0.567   2.046 -0.4750 -0.5386 -0.6835
 3053TIP3   OH2 9164   5.513   0.596   3.431  0.3807  0.2530 -0.3308
 3053TIP3    H1 9165   5.512   0.501   3.423  0.0973  0.2292 -0.0428
 3053TIP3    H2 9166   5.537   0.612   3.522 -0.1478  0.4432 -0.2199
 3054TIP3   OH2 9167   0.634   1.305   0.716 -0.0179 -0.3045  0.9242
 3054TIP3    H1 9168   0.698   1.272   0.780  0.2580  0.0487  0.8321
 3054TIP3    H2 9169   0.553   1.313   0.766  0.5569  1.4264  1.6405
 3055TIP3   OH2 9170   3.231   2.131   2.481 -0.2501 -0.4144 -0.4146
 3055TIP3    H1 9171   3.217   2.050   2.432 -1.1358 -0.0231 -0.8369
 3055TIP3    H2 9172   3.272   2.103   2.563 -1.9957 -1.4831  0.1392
 3056TIP3   OH2 9173   4.070   5.367   0.176 -0.4718 -0.1137  0.2268
 3056TIP3    H1 9174   4.068   5.463   0.177 -2.5585 -0.0979 -1.0047
 3056TIP3    H2 9175   4.142   5.344   0.235  1.5261  2.2288 -1.1321
 3057TIP3   OH2 9176   6.025   3.003   1.954 -0.8885  0.3175  0.2119
 3057TIP3    H1 9177   6.117   3.012   1.976 -1.0068 -0.8944  1.3165
 3057TIP3    H2 9178   6.024   3.001   1.858  0.3111 -0.3469  0.1936
 3058TIP3   OH2 9179   2.706   3.008   3.012  0.0659  0.0601  0.1395
 3058TIP3    H1 9180   2.698   3.102   3.000 -0.8072 -0.0667 -0.3699
 3058TIP3    H2 9181   2.643   2.987   3.082  0.5420 -0.0936  0.5271
 3059TIP3   OH2 9182   3.021   0.765   5.102 -0.1040 -0.1696  0.5727
 3059TIP3    H1 9183   3.113   0.741   5.113 -0.0153  0.2737  0.8244
 3059TIP3    H2 9184   2.990   0.781   5.191 -0.9147 -2.0503  0.6779
 3060TIP3   OH2 9185   5.797   5.185   2.200  0.0655 -0.4268  0.0868
 3060TIP3    H1 9186   5.777   5.246   2.130 -0.4768  0.0819  0.6707
 3060TIP3    H2 9187   5.716   5.134   2.212  0.3072 -0.8305  0.0267
 3061TIP3   OH2 9188   5.004   5.737   3.605 -0.6407 -0.7613 -0.1162
 3061TIP3    H1 9189   5.089   5.715   3.644  0.0609 -0.9421 -1.6728
 3061TIP3    H2 9190   4.943   5.673   3.644  0.0205 -0.9518  0.6370
 3062TIP3   OH2 9191   4.977   3.542   4.791  1.0766  0.2763 -0.4094
 3062TIP3    H1 9192   4.908   3.557   4.727  0.0053  0.4657  0.7448
 3062TIP3    H2 9193   5.029   3.622   4.790 -0.8644  1.6663  1.2106
 3063TIP3   OH2 9194   5.016   3.135   3.760  0.4927  0.2367  0.0828
 3063TIP3    H1 9195   4.930   3.093   3.756  0.1246  0.9367  0.5140
 3063TIP3    H2 9196   5.075   3.073   3.716 -0.0993 -0.5645  0.4011
 3064TIP3   OH2 9197   2.875   0.415   2.998  0.1775 -0.4930 -0.0194
 3064TIP3    H1 9198   2.872   0.327   3.034 -1.0556 -0.3270  0.3159
 3064TIP3    H2 9199   2.946   0.458   3.046 -1.1489 -0.4138  1.9926
 3065TIP3   OH2 9200   5.619   5.142   3.126  0.2519 -0.1402  0.1722
 3065TIP3    H1 9201   5.705   5.178   3.102  1.0476 -0.2254  2.6028
 3065TIP3    H2 9202   5.556   5.192   3.075  1.5921  1.8827  0.4157
 3066TIP3   OH2 9203   0.828   2.321   2.575 -0.3563  0.4904  0.1667
 3066TIP3    H1 9204   0.847   2.242   2.524 -0.5473  0.4033  0.2322
 3066TIP3    H2 9205   0.758   2.295   2.635 -0.3465  0.6802  0.2612
 3067TIP3   OH2 9206   3.969   4.758   1.694  0.2388 -0.2223  0.3863
 3067TIP3    H1 9207   4.047   4.749   1.640  0.2667 -1.4962  0.6102
 3067TIP3    H2 9208   3.897   4.728   1.639 -0.4913  2.9284 -0.5945
 3068TIP3   OH2 9209   1.130   3.642   2.958  0.1813  0.0901 -0.1656
 3068TIP3    H1 9210   1.196   3.707   2.934  0.0809  0.9556  1.7035
 3068TIP3    H2 9211   1.077   3.686   3.026 -1.0744 -1.2799 -0.2111
 3069TIP3   OH2 9212   1.808   2.433   0.631  0.3312 -0.3558  0.3355
 3069TIP3    H1 9213   1.788   2.397   0.717  0.2174  0.1393  0.5205
 3069TIP3    H2 9214   1.902   2.417   0.619  0.5535  0.4067  0.9599
 3070TIP3   OH2 9215   4.731   0.031   2.967  0.4869  0.3433  0.2593
 3070TIP3    H1 9216   4.807   0.089   2.977  0.8088 -0.0165 -0.0576
 3070TIP3    H2 9217   4.686   0.036   3.052  1.2161  0.0744  0.6752
 3071TIP3   OH2 9218   3.631   0.512   0.381 -0.1077  0.1666 -0.3000
 3071TIP3    H1 9219   3.664   0.494   0.469  0.5261  1.7014 -0.1953
 3071TIP3    H2 9220   3.575   0.588   0.392 -0.3679  0.1073 -1.1601
 3072TIP3   OH2 9221   5.091   5.827   4.835  1.0464  0.2781  0.3395
 3072TIP3    H1 9222   5.042   5.826   4.753  1.6438  0.8319 -0.0376
 3072TIP3    H2 9223   5.174   5.869   4.813  0.7470  1.5580  1.4949
 3073TIP3   OH2 9224   2.909   1.454   1.273 -0.5066 -0.3654  0.1734
 3073TIP3    H1 9225   2.971   1.405   1.218  0.6893  2.0526 -0.7530
 3073TIP3    H2 9226   2.932   1.427   1.362  2.0524  0.5060 -0.1253
 3074TIP3   OH2 9227   5.281   3.723   1.100 -0.0810 -0.5143 -0.0209
 3074TIP3    H1 9228   5.368   3.762   1.093 -0.8284  1.2363  0.0940
 3074TIP3    H2 9229   5.250   3.748   1.187 -1.1323 -0.1928 -0.4734
 3075TIP3   OH2 9230   4.562   4.207   2.623 -0.4362  0.0422 -0.4693
 3075TIP3    H1 9231   4.627   4.148   2.662 -1.0902  0.1681  0.8497
 3075TIP3    H2 9232   4.602   4.294   2.629 -0.0329 -0.0843 -1.2002
 3076TIP3   OH2 9233   4.659   5.028   4.464 -0.0834 -0.0147  0.3225
 3076TIP3    H1 9234   4.645   5.054   4.373  0.4150  0.5011  0.3892
 3076TIP3    H2 9235   4.580   5.055   4.510 -0.4073 -0.4290  0.0151
 3077TIP3   OH2 9236   4.322   3.045   2.836 -0.0347  0.5234 -0.3990
 3077TIP3    H1 9237   4.270   3.124   2.821 -0.4091  0.2132 -0.7795
 3077TIP3    H2 9238   4.396   3.052   2.776  0.3571  0.9540  0.1246
 3078TIP3   OH2 9239   1.166   4.079   2.144  0.3014 -0.0089 -0.6475
 3078TIP3    H1 9240   1.105   4.006   2.152 -1.5623  1.5878  0.6261
 3078TIP3    H2 9241   1.113   4.156   2.162  2.8344  1.4500  1.2073
 3079TIP3   OH2 9242   2.081   1.932   3.915  0.0562 -0.3577 -0.3837
 3079TIP3    H1 9243   2.041   2.016   3.937  0.6027  0.8105 -3.4309
 3079TIP3    H2 9244   2.168   1.936   3.954 -0.3278 -0.0393  0.4727
 3080TIP3   OH2 9245   5.026   5.734   1.332 -0.2952 -0.0930 -0.0707
 3080TIP3    H1 9246   4.981   5.805   1.287 -1.3953 -0.6474  0.1212
 3080TIP3    H2 9247   4.962   5.701   1.395  1.0015  0.3148  1.5666
 3081TIP3   OH2 9248   4.371   4.847   1.913  0.2416 -0.3670  0.0083
 3081TIP3    H1 9249   4.424   4.921   1.883 -0.7500  1.8131  3.1229
 3081TIP3    H2 9250   4.282   4.869   1.885 -0.2892  0.4558  2.1692
 3082TIP3   OH2 9251   4.584   1.969   1.753 -0.4331 -0.4543  0.3195
 3082TIP3    H1 9252   4.490   1.987   1.746 -0.1872  0.6024 -0.5547
 3082TIP3    H2 9253   4.596   1.884   1.710 -0.7741  0.1696 -1.0619
 3083TIP3   OH2 9254   2.777   0.343   3.816  0.0965  0.3620 -0.0111
 3083TIP3    H1 9255   2.854   0.322   3.764  0.6412 -0.4834  1.0985
 3083TIP3    H2 9256   2.783   0.437   3.832  0.2349  0.5201 -0.9411
 3084TIP3   OH2 9257   1.435   1.383   5.058  0.5952 -0.0654 -0.2482
 3084TIP3    H1 9258   1.497   1.311   5.068  0.2536 -0.4315 -0.6789
 3084TIP3    H2 9259   1.380   1.380   5.136  0.6288 -0.2244 -0.2319
 3085TIP3   OH2 9260   5.726   0.085   2.730 -0.2157  1.0534 -0.4400
 3085TIP3    H1 9261   5.806   0.033   2.743 -0.5518  0.3651 -1.0626
 3085TIP3    H2 9262   5.692   0.098   2.819 -0.8477 -0.9588 -0.3447
 3086TIP3   OH2 9263   1.337   0.139   1.636 -0.0084  0.0253  0.1368
 3086TIP3    H1 9264   1.298   0.152   1.549  0.3480 -0.3513 -0.0843
 3086TIP3    H2 9265   1.278   0.185   1.695 -1.5603 -1.6332 -0.0227
 3087TIP3   OH2 9266   1.520   0.964   1.862  0.4317 -0.3535  0.0226
 3087TIP3    H1 9267   1.463   0.993   1.933 -0.1517 -1.0001 -0.1684
 3087TIP3    H2 9268   1.527   0.869   1.874  0.8632 -0.3779 -0.3975
 3088TIP3   OH2 9269   0.988   3.634   4.658  0.8997 -0.3783  0.3158
 3088TIP3    H1 9270   0.897   3.626   4.632  0.8291 -0.0503  0.4601
 3088TIP3    H2 9271   1.027   3.549   4.635  1.4977  0.7347 -3.2747
 3089TIP3   OH2 9272   3.428   1.477   4.229  0.5259 -0.1813  0.4963
 3089TIP3    H1 9273   3.466   1.564   4.219 -1.1282  0.6378  1.0086
 3089TIP3    H2 9274   3.493   1.418   4.190  1.4064  1.3263 -0.4158
 3090TIP3   OH2 9275   5.076   3.789   0.858 -0.1971 -0.2433 -0.4930
 3090TIP3    H1 9276   5.148   3.776   0.920 -0.3309 -1.3735 -0.5590
 3090TIP3    H2 9277   5.118   3.800   0.773 -0.1055 -4.0549 -1.0919
 3091TIP3   OH2 9278   3.446   5.918   2.297 -0.1733 -0.1861 -0.8015
 3091TIP3    H1 9279   3.516   5.865   2.259  0.4793 -0.4881  0.7570
 3091TIP3    H2 9280   3.399   5.953   2.221  1.4085 -0.3054 -1.8842
 3092TIP3   OH2 9281   2.382   1.038   1.000 -0.6241 -0.3727  0.1367
 3092TIP3    H1 9282   2.414   1.099   1.066  1.9989  1.2271 -2.3662
 3092TIP3    H2 9283   2.400   0.951   1.038  0.4794  0.4611  1.6633
 3093TIP3   OH2 9284   1.990   3.918   1.514 -0.5729  0.1781  0.0112
 3093TIP3    H1 9285   1.933   3.974   1.566 -1.7743  1.8721 -2.8343
 3093TIP3    H2 9286   2.074   3.963   1.512 -0.7528  0.5136 -0.0973
 3094TIP3   OH2 9287   4.396   2.547   0.297  0.5260  0.2020 -0.1077
 3094TIP3    H1 9288   4.347   2.576   0.220  0.5582  1.2241  0.2311
 3094TIP3    H2 9289   4.332   2.551   0.368 -0.5522 -4.1936 -0.5925
 3095TIP3   OH2 9290   2.597   0.475   0.413  0.1240  0.7026  0.7093
 3095TIP3    H1 9291   2.587   0.408   0.480 -0.8101 -1.3292 -1.3392
 3095TIP3    H2 9292   2.508   0.489   0.379  0.7377  0.7129 -0.9659
 3096TIP3   OH2 9293   3.299   0.766   2.433 -0.4181  0.5256  0.3382
 3096TIP3    H1 9294   3.311   0.726   2.347  0.0739  1.7206 -0.1702
 3096TIP3    H2 9295   3.205   0.778   2.442 -0.6339 -1.1668  0.7226
 3097TIP3   OH2 9296   4.770   1.533   4.173 -0.1881 -0.1878 -0.3355
 3097TIP3    H1 9297   4.809   1.617   4.195 -0.6665 -0.2395  0.8188
 3097TIP3    H2 9298   4.701   1.554   4.110  1.1979 -0.0215 -1.8789
 3098TIP3   OH2 9299   5.655   5.474   0.676  0.1996 -0.3194 -0.0773
 3098TIP3    H1 9300   5.663   5.383   0.706 -1.4175 -0.1483  0.9525
 3098TIP3    H2 9301   5.666   5.526   0.755 -0.2850  0.3244 -0.4286
 3099TIP3   OH2 9302   6.147   1.191   3.533 -0.7141  0.1812  0.0516
 3099TIP3    H1 9303   6.125   1.131   3.461 -2.7031  0.1286  0.6350
 3099TIP3    H2 9304   6.156   1.277   3.492  0.6890 -0.2354 -0.5799
 3100TIP3   OH2 9305   4.298   4.613   3.465 -0.0161  0.2806  0.1274
 3100TIP3    H1 9306   4.207   4.635   3.443  0.0343  0.9325  0.5297
 3100TIP3    H2 9307   4.337   4.586   3.382 -0.5477  0.1276 -0.0704
 3101TIP3   OH2 9308   0.436   2.282   3.062 -0.1072 -0.4547  0.2472
 3101TIP3    H1 9309   0.507   2.228   3.028  0.2676  0.0550  0.1941
 3101TIP3    H2 9310   0.356   2.235   3.039  0.1593 -0.4285 -0.7867
 3102TIP3   OH2 9311   1.435   2.562   3.649 -0.1388 -0.4945  0.3997
 3102TIP3    H1 9312   1.359   2.615   3.625 -0.8376 -0.9230  1.5458
 3102TIP3    H2 9313   1.496   2.571   3.576 -0.2744  1.8016  0.4974
 3103TIP3   OH2 9314   2.683   2.381   3.266 -0.5675  1.1284 -0.4732
 3103TIP3    H1 9315   2.694   2.476   3.269 -0.8028  1.1457 -0.1773
 3103TIP3    H2 9316   2.595   2.366   3.300 -0.3048  0.7610  0.0546
 3104TIP3   OH2 9317   2.316   0.264   2.973 -0.8472 -0.0149 -0.3450
 3104TIP3    H1 9318   2.286   0.174   2.960 -2.1352  0.3007  0.2169
 3104TIP3    H2 9319   2.300   0.281   3.066  1.4731  0.0830  0.0906
 3105TIP3   OH2 9320   3.380   3.208   3.047 -0.2308 -0.7258 -0.0824
 3105TIP3    H1 9321   3.337   3.195   3.132 -1.6618  0.9791 -0.4816
 3105TIP3    H2 9322   3.337   3.146   2.989 -0.5450 -0.6106  0.0272
 3106TIP3   OH2 9323   4.884   3.594   1.384  0.1034  0.7332 -0.4161
 3106TIP3    H1 9324   4.895   3.640   1.467 -2.2993  0.2722  0.2173
 3106TIP3    H2 9325   4.888   3.664   1.318  0.1019  1.3588  0.2371
 3107TIP3   OH2 9326   5.066   4.929   2.414  0.1583  0.0029 -0.1944
 3107TIP3    H1 9327   5.084   5.011   2.460  1.8259 -0.5064  0.1253
 3107TIP3    H2 9328   5.087   4.860   2.477 -0.8946 -0.7064 -0.5722
 3108TIP3   OH2 9329   0.420   0.235   2.220 -0.6764 -0.0258 -0.2344
 3108TIP3    H1 9330   0.403   0.181   2.143 -0.5528 -0.2274 -0.1216
 3108TIP3    H2 9331   0.366   0.313   2.207 -1.1113 -0.3226 -0.2403
 3109TIP3   OH2 9332   6.195   1.157   0.667 -0.0537 -0.1074 -0.3537
 3109TIP3    H1 9333   6.223   1.218   0.736  0.3599  0.1441 -0.7419
 3109TIP3    H2 9334   6.129   1.205   0.618  1.1413  0.5037 -1.4152
 3110TIP3   OH2 9335   0.704   2.507   3.931 -0.3384 -0.5207  0.1217
 3110TIP3    H1 9336   0.739   2.552   3.854 -0.7927 -0.5400 -0.0949
 3110TIP3    H2 9337   0.677   2.421   3.899  0.2837 -0.8684  0.4821
 3111TIP3   OH2 9338   4.265   0.937   2.417 -0.4829 -0.2394  0.1854
 3111TIP3    H1 9339   4.292   1.024   2.448  0.0604 -1.1609  2.5642
 3111TIP3    H2 9340   4.261   0.884   2.497  0.5942 -2.7728 -1.3283
 3112TIP3   OH2 9341   4.595   4.797   4.874 -0.3603  0.1401  0.2659
 3112TIP3    H1 9342   4.558   4.761   4.955 -0.8097  0.2242  0.0996
 3112TIP3    H2 9343   4.633   4.722   4.829  0.4125  0.1851  0.8321
 3113TIP3   OH2 9344   6.033   1.453   5.119 -0.1236 -0.2997 -0.1159
 3113TIP3    H1 9345   5.975   1.450   5.195  1.2064 -1.3226  0.9027
 3113TIP3    H2 9346   6.120   1.440   5.155  0.6809  0.5512 -1.6858
 3114TIP3   OH2 9347   4.280   4.467   2.181  0.3932 -0.1310 -0.1664
 3114TIP3    H1 9348   4.202   4.433   2.225 -0.2391  0.8756 -0.4609
 3114TIP3    H2 9349   4.313   4.393   2.130  0.8071 -1.1410  1.5036
 3115TIP3   OH2 9350   4.383   0.056   1.314 -0.1194  0.1382  0.3321
 3115TIP3    H1 9351   4.410   0.026   1.401 -0.7596  0.5466  0.6759
 3115TIP3    H2 9352   4.357   0.148   1.328  0.6272  0.4781 -0.4600
 3116TIP3   OH2 9353   1.315   2.956   0.453 -0.2992  0.1985  0.0397
 3116TIP3    H1 9354   1.343   2.908   0.531 -1.4401  0.9047  0.9198
 3116TIP3    H2 9355   1.395   2.995   0.419  0.0957  0.6580  1.4174
 3117TIP3   OH2 9356   2.329   0.830   3.048 -0.1215  0.2285  0.5199
 3117TIP3    H1 9357   2.263   0.856   3.112 -1.8120 -2.4130 -0.0312
 3117TIP3    H2 9358   2.336   0.905   2.988 -1.8528  0.9605  1.1899
 3118TIP3   OH2 9359   5.173   3.888   1.818  0.0047 -0.5962  0.1562
 3118TIP3    H1 9360   5.194   3.794   1.827 -0.9465 -0.6375  2.9251
 3118TIP3    H2 9361   5.259   3.931   1.820  0.3545 -1.2838  1.8714
 3119TIP3   OH2 9362   5.161   4.771   4.016 -0.4183  0.7808  0.1481
 3119TIP3    H1 9363   5.151   4.680   3.987 -0.2284  0.7946  0.0454
 3119TIP3    H2 9364   5.232   4.768   4.080  0.1599  0.9982 -0.4743
 3120TIP3   OH2 9365   6.113   0.459   0.261 -0.1595 -0.2153  0.4087
 3120TIP3    H1 9366   6.088   0.460   0.168 -0.5905  1.3987  0.5111
 3120TIP3    H2 9367   6.160   0.541   0.274  0.8257 -0.9118  1.4049
 3121TIP3   OH2 9368   4.303   2.152   0.852  0.6137 -0.0245 -0.1748
 3121TIP3    H1 9369   4.392   2.118   0.851  1.1488  1.1755  1.7473
 3121TIP3    H2 9370   4.260   2.103   0.923 -0.3227 -0.7096 -1.1946
 3122TIP3   OH2 9371   5.918   0.251   3.085 -0.0145  0.0720  0.0597
 3122TIP3    H1 9372   5.897   0.221   3.174  0.5017  0.4197  0.3053
 3122TIP3    H2 9373   5.859   0.201   3.028  0.9632 -1.5821  0.4322
 3123TIP3   OH2 9374   5.095   4.730   3.660 -0.1350  0.3084 -0.3319
 3123TIP3    H1 9375   5.148   4.662   3.701  0.5367  0.4863 -0.8855
 3123TIP3    H2 9376   5.042   4.766   3.731 -1.1474 -1.3843 -0.1969
 3124TIP3   OH2 9377   2.495   4.987   1.171  0.2567  0.6172 -0.1196
 3124TIP3    H1 9378   2.512   4.893   1.177 -1.0256  0.3707  0.0091
 3124TIP3    H2 9379   2.534   5.025   1.250 -0.0973  0.0443  0.3345
 3125TIP3   OH2 9380   3.948   2.650   2.069 -0.4029 -0.2348 -0.1225
 3125TIP3    H1 9381   3.958   2.574   2.127 -0.3448  0.5199  0.8858
 3125TIP3    H2 9382   3.944   2.612   1.981 -2.0441 -1.5291  0.4573
 3126TIP3   OH2 9383   0.479   4.545   5.192  0.3425  0.4879 -0.1979
 3126TIP3    H1 9384   0.497   4.618   5.132  0.3360  0.2431 -0.5006
 3126TIP3    H2 9385   0.564   4.526   5.232  0.1630  1.2741  0.5863
 3127TIP3   OH2 9386   3.835   2.911   3.298 -0.1428 -0.2738  0.0018
 3127TIP3    H1 9387   3.893   2.857   3.244  0.4573 -0.1811  0.5524
 3127TIP3    H2 9388   3.886   2.989   3.317 -0.2742 -0.3918  0.8683
 3128TIP3   OH2 9389   1.108   3.101   3.640 -0.6380 -0.3682  0.1176
 3128TIP3    H1 9390   1.088   3.092   3.547 -0.5973 -2.8483  0.2757
 3128TIP3    H2 9391   1.054   3.034   3.683  1.4479 -1.2628  1.5390
 3129TIP3   OH2 9392   0.503   0.701   0.059  0.2086  0.6413 -0.0014
 3129TIP3    H1 9393   0.525   0.658  -0.023  2.3583 -0.0414  0.8726
 3129TIP3    H2 9394   0.479   0.629   0.118 -1.7392  1.1516 -0.0940
 3130TIP3   OH2 9395   6.146   0.109   2.882 -0.3615 -0.0217 -0.2487
 3130TIP3    H1 9396   6.182   0.064   2.958  2.3624 -0.9449 -1.9441
 3130TIP3    H2 9397   6.116   0.193   2.916  2.2448  0.2765  1.6528
 3131TIP3   OH2 9398   0.318   0.009   1.429  0.5054 -0.0703  0.5928
 3131TIP3    H1 9399   0.334  -0.036   1.347 -0.4455 -2.7578  1.7731
 3131TIP3    H2 9400   0.231   0.048   1.420  0.1343 -0.9017  0.5230
 3132TIP3   OH2 9401   2.634   2.613   2.615 -0.6704 -0.0714  0.0855
 3132TIP3    H1 9402   2.561   2.661   2.575 -0.1739 -0.0622 -0.8289
 3132TIP3    H2 9403   2.712   2.662   2.589 -0.3396 -0.0169  1.1550
 3133TIP3   OH2 9404   3.806   0.139   0.945  0.0080  0.0771  0.1627
 3133TIP3    H1 9405   3.814   0.060   0.891 -0.3936  0.1681 -0.0414
 3133TIP3    H2 9406   3.888   0.186   0.932  0.1908 -0.2370  0.1716
 3134TIP3   OH2 9407   5.797   2.430   3.072  0.4494 -0.8316  0.0165
 3134TIP3    H1 9408   5.806   2.497   3.140  0.2158  0.4044 -1.1488
 3134TIP3    H2 9409   5.723   2.458   3.019 -0.4419 -2.6714  0.2078
 3135TIP3   OH2 9410   0.460   5.266   3.617 -0.1054 -0.4556 -0.2805
 3135TIP3    H1 9411   0.508   5.294   3.539 -0.6974 -0.3867 -0.6290
 3135TIP3    H2 9412   0.503   5.311   3.690 -0.8098  1.0958 -0.7899
 3136TIP3   OH2 9413   1.056   1.612   3.575 -0.5829  0.3302 -0.6484
 3136TIP3    H1 9414   1.003   1.550   3.624  1.3571  0.0092  1.1803
 3136TIP3    H2 9415   1.032   1.597   3.483 -2.9874 -0.3377  0.0273
 3137TIP3   OH2 9416   3.385   5.221   0.653  0.4873 -0.2460 -0.4023
 3137TIP3    H1 9417   3.470   5.249   0.619  0.2682 -0.3205 -1.0126
 3137TIP3    H2 9418   3.405   5.143   0.704  0.8021 -0.2027 -0.4569
 3138TIP3   OH2 9419   2.198   0.936   1.560  0.1132 -0.7391 -0.7085
 3138TIP3    H1 9420   2.123   0.977   1.604  0.7239 -0.3279 -0.0221
 3138TIP3    H2 9421   2.204   0.849   1.601  0.0431 -0.7517 -0.7242
 3139TIP3   OH2 9422   2.866   3.166   1.890  0.2548 -1.0088  0.2644
 3139TIP3    H1 9423   2.870   3.128   1.978 -1.2884 -2.8160 -0.3782
 3139TIP3    H2 9424   2.831   3.254   1.903  0.3449 -1.1410  1.4688
 3140TIP3   OH2 9425   2.714   2.555   0.851  0.1509  0.0764  0.1878
 3140TIP3    H1 9426   2.789   2.600   0.812 -0.9404  0.9670 -0.9454
 3140TIP3    H2 9427   2.705   2.595   0.938  0.3331  0.7407 -0.0925
 3141TIP3   OH2 9428   1.660   5.400   2.682 -0.4236 -0.3322  0.3036
 3141TIP3    H1 9429   1.727   5.415   2.749  1.1612  1.2595 -1.4946
 3141TIP3    H2 9430   1.673   5.471   2.619 -1.3681 -2.0752 -2.0296
 3142TIP3   OH2 9431   5.185   5.221   4.121  0.5182  0.4916 -0.0053
 3142TIP3    H1 9432   5.203   5.237   4.214 -0.5495 -1.1763  0.5367
 3142TIP3    H2 9433   5.107   5.272   4.102  1.1646  1.4252 -0.2062
 3143TIP3   OH2 9434   0.938   2.954   4.900 -0.0603 -0.2169 -0.2680
 3143TIP3    H1 9435   0.952   3.019   4.969  0.5058  0.4983 -1.0334
 3143TIP3    H2 9436   0.950   3.003   4.819  0.9845 -1.4110 -0.8590
 3144TIP3   OH2 9437   4.202   5.667   3.651  0.0552  0.2451  0.3806
 3144TIP3    H1 9438   4.140   5.615   3.701 -0.4686  0.3852 -0.1076
 3144TIP3    H2 9439   4.179   5.758   3.670 -1.1652  0.3234 -1.2883
 3145TIP3   OH2 9440   5.497   3.563   2.505 -0.4939 -0.1556  0.0959
 3145TIP3    H1 9441   5.408   3.597   2.503 -0.5896 -0.4075  0.0873
 3145TIP3    H2 9442   5.533   3.594   2.588  0.0082  1.4688 -0.6880
 3146TIP3   OH2 9443   5.690   0.881   4.120 -0.6406 -0.0986  0.2617
 3146TIP3    H1 9444   5.659   0.924   4.200  2.2627  1.6230  0.6183
 3146TIP3    H2 9445   5.751   0.944   4.081 -1.4189 -1.1464 -3.0108
 3147TIP3   OH2 9446   1.315   1.656   1.056  0.1336 -0.2984 -0.1746
 3147TIP3    H1 9447   1.288   1.738   1.097 -1.3474  0.1407 -1.9125
 3147TIP3    H2 9448   1.239   1.598   1.064  0.4744 -0.8278 -0.6810
 3148TIP3   OH2 9449   4.321   4.997   1.633 -0.0854  0.4383  0.0182
 3148TIP3    H1 9450   4.310   5.048   1.714 -1.1813 -0.0647  0.2133
 3148TIP3    H2 9451   4.371   5.054   1.575 -0.9550  1.6010  0.3638
 3149TIP3   OH2 9452   4.468   1.292   4.136 -0.2990  0.0677  0.2483
 3149TIP3    H1 9453   4.542   1.339   4.097 -0.1852 -0.6628 -0.4441
 3149TIP3    H2 9454   4.412   1.270   4.061 -1.3555  0.8284  0.7874
 3150TIP3   OH2 9455   2.783   5.633   3.823  0.6481 -0.2444 -0.5591
 3150TIP3    H1 9456   2.751   5.601   3.739  0.4308  1.2004 -1.0581
 3150TIP3    H2 9457   2.713   5.615   3.885  0.1028  0.1856 -1.0391
 3151TIP3   OH2 9458   4.509   2.712   4.136  0.1193 -0.6155  0.0076
 3151TIP3    H1 9459   4.428   2.686   4.093 -0.3314  0.2761  0.2838
 3151TIP3    H2 9460   4.533   2.637   4.190 -0.6935 -0.7762  0.1583
 3152TIP3   OH2 9461   4.176   0.546   2.484 -0.0805 -0.1297  0.3103
 3152TIP3    H1 9462   4.124   0.554   2.404  0.6753  3.0482 -0.0019
 3152TIP3    H2 9463   4.179   0.635   2.519  1.8334 -0.9521  2.4565
 3153TIP3   OH2 9464   0.821   1.333   4.238 -0.4787  0.4335 -0.1850
 3153TIP3    H1 9465   0.892   1.269   4.240 -0.9496 -0.1681 -1.4039
 3153TIP3    H2 9466   0.861   1.415   4.267 -0.0682 -0.5629  2.2965
 3154TIP3   OH2 9467   1.393   4.398   2.664 -0.0923  0.1272  0.1910
 3154TIP3    H1 9468   1.372   4.484   2.699  1.1514 -0.1666  1.8004
 3154TIP3    H2 9469   1.452   4.415   2.591  2.0084  0.6486  1.9071
 3155TIP3   OH2 9470   5.295   1.458   5.064  0.4351  0.3298  0.4176
 3155TIP3    H1 9471   5.250   1.460   4.980 -0.0357 -1.3957  0.5833
 3155TIP3    H2 9472   5.260   1.532   5.112 -1.4711 -0.3504  0.1492
 3156TIP3   OH2 9473   5.804   1.800   3.472 -0.2252  0.4011  0.8276
 3156TIP3    H1 9474   5.753   1.731   3.431 -1.0466  0.5618  1.5471
 3156TIP3    H2 9475   5.868   1.826   3.406  0.1643 -1.1042  0.5747
 3157TIP3   OH2 9476   0.921   2.290   4.808  0.6059  0.6030  0.2169
 3157TIP3    H1 9477   0.849   2.270   4.749  1.2276 -0.4925 -0.1785
 3157TIP3    H2 9478   0.890   2.366   4.858 -1.6788 -1.0505  1.5109
 3158TIP3   OH2 9479   4.190   3.499   0.387 -0.3811  0.3900  0.3452
 3158TIP3    H1 9480   4.185   3.518   0.293  0.9673  1.4081  0.4480
 3158TIP3    H2 9481   4.283   3.482   0.403 -0.6155  0.0652  1.4773
 3159TIP3   OH2 9482   6.306   1.424   0.249  0.1996  0.0254  0.1942
 3159TIP3    H1 9483   6.371   1.491   0.227 -0.7729  0.9370  0.0466
 3159TIP3    H2 9484   6.224   1.472   0.257 -0.9537 -1.4057 -2.0321
 3160TIP3   OH2 9485   4.749   0.239   0.150 -0.3704  0.3570  0.0719
 3160TIP3    H1 9486   4.660   0.254   0.120 -0.4553 -2.2732 -1.2635
 3160TIP3    H2 9487   4.741   0.172   0.219  0.3326  2.4641  2.3312
 3161TIP3   OH2 9488   1.443   0.880   3.868 -0.5364  0.1878  0.0472
 3161TIP3    H1 9489   1.401   0.814   3.814 -1.1567  0.9565 -0.4322
 3161TIP3    H2 9490   1.406   0.963   3.838  1.8344  0.9959 -0.8816
 3162TIP3   OH2 9491   6.218   3.257   2.084 -0.4517  0.3362 -0.0862
 3162TIP3    H1 9492   6.268   3.202   2.024 -1.7269 -1.5160  0.4344
 3162TIP3    H2 9493   6.136   3.274   2.037 -0.8698  0.0802  0.5372
 3163TIP3   OH2 9494   1.318   4.631   4.296 -0.5207 -0.6937 -0.6280
 3163TIP3    H1 9495   1.380   4.560   4.312  0.4307 -0.1433 -1.6785
 3163TIP3    H2 9496   1.271   4.641   4.378  0.6433 -1.2684  0.1368
 3164TIP3   OH2 9497   5.709   4.062   4.954 -0.0342 -0.2049 -0.4338
 3164TIP3    H1 9498   5.790   4.106   4.930  1.2558 -1.1151  1.8232
 3164TIP3    H2 9499   5.644   4.131   4.960  0.9623  0.7906 -0.8032
 3165TIP3   OH2 9500   5.533   4.471   1.658  0.3483  0.1100 -0.5463
 3165TIP3    H1 9501   5.612   4.436   1.617 -1.7891 -1.2628 -3.8922
 3165TIP3    H2 9502   5.463   4.410   1.635 -1.6878  0.8361  2.8835
 3166TIP3   OH2 9503   4.759   2.358   4.044 -0.2314  0.2052  0.2174
 3166TIP3    H1 9504   4.676   2.338   4.001 -0.6159 -1.5761  1.6342
 3166TIP3    H2 9505   4.824   2.305   3.998  0.0322  1.1009 -0.4710
 3167TIP3   OH2 9506   0.718   3.459   1.458  0.4885 -0.2999  0.2873
 3167TIP3    H1 9507   0.689   3.372   1.486 -0.9481  0.0206 -0.1193
 3167TIP3    H2 9508   0.788   3.441   1.394 -1.8074 -1.3295 -2.1205
 3168TIP3   OH2 9509   4.817   1.437   3.568  0.3785  0.1163 -0.7321
 3168TIP3    H1 9510   4.811   1.363   3.508 -2.6487  0.2515 -0.7459
 3168TIP3    H2 9511   4.730   1.445   3.606  1.5210  1.5798  1.8746
 3169TIP3   OH2 9512   5.398   3.945   1.259  0.0451 -0.6049 -0.3005
 3169TIP3    H1 9513   5.341   4.021   1.256 -1.3811 -1.6600 -1.1657
 3169TIP3    H2 9514   5.388   3.911   1.348 -0.9188 -0.9293 -0.5181
 3170TIP3   OH2 9515   5.044   5.979   3.486  0.1965 -0.2213  0.4807
 3170TIP3    H1 9516   5.015   5.891   3.512  0.5437 -0.1937  0.9707
 3170TIP3    H2 9517   5.140   5.974   3.488  0.2303  0.5426  1.8265
 3171TIP3   OH2 9518   3.703   2.074   0.614  0.6205 -0.2423  0.1243
 3171TIP3    H1 9519   3.742   2.055   0.528  1.5241  1.3679  0.1234
 3171TIP3    H2 9520   3.743   2.157   0.640 -1.3597  0.4930  1.0621
 3172TIP3   OH2 9521   6.043   0.056   0.435 -0.3549 -0.3102 -0.1266
 3172TIP3    H1 9522   6.058   0.093   0.522  1.1592 -0.8746 -0.1132
 3172TIP3    H2 9523   5.951   0.028   0.436 -1.0870  1.9040  0.4097
 3173TIP3   OH2 9524   1.153   5.576   1.143  0.0807 -0.4840 -0.5784
 3173TIP3    H1 9525   1.248   5.573   1.152  0.2991  1.4473 -1.7906
 3173TIP3    H2 9526   1.127   5.484   1.138  1.9315 -1.0410 -0.7371
 3174TIP3   OH2 9527   1.697   5.970   4.930 -0.5871 -0.0619 -0.5524
 3174TIP3    H1 9528   1.746   5.939   4.853 -0.0566 -2.8794  0.8168
 3174TIP3    H2 9529   1.760   6.025   4.977 -0.4730  0.5578 -1.3918
 3175TIP3   OH2 9530   4.150   0.366   3.121  0.0433 -0.2324 -0.8018
 3175TIP3    H1 9531   4.119   0.337   3.207 -0.0862  1.1813 -0.3413
 3175TIP3    H2 9532   4.231   0.318   3.107 -0.3758 -1.1054 -0.2679
 3176TIP3   OH2 9533   0.369   1.325   4.732  0.1126 -0.0482 -1.0008
 3176TIP3    H1 9534   0.397   1.350   4.644  2.5828 -0.9154 -0.5471
 3176TIP3    H2 9535   0.427   1.373   4.790 -0.3850 -0.7580  0.1114
 3177TIP3   OH2 9536   1.558   5.641   2.904 -0.2363 -0.4671  0.1630
 3177TIP3    H1 9537   1.592   5.571   2.848  0.7426 -0.7435  1.0732
 3177TIP3    H2 9538   1.495   5.687   2.848 -1.0251 -2.1530 -0.4125
 3178TIP3   OH2 9539   2.828   1.106   1.517  0.5906  0.0932 -0.3400
 3178TIP3    H1 9540   2.862   1.139   1.434  2.8123  1.3793  0.9811
 3178TIP3    H2 9541   2.820   1.011   1.503 -3.1737  0.5862 -3.2711
 3179TIP3   OH2 9542   0.054   5.464   3.381 -0.0082 -0.2934 -0.1033
 3179TIP3    H1 9543  -0.011   5.395   3.370  0.3530 -0.4950 -1.1580
 3179TIP3    H2 9544   0.120   5.446   3.313  1.0692 -0.0045  0.8250
 3180TIP3   OH2 9545   0.656   3.478   2.390  0.4710  0.6486  0.1373
 3180TIP3    H1 9546   0.661   3.399   2.443  1.1331 -1.1068 -2.3563
 3180TIP3    H2 9547   0.569   3.474   2.349 -0.3646  2.4014  1.5766
 3181TIP3   OH2 9548   1.671   2.043   1.704  0.0479 -0.2924  0.1415
 3181TIP3    H1 9549   1.587   2.066   1.666  0.0040 -0.2009  0.2934
 3181TIP3    H2 9550   1.663   2.065   1.797  0.0769 -0.7137  0.2493
 3182TIP3   OH2 9551   1.940   0.072   1.175  0.3469 -0.6600 -0.3457
 3182TIP3    H1 9552   1.856   0.083   1.219  0.2518 -2.5946  0.0438
 3182TIP3    H2 9553   1.923   0.008   1.106  1.1879  0.0456 -1.2383
 3183TIP3   OH2 9554   0.450   1.362   4.214 -0.3183  0.7605 -0.3609
 3183TIP3    H1 9555   0.509   1.435   4.198  3.3280 -2.1328 -1.5049
 3183TIP3    H2 9556   0.431   1.326   4.127 -0.9070 -0.4756  0.2413
 3184TIP3   OH2 9557   5.504   3.719   3.397  0.6954 -0.4733  0.3507
 3184TIP3    H1 9558   5.447   3.645   3.377  1.4950 -0.7355 -1.0433
 3184TIP3    H2 9559   5.586   3.680   3.427  1.7331 -0.2795 -1.9992
 3185TIP3   OH2 9560   5.839   2.572   3.529 -0.6036 -0.2180 -0.0318
 3185TIP3    H1 9561   5.796   2.609   3.607  1.0874 -0.3777  1.0070
 3185TIP3    H2 9562   5.873   2.488   3.558  1.3791  0.3907 -0.4823
 3186TIP3   OH2 9563   1.871   4.446   4.705 -0.3631 -0.2146 -0.0622
 3186TIP3    H1 9564   1.835   4.390   4.773 -1.2675  1.4702  0.9104
 3186TIP3    H2 9565   1.914   4.518   4.753  1.5764 -0.5029 -1.2405
 3187TIP3   OH2 9566   3.890   0.347   2.219 -0.5490  0.2037 -0.1573
 3187TIP3    H1 9567   3.859   0.277   2.162 -0.1029  0.6739 -0.9978
 3187TIP3    H2 9568   3.981   0.361   2.193 -0.1933  0.1244  0.9850
 3188TIP3   OH2 9569   4.217   5.418   4.992  0.0237 -0.1829  0.2237
 3188TIP3    H1 9570   4.173   5.399   4.909 -0.6469 -0.3238  0.5969
 3188TIP3    H2 9571   4.202   5.340   5.046 -1.9964  0.9534  1.4589
 3189TIP3   OH2 9572   2.734   5.846   4.565 -0.2056  0.0352 -0.3764
 3189TIP3    H1 9573   2.660   5.833   4.506  0.4906 -0.1074 -1.2428
 3189TIP3    H2 9574   2.787   5.914   4.522  0.7726 -0.7049 -0.3717
 3190TIP3   OH2 9575   5.442   3.516   1.284 -0.7706  0.5696  0.1303
 3190TIP3    H1 9576   5.531   3.500   1.314 -1.2290 -1.1285  0.6831
 3190TIP3    H2 9577   5.449   3.595   1.230  1.0567  0.4887  0.1835
 3191TIP3   OH2 9578   0.741  -0.006   2.766  0.7450  0.1063 -0.2952
 3191TIP3    H1 9579   0.712   0.063   2.825  0.7078 -0.0197 -0.1649
 3191TIP3    H2 9580   0.823   0.025   2.730  0.4107  0.5017 -0.7214
 3192TIP3   OH2 9581   3.818   1.155   1.753 -0.1546  0.5415 -0.0028
 3192TIP3    H1 9582   3.744   1.191   1.803 -1.0568 -1.2636  0.0666
 3192TIP3    H2 9583   3.818   1.204   1.671 -1.4324  0.5882  0.0024
 3193TIP3   OH2 9584   5.606   2.878   3.291 -0.6142 -0.2153 -0.4741
 3193TIP3    H1 9585   5.677   2.932   3.327 -0.4172  0.0390 -1.2215
 3193TIP3    H2 9586   5.585   2.919   3.206 -1.4826 -0.4371 -0.3761
 3194TIP3   OH2 9587   4.370   2.263   3.248 -0.0784  0.4786  0.1456
 3194TIP3    H1 9588   4.315   2.303   3.181 -0.3421 -1.0397 -0.5721
 3194TIP3    H2 9589   4.451   2.240   3.202  0.1882  0.4365  0.6225
 3195TIP3   OH2 9590   1.362   0.335   5.116  0.1267  0.6867  0.0682
 3195TIP3    H1 9591   1.365   0.393   5.040 -0.1368  0.1914 -0.3305
 3195TIP3    H2 9592   1.427   0.267   5.097  0.5881  0.9605  0.6282
 3196TIP3   OH2 9593   6.044   2.373   1.866  0.3870  0.0127  0.4517
 3196TIP3    H1 9594   6.130   2.331   1.861  1.1364  1.4125  1.0418
 3196TIP3    H2 9595   6.006   2.340   1.948 -0.0957 -1.3768 -0.2928
 3197TIP3   OH2 9596   2.509   3.904   2.333  0.3045 -0.3500 -0.6358
 3197TIP3    H1 9597   2.551   3.818   2.330  0.5948 -0.2135 -0.5109
 3197TIP3    H2 9598   2.489   3.917   2.426 -1.5787 -1.1676 -0.8892
 3198TIP3   OH2 9599   5.236   3.705   2.243  0.4529  0.4455 -0.3240
 3198TIP3    H1 9600   5.297   3.699   2.169 -1.5051  0.4917 -2.0523
 3198TIP3    H2 9601   5.183   3.626   2.237 -0.9326  1.3258 -0.0980
 3199TIP3   OH2 9602   3.144   1.663   1.418 -0.0399 -0.7120  0.1403
 3199TIP3    H1 9603   3.118   1.686   1.329 -0.5774 -0.4916  0.3499
 3199TIP3    H2 9604   3.201   1.586   1.407 -0.6932 -1.1389 -0.3421
 3200TIP3   OH2 9605   2.570   4.440   0.186  0.0173 -0.0893 -0.2376
 3200TIP3    H1 9606   2.583   4.494   0.265  1.0986  1.3076 -1.3131
 3200TIP3    H2 9607   2.479   4.454   0.162  0.0291  0.5030  0.0479
 3201TIP3   OH2 9608   0.990   3.452   4.402  0.1623 -0.0526 -0.8724
 3201TIP3    H1 9609   0.899   3.422   4.409  0.2210 -0.2404 -0.9163
 3201TIP3    H2 9610   0.984   3.536   4.357 -0.0724  0.3791 -0.0595
 3202TIP3   OH2 9611   3.174   1.521   1.802 -0.2817  0.0298 -0.4941
 3202TIP3    H1 9612   3.196   1.437   1.841 -2.0895 -0.5060 -0.5603
 3202TIP3    H2 9613   3.162   1.580   1.876 -1.3407 -0.3793 -0.3302
 3203TIP3   OH2 9614   0.804   4.845   1.370 -0.0196  0.7309  0.6202
 3203TIP3    H1 9615   0.859   4.772   1.400 -0.6005  0.5600  1.3008
 3203TIP3    H2 9616   0.866   4.914   1.347  0.5425  0.0290 -0.0442
 3204TIP3   OH2 9617   5.612   0.306   0.580  0.2828 -0.2045 -0.3539
 3204TIP3    H1 9618   5.616   0.284   0.487  0.7247  2.6727 -1.0918
 3204TIP3    H2 9619   5.523   0.338   0.593  0.4694  0.1728  0.0109
 3205TIP3   OH2 9620   4.423   1.118   3.512 -0.0661  0.7829 -0.0518
 3205TIP3    H1 9621   4.493   1.125   3.447  0.0970  2.1104  0.2361
 3205TIP3    H2 9622   4.467   1.131   3.596 -0.1929 -1.4218  0.4092
 3206TIP3   OH2 9623   2.532   1.411   4.387  0.6085 -0.1611 -0.7920
 3206TIP3    H1 9624   2.516   1.495   4.345  1.0775 -0.1715 -1.0015
 3206TIP3    H2 9625   2.627   1.402   4.388  0.5480 -1.3339 -2.1099
 3207TIP3   OH2 9626   0.555   0.834   2.742 -0.2894 -0.1858 -0.3385
 3207TIP3    H1 9627   0.632   0.854   2.689 -0.4791  0.0523 -0.5281
 3207TIP3    H2 9628   0.486   0.814   2.678 -0.2978 -0.7183 -0.1624
 3208TIP3   OH2 9629   4.331   1.162   5.052  0.3760 -0.2384 -0.5779
 3208TIP3    H1 9630   4.377   1.209   5.122 -1.0327  2.7841 -1.5271
 3208TIP3    H2 9631   4.390   1.169   4.977 -0.1135  0.6841 -0.8953
 3209TIP3   OH2 9632   5.101   0.508   1.426  0.2336 -0.3594  0.1823
 3209TIP3    H1 9633   5.131   0.589   1.384 -0.5926  0.3970  0.9953
 3209TIP3    H2 9634   5.011   0.497   1.395  0.5349 -1.3022 -0.3830
 3210TIP3   OH2 9635   3.309   1.225   0.480 -0.4101  0.0853 -0.4020
 3210TIP3    H1 9636   3.283   1.203   0.570 -0.2257  0.5987 -0.2237
 3210TIP3    H2 9637   3.299   1.142   0.432 -0.1068 -0.2916  0.1789
 3211TIP3   OH2 9638   0.430   0.130   2.497 -0.0144 -1.0669 -0.1796
 3211TIP3    H1 9639   0.410   0.160   2.409 -1.4401 -0.1396  0.4263
 3211TIP3    H2 9640   0.488   0.197   2.533 -1.0526 -0.3757  0.2544
 3212TIP3   OH2 9641   3.296   1.853   4.218 -0.1252 -0.4101 -0.2163
 3212TIP3    H1 9642   3.359   1.782   4.232  0.6080  0.3701  0.4889
 3212TIP3    H2 9643   3.263   1.838   4.129  1.5687 -0.4348 -0.8712
 3213TIP3   OH2 9644   1.536   2.498   1.125  0.0859 -0.1194 -0.4199
 3213TIP3    H1 9645   1.478   2.422   1.125 -1.9669  1.3820 -1.3005
 3213TIP3    H2 9646   1.568   2.504   1.216 -0.4323 -1.4548 -0.1239
 3214TIP3   OH2 9647   1.951   3.507   2.941 -0.1652  0.1443 -0.7705
 3214TIP3    H1 9648   2.002   3.563   2.883  0.9387 -0.9780 -0.9137
 3214TIP3    H2 9649   1.937   3.427   2.891 -1.4020  0.1243 -0.4302
 3215TIP3   OH2 9650   0.761   2.494   5.001 -0.1180 -0.3767  0.3897
 3215TIP3    H1 9651   0.681   2.534   5.033 -0.3987  1.8399 -2.6422
 3215TIP3    H2 9652   0.819   2.568   4.981  1.3535 -1.7316 -0.6939
 3216TIP3   OH2 9653   3.868   2.544   3.753 -0.1159 -0.4701 -0.6802
 3216TIP3    H1 9654   3.870   2.630   3.710 -2.9364 -0.0112 -0.1044
 3216TIP3    H2 9655   3.958   2.529   3.781  0.5923  1.9965 -1.3802
 3217TIP3   OH2 9656   4.502   3.216   1.488 -0.1774 -0.0608  0.8454
 3217TIP3    H1 9657   4.440   3.145   1.504  0.7444 -1.1395 -0.2348
 3217TIP3    H2 9658   4.449   3.284   1.446 -0.3721 -1.6305 -1.6369
 3218TIP3   OH2 9659   1.160   4.656   3.717 -0.6749 -0.0335  0.6915
 3218TIP3    H1 9660   1.218   4.701   3.656 -2.0837 -0.8847 -1.3740
 3218TIP3    H2 9661   1.217   4.592   3.761  0.1432 -0.2677 -0.6500
 3219TIP3   OH2 9662   2.938   5.734   2.186  0.2306  0.0283 -0.2341
 3219TIP3    H1 9663   3.027   5.747   2.219 -0.1795  0.5439  0.7063
 3219TIP3    H2 9664   2.892   5.815   2.208 -1.2812 -1.3260  2.0473
 3220TIP3   OH2 9665   4.049   1.709   3.631  0.7040 -0.3886  0.0038
 3220TIP3    H1 9666   4.041   1.615   3.649  0.0088 -0.5564 -1.1144
 3220TIP3    H2 9667   4.130   1.735   3.676  2.7348 -2.1919 -2.3000
 3221TIP3   OH2 9668   4.764   0.201   2.595  0.1768  0.5526  0.2123
 3221TIP3    H1 9669   4.758   0.111   2.630  1.2158  0.4635  0.1779
 3221TIP3    H2 9670   4.692   0.206   2.532 -0.0287 -0.1889  0.3675
 3222TIP3   OH2 9671   0.204   0.795   3.233  0.1306  0.2285  0.0732
 3222TIP3    H1 9672   0.219   0.842   3.151  0.7005  0.6126  0.3910
 3222TIP3    H2 9673   0.125   0.835   3.269 -0.6631 -0.5797 -0.7367
 3223TIP3   OH2 9674   2.282   5.286   5.119  0.3801  0.4204  0.3111
 3223TIP3    H1 9675   2.313   5.209   5.073 -0.5254  0.1952  0.0579
 3223TIP3    H2 9676   2.350   5.305   5.184  0.5601 -0.6568  0.4469
 3224TIP3   OH2 9677   2.424   3.573   1.079  0.3591  0.4577  0.6012
 3224TIP3    H1 9678   2.417   3.651   1.134  0.6599  1.7542 -1.0948
 3224TIP3    H2 9679   2.456   3.606   0.995  0.8168 -1.5571 -0.0793
 3225TIP3   OH2 9680   5.468   4.617   2.498  0.1205 -0.8404  0.4675
 3225TIP3    H1 9681   5.548   4.639   2.450 -1.3589  0.4519 -1.5820
 3225TIP3    H2 9682   5.400   4.670   2.457 -2.1278 -3.0795  1.0252
 3226TIP3   OH2 9683   3.730   4.803   4.020 -0.6149 -0.0124 -0.1926
 3226TIP3    H1 9684   3.674   4.729   4.042 -0.2216 -0.1330  0.4337
 3226TIP3    H2 9685   3.816   4.765   4.002 -0.4813  0.2605 -0.1443
 3227TIP3   OH2 9686   3.401   3.268   0.329 -0.3609  0.8666 -0.2536
 3227TIP3    H1 9687   3.387   3.264   0.423 -0.2738 -1.2386 -0.2778
 3227TIP3    H2 9688   3.317   3.298   0.294 -0.6248  0.9667  0.4465
 3228TIP3   OH2 9689   3.461   0.708   0.271  0.4941 -0.3384  0.0039
 3228TIP3    H1 9690   3.457   0.764   0.193  0.5740 -0.5354 -0.1430
 3228TIP3    H2 9691   3.395   0.640   0.254  0.7588 -0.5807 -0.0476
 3229TIP3   OH2 9692   2.206   1.918   1.051 -0.2643  0.1202 -0.0449
 3229TIP3    H1 9693   2.162   2.000   1.071  0.0438  0.2258  0.2130
 3229TIP3    H2 9694   2.159   1.853   1.103 -0.9909  0.0031 -0.8258
 3230TIP3   OH2 9695   3.464   1.922   2.283  0.4989  0.8086 -0.2813
 3230TIP3    H1 9696   3.549   1.950   2.251  0.8513  2.1490  1.6840
 3230TIP3    H2 9697   3.463   1.946   2.376 -1.2029 -1.1073  0.2833
 3231TIP3   OH2 9698   1.270   2.184   2.961  0.0446 -0.2962 -0.1321
 3231TIP3    H1 9699   1.299   2.262   2.914  3.1712 -1.7230 -0.8844
 3231TIP3    H2 9700   1.305   2.195   3.050  0.1688 -0.6741 -0.1342
 3232TIP3   OH2 9701   0.286   1.911   4.949 -0.3430 -0.5408 -0.3985
 3232TIP3    H1 9702   0.304   1.900   4.856  0.8281 -1.2104 -0.0997
 3232TIP3    H2 9703   0.320   1.998   4.970 -0.4990 -0.4398 -0.5575
 3233TIP3   OH2 9704   0.588   2.691   5.168 -0.0649  0.3535 -0.1716
 3233TIP3    H1 9705   0.495   2.668   5.165 -0.4984  1.8868  0.2467
 3233TIP3    H2 9706   0.595   2.768   5.112  0.8564  0.5467  0.1932
 3234TIP3   OH2 9707   0.751   3.461   0.007 -0.2019 -0.1822  0.2418
 3234TIP3    H1 9708   0.775   3.393   0.070 -0.8513 -0.4579  0.1983
 3234TIP3    H2 9709   0.827   3.467  -0.051  0.4063  0.0735  1.0424
 3235TIP3   OH2 9710   0.734   1.553   3.930 -0.4904  0.1252  0.3362
 3235TIP3    H1 9711   0.814   1.596   3.959 -0.1098 -1.6834  2.2854
 3235TIP3    H2 9712   0.669   1.578   3.996 -1.2990  0.8426 -0.7169
 3236TIP3   OH2 9713   2.438   2.629   0.620  0.4871  0.7055  0.1668
 3236TIP3    H1 9714   2.515   2.586   0.583 -0.1947 -0.8650  0.5001
 3236TIP3    H2 9715   2.385   2.558   0.655 -0.0850  1.9181  1.9301
 3237TIP3   OH2 9716   1.124   5.644   0.884  0.1954 -0.5176  0.3103
 3237TIP3    H1 9717   1.155   5.561   0.848  0.4957 -0.1386 -0.3154
 3237TIP3    H2 9718   1.097   5.622   0.974  0.5997 -1.2175  0.2701
 3238TIP3   OH2 9719   0.616   5.372   4.980 -0.1777 -0.0672  0.0366
 3238TIP3    H1 9720   0.696   5.322   4.992 -0.9767 -1.5906 -0.6940
 3238TIP3    H2 9721   0.640   5.442   4.918  0.7553 -0.0230  0.4328
 3239TIP3   OH2 9722   0.569   5.313   2.763  0.0264 -0.2120  0.7314
 3239TIP3    H1 9723   0.488   5.363   2.777  0.1659 -0.1524  1.3406
 3239TIP3    H2 9724   0.545   5.247   2.698  0.0474  1.1344 -0.7118
 3240TIP3   OH2 9725   4.192   5.996   4.384 -0.5242  0.3332 -0.6093
 3240TIP3    H1 9726   4.254   6.040   4.441  1.6475 -0.9584 -1.8673
 3240TIP3    H2 9727   4.224   5.906   4.376 -2.7497 -0.5101 -1.0551
 3241TIP3   OH2 9728   0.689   3.165   4.998 -0.7672 -0.0061 -0.3405
 3241TIP3    H1 9729   0.781   3.176   5.024 -0.2793 -2.2453 -0.9386
 3241TIP3    H2 9730   0.674   3.235   4.934  0.8253 -0.1639 -0.9337
 3242TIP3   OH2 9731   1.763   0.238   0.224  0.1754  0.6508 -0.0498
 3242TIP3    H1 9732   1.757   0.279   0.138 -2.8301  1.4732  0.4544
 3242TIP3    H2 9733   1.682   0.262   0.269  0.8791 -1.1181  2.4276
 3243TIP3   OH2 9734   3.855   2.549   0.013  0.3381  0.4865  0.3640
 3243TIP3    H1 9735   3.842   2.523   0.105 -1.4116  0.6551  0.2011
 3243TIP3    H2 9736   3.789   2.499  -0.035  1.8573 -0.3375 -0.9728
 3244TIP3   OH2 9737   2.321   0.990   0.051 -0.2705  0.0847 -0.3436
 3244TIP3    H1 9738   2.266   0.924   0.009  0.0724  0.3511 -1.2239
 3244TIP3    H2 9739   2.261   1.039   0.108 -1.7570  2.4794 -3.6510
 3245TIP3   OH2 9740   2.863   5.265   3.698  0.0781  0.4576  0.4939
 3245TIP3    H1 9741   2.954   5.243   3.716 -0.6820 -1.6339  2.1662
 3245TIP3    H2 9742   2.819   5.261   3.783 -2.0602 -1.1685 -0.5817
 3246TIP3   OH2 9743   5.335   0.324   3.440  0.4397 -0.6702  0.4099
 3246TIP3    H1 9744   5.373   0.297   3.356  0.6995 -0.6198  0.5105
 3246TIP3    H2 9745   5.374   0.264   3.504 -0.2049 -1.0932  0.4204
 3247TIP3   OH2 9746   6.177   1.459   3.452  0.5513 -0.3994 -0.4174
 3247TIP3    H1 9747   6.123   1.471   3.373 -1.7441  0.7119  1.2254
 3247TIP3    H2 9748   6.259   1.505   3.432 -0.3142  0.6111 -1.8573
 3248TIP3   OH2 9749   5.040   1.674   0.120  0.0978  0.8297  0.6563
 3248TIP3    H1 9750   4.985   1.600   0.093 -0.5982  1.2700  0.8250
 3248TIP3    H2 9751   5.057   1.722   0.039  0.1949  0.7162  0.6098
 3249TIP3   OH2 9752   3.757   0.395   0.176 -0.0949 -0.5543 -0.4178
 3249TIP3    H1 9753   3.684   0.333   0.177  0.0197 -0.6935  0.5973
 3249TIP3    H2 9754   3.735   0.457   0.246  1.6573 -1.6770  1.2124
 3250TIP3   OH2 9755   2.026   5.664   2.616  0.6107 -0.1062  0.0078
 3250TIP3    H1 9756   2.110   5.710   2.624 -0.3261  1.5386  0.9457
 3250TIP3    H2 9757   1.967   5.711   2.676 -1.4585 -0.0925 -1.9137
 3251TIP3   OH2 9758   0.176   2.440   1.574  0.0209  0.2004  0.0182
 3251TIP3    H1 9759   0.233   2.396   1.511  1.0054  0.9592  0.3667
 3251TIP3    H2 9760   0.209   2.414   1.660 -2.8280 -2.8829  0.4151
 3252TIP3   OH2 9761   6.321   1.210   1.208 -0.3971 -0.2750 -0.7784
 3252TIP3    H1 9762   6.231   1.198   1.240 -0.6569  0.7051 -1.1228
 3252TIP3    H2 9763   6.345   1.124   1.172 -1.3257 -0.4456 -1.0090
 3253TIP3   OH2 9764   5.084   0.915   4.369  0.0404  0.5498 -0.0819
 3253TIP3    H1 9765   5.015   0.901   4.434 -0.7800 -2.0000 -1.3732
 3253TIP3    H2 9766   5.163   0.879   4.408 -0.6168 -1.7181 -0.7042
 3254TIP3   OH2 9767   3.545   3.064   5.175 -0.3128  0.6720 -0.4103
 3254TIP3    H1 9768   3.593   3.058   5.093 -0.2867 -1.6267 -0.2915
 3254TIP3    H2 9769   3.503   3.149   5.172  1.4361  1.5444 -1.8053
 3255TIP3   OH2 9770   2.790   0.396   4.315 -0.4501 -0.1845 -0.0617
 3255TIP3    H1 9771   2.829   0.318   4.276 -2.4730 -0.8188 -1.0084
 3255TIP3    H2 9772   2.835   0.470   4.275  1.1056 -0.8417  0.4252
 3256TIP3   OH2 9773   5.848   1.744   4.328  0.6254 -0.1581  0.6259
 3256TIP3    H1 9774   5.877   1.654   4.313  0.6764 -0.2619  1.3334
 3256TIP3    H2 9775   5.897   1.773   4.404 -0.3461  0.0246  1.1984
 3257TIP3   OH2 9776   4.653   1.272   2.921  0.3705 -0.5338  0.1484
 3257TIP3    H1 9777   4.688   1.188   2.950  0.3405 -0.3095  0.8369
 3257TIP3    H2 9778   4.678   1.278   2.829  1.1475 -0.8908  0.3356
 3258TIP3   OH2 9779   5.539   0.641   2.691 -0.2255  0.1734 -0.0958
 3258TIP3    H1 9780   5.450   0.632   2.659  0.2795 -0.4586 -1.3839
 3258TIP3    H2 9781   5.585   0.688   2.622  0.2231  1.4039  0.9979
 3259TIP3   OH2 9782   4.022   4.927   2.344  0.3877  0.0093  0.0038
 3259TIP3    H1 9783   4.084   4.892   2.280 -0.7688  0.0947 -1.1990
 3259TIP3    H2 9784   4.007   5.017   2.316 -0.1454  0.0452  0.3803
 3260TIP3   OH2 9785   2.641   3.312   2.314 -0.2854  0.0448  0.1400
 3260TIP3    H1 9786   2.545   3.314   2.307 -0.1942  0.6528 -1.3072
 3260TIP3    H2 9787   2.670   3.275   2.231  0.8063  1.8201 -0.3282
 3261TIP3   OH2 9788   0.642   5.644   3.079 -0.5576 -0.0100 -0.2855
 3261TIP3    H1 9789   0.569   5.663   3.139  0.2007  0.4161  0.5323
 3261TIP3    H2 9790   0.704   5.715   3.094  0.6312 -1.0727  0.0104
 3262TIP3   OH2 9791   4.757   0.110   1.833  0.2592  0.8448  0.2112
 3262TIP3    H1 9792   4.727   0.153   1.913 -1.4959  0.2983 -0.1110
 3262TIP3    H2 9793   4.791   0.181   1.779 -1.3904  1.6993  0.2111
 3263TIP3   OH2 9794   0.251   0.528   2.859  0.3987 -0.5250  0.6416
 3263TIP3    H1 9795   0.323   0.587   2.835 -0.3111 -0.2818 -1.0150
 3263TIP3    H2 9796   0.240   0.541   2.953  1.1450  0.9844  0.5509
 3264TIP3   OH2 9797   0.058   5.985   5.037 -0.0749  0.7211 -0.0966
 3264TIP3    H1 9798   0.080   6.048   5.105  0.0289 -0.1034  0.6518
 3264TIP3    H2 9799   0.021   5.910   5.085 -0.1529  0.1964 -0.9584
 3265TIP3   OH2 9800   0.248   3.057   1.673 -0.1064  0.1886 -0.5603
 3265TIP3    H1 9801   0.165   3.009   1.668  0.2786 -1.0870  2.6167
 3265TIP3    H2 9802   0.306   3.010   1.613 -1.4100  0.5484 -2.1515
 3266TIP3   OH2 9803   1.516   2.942   1.465 -0.1394 -0.0748  0.7267
 3266TIP3    H1 9804   1.462   3.006   1.511 -0.6568  0.6138 -0.7725
 3266TIP3    H2 9805   1.604   2.980   1.466  0.5246 -1.4353  3.6129
 3267TIP3   OH2 9806   2.495   4.496   2.360 -0.2438 -0.5453  0.2127
 3267TIP3    H1 9807   2.564   4.430   2.350  0.7641  0.3899  0.7350
 3267TIP3    H2 9808   2.421   4.448   2.397  0.5142 -1.3722  0.7112
 3268TIP3   OH2 9809   3.908   3.581   0.266 -0.2337  0.1370  0.0736
 3268TIP3    H1 9810   3.819   3.602   0.293  0.3581  1.7397  0.9376
 3268TIP3    H2 9811   3.900   3.499   0.217 -2.3160  0.7993 -0.7971
 3269TIP3   OH2 9812   5.981   1.405   1.216 -0.2000  0.5034 -0.3487
 3269TIP3    H1 9813   6.030   1.483   1.242 -0.5428 -0.5813  4.5490
 3269TIP3    H2 9814   5.893   1.419   1.250 -0.5426 -1.5784 -0.1997
 3270TIP3   OH2 9815   4.578   0.413   1.260 -0.2953 -0.5341 -0.0779
 3270TIP3    H1 9816   4.490   0.438   1.288  0.1990  0.4021  0.7229
 3270TIP3    H2 9817   4.590   0.455   1.175 -0.1247  0.5311  0.4545
 3271TIP3   OH2 9818   2.154   5.207   1.901 -0.3221  0.2841  0.0385
 3271TIP3    H1 9819   2.240   5.165   1.896  0.8036  2.1885  1.7941
 3271TIP3    H2 9820   2.092   5.135   1.893  1.4511 -1.3295  0.0593
 3272TIP3   OH2 9821   2.284   0.805   1.275 -0.2830 -0.0695 -0.0612
 3272TIP3    H1 9822   2.218   0.737   1.271 -0.5683  0.2121 -0.1590
 3272TIP3    H2 9823   2.237   0.886   1.258  0.4644 -0.0960 -2.6936
 3273TIP3   OH2 9824   5.322   1.200   2.499 -0.1041 -0.0020 -0.5758
 3273TIP3    H1 9825   5.264   1.260   2.452  1.4219 -1.1900 -4.3395
 3273TIP3    H2 9826   5.263   1.137   2.541 -1.5794  0.7838 -1.4066
 3274TIP3   OH2 9827   4.367   0.199   1.984  0.1417  0.0452 -0.2851
 3274TIP3    H1 9828   4.454   0.163   2.000  0.5332  0.7394 -0.7546
 3274TIP3    H2 9829   4.307   0.126   1.996  0.9239 -0.8200 -1.4310
 3275TIP3   OH2 9830   5.632   5.651   0.306 -0.5623 -0.0098 -0.0085
 3275TIP3    H1 9831   5.539   5.635   0.326 -0.2023 -0.0073  1.9069
 3275TIP3    H2 9832   5.678   5.577   0.346  0.2563 -0.1087 -1.1060
 3276TIP3   OH2 9833   1.202   1.625   2.894  0.4381  0.6695  0.1123
 3276TIP3    H1 9834   1.231   1.704   2.939  1.3224 -0.5863  1.8314
 3276TIP3    H2 9835   1.197   1.558   2.962 -3.7586  0.0106 -0.5721
 3277TIP3   OH2 9836   5.644   0.585   1.500 -0.5381 -0.4142 -0.3355
 3277TIP3    H1 9837   5.561   0.630   1.519  0.1039  0.8405 -0.4424
 3277TIP3    H2 9838   5.674   0.623   1.417  0.9015  0.2858  0.4684
 3278TIP3   OH2 9839   3.174   2.396   0.160  0.2576 -0.1505  0.4733
 3278TIP3    H1 9840   3.130   2.435   0.084  0.2421  1.8177  1.4269
 3278TIP3    H2 9841   3.115   2.413   0.233  1.0819 -0.4522  1.2285
 3279TIP3   OH2 9842   0.513   0.257   1.590  0.4283 -0.3122  0.0387
 3279TIP3    H1 9843   0.526   0.240   1.497 -0.2520  0.4275 -0.2036
 3279TIP3    H2 9844   0.497   0.351   1.595 -0.4656 -0.4945  0.7924
 3280TIP3   OH2 9845   0.530   3.794   2.975 -0.2506 -0.0880  0.3553
 3280TIP3    H1 9846   0.561   3.732   2.909 -3.0544 -1.8355  0.4780
 3280TIP3    H2 9847   0.584   3.776   3.052  0.4971 -0.7708 -0.3152
 3281TIP3   OH2 9848   3.040   5.780   3.505  0.5519  0.3076  0.1036
 3281TIP3    H1 9849   2.980   5.760   3.433  1.0669  0.6367 -0.4150
 3281TIP3    H2 9850   3.025   5.709   3.568 -1.2207  0.9769  0.5223
 3282TIP3   OH2 9851   4.735   2.159   0.029 -0.2187  0.4376 -0.2884
 3282TIP3    H1 9852   4.807   2.183  -0.029 -1.0814  0.9756 -1.1594
 3282TIP3    H2 9853   4.748   2.213   0.107  0.3779  0.4455 -0.3897
 3283TIP3   OH2 9854   5.762   5.409   3.557 -0.0720  0.1842  0.1012
 3283TIP3    H1 9855   5.758   5.422   3.651  1.6869  1.3626  0.0748
 3283TIP3    H2 9856   5.732   5.319   3.543 -2.5504  0.6956  1.5073
 3284TIP3   OH2 9857   4.308   5.716   0.954 -0.8457  0.3042  0.0477
 3284TIP3    H1 9858   4.267   5.764   0.883 -1.0806  0.4239  0.2647
 3284TIP3    H2 9859   4.379   5.667   0.912 -2.3335 -1.3508 -0.6545
 3285TIP3   OH2 9860   0.737   0.982   4.170  0.1770  0.3036  0.2305
 3285TIP3    H1 9861   0.740   1.029   4.087  1.1127  0.6754  0.4675
 3285TIP3    H2 9862   0.828   0.976   4.198 -0.0593 -0.4730  0.8693
 3286TIP3   OH2 9863   2.982   5.215   1.590  0.1615 -0.4904 -0.0686
 3286TIP3    H1 9864   3.038   5.140   1.608 -0.2095 -1.1171 -1.3895
 3286TIP3    H2 9865   2.893   5.180   1.589 -0.0537  0.0404 -0.3272
 3287TIP3   OH2 9866   0.393   4.832   2.889 -0.2332 -0.0980  0.6146
 3287TIP3    H1 9867   0.349   4.896   2.834  0.3662 -0.2747 -0.0899
 3287TIP3    H2 9868   0.388   4.869   2.977 -1.6959 -0.0897  0.5373
 3288TIP3   OH2 9869   2.078   1.567   4.783  0.5389  0.1078 -0.1528
 3288TIP3    H1 9870   2.002   1.601   4.736  0.5508  0.6751  0.2176
 3288TIP3    H2 9871   2.149   1.568   4.719  0.6672  1.2989 -0.0272
 3289TIP3   OH2 9872   6.163   2.276   1.211  0.0082  0.5772 -0.4818
 3289TIP3    H1 9873   6.073   2.300   1.234 -0.2592  0.3083 -1.2333
 3289TIP3    H2 9874   6.192   2.346   1.152 -0.3470 -0.2826 -1.6951
 3290TIP3   OH2 9875   1.505   0.254   0.821  0.2564  0.4305  0.2498
 3290TIP3    H1 9876   1.516   0.190   0.750 -1.1089 -0.0610  0.4324
 3290TIP3    H2 9877   1.414   0.283   0.812  0.5051  1.4460  0.9186
 3291TIP3   OH2 9878   4.658   4.136   4.792  0.1005  0.2211  0.2726
 3291TIP3    H1 9879   4.601   4.064   4.819  0.2902 -1.0435 -2.3291
 3291TIP3    H2 9880   4.601   4.198   4.748  0.4903 -0.4716 -1.2814
 3292TIP3   OH2 9881   1.334   2.473   3.023 -0.4443  0.1017  0.6546
 3292TIP3    H1 9882   1.392   2.398   3.035 -0.3830  0.0906  0.3091
 3292TIP3    H2 9883   1.316   2.504   3.112  0.8272  0.6749  0.7354
 3293TIP3   OH2 9884   3.555   4.590   3.991 -0.9052  0.2479 -0.4927
 3293TIP3    H1 9885   3.554   4.503   4.031 -1.6719  0.4760  0.0116
 3293TIP3    H2 9886   3.519   4.575   3.903 -1.8915  0.1880 -0.0907
 3294TIP3   OH2 9887   2.956   1.912   1.967 -0.5263  0.2687  0.2744
 3294TIP3    H1 9888   3.038   1.873   1.996 -0.3458 -0.6828 -1.3770
 3294TIP3    H2 9889   2.976   1.952   1.883 -1.7700 -0.1277 -0.2409
 3295TIP3   OH2 9890   3.297   1.918   0.077  0.2038 -0.0559  0.1491
 3295TIP3    H1 9891   3.221   1.926   0.134 -0.0555  0.3309 -0.2439
 3295TIP3    H2 9892   3.284   1.985   0.011  0.4898 -0.5178 -0.3817
 3296TIP3   OH2 9893   3.314   4.279   0.706  0.1345  0.1540  0.6095
 3296TIP3    H1 9894   3.275   4.209   0.758  0.4801 -1.0610 -0.6983
 3296TIP3    H2 9895   3.312   4.355   0.763 -2.5014 -0.2750  1.2356
 3297TIP3   OH2 9896   3.405   2.084   0.931 -0.0431 -0.1388  0.2732
 3297TIP3    H1 9897   3.349   2.159   0.913  1.6825  0.5280 -2.9897
 3297TIP3    H2 9898   3.455   2.110   1.009 -2.6228  0.0659  2.0026
 3298TIP3   OH2 9899   1.411   5.675   1.696  0.0696 -0.4233  0.4061
 3298TIP3    H1 9900   1.495   5.665   1.652  0.5700 -1.5998  1.5485
 3298TIP3    H2 9901   1.434   5.686   1.789 -1.0139 -0.3567  0.6796
 3299TIP3   OH2 9902   2.251   4.547   0.264  0.0188  0.3331 -0.0996
 3299TIP3    H1 9903   2.255   4.613   0.333  1.1930  0.7347 -0.5212
 3299TIP3    H2 9904   2.161   4.515   0.266  0.2375 -0.3688  2.2692
 3300TIP3   OH2 9905   4.960   3.156   2.555  0.6199 -0.5621 -0.2359
 3300TIP3    H1 9906   5.011   3.222   2.602 -1.9322  0.8053  0.7600
 3300TIP3    H2 9907   4.949   3.193   2.467  0.9644 -0.6699 -0.3272
 3301TIP3   OH2 9908   1.184   5.012   2.857  0.4632  0.4532  0.1385
 3301TIP3    H1 9909   1.209   5.091   2.904  0.2605  1.1042 -0.8218
 3301TIP3    H2 9910   1.152   4.952   2.925  1.4854  0.8400  0.9797
 3302TIP3   OH2 9911   1.651   0.348   3.537  0.5344  0.5314 -0.5387
 3302TIP3    H1 9912   1.661   0.441   3.560  1.8283  0.5932 -1.3041
 3302TIP3    H2 9913   1.726   0.305   3.578 -1.0089 -0.5222  1.3875
 3303TIP3   OH2 9914   4.301   5.642   1.575  0.9125 -0.7134  0.4747
 3303TIP3    H1 9915   4.264   5.568   1.624 -1.5283 -0.7312 -1.1866
 3303TIP3    H2 9916   4.252   5.642   1.492  1.8445  1.8937 -0.1624
 3304TIP3   OH2 9917   5.768   1.032   3.467  0.0269  0.6696  0.1452
 3304TIP3    H1 9918   5.775   1.022   3.372 -0.7793 -0.7471  0.2214
 3304TIP3    H2 9919   5.835   0.974   3.503  0.2592  1.1211  0.4543
 3305TIP3   OH2 9920   0.158   2.952   4.652  0.3578  0.0661  0.2073
 3305TIP3    H1 9921   0.163   2.862   4.620  1.5145 -0.4973  1.8639
 3305TIP3    H2 9922   0.135   2.945   4.744  0.8345  1.4486  0.4656
 3306TIP3   OH2 9923   3.588   1.626   2.347  0.1431 -0.1938 -0.3048
 3306TIP3    H1 9924   3.656   1.626   2.280  0.1421  0.7992 -0.3175
 3306TIP3    H2 9925   3.567   1.718   2.360 -0.7852 -0.4522  0.1230
 3307TIP3   OH2 9926   0.328   3.019   4.162 -0.1680 -0.7590  0.2732
 3307TIP3    H1 9927   0.267   3.093   4.163 -1.7416 -1.9324  3.1767
 3307TIP3    H2 9928   0.365   3.018   4.250  2.2061 -1.6011 -0.6783
 3308TIP3   OH2 9929   3.407   1.696   2.846 -0.4596  0.4228  0.2961
 3308TIP3    H1 9930   3.368   1.672   2.930 -0.6115  0.3262  0.1983
 3308TIP3    H2 9931   3.379   1.627   2.786  1.1675 -0.5333  0.5749
 3309TIP3   OH2 9932   4.002   1.232   2.409 -0.6108  0.2255 -0.1482
 3309TIP3    H1 9933   3.968   1.143   2.410  0.1277 -0.0728 -0.7245
 3309TIP3    H2 9934   3.953   1.277   2.340 -0.8661  0.2185  0.0294
 3310TIP3   OH2 9935   3.624   1.526   3.121  0.2956  0.2962  0.3928
 3310TIP3    H1 9936   3.558   1.472   3.076  1.0970 -0.8711  0.5698
 3310TIP3    H2 9937   3.691   1.542   3.055 -0.5267  2.2445 -0.0572
 3311TIP3   OH2 9938   0.726   4.591   4.517 -0.2063  0.7663  0.2544
 3311TIP3    H1 9939   0.720   4.543   4.600 -1.3512 -0.6926 -0.6187
 3311TIP3    H2 9940   0.802   4.553   4.473 -1.1267 -0.3442 -0.4473
 3312TIP3   OH2 9941   3.590   5.890   4.904  0.3091  0.2615 -1.3331
 3312TIP3    H1 9942   3.525   5.955   4.929  1.6475  1.1203  0.0721
 3312TIP3    H2 9943   3.667   5.941   4.880  1.2647 -0.7616 -0.5562
 3313TIP3   OH2 9944   4.725   5.424   2.446 -0.1625 -0.2757 -0.2426
 3313TIP3    H1 9945   4.679   5.366   2.385  0.9486  0.0049 -1.4060
 3313TIP3    H2 9946   4.806   5.448   2.400 -0.2507  1.6337  0.4994
 3314TIP3   OH2 9947   5.460   4.497   3.542 -0.1413  0.4849 -0.1551
 3314TIP3    H1 9948   5.518   4.540   3.479 -0.3046  1.3424  0.2626
 3314TIP3    H2 9949   5.379   4.548   3.539 -0.7269 -0.4395 -0.4131
 3315TIP3   OH2 9950   0.020   2.182   4.504  0.6687  0.4849 -0.6559
 3315TIP3    H1 9951   0.099   2.137   4.535 -1.3211 -1.5510  1.8716
 3315TIP3    H2 9952   0.019   2.166   4.410  1.7335 -2.1032 -0.3146
 3316TIP3   OH2 9953   3.484   5.462   2.932 -0.6168  0.3908 -0.7338
 3316TIP3    H1 9954   3.535   5.382   2.919 -0.5589  0.2438  0.3541
 3316TIP3    H2 9955   3.469   5.495   2.843 -0.8340 -0.9465 -1.2220
 3317TIP3   OH2 9956   4.736   0.898   1.107 -0.2137 -0.2041  0.1600
 3317TIP3    H1 9957   4.731   0.970   1.171  1.4672 -0.6178  0.8191
 3317TIP3    H2 9958   4.769   0.824   1.158  2.8625 -0.0926 -1.4880
 3318TIP3   OH2 9959   2.598   0.212   2.968  0.8877 -0.1218  0.6444
 3318TIP3    H1 9960   2.517   0.250   2.934 -0.0484 -1.4070  1.3230
 3318TIP3    H2 9961   2.571   0.169   3.049  1.9859 -1.7009  0.2131
 3319TIP3   OH2 9962   2.317   5.131   0.690  0.3407 -0.5750 -0.5157
 3319TIP3    H1 9963   2.326   5.223   0.667 -1.7709 -0.9480 -3.3008
 3319TIP3    H2 9964   2.357   5.084   0.616  0.4175 -1.9079  0.3435
 3320TIP3   OH2 9965   3.886   2.842   4.133  0.0151 -0.1474  0.2867
 3320TIP3    H1 9966   3.860   2.923   4.176 -0.9532  0.7763 -1.8903
 3320TIP3    H2 9967   3.805   2.791   4.127  0.5444 -1.1572  1.3151
 3321TIP3   OH2 9968   6.187   2.396   4.758  0.0527 -0.4543 -0.0204
 3321TIP3    H1 9969   6.120   2.348   4.709  1.6676 -0.1914 -2.7081
 3321TIP3    H2 9970   6.185   2.484   4.721  0.9560 -0.0620  0.8175
 3322TIP3   OH2 9971   0.263   3.646   2.003  0.3412 -0.2845 -0.0394
 3322TIP3    H1 9972   0.206   3.582   1.961 -1.0040  2.3009 -2.4189
 3322TIP3    H2 9973   0.215   3.673   2.082  0.0911 -0.8944  0.0219
 3323TIP3   OH2 9974   3.083   3.400   1.118 -0.1375  0.2003  0.0511
 3323TIP3    H1 9975   3.052   3.371   1.204 -2.0796 -0.3906 -0.7860
 3323TIP3    H2 9976   3.176   3.415   1.130 -0.2727 -0.3075  2.1423
 3324TIP3   OH2 9977   2.884   0.640   3.790 -0.7027 -0.6718  0.0278
 3324TIP3    H1 9978   2.973   0.605   3.791 -0.6715 -0.5884  0.4130
 3324TIP3    H2 9979   2.872   0.672   3.700 -0.5416 -1.1797 -0.1766
 3325TIP3   OH2 9980   4.691   0.761   2.175  0.1474 -0.6184  0.0226
 3325TIP3    H1 9981   4.786   0.768   2.176  0.1460 -0.5421  0.9460
 3325TIP3    H2 9982   4.672   0.684   2.230 -0.3567  0.0705  0.8429
 3326TIP3   OH2 9983   5.397   3.263   1.947  0.1640  0.4263 -0.2200
 3326TIP3    H1 9984   5.477   3.302   1.981  0.5615 -0.1026 -0.5471
 3326TIP3    H2 9985   5.419   3.171   1.931 -0.3970  0.3648 -0.6709
 3327TIP3   OH2 9986   0.420   2.748   3.238 -0.0279  0.1713 -0.1415
 3327TIP3    H1 9987   0.344   2.700   3.269 -0.0573  0.6115  0.4872
 3327TIP3    H2 9988   0.480   2.680   3.206 -0.8549 -0.1518 -1.0653
 3328TIP3   OH2 9989   1.917   1.761   0.781 -0.6212  0.1657  0.5785
 3328TIP3    H1 9990   1.926   1.750   0.875  1.2112  0.6834  0.4964
 3328TIP3    H2 9991   1.823   1.757   0.765 -0.8950 -1.0190  2.2836
 3329TIP3   OH2 9992   1.245   5.658   1.988  0.5853  0.1264  0.0230
 3329TIP3    H1 9993   1.186   5.586   2.011  0.2669  0.5710  0.6190
 3329TIP3    H2 9994   1.332   5.624   2.007  0.5244 -0.4930 -0.7497
 3330TIP3   OH2 9995   1.589   5.300   0.533 -0.0390 -0.4859 -0.1726
 3330TIP3    H1 9996   1.556   5.387   0.552  1.4589  0.5651 -1.9511
 3330TIP3    H2 9997   1.664   5.289   0.591 -0.8924 -1.1122  0.8562
 3331TIP3   OH2 9998   1.505   5.707   0.078  0.3517 -0.3793 -0.1361
 3331TIP3    H1 9999   1.435   5.674   0.022  0.4960 -1.7285  0.4537
 3331TIP3    H210000   1.463   5.722   0.163  0.3433  0.7612 -0.3262
 3332TIP3   OH210001   3.190   3.493   4.574 -0.0833 -0.0864 -0.0740
 3332TIP3    H110002   3.138   3.428   4.619 -0.1211  0.7677  1.1636
 3332TIP3    H210003   3.129   3.535   4.513 -0.3042 -0.4964 -0.1386
 3333TIP3   OH210004   1.459   3.844   4.583 -0.4252 -0.5415  0.4941
 3333TIP3    H110005   1.382   3.842   4.639  0.4551 -1.1303  1.7229
 3333TIP3    H210006   1.503   3.761   4.599  1.3577  0.4738  1.1302
 3334TIP3   OH210007   5.418   1.582   3.630 -0.1216 -0.0596  0.2771
 3334TIP3    H110008   5.480   1.511   3.642  1.5388  1.2479 -0.1435
 3334TIP3    H210009   5.468   1.661   3.650 -0.8275  1.2612 -2.6249
 3335TIP3   OH210010   4.136   3.369   3.710  0.1859 -0.1953 -0.0102
 3335TIP3    H110011   4.217   3.386   3.758 -0.0039  1.2135 -0.1458
 3335TIP3    H210012   4.077   3.329   3.775  1.0201 -1.3971  0.0431
 3336TIP3   OH210013   3.513   1.030   1.726 -0.0327  0.3350 -0.0476
 3336TIP3    H110014   3.523   0.970   1.652  3.3882 -0.4528  0.8847
 3336TIP3    H210015   3.497   1.116   1.686  0.6815 -0.2512 -1.6593
 3337TIP3   OH210016   4.101   1.039   5.101 -0.2215  0.3458  0.0371
 3337TIP3    H110017   4.070   1.099   5.169 -0.4884  0.2903 -0.0309
 3337TIP3    H210018   4.188   1.071   5.078 -0.3072  0.6307  0.0958
 3338TIP3   OH210019   0.503   2.620   3.539 -0.1423 -0.1968  0.1919
 3338TIP3    H110020   0.556   2.545   3.565 -0.3659 -1.1203 -1.8433
 3338TIP3    H210021   0.440   2.585   3.476 -0.3264  1.6745 -0.7342
 3339TIP3   OH210022   4.795   2.546   4.238  0.2177 -0.3638  0.7192
 3339TIP3    H110023   4.757   2.494   4.168  1.6681 -0.1475 -0.2831
 3339TIP3    H210024   4.766   2.503   4.318 -1.1146 -0.8838 -0.0131
 3340TIP3   OH210025   1.718   5.438   3.530  0.0665  0.1397  0.6927
 3340TIP3    H110026   1.696   5.381   3.457 -0.2567  0.1071  0.8142
 3340TIP3    H210027   1.799   5.401   3.566  0.8852  0.8549 -0.3828
 3341TIP3   OH210028   3.735   5.919   0.911  0.0446 -0.2112  0.8132
 3341TIP3    H110029   3.821   5.906   0.870 -0.8730 -0.5914 -1.1250
 3341TIP3    H210030   3.733   6.012   0.935  0.0589  0.4518 -1.5276
 3342TIP3   OH210031   3.938   4.078   4.001  0.2797 -0.3705  0.0756
 3342TIP3    H110032   3.884   4.001   3.982  0.3839 -0.1813 -1.0642
 3342TIP3    H210033   3.875   4.151   4.004  0.2805 -0.3790  0.3691
 3343TIP3   OH210034   0.891   3.031   2.978 -0.0668  0.4536  0.1761
 3343TIP3    H110035   0.932   3.093   3.037 -0.6306  1.0712 -0.0683
 3343TIP3    H210036   0.907   2.945   3.018  3.4294  0.4091 -1.0641
 3344TIP3   OH210037   3.629   0.325   3.835  0.1878  0.2863 -0.0559
 3344TIP3    H110038   3.695   0.310   3.902  0.4479  1.5555  0.0030
 3344TIP3    H210039   3.587   0.240   3.822  1.4584 -0.4123  0.2979
 3345TIP3   OH210040   5.446   0.029   2.063  0.1593  0.0935 -0.0989
 3345TIP3    H110041   5.527   0.053   2.019 -0.9453  0.7471 -1.8696
 3345TIP3    H210042   5.404   0.112   2.083 -0.1323 -0.2406  0.7292
 3346TIP3   OH210043   2.570   4.903   3.521 -0.3929  0.3897  0.2686
 3346TIP3    H110044   2.569   4.808   3.523  0.1332  0.3754  0.0875
 3346TIP3    H210045   2.640   4.928   3.580 -0.0540  0.6378 -0.2310
 3347TIP3   OH210046   3.621   2.719   1.651 -0.1000 -0.3045  0.1807
 3347TIP3    H110047   3.594   2.638   1.694  0.9886 -0.5993  0.3222
 3347TIP3    H210048   3.610   2.787   1.718 -0.3881 -0.4278  0.2631
 3348TIP3   OH210049   2.116   3.076   1.981 -0.6291  0.2461  0.8848
 3348TIP3    H110050   2.052   3.122   2.036 -3.6410 -1.8056 -0.6258
 3348TIP3    H210051   2.131   3.135   1.907 -0.2750  0.9785  1.5213
 3349TIP3   OH210052   3.597   4.823   0.268 -0.0114 -0.4078 -0.5056
 3349TIP3    H110053   3.611   4.911   0.304 -1.9170 -0.2678 -0.0369
 3349TIP3    H210054   3.515   4.829   0.220  0.2115 -1.7683 -1.1119
 3350TIP3   OH210055   5.842   4.860   4.069  0.5452  0.0902  0.0590
 3350TIP3    H110056   5.757   4.832   4.033  0.5103 -0.2523  0.3947
 3350TIP3    H210057   5.867   4.788   4.127  0.6690  0.5710  0.6074
 3351TIP3   OH210058   3.950   2.243   1.531 -0.1937 -0.1369 -0.0975
 3351TIP3    H110059   4.031   2.286   1.560 -0.7786  0.4445  0.7268
 3351TIP3    H210060   3.886   2.265   1.598 -1.4102  0.5968 -1.4425
 3352TIP3   OH210061   3.372   5.737   1.466 -0.2109 -0.2197 -0.1297
 3352TIP3    H110062   3.327   5.654   1.480 -0.3757 -0.4021 -1.5414
 3352TIP3    H210063   3.302   5.802   1.466 -0.4432 -0.4207 -1.6203
 3353TIP3   OH210064   4.320   4.161   3.451  0.5045 -0.3224  0.7101
 3353TIP3    H110065   4.298   4.239   3.503  0.7513 -0.8953  1.6989
 3353TIP3    H210066   4.389   4.118   3.501  1.5805 -0.2875 -0.7003
 3354TIP3   OH210067   3.116   4.921   5.174  0.0152  0.2297 -0.4956
 3354TIP3    H110068   3.152   5.008   5.195  1.8190 -0.3261 -1.0521
 3354TIP3    H210069   3.193   4.864   5.173 -1.2418 -1.5561  0.6325
 3355TIP3   OH210070   5.374   1.400   1.972 -0.1980  0.2903  0.5652
 3355TIP3    H110071   5.466   1.412   1.948 -0.2780 -1.7393 -1.0599
 3355TIP3    H210072   5.371   1.421   2.065  1.8152  0.8215  0.5702
 3356TIP3   OH210073   3.462   0.307   4.227  0.3588 -0.1253 -0.7638
 3356TIP3    H110074   3.434   0.387   4.182  0.7038  0.3025 -0.2247
 3356TIP3    H210075   3.389   0.246   4.215 -1.1195  1.1480  1.1198
 3357TIP3   OH210076   4.113   3.809   4.599 -0.0984 -0.2718 -0.4488
 3357TIP3    H110077   4.038   3.868   4.591 -0.3125 -0.4750  0.0594
 3357TIP3    H210078   4.083   3.726   4.562 -0.2104 -0.4289 -0.0066
 3358TIP3   OH210079   1.309   2.110   4.484  0.1776 -0.1130  0.2124
 3358TIP3    H110080   1.238   2.134   4.545  0.2925  1.0192 -0.0848
 3358TIP3    H210081   1.372   2.064   4.539 -0.0633  0.2473  0.8049
 3359TIP3   OH210082   4.348   2.214   0.303 -0.2201 -0.3658 -0.1826
 3359TIP3    H110083   4.255   2.229   0.287 -0.2668  0.9402  1.0659
 3359TIP3    H210084   4.366   2.260   0.385  0.8096 -3.2557  1.3928
 3360TIP3   OH210085   4.062   2.154   3.564 -0.2516 -0.3511  0.3086
 3360TIP3    H110086   4.012   2.152   3.646 -0.2265  0.0842  0.3390
 3360TIP3    H210087   4.116   2.076   3.567  1.4963  0.8166  1.8261
 3361TIP3   OH210088   4.138   1.802   0.655  0.7384 -0.1103 -0.2941
 3361TIP3    H110089   4.119   1.860   0.581 -0.1690 -1.2002 -0.9525
 3361TIP3    H210090   4.052   1.771   0.684  1.1103  0.0301  1.0087
 3362TIP3   OH210091   1.553   1.350   1.262  0.5915 -0.5477  0.4753
 3362TIP3    H110092   1.612   1.416   1.226  1.8577 -0.8831  1.8685
 3362TIP3    H210093   1.508   1.315   1.185  1.5670  0.3182 -0.5327
 3363TIP3   OH210094   2.263   4.490  -0.007  0.2986 -0.2191  0.1370
 3363TIP3    H110095   2.246   4.498   0.087 -0.0835  0.7191  0.0039
 3363TIP3    H210096   2.215   4.412  -0.034  1.0495 -0.9415  0.8596
 3364TIP3   OH210097   2.235   4.426   4.487  0.2557  0.5748  0.8954
 3364TIP3    H110098   2.182   4.376   4.425  0.8450  1.7383 -0.6130
 3364TIP3    H210099   2.325   4.400   4.466  0.5577  2.0364  0.2400
 3365TIP3   OH210100   3.782   1.110   2.729  0.0643  0.5024  0.3768
 3365TIP3    H110101   3.732   1.125   2.809 -3.5117 -2.0876 -1.0787
 3365TIP3    H210102   3.756   1.182   2.671 -0.2123  0.3868  0.3573
 3366TIP3   OH210103   1.829   4.790   1.141 -0.5169 -0.1119 -0.0422
 3366TIP3    H110104   1.834   4.781   1.236 -0.3744  2.1509  0.2162
 3366TIP3    H210105   1.862   4.878   1.123  0.5652 -0.9040 -2.3248
 3367TIP3   OH210106   2.344   4.399   3.280 -0.0513  0.2020 -0.1118
 3367TIP3    H110107   2.384   4.314   3.300  2.5852  1.6246  1.1356
 3367TIP3    H210108   2.319   4.393   3.188  0.5935 -1.7127 -0.2029
 3368TIP3   OH210109   3.528   2.605   4.539  0.6197  0.2218  0.1244
 3368TIP3    H110110   3.443   2.642   4.564 -0.5592 -0.8884 -1.9359
 3368TIP3    H210111   3.546   2.539   4.606 -1.5388 -1.4018 -0.7413
 3369TIP3   OH210112   4.704   0.210   4.616 -0.1078 -0.1524 -0.1130
 3369TIP3    H110113   4.637   0.274   4.639 -0.0614 -0.3988  0.7242
 3369TIP3    H210114   4.659   0.126   4.623 -0.0119 -0.2484 -0.6449
 3370TIP3   OH210115   5.725   3.577   1.136 -0.2431  0.1075 -0.4360
 3370TIP3    H110116   5.794   3.609   1.077  0.3157 -1.3958 -0.6365
 3370TIP3    H210117   5.725   3.482   1.124 -2.5720  0.0925 -0.6479
 3371TIP3   OH210118   0.893   0.533   2.527 -0.0371 -0.3749 -0.0810
 3371TIP3    H110119   0.807   0.538   2.568  0.0353 -0.3422  0.0680
 3371TIP3    H210120   0.914   0.624   2.503  0.4330 -0.2159  0.8770
 3372TIP3   OH210121   6.344   0.445   2.160  0.6507 -0.5881  0.0478
 3372TIP3    H110122   6.376   0.355   2.161  1.6083 -0.3206 -1.6908
 3372TIP3    H210123   6.274   0.447   2.226  0.5422 -2.6131  0.0530
 3373TIP3   OH210124   5.739   0.457   0.882 -0.0747  0.1429  0.3977
 3373TIP3    H110125   5.699   0.542   0.864 -0.8176 -0.6134 -1.7906
 3373TIP3    H210126   5.782   0.432   0.800  1.4456 -0.9337  1.4636
 3374TIP3   OH210127   0.433   4.300   2.631 -0.1823  0.4002  0.5793
 3374TIP3    H110128   0.498   4.337   2.691  0.9148 -1.0932  0.3709
 3374TIP3    H210129   0.469   4.314   2.544 -0.2367 -0.2661  0.4492
 3375TIP3   OH210130   3.573   5.449   3.857 -0.3655  0.6807 -0.6501
 3375TIP3    H110131   3.628   5.404   3.792  0.5315  0.2377  0.3788
 3375TIP3    H210132   3.627   5.522   3.887 -0.2730  0.1668  0.4691
 3376TIP3   OH210133   6.045   0.118   1.593  0.3610  0.3925 -0.2247
 3376TIP3    H110134   6.073   0.207   1.616 -0.1268  0.1525  1.4262
 3376TIP3    H210135   5.954   0.113   1.624  0.4376 -0.7249 -0.1309
 3377TIP3   OH210136   4.635   4.755   4.162  0.3215  0.0912 -0.3621
 3377TIP3    H110137   4.726   4.735   4.137 -0.2406 -0.3263 -2.1894
 3377TIP3    H210138   4.594   4.669   4.171 -0.1560  0.2916 -0.6103
 3378TIP3   OH210139   0.852   5.391   2.503  0.1857 -0.1174  0.4389
 3378TIP3    H110140   0.775   5.436   2.469  0.1355 -0.4339  0.1329
 3378TIP3    H210141   0.906   5.372   2.426  1.0313  0.9391  0.7391
 3379TIP3   OH210142   0.783   5.645   3.564 -0.6356  0.1297 -0.0913
 3379TIP3    H110143   0.755   5.577   3.502 -0.5421 -1.7914  1.8687
 3379TIP3    H210144   0.705   5.664   3.615 -0.3103  0.5247  0.2628
 3380TIP3   OH210145   5.708   4.693   2.363  0.2382  0.1707 -0.3222
 3380TIP3    H110146   5.769   4.764   2.385  1.0443  0.3922 -2.8602
 3380TIP3    H210147   5.764   4.624   2.328 -0.5302 -1.8875  2.2227
 3381TIP3   OH210148   5.925   2.942   4.647  0.2671 -0.0447  0.1387
 3381TIP3    H110149   5.974   3.013   4.606  0.6964  0.5865  1.6840
 3381TIP3    H210150   5.848   2.984   4.684 -0.7603 -0.8100 -1.0196
 3382TIP3   OH210151   0.026   3.755   2.899 -0.4834 -0.2369 -0.8981
 3382TIP3    H110152   0.040   3.843   2.933  2.8124 -1.1922  0.6433
 3382TIP3    H210153  -0.052   3.723   2.946 -2.3368  2.0578 -2.2002
 3383TIP3   OH210154   1.390   2.936   1.198 -0.4064  0.4679 -0.0997
 3383TIP3    H110155   1.448   2.966   1.269 -1.0382  1.4554  0.0051
 3383TIP3    H210156   1.345   2.860   1.236  0.2276  0.1718  0.0879
 3384TIP3   OH210157   5.685   3.731   4.404  0.7084 -0.1143  0.1296
 3384TIP3    H110158   5.596   3.755   4.428  0.7996  0.1095  0.2476
 3384TIP3    H210159   5.686   3.635   4.409  0.7130 -0.0766  1.0007
 3385TIP3   OH210160   1.055   3.546   1.907  1.1117  0.4748 -0.4193
 3385TIP3    H110161   0.974   3.556   1.856  1.0199  1.1550 -0.1493
 3385TIP3    H210162   1.067   3.631   1.950  0.7360 -0.3163  1.3592
 3386TIP3   OH210163   5.367   0.043   0.328 -0.5859 -0.7706  0.1625
 3386TIP3    H110164   5.380  -0.048   0.304  0.0513 -0.7128  0.2608
 3386TIP3    H210165   5.293   0.073   0.275 -0.2508 -1.1034 -0.4965
 3387TIP3   OH210166   3.087   2.991   0.621  0.3302  0.5708 -0.0286
 3387TIP3    H110167   3.076   3.027   0.709  0.4448 -0.6376  0.4961
 3387TIP3    H210168   3.160   2.931   0.629 -1.5528 -1.8807 -0.1757
 3388TIP3   OH210169   2.179   3.132   3.529 -0.6351 -0.1339  0.0196
 3388TIP3    H110170   2.125   3.211   3.519  0.5861  0.5624 -1.5102
 3388TIP3    H210171   2.118   3.065   3.558 -2.0201  1.0044 -0.1503
 3389TIP3   OH210172   2.871   3.408   5.098 -0.0782  0.1305 -0.2863
 3389TIP3    H110173   2.853   3.434   5.008 -0.6930  1.2116  0.1283
 3389TIP3    H210174   2.822   3.326   5.109 -0.2613  0.1623 -0.8268
 3390TIP3   OH210175   0.632   4.523   3.512  0.0451  0.1308 -0.0883
 3390TIP3    H110176   0.579   4.566   3.578  0.6287  3.1084 -1.4156
 3390TIP3    H210177   0.721   4.553   3.529  0.4113 -0.1640 -1.3573
 3391TIP3   OH210178   4.659   5.077   4.912 -0.0074  0.4506  0.4980
 3391TIP3    H110179   4.636   4.990   4.880 -2.0933  0.8647  0.6995
 3391TIP3    H210180   4.601   5.136   4.864  1.2730  1.7202  0.4659
 3392TIP3   OH210181   1.418   3.094   3.915  0.4064  0.3334  0.2253
 3392TIP3    H110182   1.405   3.033   3.988 -1.3900 -0.8351 -0.9900
 3392TIP3    H210183   1.480   3.050   3.857 -0.5825 -0.1988 -0.4561
 3393TIP3   OH210184   0.479   0.680   2.938  0.1978 -0.4667 -0.9431
 3393TIP3    H110185   0.486   0.727   3.021  0.0962 -1.3521 -0.4266
 3393TIP3    H210186   0.499   0.746   2.872  1.0877  0.0562 -0.1742
 3394TIP3   OH210187   2.686   0.828   0.594  0.6462  0.2952  0.5738
 3394TIP3    H110188   2.599   0.867   0.597  0.1552 -0.6420 -0.4483
 3394TIP3    H210189   2.714   0.821   0.685 -1.5073 -1.8451  1.1727
 3395TIP3   OH210190   4.350   4.118   0.164 -0.1534 -0.0377 -0.8989
 3395TIP3    H110191   4.275   4.078   0.120 -0.1715  1.6042 -2.4538
 3395TIP3    H210192   4.320   4.204   0.191  1.2582  0.8449 -1.9722
 3396TIP3   OH210193   5.157   1.363   3.472  0.0042 -0.0277  0.1855
 3396TIP3    H110194   5.106   1.333   3.397  2.1696  0.0338 -1.4115
 3396TIP3    H210195   5.150   1.459   3.469  1.5083  0.0883 -1.0952
 3397TIP3   OH210196   5.325   4.564   3.800 -0.2208 -0.7196 -0.2783
 3397TIP3    H110197   5.309   4.473   3.775  0.9747 -1.4049  1.2686
 3397TIP3    H210198   5.420   4.568   3.813 -0.5522 -0.0497  2.4428
 3398TIP3   OH210199   0.146   4.035   4.511 -0.3584 -0.2572 -0.4673
 3398TIP3    H110200   0.061   4.077   4.516  0.2659  0.9832  0.2966
 3398TIP3    H210201   0.190   4.079   4.438  0.2872  0.4107  0.3098
 3399TIP3   OH210202   0.600   1.039   5.166 -0.2440  0.6240 -0.0741
 3399TIP3    H110203   0.602   1.098   5.241 -0.2032 -0.2111  0.5914
 3399TIP3    H210204   0.654   1.082   5.100  0.7962  0.7488  0.8398
 3400TIP3   OH210205   4.525   5.617   2.135 -0.2080  0.0326  0.1255
 3400TIP3    H110206   4.552   5.709   2.135 -1.3035  0.3591  0.6119
 3400TIP3    H210207   4.433   5.618   2.161 -0.1423 -1.2344  0.4795
 3401TIP3   OH210208   4.173   5.616   1.320 -0.3159 -0.5246 -0.0476
 3401TIP3    H110209   4.212   5.594   1.235 -0.8888 -1.7767 -0.0057
 3401TIP3    H210210   4.107   5.548   1.335 -3.3800  2.0467 -0.6524
 3402TIP3   OH210211   4.267   2.622   1.170 -0.3789  0.1105 -0.0684
 3402TIP3    H110212   4.211   2.653   1.098 -0.1503  1.0942  0.1547
 3402TIP3    H210213   4.266   2.694   1.233 -0.6853 -0.8044  0.9875
 3403TIP3   OH210214   4.282   2.201   4.572 -0.1223  0.2825  0.2057
 3403TIP3    H110215   4.197   2.230   4.537 -1.1856 -1.8777  0.8076
 3403TIP3    H210216   4.331   2.173   4.495 -0.2428  0.7973 -0.0666
 3404TIP3   OH210217   6.170   1.477   3.747 -0.0642  0.0618 -0.0028
 3404TIP3    H110218   6.177   1.571   3.763 -1.7639  0.5607 -1.8096
 3404TIP3    H210219   6.183   1.468   3.653 -1.1340 -1.3647 -0.0379
 3405TIP3   OH210220   2.577   5.373   3.932  0.3353  0.2380  0.8471
 3405TIP3    H110221   2.509   5.434   3.903  0.1252  0.3455  1.5345
 3405TIP3    H210222   2.543   5.287   3.909 -0.6734  0.1908  2.3714
 3406TIP3   OH210223   2.317   4.755   3.188  0.0851  0.1293 -0.3645
 3406TIP3    H110224   2.401   4.712   3.174  0.0413  0.5270 -1.9804
 3406TIP3    H210225   2.270   4.745   3.105 -0.8817  1.2015  0.0228
 3407TIP3   OH210226   0.688   3.774   4.943  0.2028  0.0813 -0.0537
 3407TIP3    H110227   0.762   3.716   4.958  0.2092  0.3176  0.8534
 3407TIP3    H210228   0.649   3.742   4.861  1.4666  0.1441 -0.6972
 3408TIP3   OH210229   1.474   2.289   3.685  0.3545 -0.3666  0.1673
 3408TIP3    H110230   1.474   2.384   3.694 -1.4499 -0.1319 -1.5484
 3408TIP3    H210231   1.563   2.263   3.708  1.6579  2.0121 -1.7190
 3409TIP3   OH210232   4.062   2.704   0.227 -0.2537  0.5062 -0.1108
 3409TIP3    H110233   4.113   2.785   0.225  1.0584 -0.3047 -1.4122
 3409TIP3    H210234   4.019   2.700   0.142  0.6308 -0.7120 -0.5257
 3410TIP3   OH210235   2.483   3.359   0.400 -0.2199  0.2268 -0.2485
 3410TIP3    H110236   2.560   3.344   0.455  0.5733 -0.2149 -1.4426
 3410TIP3    H210237   2.440   3.274   0.394 -0.6621  0.4109  0.1839
 3411TIP3   OH210238   4.685   1.931   0.295 -0.1180  0.0179  0.7223
 3411TIP3    H110239   4.762   1.943   0.240 -0.4346 -0.3721  0.1845
 3411TIP3    H210240   4.611   1.935   0.234 -0.4846 -0.2054  1.1478
 3412TIP3   OH210241   0.480   1.918   0.303  0.0133  0.3493 -0.1135
 3412TIP3    H110242   0.515   1.967   0.378  1.9264 -1.7255  0.4729
 3412TIP3    H210243   0.421   1.854   0.341  1.6330 -1.2775 -0.1826
 3413TIP3   OH210244   1.135   0.638   0.728  0.0191 -0.2651  0.2972
 3413TIP3    H110245   1.143   0.680   0.813 -3.0472  0.9804  0.1183
 3413TIP3    H210246   1.127   0.710   0.666  0.7902 -1.1492 -0.8659
 3414TIP3   OH210247   3.550   4.755   0.782 -0.3334  0.7145  0.6448
 3414TIP3    H110248   3.516   4.778   0.869 -0.3972 -0.0517  0.8279
 3414TIP3    H210249   3.515   4.668   0.766 -0.1320  0.7639 -0.0594
 3415TIP3   OH210250   5.117   1.203   0.560 -0.2488  0.5306 -0.0285
 3415TIP3    H110251   5.143   1.149   0.634  0.2153 -0.2308 -0.7254
 3415TIP3    H210252   5.197   1.216   0.510 -0.4993  1.2685 -0.2471
 3416TIP3   OH210253   4.527   0.659   1.885  0.2956  0.3616  0.0765
 3416TIP3    H110254   4.516   0.601   1.960 -0.5836  0.6500  0.1834
 3416TIP3    H210255   4.605   0.626   1.840  1.0785  0.4358  1.3358
 3417TIP3   OH210256   3.861   3.092   4.245  0.3440  0.1813  0.7755
 3417TIP3    H110257   3.826   3.174   4.209 -0.5729 -0.7526 -0.5676
 3417TIP3    H210258   3.948   3.115   4.277  0.1678  1.6465  0.2627
 3418TIP3   OH210259   4.570   4.100   3.569 -0.1062 -0.1559 -0.3171
 3418TIP3    H110260   4.617   4.066   3.644 -1.4358  0.2608  0.7482
 3418TIP3    H210261   4.630   4.162   3.529  0.2407  0.4174  1.0445
 3419TIP3   OH210262   0.627   1.557   2.249 -0.1126 -0.1487  0.0284
 3419TIP3    H110263   0.544   1.603   2.264  0.4703  0.7709  0.5187
 3419TIP3    H210264   0.679   1.577   2.327  0.0634 -1.8868  0.3935
 3420TIP3   OH210265   0.591   1.760   1.468  0.0736  0.0670  0.3070
 3420TIP3    H110266   0.614   1.743   1.377  1.3008  0.1769  0.5761
 3420TIP3    H210267   0.537   1.685   1.493  0.5269 -0.4536 -0.2369
 3421TIP3   OH210268   2.093   2.423   0.510 -0.0305 -0.0945 -0.1039
 3421TIP3    H110269   2.177   2.427   0.464 -0.4759  0.1021 -0.9164
 3421TIP3    H210270   2.027   2.420   0.441 -0.7370  0.5048  0.5125
 3422TIP3   OH210271   0.077   1.766   4.041  0.4621 -0.1107 -0.1234
 3422TIP3    H110272   0.033   1.850   4.054 -1.3590 -0.9757 -0.3982
 3422TIP3    H210273   0.155   1.787   3.990  0.4348  1.4930  0.4375
 3423TIP3   OH210274   6.073   4.394   1.494 -0.0243 -0.3067  0.3079
 3423TIP3    H110275   6.052   4.341   1.571 -1.3475 -0.3359 -0.0436
 3423TIP3    H210276   6.164   4.418   1.505  0.7511 -2.9267  0.3359
 3424TIP3   OH210277   5.871   4.873   2.683  0.4652 -0.1351 -0.7625
 3424TIP3    H110278   5.821   4.925   2.620  0.0649  0.0783 -0.2730
 3424TIP3    H210279   5.962   4.899   2.668  0.3867 -0.1825 -1.3418
 3425TIP3   OH210280   4.547   2.265   2.140 -0.5533 -0.0819  0.1765
 3425TIP3    H110281   4.459   2.302   2.133 -0.7374 -0.1041  1.9514
 3425TIP3    H210282   4.597   2.329   2.191  0.1847 -0.5495  0.0706
 3426TIP3   OH210283   0.956   1.673   4.063 -0.0078  0.4481  0.1829
 3426TIP3    H110284   0.933   1.638   4.149 -0.0223  0.2265  0.0878
 3426TIP3    H210285   1.033   1.728   4.079 -0.7374  1.4052  0.5513
 3427TIP3   OH210286   0.975   3.018   4.620 -0.1298  0.1104 -0.0484
 3427TIP3    H110287   0.906   3.074   4.584  0.4875  0.0171 -1.4276
 3427TIP3    H210288   1.048   3.026   4.559  1.0082 -0.0094  1.2318
 3428TIP3   OH210289   1.082   1.966   1.864  0.1602  0.0316  0.1569
 3428TIP3    H110290   1.115   1.931   1.782  0.0927 -1.0408  0.5642
 3428TIP3    H210291   1.159   2.001   1.908 -0.0719  2.3694 -1.1478
 3429TIP3   OH210292   2.076   0.048   0.672  0.2037  0.5284 -0.4559
 3429TIP3    H110293   2.114   0.135   0.661  4.1403 -0.9080  0.0836
 3429TIP3    H210294   2.095   0.003   0.590  2.6201 -1.1462  0.8916
 3430TIP3   OH210295   4.504   0.525   3.823  0.4493  0.6137  0.5367
 3430TIP3    H110296   4.594   0.495   3.817  0.9228  2.0558  0.0206
 3430TIP3    H210297   4.491   0.578   3.745 -1.3931 -0.8971 -0.2625
 3431TIP3   OH210298   1.886   3.639   4.057  0.5030  0.0491 -0.2830
 3431TIP3    H110299   1.866   3.706   3.992 -0.8940 -0.4500 -0.3972
 3431TIP3    H210300   1.826   3.656   4.129  0.9884 -0.3230  0.2171
 3432TIP3   OH210301   1.689   1.691   2.075  0.3541 -0.3563 -0.5412
 3432TIP3    H110302   1.726   1.679   1.988  1.6582 -0.9180  0.0560
 3432TIP3    H210303   1.702   1.783   2.095 -0.6158 -0.0637 -1.2193
 3433TIP3   OH210304   3.988   3.123   4.668 -0.3037  0.3152 -0.1075
 3433TIP3    H110305   3.992   3.163   4.582 -0.3981  1.1734  0.2768
 3433TIP3    H210306   3.894   3.123   4.690 -0.1041  2.2283  0.9467
 3434TIP3   OH210307   3.431   3.264   2.080  0.2911 -0.6907  0.2584
 3434TIP3    H110308   3.380   3.288   2.158 -0.5738 -1.6597  0.0161
 3434TIP3    H210309   3.511   3.226   2.114 -0.6290 -2.3069  0.7437
 3435TIP3   OH210310   3.042   3.141   3.521  0.0354 -0.2648 -0.1586
 3435TIP3    H110311   2.951   3.120   3.546 -0.3704  0.1099 -1.2844
 3435TIP3    H210312   3.091   3.131   3.603 -1.0647 -0.1806  0.5440
 3436TIP3   OH210313   3.596   3.881   2.034 -0.2893 -0.0603  0.4789
 3436TIP3    H110314   3.649   3.952   2.070 -0.5893 -0.2679  1.3497
 3436TIP3    H210315   3.630   3.802   2.077  0.3120 -0.5144 -0.7673
 3437TIP3   OH210316   1.699   5.221   0.246 -0.9576 -0.0128  0.4122
 3437TIP3    H110317   1.645   5.223   0.325 -3.2189 -0.7190 -1.0509
 3437TIP3    H210318   1.751   5.141   0.255 -0.7364  0.2253  1.4405
 3438TIP3   OH210319   0.522   2.355   0.291 -0.0993 -0.1894 -0.7990
 3438TIP3    H110320   0.452   2.314   0.342 -0.8380  0.2535 -1.4283
 3438TIP3    H210321   0.496   2.343   0.200  0.8717 -0.3934 -1.0622
 3439TIP3   OH210322   6.087   4.176   2.723 -0.1859  0.1497  0.0836
 3439TIP3    H110323   6.134   4.230   2.786  0.2804 -0.9458  0.7036
 3439TIP3    H210324   5.998   4.210   2.725  0.3510  1.6985 -0.4721
 3440TIP3   OH210325   1.665   5.731   4.021 -0.0274 -0.2038  0.5828
 3440TIP3    H110326   1.595   5.679   4.061 -0.3567 -2.0329 -2.0840
 3440TIP3    H210327   1.724   5.665   3.983  1.6895  1.3556  0.4164
 3441TIP3   OH210328   3.728   0.491   2.953  0.3222  0.0259 -0.2811
 3441TIP3    H110329   3.635   0.471   2.951  0.7057 -1.9060 -2.1742
 3441TIP3    H210330   3.767   0.418   3.002  0.8002  1.2178  1.1803
 3442TIP3   OH210331   1.620   5.912   3.138 -0.0063  0.1874  0.1049
 3442TIP3    H110332   1.602   5.819   3.126  2.6990 -0.1132 -3.4430
 3442TIP3    H210333   1.554   5.956   3.083 -0.5172  0.3108  0.8059
 3443TIP3   OH210334   5.578   4.544   1.225 -0.5958  0.0418 -0.1936
 3443TIP3    H110335   5.587   4.454   1.258  0.3735  0.4339  0.6697
 3443TIP3    H210336   5.565   4.534   1.131  1.6814 -0.9381 -0.4568
 3444TIP3   OH210337   5.886   1.511   3.604  0.3752  0.0622 -0.0003
 3444TIP3    H110338   5.963   1.480   3.652  0.0092  1.2920  1.4799
 3444TIP3    H210339   5.850   1.580   3.660 -1.0358  0.4316 -1.3080
 3445TIP3   OH210340   6.124   3.090   0.293  0.0783 -0.1627  0.1687
 3445TIP3    H110341   6.157   3.161   0.348  0.5853 -0.2887  0.0356
 3445TIP3    H210342   6.169   3.102   0.209 -0.7060  0.0421 -0.2264
 3446TIP3   OH210343   3.381   1.648   0.691  0.3494 -0.4508 -0.1350
 3446TIP3    H110344   3.354   1.738   0.706 -2.1669 -1.0998 -0.2668
 3446TIP3    H210345   3.366   1.604   0.775 -1.5777 -1.3793 -0.8975
 3447TIP3   OH210346   4.656   2.870   0.983  0.2017  0.3485 -0.0178
 3447TIP3    H110347   4.616   2.871   0.896 -1.4287 -0.1632  0.6773
 3447TIP3    H210348   4.728   2.932   0.978 -0.5658  1.1602 -1.4238
 3448TIP3   OH210349   2.700   3.002   4.599 -0.2693 -0.3310 -0.2100
 3448TIP3    H110350   2.618   2.951   4.597 -1.0693  0.9387 -0.5629
 3448TIP3    H210351   2.678   3.081   4.647  0.6639  0.1994 -0.6301
 3449TIP3   OH210352   2.574   3.769   1.290  0.1711  0.1484 -0.4357
 3449TIP3    H110353   2.625   3.824   1.230 -0.7421 -0.1574 -1.5281
 3449TIP3    H210354   2.637   3.706   1.324  0.7592  0.4592 -0.9180
 3450TIP3   OH210355   2.738   4.406   3.741 -0.3365  0.1445  0.0183
 3450TIP3    H110356   2.818   4.417   3.792  0.9523 -0.3008 -1.7912
 3450TIP3    H210357   2.767   4.406   3.650 -2.6972  2.5614 -0.8692
 3451TIP3   OH210358   4.679   2.915   0.340  0.4468 -0.0686 -0.9943
 3451TIP3    H110359   4.712   2.831   0.371 -1.8657 -0.9352 -0.7494
 3451TIP3    H210360   4.723   2.928   0.256  1.1763 -1.2999 -0.8256
 3452TIP3   OH210361   0.936   3.447   0.549  0.3067  0.1996  0.2350
 3452TIP3    H110362   0.977   3.362   0.535  0.3189 -0.0717  1.6861
 3452TIP3    H210363   0.879   3.460   0.473  1.8523 -0.1467 -1.0198
 3453TIP3   OH210364   2.780   1.210   4.082 -0.2692 -0.6842  0.1888
 3453TIP3    H110365   2.869   1.219   4.047 -1.3444  2.3233 -2.1955
 3453TIP3    H210366   2.775   1.276   4.151 -1.3116  1.0755 -1.4677
 3454TIP3   OH210367   6.013   2.131   0.457 -0.9537  0.2309  0.4694
 3454TIP3    H110368   5.980   2.124   0.546 -0.7871  0.5456  0.5569
 3454TIP3    H210369   5.957   2.073   0.406 -1.3844  0.4471  0.6889
 3455TIP3   OH210370   1.336   4.564   5.095 -0.6854  0.2345  0.1933
 3455TIP3    H110371   1.400   4.498   5.121  0.8227  1.1711 -0.9608
 3455TIP3    H210372   1.341   4.565   4.999 -2.0212  0.7485  0.1092
 3456TIP3   OH210373   1.393   3.270   4.295  0.1722  0.3030 -0.0897
 3456TIP3    H110374   1.324   3.299   4.235  1.4243 -0.4621 -1.9753
 3456TIP3    H210375   1.422   3.186   4.260 -0.3254 -1.1775  2.7101
 3457TIP3   OH210376   5.907   2.255   3.450  0.0150 -0.3379  0.2168
 3457TIP3    H110377   5.851   2.254   3.372 -0.0956 -0.5529  0.2970
 3457TIP3    H210378   5.859   2.203   3.514 -0.2780  0.5121  0.7013
 3458TIP3   OH210379   0.021   3.352   0.082 -0.0925 -0.0888 -0.0607
 3458TIP3    H110380  -0.031   3.428   0.055  1.1797  0.5005 -0.9341
 3458TIP3    H210381   0.105   3.363   0.038  0.2192 -1.8851  0.0003
 3459TIP3   OH210382   3.045   0.617   3.383 -0.0127 -0.3139  0.1937
 3459TIP3    H110383   3.090   0.657   3.458 -0.5400  0.5651  0.0613
 3459TIP3    H210384   2.959   0.593   3.418 -0.4315  0.5169 -0.2212
 3460TIP3   OH210385   3.799   5.885   2.050 -0.3979  0.4569  0.0914
 3460TIP3    H110386   3.742   5.883   1.973 -0.9663  1.9429  0.4249
 3460TIP3    H210387   3.779   5.804   2.097 -0.2797 -0.3128 -1.1391
 3461TIP3   OH210388   0.409   3.924   2.001  0.2510  0.1382  0.2810
 3461TIP3    H110389   0.355   3.846   2.013  0.7223 -0.1446  0.5728
 3461TIP3    H210390   0.395   3.975   2.081  1.9785 -0.8925  1.2891
 3462TIP3   OH210391   2.534   4.568   1.297  0.1822  0.0750  0.1410
 3462TIP3    H110392   2.541   4.529   1.210  0.2349  0.8441 -0.2050
 3462TIP3    H210393   2.518   4.493   1.355  1.9612 -0.6780 -0.2735
 3463TIP3   OH210394   5.702   4.321   3.129 -0.2425 -0.2330  0.1828
 3463TIP3    H110395   5.643   4.396   3.119  0.6744  0.4016 -0.7041
 3463TIP3    H210396   5.666   4.255   3.071 -0.2945  0.0157 -0.0709
 3464TIP3   OH210397   4.833   2.023   1.008 -0.4314  0.0530 -0.1797
 3464TIP3    H110398   4.882   2.058   1.082  0.0214 -0.0935 -0.4083
 3464TIP3    H210399   4.836   2.093   0.943 -0.7951  0.1661 -0.0750
 3465TIP3   OH210400   0.113   4.849   2.020  0.1683 -0.4156 -0.3897
 3465TIP3    H110401   0.165   4.874   2.097  0.0396 -2.1526  0.3060
 3465TIP3    H210402   0.039   4.910   2.021  1.1274  0.7867 -0.2316
 3466TIP3   OH210403   5.964   1.410   4.298 -0.6204 -0.1935  0.1043
 3466TIP3    H110404   5.949   1.315   4.292 -2.1927  0.0235  0.1229
 3466TIP3    H210405   5.911   1.437   4.373  1.2117  0.4632  1.2345
 3467TIP3   OH210406   6.084   2.027   4.513  0.0859  0.1004  0.5332
 3467TIP3    H110407   6.016   2.093   4.498 -0.8908 -0.6302  1.6465
 3467TIP3    H210408   6.147   2.071   4.570  0.0201  0.4236  0.3624
 3468TIP3   OH210409   2.751   3.629   4.925  0.1861  0.4091  0.1569
 3468TIP3    H110410   2.657   3.640   4.913 -0.0925 -0.5223  1.2495
 3468TIP3    H210411   2.783   3.716   4.948  0.1460  1.4373 -3.1478
 3469TIP3   OH210412   5.237   0.535   5.100 -0.6249  0.0735  0.7250
 3469TIP3    H110413   5.282   0.528   5.016 -1.0426  1.0036  0.4104
 3469TIP3    H210414   5.306   0.545   5.164 -0.2923 -0.8180  0.5169
 3470TIP3   OH210415   0.315   5.002   3.627 -0.2225 -0.0160 -0.0337
 3470TIP3    H110416   0.377   5.075   3.626 -1.5526  1.1683  0.4715
 3470TIP3    H210417   0.337   4.951   3.549  1.2217  0.4873  0.0128
 3471TIP3   OH210418   1.491   0.186   3.182  0.6105 -0.5619 -0.3651
 3471TIP3    H110419   1.519   0.109   3.231 -2.1279 -0.8904  0.8319
 3471TIP3    H210420   1.468   0.250   3.249  1.9131  1.0243 -1.3424
 3472TIP3   OH210421   1.530   2.223   4.893  0.4909  0.0684 -0.2697
 3472TIP3    H110422   1.499   2.181   4.974 -1.0807 -1.6780 -1.6819
 3472TIP3    H210423   1.450   2.248   4.847  1.3704  1.7221 -0.9777
 3473TIP3   OH210424   1.342   2.581   3.253 -0.3631  0.6216 -0.8001
 3473TIP3    H110425   1.383   2.666   3.270 -0.6371  0.8028 -1.0076
 3473TIP3    H210426   1.279   2.570   3.324 -0.7530  0.8786 -1.0977
 3474TIP3   OH210427   4.248   3.079   1.968 -0.0814  0.5319 -0.2834
 3474TIP3    H110428   4.270   3.141   1.898  0.6916  1.4603  0.7507
 3474TIP3    H210429   4.282   2.995   1.937  0.9877  1.0857 -0.6865
 3475TIP3   OH210430   0.828   0.316   3.974  0.3697 -0.2112  0.1132
 3475TIP3    H110431   0.756   0.322   3.912  0.4312  1.0680  0.1410
 3475TIP3    H210432   0.810   0.236   4.024 -0.6428 -0.2837 -0.3474
 3476TIP3   OH210433   6.039   5.267   0.690  0.6654 -0.5185  0.0885
 3476TIP3    H110434   6.038   5.310   0.604 -2.0012  0.4298  0.5069
 3476TIP3    H210435   6.021   5.338   0.752  0.3555 -1.5716  1.2334
 3477TIP3   OH210436   5.821   1.298   3.419  0.0857 -0.2697 -0.6524
 3477TIP3    H110437   5.863   1.280   3.335  2.0627 -1.1651  0.4597
 3477TIP3    H210438   5.843   1.390   3.437  0.8325 -0.4732 -0.4959
 3478TIP3   OH210439   3.030   1.240   3.970  0.9716 -0.1150 -0.3089
 3478TIP3    H110440   3.080   1.277   4.042  1.0556 -2.1961  0.7575
 3478TIP3    H210441   3.083   1.257   3.892  1.6581  0.7195  0.3300
 3479TIP3   OH210442   5.334   0.686   0.518  0.3227 -0.2710 -0.2246
 3479TIP3    H110443   5.249   0.664   0.480  0.4548  0.5130 -1.0153
 3479TIP3    H210444   5.378   0.601   0.530 -0.3475 -0.6406 -0.3425
 3480TIP3   OH210445   0.621   1.032   1.045  0.5180 -0.2533 -0.0497
 3480TIP3    H110446   0.652   1.085   0.971 -1.2263 -2.6914 -2.7670
 3480TIP3    H210447   0.697   0.980   1.070  0.5003 -1.4043 -2.1457
 3481TIP3   OH210448   4.051   4.464   0.184  0.2349 -0.6058  0.0850
 3481TIP3    H110449   4.009   4.404   0.122 -2.8803  0.5114  0.9255
 3481TIP3    H210450   4.102   4.407   0.241 -0.4590 -2.1513 -0.7714
 3482TIP3   OH210451   2.051   4.216   3.874 -0.5671 -0.6095 -0.9015
 3482TIP3    H110452   2.140   4.239   3.900 -1.2953  0.2465  0.9475
 3482TIP3    H210453   2.000   4.296   3.887 -1.7666 -1.2953 -1.1902
 3483TIP3   OH210454   4.207   3.034   3.535  0.6800 -0.1056 -0.2267
 3483TIP3    H110455   4.195   2.995   3.621  0.4306 -2.0798 -1.1059
 3483TIP3    H210456   4.249   2.966   3.482 -0.3432  0.5627 -2.0157
 3484TIP3   OH210457   5.418   5.148   3.975  0.1365  0.5125  0.1953
 3484TIP3    H110458   5.481   5.137   4.046 -0.7861 -0.2398  0.9373
 3484TIP3    H210459   5.336   5.168   4.020 -0.5692 -0.4506 -0.6178
 3485TIP3   OH210460   0.024   3.574   1.797  0.4026 -0.1886 -0.0083
 3485TIP3    H110461   0.007   3.585   1.891  1.7295  0.5202  0.1768
 3485TIP3    H210462  -0.027   3.497   1.772 -1.1238  0.4561  0.9669
 3486TIP3   OH210463   2.060   5.872   2.040  0.1531 -0.3991 -0.6793
 3486TIP3    H110464   2.150   5.852   2.066 -0.5468 -2.1957  0.5615
 3486TIP3    H210465   2.029   5.792   1.998 -1.6926 -0.8646  1.3830
 3487TIP3   OH210466   5.521   4.142   0.047  0.2966 -0.5899  0.5663
 3487TIP3    H110467   5.536   4.168   0.138 -2.0815 -1.9034  1.4251
 3487TIP3    H210468   5.426   4.129   0.041  0.5002 -1.5408 -1.8282
 3488TIP3   OH210469   3.688   2.468   3.552 -0.3983 -0.0267  0.3129
 3488TIP3    H110470   3.754   2.506   3.610 -0.4545  2.1085 -0.9068
 3488TIP3    H210471   3.732   2.463   3.467 -0.6651 -2.0968  0.2334
 3489TIP3   OH210472   1.027   1.302   4.761  0.1690 -0.5086 -0.5231
 3489TIP3    H110473   1.094   1.240   4.792  0.1090  0.0461  0.7909
 3489TIP3    H210474   1.042   1.381   4.814 -0.5774  0.1446 -1.2680
 3490TIP3   OH210475   2.198   1.855   4.868  0.2725 -0.0247  0.1566
 3490TIP3    H110476   2.242   1.787   4.816 -0.4223 -0.8766  0.6553
 3490TIP3    H210477   2.203   1.822   4.958 -0.2237  0.5122  0.3818
 3491TIP3   OH210478   4.814   2.391   5.176 -0.8152  0.2500 -0.1493
 3491TIP3    H110479   4.855   2.432   5.100 -0.3885 -1.4316 -0.8630
 3491TIP3    H210480   4.739   2.447   5.195  0.1319  1.7560 -0.6217
 3492TIP3   OH210481   5.484   0.001   1.724  1.0938 -0.0371  0.3826
 3492TIP3    H110482   5.517   0.043   1.644  0.4332  1.3604  0.8221
 3492TIP3    H210483   5.473   0.073   1.786  1.5185 -1.0948  1.7178
 3493TIP3   OH210484   2.081   3.709   1.668  0.4499 -0.0550 -0.2695
 3493TIP3    H110485   2.051   3.795   1.637 -2.6393 -0.7431  0.4564
 3493TIP3    H210486   2.047   3.648   1.603 -0.7852 -0.9902  1.1872
 3494TIP3   OH210487   0.371   1.297   1.594 -0.1204  0.2898 -0.1488
 3494TIP3    H110488   0.403   1.207   1.601 -0.8079  0.1060  0.7554
 3494TIP3    H210489   0.405   1.328   1.510  2.3235  0.0643  0.6601
 3495TIP3   OH210490   2.304   0.179   2.057 -0.3695  0.9148  0.1552
 3495TIP3    H110491   2.368   0.226   2.004 -1.9643  2.0571 -0.8306
 3495TIP3    H210492   2.237   0.152   1.995 -0.1801 -1.5794  0.9119
 3496TIP3   OH210493   2.277   4.704   0.485 -0.3817 -0.1039 -1.0320
 3496TIP3    H110494   2.236   4.699   0.572  1.9397 -0.4028  0.1274
 3496TIP3    H210495   2.265   4.795   0.458 -1.4868 -0.1056 -0.5990
 3497TIP3   OH210496   2.315   2.658   0.152  0.0120 -0.0607 -0.3032
 3497TIP3    H110497   2.328   2.671   0.246 -1.3135  0.3351 -0.1523
 3497TIP3    H210498   2.380   2.593   0.128  1.3038  0.8477  0.6029
 3498TIP3   OH210499   5.602   3.842   1.692  0.1423 -0.2587 -0.4385
 3498TIP3    H110500   5.559   3.783   1.630  0.2683 -1.9886  1.0294
 3498TIP3    H210501   5.657   3.784   1.745  3.3713  1.6401 -1.3809
 3499TIP3   OH210502   6.170   5.935   3.506  0.3532 -0.2320 -0.1901
 3499TIP3    H110503   6.190   5.920   3.598  2.7086  1.3441 -0.3533
 3499TIP3    H210504   6.193   5.854   3.462 -0.6451 -0.9420  0.5498
 3500TIP3   OH210505   2.913   4.324   0.840  0.2446  0.7758  0.2038
 3500TIP3    H110506   2.992   4.373   0.818  1.0104  0.1876  1.5019
 3500TIP3    H210507   2.925   4.299   0.932 -0.5571 -0.9939 -0.1232
 3501TIP3   OH210508   5.689   0.148   0.778  0.8646 -0.1031 -0.4185
 3501TIP3    H110509   5.769   0.180   0.820 -0.4724  1.3082  1.2291
 3501TIP3    H210510   5.672   0.210   0.707  0.0317  1.0095  0.7098
 3502TIP3   OH210511   5.462   3.651   0.232 -0.0896  0.1390 -0.3624
 3502TIP3    H110512   5.468   3.710   0.307 -1.1204  0.5718 -0.6040
 3502TIP3    H210513   5.550   3.614   0.224  1.2646  3.2783 -1.5067
 3503TIP3   OH210514   4.590   5.330   0.610  0.7477  0.1008 -0.3185
 3503TIP3    H110515   4.580   5.236   0.596 -1.4181  0.4106 -1.2924
 3503TIP3    H210516   4.647   5.359   0.539  0.0174 -0.2460 -1.0643
 3504TIP3   OH210517   1.139   3.784   2.055 -0.2238 -0.1824  0.3611
 3504TIP3    H110518   1.162   3.729   2.130  1.4071  0.5340  0.4290
 3504TIP3    H210519   1.221   3.825   2.029 -1.0294  0.6942 -0.9331
 3505TIP3   OH210520   4.743   1.196   0.806  0.5985  0.5222 -0.2147
 3505TIP3    H110521   4.669   1.246   0.841 -0.7581  0.2281 -2.5213
 3505TIP3    H210522   4.810   1.262   0.790 -0.0595  1.1658 -0.3862
 3506TIP3   OH210523   3.953   5.125   5.111 -0.2624  0.2251  0.3230
 3506TIP3    H110524   3.885   5.145   5.047  0.4964 -0.4433 -0.7064
 3506TIP3    H210525   3.911   5.065   5.173 -0.6088 -0.1985 -0.3163
 3507TIP3   OH210526   4.669   3.062   0.029  0.1666  0.1726 -0.4717
 3507TIP3    H110527   4.689   3.092  -0.060  0.1520 -1.2271 -0.9745
 3507TIP3    H210528   4.749   3.020   0.059 -0.0197  0.1070 -0.0562
 3508TIP3   OH210529   5.260   2.713   3.445  0.2010  0.0292  0.4288
 3508TIP3    H110530   5.315   2.647   3.403  0.3250  0.3298  0.1147
 3508TIP3    H210531   5.267   2.790   3.388 -1.1369 -0.1698 -0.0292
 3509TIP3   OH210532   5.502   5.805   4.900  0.0818 -0.6387 -0.5269
 3509TIP3    H110533   5.465   5.886   4.865  1.8914  0.4387 -0.0844
 3509TIP3    H210534   5.436   5.738   4.882 -1.4518  0.9189 -0.9384
 3510TIP3   OH210535   2.696   0.398   1.049  0.3774  0.4067  0.0205
 3510TIP3    H110536   2.771   0.339   1.049 -0.4539 -0.7028  0.6094
 3510TIP3    H210537   2.681   0.418   1.142  0.1933  0.9323 -0.1215
 3511TIP3   OH210538   1.146   3.901   2.615  0.0449 -0.1767  0.4299
 3511TIP3    H110539   1.104   3.907   2.529  1.7547 -1.3695 -0.5527
 3511TIP3    H210540   1.192   3.984   2.625 -1.1097  0.4447  0.7529
 3512TIP3   OH210541   0.985   5.012   3.964 -0.2296  0.3281  0.1045
 3512TIP3    H110542   1.063   5.030   3.911  0.7357  0.6818  1.6015
 3512TIP3    H210543   0.983   5.082   4.029 -0.7045 -0.7622  1.3004
 3513TIP3   OH210544   3.715   0.563   3.533  0.4147  0.3674 -0.4458
 3513TIP3    H110545   3.689   0.641   3.582  2.0382  1.5621 -1.4398
 3513TIP3    H210546   3.650   0.497   3.559 -1.0557  2.0419  0.3358
 3514TIP3   OH210547   4.804   3.627   4.594 -0.1699  0.0040 -0.9045
 3514TIP3    H110548   4.788   3.710   4.638 -1.5116 -0.7323  0.0336
 3514TIP3    H210549   4.816   3.651   4.502  0.6213  1.3369 -0.4812
 3515TIP3   OH210550   1.351   3.523   1.776 -0.3385  0.3915  0.3012
 3515TIP3    H110551   1.262   3.507   1.808 -1.1608 -0.6890 -2.2716
 3515TIP3    H210552   1.343   3.600   1.719 -0.4522 -1.6413 -2.6372
 3516TIP3   OH210553   0.840   5.797   0.413  0.0499  0.2949  0.3053
 3516TIP3    H110554   0.831   5.880   0.459  0.4100 -0.0117  0.9373
 3516TIP3    H210555   0.933   5.774   0.422  0.6140  1.1909 -2.2476
 3517TIP3   OH210556   3.184   3.683   3.532 -0.0662  0.2579 -0.2840
 3517TIP3    H110557   3.244   3.734   3.478 -1.6295  1.3144 -1.0919
 3517TIP3    H210558   3.157   3.743   3.602 -0.5150 -0.0506 -0.1856
 3518TIP3   OH210559   4.400   0.855   3.412  0.0675 -0.0746  0.9439
 3518TIP3    H110560   4.307   0.840   3.394  0.7351 -0.9743 -2.7835
 3518TIP3    H210561   4.408   0.950   3.419 -0.8636  0.2981 -1.6833
 3519TIP3   OH210562   2.298   1.500   1.154 -0.1964 -0.1789  0.4764
 3519TIP3    H110563   2.247   1.580   1.165 -0.4393 -0.1987 -0.4075
 3519TIP3    H210564   2.383   1.519   1.194 -0.1728  0.6034  0.0644
 3520TIP3   OH210565   1.207   5.236   4.111  0.7657  0.5253 -0.3354
 3520TIP3    H110566   1.171   5.223   4.198  0.0371  2.4087 -0.3166
 3520TIP3    H210567   1.210   5.148   4.072  0.2858 -0.2169  1.2460
 3521TIP3   OH210568   0.215   2.572   2.506  0.1476  0.7614  0.3638
 3521TIP3    H110569   0.297   2.615   2.529  0.1677  0.8626  0.1098
 3521TIP3    H210570   0.236   2.518   2.430  0.4711 -0.8914  1.5983
 3522TIP3   OH210571   3.828   1.346   3.977  0.0881  0.5348  0.4587
 3522TIP3    H110572   3.755   1.304   4.022 -1.2443  1.8569 -0.3949
 3522TIP3    H210573   3.788   1.412   3.921  1.8993  0.8677 -0.5376
 3523TIP3   OH210574   4.929   2.880   0.645 -0.2839  0.1252  0.6731
 3523TIP3    H110575   4.939   2.974   0.655  0.0760 -0.0335  1.9848
 3523TIP3    H210576   4.844   2.860   0.683 -0.1710 -0.1331  0.7936
 3524TIP3   OH210577   2.839   0.860   1.337  0.0032 -0.5750 -0.4336
 3524TIP3    H110578   2.914   0.818   1.295  0.2833 -1.5454  0.9740
 3524TIP3    H210579   2.797   0.790   1.387 -0.9531  0.3014  0.0253
 3525TIP3   OH210580   1.872   3.905   2.593  0.0746 -0.1416  0.4878
 3525TIP3    H110581   1.793   3.852   2.603 -0.1443  0.3831  1.6976
 3525TIP3    H210582   1.840   3.994   2.580  0.4222 -0.3189 -2.2348
 3526TIP3   OH210583   6.010   5.559   4.135 -0.0478 -0.3855  0.7256
 3526TIP3    H110584   6.034   5.468   4.120 -0.5117 -0.5274  0.8576
 3526TIP3    H210585   6.011   5.599   4.047  0.8434 -0.3451  0.7451
 3527TIP3   OH210586   3.144   3.415   0.862  0.3698 -0.4268 -0.1994
 3527TIP3    H110587   3.136   3.330   0.818 -1.1306 -0.8635  0.8332
 3527TIP3    H210588   3.118   3.398   0.953  0.8783  0.9672  0.2369
 3528TIP3   OH210589   6.282   3.086   1.144 -0.1981  0.1167  0.5506
 3528TIP3    H110590   6.321   3.102   1.230  2.4331  0.3786 -0.5708
 3528TIP3    H210591   6.212   3.151   1.137  1.8401  2.5474  1.1835
 3529TIP3   OH210592   3.511   3.387   4.914 -0.0765  0.1024  0.9256
 3529TIP3    H110593   3.438   3.448   4.902  1.0913  1.3876 -0.0325
 3529TIP3    H210594   3.508   3.330   4.838  0.7999  1.1774  0.0367
 3530TIP3   OH210595   2.657   2.302   1.199 -0.0796  0.3335  0.3972
 3530TIP3    H110596   2.587   2.353   1.159  0.2656 -0.2971 -1.0838
 3530TIP3    H210597   2.657   2.219   1.152  0.6155 -0.3114  1.4733
 3531TIP3   OH210598   2.215   4.162   4.755 -0.2129  0.2052  0.1939
 3531TIP3    H110599   2.137   4.148   4.701 -0.6195 -0.5497  0.9518
 3531TIP3    H210600   2.264   4.080   4.746 -0.3702  0.0042  1.0808
 3532TIP3   OH210601   2.386   3.429   4.350  0.3518 -0.1004  0.3949
 3532TIP3    H110602   2.374   3.339   4.379  0.9933  0.2985  2.0145
 3532TIP3    H210603   2.302   3.455   4.313  0.2328 -1.4186 -0.3053
 3533TIP3   OH210604   4.555   0.343   4.910  0.6899  0.6890  0.0473
 3533TIP3    H110605   4.532   0.250   4.920  0.0038  0.8110 -0.3744
 3533TIP3    H210606   4.650   0.345   4.923  1.0410 -0.3824 -1.9005
 3534TIP3   OH210607   1.168   1.285   2.205  0.7902 -0.0443  0.9812
 3534TIP3    H110608   1.161   1.344   2.129  2.2680 -0.0888  0.7802
 3534TIP3    H210609   1.135   1.201   2.174  0.1929  0.2573  0.7829
 3535TIP3   OH210610   4.718   4.516   3.005  0.2044  0.1116 -0.5494
 3535TIP3    H110611   4.688   4.559   3.086 -1.4435 -0.1274 -0.9856
 3535TIP3    H210612   4.732   4.588   2.944  2.9813  0.4317  0.3475
 3536TIP3   OH210613   5.552   2.216   3.432  0.7380  0.0083 -0.1142
 3536TIP3    H110614   5.602   2.240   3.354  1.9723  0.2105  0.7175
 3536TIP3    H210615   5.571   2.286   3.495 -2.9762  1.8128 -0.6965
 3537TIP3   OH210616   1.434   5.491   3.492 -0.2499  0.2917 -0.9075
 3537TIP3    H110617   1.513   5.501   3.545 -0.8247 -2.1072  0.5429
 3537TIP3    H210618   1.459   5.431   3.422 -0.5657  0.2194 -0.9595
 3538TIP3   OH210619   3.261   1.473   0.162 -0.2613  0.1187  0.2468
 3538TIP3    H110620   3.327   1.430   0.216  1.4119 -2.0027 -3.2291
 3538TIP3    H210621   3.308   1.543   0.118 -0.9368  0.1205 -0.4871
 3539TIP3   OH210622   3.554   2.163   4.360  0.0924  0.3204 -0.2839
 3539TIP3    H110623   3.645   2.166   4.392  0.1801 -0.3315 -0.4561
 3539TIP3    H210624   3.503   2.202   4.430  0.0573 -2.6710  1.4883
 3540TIP3   OH210625   4.423   3.463   1.368  0.6564 -0.1301 -1.0170
 3540TIP3    H110626   4.416   3.557   1.351  0.0804 -0.3299 -2.0076
 3540TIP3    H210627   4.513   3.441   1.342  1.5667  0.5177  1.3478
 3541TIP3   OH210628   5.275   2.472   1.510  0.2799  0.0587  0.4300
 3541TIP3    H110629   5.331   2.510   1.578 -1.0338  0.2780  1.4289
 3541TIP3    H210630   5.269   2.380   1.533 -0.9715  0.3134  1.2400
 3542TIP3   OH210631   5.933   3.241   3.959 -0.3728 -0.4647  0.4922
 3542TIP3    H110632   5.942   3.296   3.881 -2.3056 -1.2633 -0.3469
 3542TIP3    H210633   5.961   3.154   3.930  2.2588 -0.1172  1.6973
 3543TIP3   OH210634   0.710   2.005   3.615 -0.5633  0.2690 -0.6265
 3543TIP3    H110635   0.753   2.090   3.602 -0.1853 -0.0049 -1.2519
 3543TIP3    H210636   0.663   1.990   3.533  1.0936 -1.0826 -1.4037
 3544TIP3   OH210637   2.490   4.018   2.932  0.5887  0.3950  0.5347
 3544TIP3    H110638   2.430   4.028   2.859 -0.3880 -0.2462  1.2230
 3544TIP3    H210639   2.562   3.965   2.898 -0.1879 -0.4665  0.2106
 3545TIP3   OH210640   2.035   3.736   1.312  0.0758 -0.2100 -0.4830
 3545TIP3    H110641   2.130   3.737   1.297 -0.0306 -1.4662 -1.3794
 3545TIP3    H210642   2.022   3.797   1.384  1.6600 -0.6286  0.2071
 3546TIP3   OH210643   5.740   1.319   0.558 -0.2002  0.1741 -0.0902
 3546TIP3    H110644   5.785   1.402   0.573  1.1420 -0.3353 -1.1352
 3546TIP3    H210645   5.721   1.286   0.646  1.2476  0.5212  0.3774
 3547TIP3   OH210646   4.151   2.227   4.857 -0.1168  0.3605 -0.4863
 3547TIP3    H110647   4.195   2.260   4.778 -0.2577 -0.0435 -0.7338
 3547TIP3    H210648   4.221   2.188   4.908 -0.0780  0.3149 -0.5733
 3548TIP3   OH210649   5.540   1.908   4.698  0.6068  0.2591  0.2263
 3548TIP3    H110650   5.626   1.939   4.727  1.6503 -1.6494 -0.5888
 3548TIP3    H210651   5.497   1.986   4.662  2.1770  1.1873  0.2593
 3549TIP3   OH210652   3.313   3.646   4.787  0.1840  0.1747 -0.0837
 3549TIP3    H110653   3.274   3.586   4.723 -0.0103  1.3992 -1.1457
 3549TIP3    H210654   3.304   3.732   4.748 -0.5080  1.0603  1.8887
 3550TIP3   OH210655   5.854   4.894   2.050  0.2799 -0.2163  0.2897
 3550TIP3    H110656   5.772   4.857   2.018  0.2377 -0.2186  0.4007
 3550TIP3    H210657   5.852   4.985   2.019 -0.2904  0.1119  1.2502
 3551TIP3   OH210658   5.332   1.448   1.291  0.3403  0.8384 -0.3343
 3551TIP3    H110659   5.305   1.389   1.361  1.6632  0.3755 -0.1844
 3551TIP3    H210660   5.258   1.449   1.230  0.0543 -0.4916 -0.0293
 3552TIP3   OH210661   5.599   3.011   1.858  0.0183  0.0924 -0.2614
 3552TIP3    H110662   5.632   2.930   1.819 -4.6851 -2.9377  1.2244
 3552TIP3    H210663   5.645   3.018   1.941  0.7498 -0.8619 -0.5662
 3553TIP3   OH210664   1.450   0.416   1.830  0.0838  0.0180  0.1168
 3553TIP3    H110665   1.409   0.337   1.863 -0.6184  0.6373  0.7765
 3553TIP3    H210666   1.528   0.386   1.784  1.0624 -0.9110  2.2472
 3554TIP3   OH210667   1.430   4.303   0.674 -0.2379  0.0478 -0.1260
 3554TIP3    H110668   1.419   4.293   0.768 -1.2853 -1.5965 -0.3790
 3554TIP3    H210669   1.400   4.220   0.637  1.9082 -0.0852 -1.7973
 3555TIP3   OH210670   1.785   0.214   0.565 -0.0075 -0.2987  0.0981
 3555TIP3    H110671   1.704   0.225   0.515 -0.1577 -1.5975  0.0379
 3555TIP3    H210672   1.827   0.300   0.562 -1.3684  0.3886  0.1137
 3556TIP3   OH210673   5.438   1.345   4.766 -0.0057  0.1087 -0.4212
 3556TIP3    H110674   5.381   1.393   4.705  0.2641  0.8157 -0.1272
 3556TIP3    H210675   5.377   1.298   4.823 -0.2841  0.2982 -0.5589
 3557TIP3   OH210676   1.621   1.218   1.494 -0.1250  0.9145 -0.4038
 3557TIP3    H110677   1.590   1.266   1.417  1.6692  2.0077 -0.5001
 3557TIP3    H210678   1.593   1.128   1.478 -1.3388  1.4395 -1.4699
 3558TIP3   OH210679   3.006   5.246   3.320 -0.4530 -0.2028  0.3146
 3558TIP3    H110680   2.936   5.204   3.369  0.4790 -2.4536 -0.1706
 3558TIP3    H210681   2.983   5.339   3.321 -2.6092 -0.6766  1.4616
 3559TIP3   OH210682   4.829   5.117   2.390 -0.2690 -0.7769 -0.2432
 3559TIP3    H110683   4.785   5.181   2.446  1.0592  0.7131 -0.8407
 3559TIP3    H210684   4.857   5.048   2.450  2.0518  1.2657  1.2299
 3560TIP3   OH210685   2.384   1.761   1.959 -0.0636 -0.6870 -0.4150
 3560TIP3    H110686   2.429   1.726   2.036  2.0535  0.1555 -1.1966
 3560TIP3    H210687   2.378   1.855   1.976 -1.5336 -0.7749 -0.3616
 3561TIP3   OH210688   2.140   3.002   4.963  0.1529 -0.4375 -0.2660
 3561TIP3    H110689   2.160   2.936   4.898  1.6623 -1.3416  1.0476
 3561TIP3    H210690   2.047   2.988   4.983 -0.0554 -0.8233 -1.4302
 3562TIP3   OH210691   0.431   2.760   2.500 -0.6325  0.1790  0.3714
 3562TIP3    H110692   0.470   2.845   2.520 -1.1617  0.1186  1.7900
 3562TIP3    H210693   0.502   2.708   2.463 -0.1125  0.9756  0.2316
 3563TIP3   OH210694   0.119   0.022   3.132 -0.2780  0.6087  0.6007
 3563TIP3    H110695   0.185   0.054   3.070 -0.1011 -0.4666  0.2138
 3563TIP3    H210696   0.046   0.084   3.124 -1.9140 -1.4667 -3.5552
 3564TIP3   OH210697   5.874   4.080   2.186  0.0272 -0.1372  1.0924
 3564TIP3    H110698   5.956   4.128   2.178  0.5855 -1.3155 -2.3769
 3564TIP3    H210699   5.900   3.992   2.214  0.4080 -1.1700 -2.0917
 3565TIP3   OH210700   1.880   0.957   2.853 -0.4816 -0.6806  0.1188
 3565TIP3    H110701   1.882   0.982   2.761 -0.8705 -0.7114  0.1005
 3565TIP3    H210702   1.807   0.895   2.860  0.5918 -1.9827  0.1307
 3566TIP3   OH210703   2.031   0.284   2.472  0.8617  0.2198  0.1482
 3566TIP3    H110704   2.037   0.285   2.568  1.4901 -0.8349  0.1365
 3566TIP3    H210705   2.120   0.266   2.443  0.8126  1.2326 -0.6704
 3567TIP3   OH210706   4.962   3.073   5.140 -0.1842  0.0137 -0.1509
 3567TIP3    H110707   4.913   3.055   5.221  1.2827  1.1318  1.0505
 3567TIP3    H210708   5.037   3.013   5.144 -1.7496 -2.3464 -2.4220
 3568TIP3   OH210709   1.055   0.339   1.314  0.0770 -0.6486 -0.0707
 3568TIP3    H110710   0.979   0.302   1.360  1.8827 -2.4916  1.6527
 3568TIP3    H210711   1.130   0.297   1.356  2.0621  1.0021 -1.7945
 3569TIP3   OH210712   0.759   1.016   3.428 -0.1091  0.7848 -0.5831
 3569TIP3    H110713   0.664   1.018   3.443 -0.0074 -0.8640  0.5062
 3569TIP3    H210714   0.784   0.926   3.446  1.9759  1.6234  1.0300
 3570TIP3   OH210715   2.917   3.660   1.639 -0.0242 -0.5761 -0.1848
 3570TIP3    H110716   2.942   3.577   1.681  0.1340  0.3050  1.5458
 3570TIP3    H210717   2.985   3.722   1.667 -2.1508  1.0335  1.7196
 3571TIP3   OH210718   3.812   2.181   0.340  0.0437 -0.3209  0.0385
 3571TIP3    H110719   3.904   2.201   0.324 -0.9718  2.5299 -3.2427
 3571TIP3    H210720   3.795   2.102   0.289  0.7298 -1.3508  1.3100
 3572TIP3   OH210721   4.557   0.971   2.285  0.8416  0.2604  0.5118
 3572TIP3    H110722   4.465   0.967   2.260  0.5466 -0.5617  1.6394
 3572TIP3    H210723   4.597   0.895   2.241  0.9408  0.5049  0.1793
 3573TIP3   OH210724   1.310   0.570   2.944  0.0519  0.0831 -0.0692
 3573TIP3    H110725   1.394   0.563   2.899 -0.3949  1.9692 -1.3640
 3573TIP3    H210726   1.318   0.650   2.997 -1.4834  1.4049 -1.6924
 3574TIP3   OH210727   3.088   0.135   0.332  0.1348 -0.3792  0.1116
 3574TIP3    H110728   3.182   0.152   0.324  0.0249 -0.3843 -1.5217
 3574TIP3    H210729   3.059   0.195   0.400  1.0985  0.5683 -0.2720
 3575TIP3   OH210730   2.572   1.433   3.075 -0.2936 -0.0234  0.7914
 3575TIP3    H110731   2.660   1.470   3.074 -0.6934  1.0164 -0.8576
 3575TIP3    H210732   2.566   1.382   2.994 -1.1143 -0.3169  1.0253
 3576TIP3   OH210733   1.587   4.096   2.684  0.1419  0.0469 -0.1363
 3576TIP3    H110734   1.522   4.162   2.709 -0.2218 -0.2801 -0.2289
 3576TIP3    H210735   1.539   4.014   2.683  0.1407  0.0296 -1.8827
 3577TIP3   OH210736   3.409   0.572   3.493  0.2772  0.2984  0.1810
 3577TIP3    H110737   3.399   0.478   3.508  2.0613  0.4633  2.9181
 3577TIP3    H210738   3.433   0.579   3.400  1.1467 -2.0386  0.1804
 3578TIP3   OH210739   3.702   5.700   3.536 -0.0498 -0.4255 -0.0397
 3578TIP3    H110740   3.699   5.741   3.622  1.0622  1.6152 -0.8877
 3578TIP3    H210741   3.623   5.647   3.530 -0.6103  0.1616  1.8512
 3579TIP3   OH210742   5.113   5.143   0.710  0.0896  0.0587  0.0564
 3579TIP3    H110743   5.089   5.051   0.698  0.5099  0.1630 -2.1089
 3579TIP3    H210744   5.042   5.180   0.762 -1.2601 -1.0317 -0.9333
 3580TIP3   OH210745   1.674   4.719   3.022  0.1611 -0.0973 -0.2367
 3580TIP3    H110746   1.622   4.760   3.091  1.7482  0.6134  0.5747
 3580TIP3    H210747   1.761   4.710   3.060  1.4459  1.5352 -2.5630
 3581TIP3   OH210748   5.090   1.027   3.320 -0.6136 -0.2742 -0.8378
 3581TIP3    H110749   5.128   1.084   3.386 -2.0550  0.0722 -0.2616
 3581TIP3    H210750   5.158   0.963   3.300  0.5782  0.8782 -0.5643
 3582TIP3   OH210751   0.978   3.551   4.979 -0.0229  0.0316 -0.3520
 3582TIP3    H110752   1.052   3.539   5.038  0.8750  0.6438 -1.3223
 3582TIP3    H210753   0.999   3.497   4.902 -1.4592 -1.2412  0.0972
 3583TIP3   OH210754   3.252   5.720   2.325 -0.2064  0.2039 -0.3053
 3583TIP3    H110755   3.302   5.798   2.349  1.3305 -0.1840 -1.9692
 3583TIP3    H210756   3.247   5.725   2.229  0.6617 -2.1157 -0.5319
 3584TIP3   OH210757   5.434   5.447   3.533  0.3193  0.1217  0.0364
 3584TIP3    H110758   5.509   5.476   3.480  0.6035 -1.0257 -0.2138
 3584TIP3    H210759   5.473   5.399   3.606 -0.1688 -0.8156 -0.3020
 3585TIP3   OH210760   5.567   2.948   0.758 -0.3590  0.1834  0.2992
 3585TIP3    H110761   5.527   3.035   0.750  1.3517  0.9357 -0.5547
 3585TIP3    H210762   5.494   2.887   0.746 -0.9696  1.4423 -4.1572
 3586TIP3   OH210763   1.676   0.377   4.089  0.6024 -0.1366  0.2422
 3586TIP3    H110764   1.655   0.470   4.078  0.3574 -0.3596 -1.3640
 3586TIP3    H210765   1.590   0.335   4.100  0.6023 -0.3590 -0.5992
 3587TIP3   OH210766   3.073   3.008   0.343 -0.1151 -0.0450  0.3839
 3587TIP3    H110767   3.141   2.941   0.339 -1.4644 -1.4719  0.2731
 3587TIP3    H210768   3.044   3.009   0.434  1.1259  1.7305  0.8100
 3588TIP3   OH210769   4.605   2.303   3.465 -0.0359  0.3904 -0.1600
 3588TIP3    H110770   4.632   2.346   3.383  0.1971 -0.9620 -0.8122
 3588TIP3    H210771   4.629   2.211   3.453 -2.0113 -0.2613  0.5379
 3589TIP3   OH210772   0.427   3.105   4.407 -0.0009 -0.8595  0.1024
 3589TIP3    H110773   0.436   3.198   4.387  2.8908 -1.4196 -1.7541
 3589TIP3    H210774   0.435   3.100   4.502 -0.7728  0.7925  0.2921
 3590TIP3   OH210775   1.184   1.545   0.271 -0.1449 -0.4595  0.2192
 3590TIP3    H110776   1.199   1.629   0.227 -0.0571 -1.0295 -0.8542
 3590TIP3    H210777   1.125   1.567   0.343  0.2944  0.6162  0.2792
 3591TIP3   OH210778   2.203   0.776   2.112  0.2944 -0.2952  0.0180
 3591TIP3    H110779   2.185   0.700   2.168  1.0612 -0.3361  0.2150
 3591TIP3    H210780   2.212   0.739   2.024  0.0598 -0.3514  0.0155
 3592TIP3   OH210781   5.553   1.761   1.710  0.2721 -0.8589 -0.1033
 3592TIP3    H110782   5.608   1.698   1.756  0.5616 -0.6558 -0.1670
 3592TIP3    H210783   5.470   1.715   1.696 -0.8594 -0.0304  3.0614
 3593TIP3   OH210784   3.037   3.964   2.429  0.1227  0.8989 -0.0382
 3593TIP3    H110785   2.971   3.900   2.401  0.1166  1.0042 -0.2689
 3593TIP3    H210786   3.042   3.953   2.524  0.6786  0.0304 -0.1606
 3594TIP3   OH210787   4.763   2.434   1.167  0.0848 -0.5411  0.3726
 3594TIP3    H110788   4.821   2.402   1.097  0.3944 -0.5887  0.6496
 3594TIP3    H210789   4.763   2.363   1.231  1.1344  0.1818  1.2120
 3595TIP3   OH210790   4.731   5.478   2.710  0.0011 -0.2432  0.0192
 3595TIP3    H110791   4.732   5.451   2.618 -0.0610 -0.5756  0.1152
 3595TIP3    H210792   4.766   5.403   2.758 -1.1577 -0.5692  0.3966
 3596TIP3   OH210793   5.207   0.994   2.244 -0.0628 -0.0157 -0.1764
 3596TIP3    H110794   5.199   1.067   2.306  0.7351  1.4797 -1.7572
 3596TIP3    H210795   5.116   0.972   2.222 -0.3668 -0.7350  1.6490
 3597TIP3   OH210796   3.396   4.067   4.140  0.2721 -0.1083 -0.6955
 3597TIP3    H110797   3.488   4.045   4.125  0.8101  0.8720  0.8724
 3597TIP3    H210798   3.387   4.067   4.236 -1.9249 -2.3068 -0.7988
 3598TIP3   OH210799   5.999   5.640   0.279 -0.1746  0.4436  0.1241
 3598TIP3    H110800   5.918   5.597   0.308  0.2312 -1.1563 -0.9754
 3598TIP3    H210801   6.058   5.631   0.354  0.1490 -1.7038 -0.3030
 3599TIP3   OH210802   4.793   3.431   2.374  0.5498 -0.1703  0.7272
 3599TIP3    H110803   4.853   3.446   2.447  0.9514 -2.1620  0.8621
 3599TIP3    H210804   4.849   3.424   2.297  0.5582 -2.0258  0.8517
 3600TIP3   OH210805   1.438   5.761   4.912 -0.0393  0.0315  0.3152
 3600TIP3    H110806   1.355   5.741   4.955  0.9747 -1.4493  1.7263
 3600TIP3    H210807   1.414   5.813   4.836 -2.1878  0.2521  1.0753
 3601TIP3   OH210808   1.937   0.343   1.340  0.5482  0.0195  0.6097
 3601TIP3    H110809   1.853   0.371   1.302  1.0585 -0.1709 -0.7080
 3601TIP3    H210810   1.998   0.343   1.266  1.5251 -0.6315  1.3916
 3602TIP3   OH210811   1.631   4.518   2.093  0.0079  0.1251  0.5983
 3602TIP3    H110812   1.663   4.569   2.167  0.1534  1.7381 -0.5121
 3602TIP3    H210813   1.630   4.580   2.020  0.0491 -1.4493 -0.8047
 3603TIP3   OH210814   3.081   4.152   3.533  0.1735  0.0866 -0.1862
 3603TIP3    H110815   3.101   4.065   3.498 -0.0641  0.2538 -0.7499
 3603TIP3    H210816   2.990   4.147   3.562  0.5860 -0.2630  1.0895
 3604TIP3   OH210817   2.084   1.930   4.212  0.4312  0.3021  0.1428
 3604TIP3    H110818   2.081   1.999   4.279  3.1082 -1.5710  2.4470
 3604TIP3    H210819   2.161   1.950   4.160 -0.2947  0.4265 -0.9233
 3605TIP3   OH210820   0.093   3.777   2.158 -0.3667  0.3837  0.3874
 3605TIP3    H110821   0.045   3.838   2.102 -0.1451 -0.2954 -0.5578
 3605TIP3    H210822   0.092   3.819   2.244  1.1041  2.5238 -0.5401
 3606TIP3   OH210823   4.157   3.747   1.791  0.2343 -0.3515  0.3533
 3606TIP3    H110824   4.080   3.803   1.795  0.1084 -0.5784  1.4023
 3606TIP3    H210825   4.209   3.783   1.720 -0.5883  0.1283 -0.0170
 3607TIP3   OH210826   1.272   1.525   2.626  0.5384  0.5972 -0.6669
 3607TIP3    H110827   1.236   1.542   2.713  1.5070 -1.6648  0.2663
 3607TIP3    H210828   1.211   1.567   2.565 -0.9846  0.9580  1.0394
 3608TIP3   OH210829   0.150   3.859   0.476  0.0806  0.7748  0.2185
 3608TIP3    H110830   0.122   3.851   0.385 -0.4092 -2.1560  0.5372
 3608TIP3    H210831   0.075   3.898   0.521  0.1958  1.9184 -0.5476
 3609TIP3   OH210832   4.739   0.313   4.228 -0.3406  0.2602 -0.2749
 3609TIP3    H110833   4.666   0.303   4.289 -0.7616  1.4657 -0.5556
 3609TIP3    H210834   4.801   0.369   4.274  0.2932 -0.5252 -0.1516
 3610TIP3   OH210835   6.034   3.398   1.923  0.2956  0.5848 -0.1999
 3610TIP3    H110836   6.070   3.421   1.837  0.0820  1.5075 -0.0495
 3610TIP3    H210837   5.941   3.382   1.905  0.2427  0.8183 -0.1332
 3611TIP3   OH210838   4.649   4.423   2.058  0.2524 -0.3359  0.5936
 3611TIP3    H110839   4.684   4.471   1.983 -0.2059  0.7191  1.0346
 3611TIP3    H210840   4.568   4.468   2.080  0.0656 -1.0115  1.3443
 3612TIP3   OH210841   4.121   2.265   4.272  0.0373  0.2562 -0.4932
 3612TIP3    H110842   4.032   2.232   4.281  0.1960  0.0558  0.4654
 3612TIP3    H210843   4.133   2.277   4.178 -0.4148 -1.3822 -0.7930
 3613TIP3   OH210844   1.009   2.734   4.725 -0.9202 -0.1573 -0.6809
 3613TIP3    H110845   0.957   2.814   4.715  0.1948  0.4288 -2.2250
 3613TIP3    H210846   0.952   2.665   4.690 -1.7742 -0.0216  0.3831
 3614TIP3   OH210847   1.122   2.462   3.852 -0.4828 -0.3961  0.5694
 3614TIP3    H110848   1.128   2.555   3.831  0.4530 -0.7545 -0.8235
 3614TIP3    H210849   1.120   2.418   3.767 -2.3120 -1.6038  1.1640
 3615TIP3   OH210850   6.050   3.261   3.355 -0.0941 -0.3555  0.2159
 3615TIP3    H110851   6.012   3.324   3.293 -0.8148 -1.0660 -0.0877
 3615TIP3    H210852   6.078   3.314   3.429  0.4867  0.4752 -0.5781
 3616TIP3   OH210853   5.171   0.469   4.426  0.4041 -0.1994 -0.1392
 3616TIP3    H110854   5.190   0.506   4.513 -0.4602 -0.0718 -0.0008
 3616TIP3    H210855   5.136   0.382   4.444  0.9642 -0.4835 -0.4009
 3617TIP3   OH210856   5.124   2.099   0.386  0.3112 -0.4241  0.0139
 3617TIP3    H110857   5.152   2.177   0.433  1.7859 -1.2773  0.6349
 3617TIP3    H210858   5.040   2.076   0.425 -1.2449  2.0004 -1.6364
 3618TIP3   OH210859   5.041   4.208   5.013  0.4101 -0.2932  0.2173
 3618TIP3    H110860   5.080   4.257   5.086  2.5170 -1.8790  0.2511
 3618TIP3    H210861   5.016   4.124   5.051 -1.8962  0.1598 -0.1398
 3619TIP3   OH210862   2.802   3.615   3.452  0.1007 -0.3293  0.1634
 3619TIP3    H110863   2.855   3.691   3.428 -1.7167  0.2384 -2.4415
 3619TIP3    H210864   2.777   3.576   3.369 -1.9704 -1.7024  1.3510
 3620TIP3   OH210865   5.286   5.671   3.524  0.1029 -0.0997  0.0391
 3620TIP3    H110866   5.327   5.755   3.546 -1.4475  1.0242 -1.1567
 3620TIP3    H210867   5.359   5.615   3.499  1.0156  1.6485 -1.4865
 3621TIP3   OH210868   2.847   2.550   2.991 -0.0597  0.5787 -0.4131
 3621TIP3    H110869   2.764   2.590   3.015 -0.0712  1.0735 -1.2239
 3621TIP3    H210870   2.823   2.473   2.939 -0.0356  1.6007 -2.0188
 3622TIP3   OH210871   3.208   4.275   2.522 -0.3343  0.1423  0.0728
 3622TIP3    H110872   3.261   4.197   2.537 -0.3292 -0.8359 -3.9178
 3622TIP3    H210873   3.271   4.344   2.502 -0.4098  0.7732  1.8705
 3623TIP3   OH210874   2.230   2.614   3.286 -0.3680  0.1927  0.3857
 3623TIP3    H110875   2.303   2.587   3.342  0.7601  3.7253  0.8784
 3623TIP3    H210876   2.170   2.659   3.344 -0.6637  1.3225 -0.7537
 3624TIP3   OH210877   3.662   1.952   0.837  0.2937 -0.0857  0.1748
 3624TIP3    H110878   3.678   1.982   0.747 -1.6450 -0.3134 -0.2829
 3624TIP3    H210879   3.593   2.010   0.869  0.8621 -0.1021  1.4928
 3625TIP3   OH210880   3.918   1.783   3.062 -0.2976  0.0038 -0.0218
 3625TIP3    H110881   3.947   1.778   2.971  0.1319 -0.1113  0.1151
 3625TIP3    H210882   3.930   1.694   3.095 -0.4955  0.0347  0.1324
 3626TIP3   OH210883   0.832   2.558   4.597 -0.5762  0.7899 -0.0786
 3626TIP3    H110884   0.738   2.565   4.579 -0.5681  0.2975 -0.3330
 3626TIP3    H210885   0.861   2.483   4.545 -0.8253 -1.7037  3.0333
 3627TIP3   OH210886   3.504   0.918   5.085 -0.6158  0.1437  0.4400
 3627TIP3    H110887   3.441   0.865   5.036 -0.2739  1.5453 -1.6355
 3627TIP3    H210888   3.459   1.001   5.099  1.1413  1.7403 -2.4126
 3628TIP3   OH210889   3.338   3.429   1.702 -0.4623  0.3698 -0.0611
 3628TIP3    H110890   3.389   3.472   1.633  0.2779  0.6945  0.6653
 3628TIP3    H210891   3.247   3.454   1.683 -0.3205  0.1235 -1.1368
 3629TIP3   OH210892   0.786   5.426   3.220  0.1968 -0.2670  0.0741
 3629TIP3    H110893   0.807   5.374   3.142  0.1489 -0.9091  0.4812
 3629TIP3    H210894   0.741   5.503   3.186  0.9562 -0.1065 -0.6089
 3630TIP3   OH210895   0.959   2.494   3.134  0.2600 -0.0276 -0.3424
 3630TIP3    H110896   0.904   2.528   3.063  0.5196 -0.1736 -0.6140
 3630TIP3    H210897   1.013   2.427   3.093  0.1889 -0.3363  0.0629
 3631TIP3   OH210898   4.294   0.661   0.354 -0.2522 -0.0001  0.1510
 3631TIP3    H110899   4.295   0.598   0.283  1.0529  0.2715 -0.0850
 3631TIP3    H210900   4.274   0.609   0.432 -0.6032 -0.4687 -0.2500
 3632TIP3   OH210901   2.158   3.392   3.851 -0.5311 -0.1609 -0.0349
 3632TIP3    H110902   2.092   3.324   3.843 -2.5759  1.8519 -1.5871
 3632TIP3    H210903   2.221   3.373   3.781  0.1722 -1.6453  0.9541
 3633TIP3   OH210904   3.448   0.436   2.995  0.6123  0.2794  0.5106
 3633TIP3    H110905   3.448   0.366   3.061  1.4508  0.3408  0.5822
 3633TIP3    H210906   3.466   0.516   3.045 -0.4763  0.5796  0.4496
 3634TIP3   OH210907   5.132   3.343   1.923  0.8624 -0.0061 -0.2147
 3634TIP3    H110908   5.222   3.319   1.901  0.1346 -1.2427 -2.0593
 3634TIP3    H210909   5.086   3.259   1.933 -0.4687  0.5872 -1.0570
 3635TIP3   OH210910   2.091   2.654   2.654 -0.0043 -0.1178 -0.0536
 3635TIP3    H110911   2.126   2.647   2.565 -0.2492 -1.3582 -0.0793
 3635TIP3    H210912   2.045   2.571   2.667  1.9945 -0.9859  2.0721
 3636TIP3   OH210913   0.729   4.024   1.518  0.3269 -0.1945 -0.1286
 3636TIP3    H110914   0.749   3.930   1.512 -1.8078 -0.6867 -0.5489
 3636TIP3    H210915   0.687   4.034   1.604  0.3038  0.3312 -0.1968
 3637TIP3   OH210916   1.810   1.168   4.310  0.4271 -0.3648  0.2446
 3637TIP3    H110917   1.887   1.128   4.269  1.0541  0.8201  0.2347
 3637TIP3    H210918   1.795   1.115   4.388  1.6599 -0.2360  0.5971
 3638TIP3   OH210919   1.644   0.621   3.738  0.1500  0.1422 -0.6340
 3638TIP3    H110920   1.578   0.650   3.675  2.3016 -1.5138 -3.9981
 3638TIP3    H210921   1.720   0.678   3.720  0.6960 -0.1133  0.7701
 3639TIP3   OH210922   2.150   4.488   1.593  0.2289 -0.2115  0.2435
 3639TIP3    H110923   2.181   4.405   1.627 -0.5591 -0.1794  1.0759
 3639TIP3    H210924   2.065   4.501   1.635 -0.2394  0.4014 -0.8515
 3640TIP3   OH210925   2.976   3.566   4.377 -0.5167 -0.6228  0.4159
 3640TIP3    H110926   2.889   3.540   4.406 -0.6092  1.0097  1.7276
 3640TIP3    H210927   2.961   3.635   4.312 -0.2109 -0.2904  0.6908
 3641TIP3   OH210928   3.760   4.274   4.051 -0.3675 -0.7675  0.5526
 3641TIP3    H110929   3.678   4.277   4.003 -1.0795 -0.6917  1.7371
 3641TIP3    H210930   3.744   4.212   4.123  1.6942 -3.4229 -1.0964
 3642TIP3   OH210931   3.778  -0.008   2.744 -0.3141  0.0819  0.3428
 3642TIP3    H110932   3.734   0.067   2.786 -0.4018  0.5219 -0.5207
 3642TIP3    H210933   3.730  -0.021   2.662 -3.0000 -3.5084  2.1739
 3643TIP3   OH210934   4.032   4.765   3.931  0.3771 -0.7530 -0.2659
 3643TIP3    H110935   4.027   4.723   3.844  0.3189 -1.3072 -0.0006
 3643TIP3    H210936   3.985   4.848   3.920  2.4516  0.3565 -1.4385
 3644TIP3   OH210937   3.771   2.993   0.298  0.0885  0.7154 -0.1122
 3644TIP3    H110938   3.802   2.907   0.328  1.1374  0.4520 -1.8206
 3644TIP3    H210939   3.810   3.003   0.211 -0.3084  2.7792 -0.0897
 3645TIP3   OH210940   4.909   5.625   4.925 -0.3113  0.0362 -0.2991
 3645TIP3    H110941   4.978   5.684   4.896 -0.4447  0.3765  0.0554
 3645TIP3    H210942   4.857   5.608   4.847  1.6977 -2.3823 -1.2224
 3646TIP3   OH210943   5.574   1.722   4.897 -0.5887 -0.2995  0.1513
 3646TIP3    H110944   5.602   1.785   4.965  0.6420 -0.0064 -0.5852
 3646TIP3    H210945   5.548   1.777   4.823  0.3334 -0.6329 -0.4370
 3647TIP3   OH210946   5.525   0.895   3.024 -0.2545  0.3017 -0.3845
 3647TIP3    H110947   5.562   0.829   3.083  1.6426  1.2307 -0.4450
 3647TIP3    H210948   5.482   0.843   2.955  0.1058 -0.8462  0.2214
 3648TIP3   OH210949   2.889   5.043   5.085 -0.3890 -0.1111  0.9651
 3648TIP3    H110950   2.861   4.980   5.019 -0.9780 -0.4201  1.5074
 3648TIP3    H210951   2.957   4.998   5.135  0.4962  0.3360  0.1975
 3649TIP3   OH210952   5.185   2.408   2.753 -0.0596 -0.5985 -0.2840
 3649TIP3    H110953   5.260   2.435   2.806 -0.2390 -1.3023  0.3400
 3649TIP3    H210954   5.114   2.466   2.781  0.3518  0.3921 -1.2154
 3650TIP3   OH210955   0.670   3.038   3.893 -0.3889  0.0590 -0.0389
 3650TIP3    H110956   0.700   3.114   3.844 -0.0988  0.5412  0.8588
 3650TIP3    H210957   0.670   3.067   3.984 -0.2119 -1.0394  0.3247
 3651TIP3   OH210958   3.054   1.244   1.148 -0.3337  0.0731 -0.5136
 3651TIP3    H110959   2.998   1.299   1.093  0.1462  0.6474 -0.4430
 3651TIP3    H210960   3.034   1.155   1.121  0.2061  0.3491 -1.9398
 3652TIP3   OH210961   3.210   3.167   3.294  0.0661  0.1391  0.4600
 3652TIP3    H110962   3.157   3.134   3.367 -0.3069  1.2946  0.7192
 3652TIP3    H210963   3.146   3.204   3.233  0.4704  0.2276  0.0842
 3653TIP3   OH210964   2.127   3.976   2.533  0.3261  0.1450 -0.2746
 3653TIP3    H110965   2.170   3.891   2.543  0.6544  0.4200  0.8610
 3653TIP3    H210966   2.038   3.961   2.563  0.7958  0.5277  1.4199
 3654TIP3   OH210967   3.224   3.535   1.436  0.0065 -0.2009  0.1497
 3654TIP3    H110968   3.129   3.523   1.437  0.3035 -3.3408  1.1671
 3654TIP3    H210969   3.253   3.488   1.358  0.7706  0.5297 -0.0185
 3655TIP3   OH210970   2.888   5.129   2.554  0.1566 -0.5599 -0.4163
 3655TIP3    H110971   2.832   5.150   2.629  1.7190  0.1674  0.6136
 3655TIP3    H210972   2.877   5.035   2.542 -3.1499 -0.1223 -1.8798
 3656TIP3   OH210973   6.025   5.800   1.059  0.1727  0.1079 -0.6372
 3656TIP3    H110974   6.030   5.776   0.967 -0.1019  3.0026 -1.5314
 3656TIP3    H210975   5.955   5.866   1.062  0.7093  0.6588  1.4909
 3657TIP3   OH210976   0.284   2.942   3.036 -0.2369  0.0843  0.6554
 3657TIP3    H110977   0.324   2.899   2.961 -0.1550  1.8445 -0.3717
 3657TIP3    H210978   0.331   2.908   3.112  2.1530  0.8595 -0.3702
 3658TIP3   OH210979   4.636   2.367   2.578  0.1091 -0.1422 -0.0810
 3658TIP3    H110980   4.656   2.348   2.670 -0.1955  0.1322  0.0400
 3658TIP3    H210981   4.691   2.305   2.529 -0.6472 -1.1418  0.3079
 3659TIP3   OH210982   1.420   3.846   2.004 -0.9957  0.2350  0.1697
 3659TIP3    H110983   1.391   3.784   1.937 -0.7850 -0.1733  0.4573
 3659TIP3    H210984   1.480   3.796   2.059  0.3365  1.0730 -0.4606
 3660TIP3   OH210985   4.251   0.468   0.167 -0.1414  0.0599  0.0272
 3660TIP3    H110986   4.301   0.444   0.089 -0.0907  1.0015 -0.2369
 3660TIP3    H210987   4.185   0.399   0.175  0.0483 -0.2138 -0.6637
 3661TIP3   OH210988   4.989   3.233   3.344 -0.3546  0.0347  0.1043
 3661TIP3    H110989   4.931   3.160   3.367  1.0664 -0.9591  0.6711
 3661TIP3    H210990   5.017   3.214   3.255  1.2014 -0.9711  0.7688
 3662TIP3   OH210991   3.022   4.414   1.486 -0.0933  0.1703  0.1128
 3662TIP3    H110992   3.073   4.495   1.495 -1.1570  1.0663 -1.5476
 3662TIP3    H210993   3.053   4.376   1.404 -0.8306 -0.2091  0.0073
 3663TIP3   OH210994   0.357   2.094   1.195  0.1539 -0.3561 -0.1301
 3663TIP3    H110995   0.283   2.040   1.224  0.3348 -0.1160  0.7984
 3663TIP3    H210996   0.434   2.050   1.230  0.2253  1.2155  1.8650
 3664TIP3   OH210997   5.752   5.632   1.602 -0.2056 -0.3431 -0.0810
 3664TIP3    H110998   5.791   5.670   1.523 -1.4585 -1.6127 -1.3727
 3664TIP3    H210999   5.671   5.681   1.615 -1.0216 -1.4331 -0.8213
 3665TIP3   OH211000   1.192   3.003   1.720  0.9202 -0.0408 -0.6423
 3665TIP3    H111001   1.244   3.046   1.651  0.7464  0.6294 -0.3677
 3665TIP3    H211002   1.160   2.923   1.679 -2.2435  2.0142 -2.6670
 3666TIP3   OH211003   5.542   0.256   1.836 -0.0730  0.1568 -0.1325
 3666TIP3    H111004   5.614   0.258   1.899 -0.3522 -1.4558  0.2853
 3666TIP3    H211005   5.581   0.283   1.753  1.1903 -1.2872 -0.0465
 3667TIP3   OH211006   3.907   1.463   2.967  0.0397 -0.1738  0.1724
 3667TIP3    H111007   3.986   1.418   2.937 -0.6647 -1.1424 -0.3033
 3667TIP3    H211008   3.871   1.504   2.889 -0.4876 -0.6382  0.1618
 3668TIP3   OH211009   4.470   5.080   2.286 -0.2869 -0.5079  0.1971
 3668TIP3    H111010   4.529   5.069   2.211 -0.6142 -0.8911 -0.0091
 3668TIP3    H211011   4.481   5.171   2.312 -2.4495  0.5696 -2.2593
 3669TIP3   OH211012   5.891   4.147   0.530 -0.4107  0.0905 -0.4696
 3669TIP3    H111013   5.881   4.205   0.605 -1.0018  1.3424 -1.4624
 3669TIP3    H211014   5.971   4.177   0.487 -0.0748 -0.6191 -0.3417
 3670TIP3   OH211015   1.004   1.184   1.035 -0.1723  0.1561  1.1143
 3670TIP3    H111016   1.040   1.266   1.069  0.6043  0.4622 -0.3971
 3670TIP3    H211017   1.080   1.131   1.014 -0.5734  0.3040 -0.9005
 3671TIP3   OH211018   5.927   5.627   2.984 -0.0091  0.2592  0.4396
 3671TIP3    H111019   5.944   5.672   2.901 -0.0807  0.0125  0.2891
 3671TIP3    H211020   5.908   5.537   2.958  2.4335 -0.4444  0.8861
 3672TIP3   OH211021   5.637   4.600   0.518 -0.4239 -0.1154 -0.6033
 3672TIP3    H111022   5.603   4.653   0.445  0.2171  0.3745 -0.5599
 3672TIP3    H211023   5.603   4.643   0.596  1.7908  1.5570 -0.4620
 3673TIP3   OH211024   3.099   1.749   1.166 -0.3199 -0.2161 -0.4001
 3673TIP3    H111025   3.031   1.781   1.107  0.1323 -0.8587 -1.2814
 3673TIP3    H211026   3.181   1.779   1.127 -0.1030  1.8215  1.4190
 3674TIP3   OH211027   1.638   2.212   2.196  0.1612  0.3250 -0.4109
 3674TIP3    H111028   1.618   2.166   2.277 -1.6987  1.4489 -0.1702
 3674TIP3    H211029   1.704   2.277   2.221 -2.6151  2.8423  1.0961
 3675TIP3   OH211030   3.027   1.521   1.023 -0.1671 -0.0102  0.1877
 3675TIP3    H111031   3.049   1.587   1.089 -0.8840 -0.0171  0.4481
 3675TIP3    H211032   2.933   1.531   1.010 -0.1103 -0.3147 -0.5108
 3676TIP3   OH211033   0.421   1.474   0.137  0.1431 -0.5504 -0.0909
 3676TIP3    H111034   0.409   1.391   0.090 -0.7319 -0.5144  0.0533
 3676TIP3    H211035   0.474   1.527   0.078  1.2691 -1.4276  0.0830
 3677TIP3   OH211036   3.164   2.617   2.847 -0.4849  0.1897 -0.1225
 3677TIP3    H111037   3.199   2.566   2.921  0.0577  0.0234 -0.4870
 3677TIP3    H211038   3.180   2.562   2.771 -0.2437  0.7434 -0.4744
 3678TIP3   OH211039   2.480   5.649   5.131  0.3957  0.0587  0.0641
 3678TIP3    H111040   2.538   5.576   5.110 -0.4438 -0.5299 -0.2564
 3678TIP3    H211041   2.539   5.724   5.142  1.2296 -0.5660 -0.0390
 3679TIP3   OH211042   4.965   5.331   3.210  0.4272 -0.3874  0.1064
 3679TIP3    H111043   4.916   5.412   3.217 -0.8971 -1.1313 -0.1762
 3679TIP3    H211044   4.977   5.302   3.300 -2.7656 -1.9440  0.1712
 3680TIP3   OH211045   5.044   0.060   1.654 -0.5391  0.8859 -0.5312
 3680TIP3    H111046   5.043   0.149   1.689 -0.8173  1.7226 -2.5179
 3680TIP3    H211047   4.978   0.061   1.584 -0.3587 -0.8097 -0.7693
 3681TIP3   OH211048   0.914   0.861   2.194 -0.3775 -0.1326  0.1588
 3681TIP3    H111049   0.874   0.807   2.125 -2.0212  0.5075  0.5451
 3681TIP3    H211050   0.887   0.950   2.172  0.7792  0.3204  0.5273
 3682TIP3   OH211051   1.277   1.923   1.151  0.0251  0.4242  0.0554
 3682TIP3    H111052   1.258   1.957   1.064  3.5259 -1.5337 -1.6889
 3682TIP3    H211053   1.325   1.994   1.195 -0.1338  0.7563 -0.3080
 3683TIP3   OH211054   3.686   2.955   2.263  0.1121 -0.2892  0.4391
 3683TIP3    H111055   3.735   3.034   2.241  0.2658 -0.3878  0.4279
 3683TIP3    H211056   3.688   2.903   2.183  1.3288 -0.9973  0.8992
 3684TIP3   OH211057   3.311   0.177   0.671  0.1436 -0.4415 -0.5103
 3684TIP3    H111058   3.342   0.102   0.721  1.7302  0.3650 -0.2517
 3684TIP3    H211059   3.367   0.179   0.593  0.7429  1.0013 -0.0666
 3685TIP3   OH211060   5.664   0.304   2.557 -0.2223 -0.3761 -0.1696
 3685TIP3    H111061   5.718   0.380   2.581  0.4168 -0.5810 -0.8939
 3685TIP3    H211062   5.695   0.234   2.614  1.5868 -0.9769 -1.7805
 3686TIP3   OH211063   2.472   1.889   1.144 -0.0681  0.2376  0.5914
 3686TIP3    H111064   2.473   1.850   1.232 -0.8212  0.7703  0.8464
 3686TIP3    H211065   2.380   1.904   1.126  0.0357 -0.4685 -0.5723
 3687TIP3   OH211066   5.315   0.184   5.133 -0.4778  0.5255 -0.0013
 3687TIP3    H111067   5.410   0.190   5.144 -0.3573 -0.4797 -0.4412
 3687TIP3    H211068   5.280   0.206   5.219  0.2759 -2.1153  1.0818
 3688TIP3   OH211069   4.429   5.992   0.901 -0.6682  0.2822 -0.4972
 3688TIP3    H111070   4.363   5.925   0.882 -0.5975 -0.6795  2.2009
 3688TIP3    H211071   4.390   6.045   0.970  0.5298  1.0816 -0.4026
 3689TIP3   OH211072   2.206   4.772   2.927  0.1918 -0.0564  0.0681
 3689TIP3    H111073   2.133   4.790   2.867  1.7640 -0.0745 -1.9829
 3689TIP3    H211074   2.254   4.700   2.886  1.4484  0.0503  1.2692
 3690TIP3   OH211075   4.464   1.767   5.027  0.5116 -0.1922 -0.2512
 3690TIP3    H111076   4.436   1.742   5.114  0.6420 -0.8356 -0.3911
 3690TIP3    H211077   4.389   1.748   4.970  0.0394  1.1863 -0.1477
 3691TIP3   OH211078   6.248   3.586   2.048 -0.2489  0.7521  0.0169
 3691TIP3    H111079   6.239   3.500   2.089 -1.6234  0.5847 -0.5856
 3691TIP3    H211080   6.297   3.638   2.112  0.2779 -0.3596  0.5497
 3692TIP3   OH211081   5.296   5.756   1.457  0.3861  0.5780 -0.4917
 3692TIP3    H111082   5.202   5.740   1.454  0.4071  0.3427 -0.0272
 3692TIP3    H211083   5.335   5.670   1.472  0.6697  0.6910 -0.5545
 3693TIP3   OH211084   1.461   5.002   3.382  1.1529 -0.1584  0.1020
 3693TIP3    H111085   1.488   4.911   3.389 -0.5412 -0.7067 -0.2709
 3693TIP3    H211086   1.373   4.999   3.346  2.0180  1.7263 -2.5020
 3694TIP3   OH211087   2.789   1.424   4.281 -0.1143  0.1316  0.1266
 3694TIP3    H111088   2.870   1.427   4.332  1.0310 -1.8333 -1.4082
 3694TIP3    H211089   2.805   1.484   4.208 -0.0466 -0.2095 -0.1422
 3695TIP3   OH211090   6.092   4.545   0.476  0.0185 -0.4225  0.1320
 3695TIP3    H111091   6.035   4.581   0.543 -0.4420  1.7935 -1.3050
 3695TIP3    H211092   6.034   4.530   0.401  1.1813  1.7008 -1.2953
 3696TIP3   OH211093   0.511   1.219  -0.009  0.0794 -0.4876 -0.3127
 3696TIP3    H111094   0.589   1.274  -0.019 -0.4191  0.4060  0.5280
 3696TIP3    H211095   0.525   1.173   0.074 -0.7889  0.5974  0.4880
 3697TIP3   OH211096   4.987   1.183   1.225  0.1883 -0.2054  0.0191
 3697TIP3    H111097   4.896   1.188   1.196 -0.9296  1.4998  3.4020
 3697TIP3    H211098   4.982   1.161   1.318  3.3280 -1.2759  0.0529
 3698TIP3   OH211099   2.222   1.015   4.938  0.0478  0.1312  0.1503
 3698TIP3    H111100   2.132   1.019   4.905  0.3639  0.2086 -0.7363
 3698TIP3    H211101   2.245   1.106   4.956 -1.1156 -0.0715  3.4983
 3699TIP3   OH211102   4.934   0.984   2.386  0.0067  0.0424 -0.1242
 3699TIP3    H111103   4.863   1.048   2.394  0.3232  0.2617  1.0286
 3699TIP3    H211104   4.896   0.902   2.418  0.0356 -0.0256 -0.2610
 3700TIP3   OH211105   1.980   5.183   4.040  0.2640 -0.0035  0.0221
 3700TIP3    H111106   2.054   5.232   4.076  0.3442 -0.5579  0.6430
 3700TIP3    H211107   1.904   5.220   4.085  0.1056  0.8392 -0.9080
 3701TIP3   OH211108   6.358   3.342   0.778  0.1750 -0.0057  0.4551
 3701TIP3    H111109   6.377   3.280   0.848  1.3428 -0.3122 -0.0949
 3701TIP3    H211110   6.317   3.289   0.709  1.0376 -0.1560  0.0443
 3702TIP3   OH211111   5.974   4.277   3.200  0.0470 -0.2505  0.0448
 3702TIP3    H111112   5.947   4.281   3.292  0.2232  1.0790  0.0616
 3702TIP3    H211113   5.908   4.327   3.153 -1.4332 -2.9452 -0.9602
 3703TIP3   OH211114   2.601   4.019   3.656  0.1469 -0.4472  0.0769
 3703TIP3    H111115   2.615   3.928   3.680  0.6182 -0.3860  0.0477
 3703TIP3    H211116   2.513   4.021   3.618 -0.4140 -0.6364  1.3197
 3704TIP3   OH211117   4.440   1.161   0.976 -0.2565  0.7660 -0.5418
 3704TIP3    H111118   4.403   1.130   0.893 -2.4037  1.7298  0.0078
 3704TIP3    H211119   4.502   1.229   0.949  1.4272 -1.0150 -1.4823
 3705TIP3   OH211120   2.554   3.286   4.953  0.2624 -0.0223 -1.1056
 3705TIP3    H111121   2.612   3.266   5.027 -0.5839 -0.2164 -0.4751
 3705TIP3    H211122   2.476   3.233   4.970 -0.4615  0.9271 -1.4501
 3706TIP3   OH211123   3.059   3.312   4.747 -0.4953  0.2318  0.0692
 3706TIP3    H111124   3.005   3.298   4.669 -0.9775  1.6977  0.1098
 3706TIP3    H211125   3.038   3.401   4.776 -0.0806 -0.1586  1.6952
 3707TIP3   OH211126   5.389   4.800   2.265  0.0523 -0.4926 -0.2040
 3707TIP3    H111127   5.474   4.768   2.234 -0.3981 -2.1130  0.1359
 3707TIP3    H211128   5.330   4.725   2.256 -1.0970  0.2748  0.5824
 3708TIP3   OH211129   0.558   5.616   5.131  0.0892 -0.0945 -0.3652
 3708TIP3    H111130   0.482   5.600   5.187 -1.7923  0.5072 -2.6396
 3708TIP3    H211131   0.542   5.564   5.053  2.0602  0.0376 -0.9072
 3709TIP3   OH211132   4.303   2.010   1.757  0.3117  0.2656  0.0110
 3709TIP3    H111133   4.218   2.052   1.770 -0.0912 -0.8987  1.4399
 3709TIP3    H211134   4.312   2.003   1.662 -1.0326  0.7355 -0.1752
 3710TIP3   OH211135   5.040   4.254   1.969 -0.0117  0.3557  0.6842
 3710TIP3    H111136   5.109   4.270   2.034  1.4790  0.3581 -0.8197
 3710TIP3    H211137   5.062   4.169   1.931 -0.1166  0.9114 -0.6665
 3711TIP3   OH211138   1.241   5.640   2.323  0.2996  0.1293 -0.0742
 3711TIP3    H111139   1.305   5.701   2.285  1.9777 -0.6295  1.3665
 3711TIP3    H211140   1.203   5.595   2.247  1.4435  0.6678 -1.0024
 3712TIP3   OH211141   4.310   0.378   1.762  0.5194  0.1642 -0.6269
 3712TIP3    H111142   4.327   0.330   1.843  1.8921  3.0685  0.9582
 3712TIP3    H211143   4.377   0.347   1.701  1.5947  0.2891  0.4610
 3713TIP3   OH211144   1.691   3.217   4.416  0.0685  0.3323  0.4293
 3713TIP3    H111145   1.610   3.171   4.394  0.4987 -1.6738  2.5812
 3713TIP3    H211146   1.754   3.188   4.350 -0.7093  1.2146 -0.7324
 3714TIP3   OH211147   0.936   1.334   3.077  0.4165  0.0047  0.3119
 3714TIP3    H111148   0.994   1.290   3.139 -0.4695 -3.3848 -1.0517
 3714TIP3    H211149   0.928   1.274   3.004 -0.1867  2.9562 -2.2794
 3715TIP3   OH211150   0.338   1.020   1.027 -0.0025 -0.0716  0.0583
 3715TIP3    H111151   0.316   1.027   0.934  0.1640  1.0413  0.0992
 3715TIP3    H211152   0.433   1.035   1.030  0.0175 -0.2530  0.4012
 3716TIP3   OH211153   6.122   3.905   2.754  0.4168  0.5035  0.7317
 3716TIP3    H111154   6.155   3.892   2.843  2.6994  0.6020 -0.0413
 3716TIP3    H211155   6.106   4.000   2.749  1.0489  0.6245  0.8196
 3717TIP3   OH211156   4.327   3.134   4.978  0.5411  0.2651  0.1336
 3717TIP3    H111157   4.235   3.119   4.956  0.3500  0.7365  0.5739
 3717TIP3    H211158   4.336   3.229   4.978  1.3898  0.1972 -1.3090
 3718TIP3   OH211159   2.868   0.593   4.104 -0.5721  0.5098 -0.2057
 3718TIP3    H111160   2.774   0.608   4.114 -0.9551 -1.7927  0.4181
 3718TIP3    H211161   2.893   0.642   4.026 -2.6797 -0.2135 -1.4138
 3719TIP3   OH211162   4.896   2.892   2.435  0.2824 -0.1154 -0.4228
 3719TIP3    H111163   4.890   2.964   2.497 -0.5102 -0.6092  0.1057
 3719TIP3    H211164   4.806   2.881   2.403  1.1685  2.5101 -4.5285
 3720TIP3   OH211165   4.323   1.701   2.951  0.2234 -0.2606 -0.0815
 3720TIP3    H111166   4.329   1.608   2.930 -2.6536 -0.2082 -1.6999
 3720TIP3    H211167   4.374   1.745   2.884  1.0020 -0.6256  0.2628
 3721TIP3   OH211168   0.472   1.954   4.132 -0.1135 -0.8080  0.3997
 3721TIP3    H111169   0.416   1.996   4.198 -0.6929 -1.1417  0.1303
 3721TIP3    H211170   0.476   2.018   4.061 -1.0070 -1.2037 -0.0161
 3722TIP3   OH211171   1.153   5.909   0.797 -0.3906 -0.1287 -0.2613
 3722TIP3    H111172   1.156   5.821   0.836  0.5123  0.1857  0.4026
 3722TIP3    H211173   1.069   5.945   0.825  0.5254  0.3668  2.0749
 3723TIP3   OH211174   5.494   3.659   0.835 -0.4794  0.5048 -0.1077
 3723TIP3    H111175   5.489   3.565   0.851  0.1819  0.2540 -1.2205
 3723TIP3    H211176   5.472   3.699   0.918 -0.7309 -0.6366  0.3971
 3724TIP3   OH211177   0.206   1.615   1.760 -0.1244  0.3623 -0.2029
 3724TIP3    H111178   0.239   1.572   1.839 -0.7205 -0.7159 -0.5151
 3724TIP3    H211179   0.143   1.553   1.724 -0.0210  0.9292 -1.4110
 3725TIP3   OH211180   5.252   2.154   1.234  0.0816  0.4294  0.1448
 3725TIP3    H111181   5.340   2.178   1.205 -0.7246  2.0923 -1.1360
 3725TIP3    H211182   5.238   2.066   1.200  1.1545  0.2472  0.1407
 3726TIP3   OH211183   5.424   0.425   2.534 -0.5288 -0.2953 -0.2867
 3726TIP3    H111184   5.388   0.344   2.498 -0.9862  0.4696 -1.6044
 3726TIP3    H211185   5.513   0.402   2.561 -0.6166 -1.1977 -0.7352
 3727TIP3   OH211186   1.124   1.515   4.950 -0.0665  1.2165 -0.2495
 3727TIP3    H111187   1.163   1.598   4.978 -0.0134  0.0601  3.6971
 3727TIP3    H211188   1.033   1.520   4.981 -0.2829  0.1218 -0.6836
 3728TIP3   OH211189   6.108   5.441   1.578  0.1924 -0.1128 -0.0803
 3728TIP3    H111190   6.174   5.480   1.521 -0.6234  1.3319 -0.0699
 3728TIP3    H211191   6.074   5.514   1.630  1.1709 -1.4233  2.5778
 3729TIP3   OH211192   1.958   1.314   2.847 -0.0286 -0.4509  0.0360
 3729TIP3    H111193   1.877   1.306   2.897  0.4681 -0.5162  0.8485
 3729TIP3    H211194   1.929   1.339   2.759 -0.8116  2.8063  1.0645
 3730TIP3   OH211195   1.591   4.115   1.761  0.0945  0.9127 -0.7769
 3730TIP3    H111196   1.625   4.204   1.771 -1.6707  1.7392 -1.7744
 3730TIP3    H211197   1.497   4.126   1.748 -0.0076 -1.0208 -2.0860
 3731TIP3   OH211198   3.978   1.839   2.807 -0.1806 -0.0249  0.3174
 3731TIP3    H111199   3.925   1.879   2.738  0.8276  3.0559  1.1764
 3731TIP3    H211200   4.015   1.913   2.855  3.6501 -1.9755  0.7685
 3732TIP3   OH211201   1.871   5.190   3.434 -0.2240  0.0314 -0.1328
 3732TIP3    H111202   1.820   5.168   3.512 -0.9408 -1.1421 -0.9089
 3732TIP3    H211203   1.958   5.156   3.452 -0.8685 -2.0000 -0.5889
 3733TIP3   OH211204   4.680   4.445   2.698 -0.1025  0.3255  0.5612
 3733TIP3    H111205   4.587   4.468   2.707  0.0676  1.1383  0.2237
 3733TIP3    H211206   4.701   4.401   2.781 -1.4137 -2.0999 -0.2701
 3734TIP3   OH211207   1.777   3.993   2.876  0.1930 -0.0217 -0.1267
 3734TIP3    H111208   1.687   4.022   2.865  0.0571 -0.8328 -1.3104
 3734TIP3    H211209   1.788   3.923   2.811  1.5620 -0.1788  0.2451
 3735TIP3   OH211210   1.075   2.812   0.411  0.1999 -0.4963  0.5313
 3735TIP3    H111211   1.129   2.794   0.488  0.9408 -1.8203 -0.2534
 3735TIP3    H211212   1.130   2.866   0.355  0.3782 -1.0556  0.1501
 3736TIP3   OH211213   3.893   3.530   3.647  0.2297 -0.3991 -0.3607
 3736TIP3    H111214   3.839   3.462   3.686  2.5004 -1.7482  0.6409
 3736TIP3    H211215   3.977   3.487   3.630  1.4571  1.9107 -0.5745
 3737TIP3   OH211216   4.758   1.484   1.988  0.2256 -0.2767  0.6863
 3737TIP3    H111217   4.766   1.453   2.078  1.6805  0.2511  0.7496
 3737TIP3    H211218   4.795   1.413   1.935 -1.5427 -1.0432  0.3749
 3738TIP3   OH211219   2.723   4.800   3.991 -0.1924 -0.5860 -0.1873
 3738TIP3    H111220   2.811   4.773   3.966 -0.5378 -1.4099 -0.5374
 3738TIP3    H211221   2.693   4.732   4.052 -1.0226 -0.9395 -0.9686
 3739TIP3   OH211222   6.208   2.505   0.960  0.8494 -0.4275 -0.4990
 3739TIP3    H111223   6.273   2.568   0.990  0.7269 -0.0553 -1.0042
 3739TIP3    H211224   6.213   2.509   0.865 -0.5315  0.2592 -0.5600
 3740TIP3   OH211225   0.614   0.203   1.330  0.0644 -0.0043  0.4189
 3740TIP3    H111226   0.551   0.254   1.280  0.7078 -0.5858 -1.0549
 3740TIP3    H211227   0.620   0.120   1.283  1.9808  0.0728  0.4532
 3741TIP3   OH211228   1.123   2.379   3.581 -0.1095 -0.0413  0.2315
 3741TIP3    H111229   1.197   2.332   3.542 -0.6551 -0.6912 -0.0483
 3741TIP3    H211230   1.108   2.453   3.522 -0.4145 -0.5653 -0.3676
 3742TIP3   OH211231   3.176   1.064   4.407  0.9924 -0.1119  0.1551
 3742TIP3    H111232   3.164   1.157   4.424 -1.7083 -0.5463  1.0515
 3742TIP3    H211233   3.202   1.027   4.492  1.9651 -0.2377 -0.1767
 3743TIP3   OH211234   4.180   5.171   1.353 -0.1494  0.2715  0.0763
 3743TIP3    H111235   4.218   5.202   1.271 -1.2702  0.9949 -0.1834
 3743TIP3    H211236   4.118   5.239   1.379 -0.3101 -0.2605  1.1758
 3744TIP3   OH211237   6.177   2.163   4.888 -0.0418 -0.7833  0.2957
 3744TIP3    H111238   6.203   2.243   4.842  1.3592 -0.7719  1.0616
 3744TIP3    H211239   6.129   2.194   4.964 -0.6706 -0.7346 -0.1121
 3745TIP3   OH211240   4.531   2.878   3.849  0.8590  0.0298  0.2599
 3745TIP3    H111241   4.489   2.794   3.869 -0.0859  0.4026 -0.1318
 3745TIP3    H211242   4.523   2.886   3.754 -0.2030  1.1546  0.4238
 3746TIP3   OH211243   1.832   2.362   1.983 -0.1601 -0.2292 -0.7024
 3746TIP3    H111244   1.745   2.394   1.962 -0.3746 -0.7506 -0.6092
 3746TIP3    H211245   1.873   2.435   2.030  0.6440  1.3416 -3.5708
 3747TIP3   OH211246   3.413   1.783   1.813 -0.1183 -0.9020  0.2619
 3747TIP3    H111247   3.366   1.866   1.801 -0.3243 -0.7889  1.7023
 3747TIP3    H211248   3.344   1.718   1.828  0.1268 -0.9122  1.4049
 3748TIP3   OH211249   5.044   2.824   3.697 -0.1244  1.1366  0.6857
 3748TIP3    H111250   4.961   2.826   3.744 -0.5644 -1.3584  0.1948
 3748TIP3    H211251   5.034   2.751   3.635  1.9539  1.6385 -0.3274
 3749TIP3   OH211252   5.827   2.453   4.102  0.2173  0.9810  0.2512
 3749TIP3    H111253   5.908   2.505   4.095  0.3785  0.6529 -0.3762
 3749TIP3    H211254   5.768   2.509   4.152  1.6528  0.2232  2.9702
 3750TIP3   OH211255   0.962   4.778   1.749 -0.0768 -0.1668 -0.6894
 3750TIP3    H111256   0.966   4.718   1.823  0.1838  0.6219 -0.0543
 3750TIP3    H211257   0.949   4.721   1.673 -2.2075 -0.8770  0.1392
 3751TIP3   OH211258   3.736   5.629   2.405  0.5081  0.9799  0.1639
 3751TIP3    H111259   3.734   5.583   2.489 -1.1940  0.9256  0.1310
 3751TIP3    H211260   3.788   5.707   2.422  0.9639  0.5114  1.0142
 3752TIP3   OH211261   0.893   3.259   0.142  0.1927  0.3403 -0.1569
 3752TIP3    H111262   0.819   3.200   0.132 -1.4166  2.3159 -0.4598
 3752TIP3    H211263   0.921   3.247   0.233 -0.4631 -0.4726 -0.0508
 3753TIP3   OH211264   3.606   1.715   3.322  0.0098  0.2384 -0.0654
 3753TIP3    H111265   3.611   1.646   3.387 -1.4219  0.7508  0.6290
 3753TIP3    H211266   3.624   1.672   3.239 -0.3297 -0.8560  0.4202
 3754TIP3   OH211267   3.141   1.206   1.567 -0.3023  0.1184  0.0504
 3754TIP3    H111268   3.129   1.130   1.623  0.1236  0.6672  0.9017
 3754TIP3    H211269   3.069   1.265   1.590 -0.2602  0.2522 -0.1512
 3755TIP3   OH211270   3.199   3.713   3.924 -0.4413  0.3561  0.5479
 3755TIP3    H111271   3.256   3.787   3.903 -1.5117  1.4874  1.4099
 3755TIP3    H211272   3.141   3.706   3.848  0.5241 -0.5059 -0.1320
 3756TIP3   OH211273   6.088   4.804   1.464 -0.5173  0.1985 -0.0121
 3756TIP3    H111274   6.027   4.731   1.452 -0.8354  0.6839 -1.5621
 3756TIP3    H211275   6.174   4.762   1.466 -0.8161 -0.4008  1.2176
 3757TIP3   OH211276   1.259   1.764   4.996  0.1009 -0.0728 -0.0228
 3757TIP3    H111277   1.228   1.811   4.918  0.8081 -0.1236 -0.3433
 3757TIP3    H211278   1.353   1.783   4.999 -0.0225  0.4028  1.1512
 3758TIP3   OH211279   3.846   3.284   1.812 -0.1541  0.0172 -0.0050
 3758TIP3    H111280   3.773   3.347   1.815 -0.3674 -0.2242 -0.0865
 3758TIP3    H211281   3.915   3.326   1.864 -1.1245 -0.7117  1.9945
 3759TIP3   OH211282   0.512   1.796   3.719 -0.0794  0.1679  0.5667
 3759TIP3    H111283   0.564   1.849   3.658 -0.7095 -0.8711 -0.9368
 3759TIP3    H211284   0.520   1.707   3.685 -1.0627 -0.3357  1.6034
 3760TIP3   OH211285   4.116   4.223   4.606  0.2472 -0.0862 -0.3024
 3760TIP3    H111286   4.032   4.268   4.606  0.3311  0.1381  1.1327
 3760TIP3    H211287   4.180   4.293   4.595  0.2659 -0.1827 -0.7906
 3761TIP3   OH211288   5.412   1.663   4.011  0.2007 -0.3301 -0.2478
 3761TIP3    H111289   5.341   1.726   3.998 -0.0896 -0.4788  0.5458
 3761TIP3    H211290   5.487   1.716   4.038 -0.3098 -0.3888  1.3836
 3762TIP3   OH211291   6.113   1.574   0.448  0.0125  0.7627 -0.1645
 3762TIP3    H111292   6.201   1.590   0.483 -0.9032  1.9187  1.8190
 3762TIP3    H211293   6.101   1.479   0.456  1.4018  0.4540 -1.3814
 3763TIP3   OH211294   0.024   0.114   1.650 -0.8679  0.6357 -0.3421
 3763TIP3    H111295   0.035   0.151   1.563 -2.6250  1.9957 -0.0575
 3763TIP3    H211296  -0.036   0.175   1.694 -0.0954 -0.0515  1.7872
 3764TIP3   OH211297   4.657   3.620   2.937  0.5927 -0.1866 -0.4848
 3764TIP3    H111298   4.604   3.541   2.950 -0.8318  0.6195 -1.2114
 3764TIP3    H211299   4.693   3.639   3.024 -2.5771  0.8175  0.7400
 3765TIP3   OH211300   1.144   0.635   4.495 -0.3687 -0.2894  0.0562
 3765TIP3    H111301   1.060   0.603   4.463 -0.7606  0.1762  0.6079
 3765TIP3    H211302   1.201   0.635   4.417 -0.5738 -1.5515 -0.1179
 3766TIP3   OH211303   2.067   0.060   0.071  0.1376  0.0367 -0.0983
 3766TIP3    H111304   2.146   0.025   0.112 -0.6345 -0.9926  0.5367
 3766TIP3    H211305   2.100   0.107  -0.006  1.3922 -0.0769  0.3388
 3767TIP3   OH211306   5.948   2.830   2.280 -0.4219  0.0312 -0.0651
 3767TIP3    H111307   6.006   2.906   2.280 -0.4521  0.0631  0.6378
 3767TIP3    H211308   5.954   2.795   2.191  0.0480  0.5073 -0.2263
 3768TIP3   OH211309   4.840   4.719   1.240  0.3243 -0.0113  0.6166
 3768TIP3    H111310   4.840   4.624   1.224 -0.5447 -0.2509  1.8291
 3768TIP3    H211311   4.925   4.749   1.208  1.3418 -1.4988  1.7746
 3769TIP3   OH211312   1.218   3.555   0.112 -0.0485 -0.0610  0.3774
 3769TIP3    H111313   1.160   3.551   0.189  0.6221  0.2541  0.9054
 3769TIP3    H211314   1.216   3.646   0.085 -1.7529 -0.4927 -1.1458
 3770TIP3   OH211315   0.022   5.630   0.106 -0.3323 -0.4057  0.1935
 3770TIP3    H111316   0.061   5.548   0.074 -0.3200  0.3372 -1.8531
 3770TIP3    H211317  -0.022   5.666   0.029 -2.0028  0.5621  1.5484
 3771TIP3   OH211318   2.563   4.203   0.429 -0.4770  0.7554 -0.2809
 3771TIP3    H111319   2.496   4.272   0.432 -2.2226 -0.8673  0.1001
 3771TIP3    H211320   2.607   4.209   0.514  1.8256  3.5498 -1.4790
 3772TIP3   OH211321   1.267   3.703   2.293 -0.3988  0.0554  0.9720
 3772TIP3    H111322   1.267   3.643   2.367  0.5843 -2.0350 -0.6135
 3772TIP3    H211323   1.349   3.751   2.300  0.0243 -0.6484  0.8550
 3773TIP3   OH211324   0.691   0.612   1.486 -0.0673  0.2091  0.0479
 3773TIP3    H111325   0.715   0.705   1.486 -0.9616  0.4423  0.6866
 3773TIP3    H211326   0.682   0.590   1.393  0.3575  0.7017 -0.1147
 3774TIP3   OH211327   5.235   1.248   1.432  0.5549  0.2876  0.3441
 3774TIP3    H111328   5.140   1.235   1.427  0.4712  0.7475  0.7364
 3774TIP3    H211329   5.265   1.185   1.497  0.4692  0.4026  0.4942
 3775TIP3   OH211330   4.861   3.547   5.041 -0.0807 -0.8194 -0.2893
 3775TIP3    H111331   4.912   3.561   4.961  0.3232 -0.5412  0.0167
 3775TIP3    H211332   4.898   3.467   5.079  0.0193 -0.7048 -0.1487
 3776TIP3   OH211333   4.743   0.871   3.781  0.7384 -0.4385 -0.2079
 3776TIP3    H111334   4.765   0.963   3.795 -0.0331 -0.4612  1.4079
 3776TIP3    H211335   4.825   0.830   3.753  1.2765  0.5866 -0.1665
 3777TIP3   OH211336   0.673   4.765   1.925  0.1965  0.2846 -0.0072
 3777TIP3    H111337   0.645   4.673   1.928  1.0103  0.0542  2.5082
 3777TIP3    H211338   0.655   4.792   1.835 -1.5639 -1.8477 -0.3762
 3778TIP3   OH211339   2.663   1.092   4.431  0.1746  0.0862  0.0419
 3778TIP3    H111340   2.674   1.057   4.343 -0.8970  0.5626 -0.3026
 3778TIP3    H211341   2.587   1.046   4.467  0.8790 -0.4427  0.9095
 3779TIP3   OH211342   1.117   4.030   4.105  0.6534 -0.4319 -0.1674
 3779TIP3    H111343   1.199   4.066   4.139  1.3190 -2.0816  0.0654
 3779TIP3    H211344   1.136   4.010   4.013 -0.3951  1.7832 -0.9115
 3780TIP3   OH211345   4.426   2.674   4.528  0.6466 -0.4884  0.0743
 3780TIP3    H111346   4.371   2.610   4.483  0.2762 -0.0596 -0.0930
 3780TIP3    H211347   4.400   2.758   4.490  0.9564 -0.2145  0.4630
 3781TIP3   OH211348   4.524   3.795   3.558 -0.1008 -0.1677 -0.2100
 3781TIP3    H111349   4.519   3.841   3.474 -0.1038  0.5338  0.1689
 3781TIP3    H211350   4.574   3.853   3.615  0.5136 -0.9579  0.0757
 3782TIP3   OH211351   6.065   5.504   0.034 -0.7149 -0.0012 -0.0696
 3782TIP3    H111352   6.099   5.535  -0.050  0.1753 -0.3112  0.1612
 3782TIP3    H211353   6.087   5.574   0.096 -0.5597 -0.1697  0.0677
 3783TIP3   OH211354   4.637   4.794   2.416  0.0707  0.1648  0.2300
 3783TIP3    H111355   4.718   4.792   2.365  0.3312  1.5013  0.5514
 3783TIP3    H211356   4.575   4.742   2.365  0.2859  1.5634 -1.5421
 3784TIP3   OH211357   4.310   3.821   3.110 -0.5555 -0.4494  0.0062
 3784TIP3    H111358   4.215   3.831   3.122 -1.1065 -3.4835 -0.9199
 3784TIP3    H211359   4.319   3.772   3.028  1.9115  0.6651 -0.4808
 3785TIP3   OH211360   2.560   5.427   2.149  0.2266 -0.2137  0.2095
 3785TIP3    H111361   2.572   5.397   2.059 -1.3577  0.2948 -0.2096
 3785TIP3    H211362   2.539   5.347   2.198 -1.0009 -0.2409 -0.3166
 3786TIP3   OH211363   4.078   4.648   2.898 -0.0972  0.3355  0.2005
 3786TIP3    H111364   4.140   4.582   2.867  0.4450  1.3637 -1.0171
 3786TIP3    H211365   4.100   4.727   2.847  0.7843  2.1436  3.1121
 3787TIP3   OH211366   0.162   4.232   4.040 -0.2066  0.4404 -0.1629
 3787TIP3    H111367   0.117   4.148   4.038 -1.1822  0.8728  1.2728
 3787TIP3    H211368   0.167   4.260   3.949 -2.5214  0.1534 -0.4352
 3788TIP3   OH211369   3.483   4.709   1.135  0.1216 -0.1907  0.2989
 3788TIP3    H111370   3.576   4.687   1.140 -0.1457 -1.3875  0.4010
 3788TIP3    H211371   3.439   4.624   1.134 -1.0465  0.3496  1.7322
 3789TIP3   OH211372   5.237   1.877   0.470 -0.1502 -0.3589  0.0736
 3789TIP3    H111373   5.144   1.880   0.491 -0.0123 -1.0681  0.8046
 3789TIP3    H211374   5.253   1.958   0.421 -0.9503  0.2082  0.7355
 3790TIP3   OH211375   2.276   4.367   3.024 -0.2691  0.0061  0.2552
 3790TIP3    H111376   2.301   4.355   2.932  1.1608 -0.2878  0.6504
 3790TIP3    H211377   2.212   4.298   3.041 -0.7932  0.2676 -0.6011
 3791TIP3   OH211378   0.722   0.033   2.024  0.0236 -0.2579  0.0975
 3791TIP3    H111379   0.783  -0.004   1.961  0.3460  0.3484  0.0410
 3791TIP3    H211380   0.679   0.104   1.976 -0.7208 -0.6672  0.1412
 3792TIP3   OH211381   3.584   4.218   0.826 -0.5443  0.5722 -0.4337
 3792TIP3    H111382   3.589   4.124   0.841  0.8295  0.2600 -2.4502
 3792TIP3    H211383   3.513   4.229   0.763  0.3007  0.6723 -1.3962
 3793TIP3   OH211384   5.756   1.224   0.825 -0.1664  0.4516 -0.5708
 3793TIP3    H111385   5.720   1.234   0.913  0.8583  1.5321 -0.2470
 3793TIP3    H211386   5.823   1.157   0.833 -0.6096 -0.0151 -0.7103
 3794TIP3   OH211387   3.474   4.323   4.026  0.0848 -0.0722  0.1974
 3794TIP3    H111388   3.445   4.327   3.935  0.6852  1.8485  0.0381
 3794TIP3    H211389   3.396   4.346   4.077 -0.5128 -2.0789  0.2921
 3795TIP3   OH211390   0.804   5.744   3.286  0.0086 -0.5930 -0.3100
 3795TIP3    H111391   0.815   5.816   3.224 -1.2882  0.1921  0.3213
 3795TIP3    H211392   0.867   5.764   3.356 -1.2137  0.6743  0.4844
 3796TIP3   OH211393   1.093   2.163   4.332 -0.3785 -1.0131 -0.0678
 3796TIP3    H111394   1.057   2.237   4.380  0.4127 -0.6372 -0.0562
 3796TIP3    H211395   1.184   2.156   4.361  0.0444 -0.9274 -1.3196
 3797TIP3   OH211396   4.473   5.323   1.681  0.3532  0.4821  0.3236
 3797TIP3    H111397   4.390   5.370   1.693  0.2977  0.0886  1.6690
 3797TIP3    H211398   4.529   5.356   1.751  1.4631  0.9764 -0.7644
 3798TIP3   OH211399   2.533   1.550   4.044 -0.2704  0.4861  0.2514
 3798TIP3    H111400   2.458   1.493   4.062 -0.1842  0.1822 -0.3228
 3798TIP3    H211401   2.520   1.626   4.101 -0.4051 -0.0872  0.9894
 3799TIP3   OH211402   3.885   4.164   0.862 -0.0546 -0.1422  0.7770
 3799TIP3    H111403   3.817   4.159   0.929 -0.6706  0.4653  0.2082
 3799TIP3    H211404   3.959   4.207   0.905 -0.6716  0.8195  0.8894
 3800TIP3   OH211405   0.468   0.895   4.970  1.1737 -0.2960 -0.2815
 3800TIP3    H111406   0.519   0.819   4.998 -1.4874 -1.3352  2.2861
 3800TIP3    H211407   0.464   0.951   5.048 -0.1071  0.6036 -0.9529
 3801TIP3   OH211408   3.815   3.565   3.155  0.2432 -0.2127 -0.1041
 3801TIP3    H111409   3.777   3.479   3.169  2.1719 -1.1508 -0.3609
 3801TIP3    H211410   3.740   3.625   3.157 -1.2364 -1.9555 -0.6892
 3802TIP3   OH211411   3.447   3.533   1.998 -0.1100  0.6720 -0.0062
 3802TIP3    H111412   3.409   3.446   2.014 -0.9366  1.0469  0.1115
 3802TIP3    H211413   3.492   3.524   1.914 -0.5852  0.2510 -0.2236
 3803TIP3   OH211414   2.484   2.187   1.832  0.2643  0.1576  0.3116
 3803TIP3    H111415   2.563   2.215   1.785 -0.4911 -0.2206 -1.2545
 3803TIP3    H211416   2.435   2.268   1.847  0.0559  0.1822 -0.4494
 3804TIP3   OH211417   2.344   1.283   5.030  0.1642  0.3898 -0.3348
 3804TIP3    H111418   2.378   1.269   4.942 -0.3742 -0.4714 -0.4132
 3804TIP3    H211419   2.420   1.270   5.087  0.0054 -1.6304 -0.5041
 3805TIP3   OH211420   5.031   1.474   4.310 -0.1870 -0.2357  0.0985
 3805TIP3    H111421   5.014   1.418   4.234 -0.2661 -0.8722  0.5748
 3805TIP3    H211422   5.118   1.511   4.293  0.7105 -1.9630  0.6157
 3806TIP3   OH211423   5.164   3.765   4.796 -0.3417  0.1041  0.0104
 3806TIP3    H111424   5.234   3.701   4.811  1.1841  1.9332  1.2748
 3806TIP3    H211425   5.165   3.779   4.701 -0.4339 -1.4220 -0.2330
 3807TIP3   OH211426   0.229   5.134   0.472 -0.4129 -0.3858  0.2218
 3807TIP3    H111427   0.185   5.186   0.540 -1.1676 -0.1104 -0.4640
 3807TIP3    H211428   0.175   5.146   0.394  1.7358  1.3115 -1.1440
 3808TIP3   OH211429   6.078   5.462   3.381 -0.0574 -0.0259 -0.7516
 3808TIP3    H111430   6.018   5.428   3.314 -2.5548 -1.9631  2.1969
 3808TIP3    H211431   6.140   5.391   3.397  0.5653  0.4496 -1.0249
 3809TIP3   OH211432   2.429   5.607   0.070  0.1274  0.2249  0.1834
 3809TIP3    H111433   2.372   5.680   0.095 -0.4651 -0.6156  1.4077
 3809TIP3    H211434   2.486   5.594   0.146 -0.1926 -0.9702  0.2432
 3810TIP3   OH211435   1.304   2.298   4.782  0.6843 -0.0244  0.0375
 3810TIP3    H111436   1.245   2.302   4.706  0.5102 -0.1123  0.1686
 3810TIP3    H211437   1.250   2.262   4.852  0.9669 -0.3600  0.0863
 3811TIP3   OH211438   3.772   0.767   2.009  0.1122  0.5225  0.4629
 3811TIP3    H111439   3.742   0.683   1.976 -0.6637  0.7572  0.5495
 3811TIP3    H211440   3.697   0.803   2.056  0.4086  1.2858  0.3777
 3812TIP3   OH211441   4.813   0.929   3.259  0.1189 -0.2704  0.1796
 3812TIP3    H111442   4.906   0.909   3.255  0.2907  0.6660 -0.9063
 3812TIP3    H211443   4.771   0.846   3.283  0.9783 -1.4112 -2.0357
 3813TIP3   OH211444   4.412   2.544   3.497 -0.3483  0.3099 -0.6088
 3813TIP3    H111445   4.335   2.522   3.549 -0.5166  0.9736 -0.5683
 3813TIP3    H211446   4.471   2.469   3.509  0.1777  0.9960  1.6195
 3814TIP3   OH211447   3.070   2.524   4.026  0.4950  0.4885  0.2531
 3814TIP3    H111448   3.087   2.430   4.021  2.9030  0.9056 -2.0191
 3814TIP3    H211449   3.132   2.556   4.092  1.0223  0.6888 -0.3305
 3815TIP3   OH211450   1.820   5.012   3.644  0.4771  0.0555  0.3114
 3815TIP3    H111451   1.897   4.955   3.651 -1.0938 -2.3525 -0.7111
 3815TIP3    H211452   1.763   4.983   3.715  0.8442  2.5426  1.7500
 3816TIP3   OH211453   0.188   2.107   1.512  0.2471  0.7716 -0.1786
 3816TIP3    H111454   0.129   2.109   1.436  1.5287 -0.6240 -1.2821
 3816TIP3    H211455   0.178   2.020   1.549  2.6781 -0.1275 -1.3730
 3817TIP3   OH211456   1.930   2.352   0.262  0.0830  0.2087  0.2150
 3817TIP3    H111457   1.956   2.299   0.187 -2.7016  0.7876 -1.3040
 3817TIP3    H211458   1.856   2.304   0.301  0.0034  1.0745  1.1727
 3818TIP3   OH211459   5.807   5.510   0.455  0.5895  0.1396  0.4214
 3818TIP3    H111460   5.760   5.477   0.531  0.7998  1.1015  0.9752
 3818TIP3    H211461   5.841   5.431   0.412 -0.8933 -0.5215  0.3978
 3819TIP3   OH211462   5.223   4.213   4.767 -0.3984 -0.2242 -0.0574
 3819TIP3    H111463   5.141   4.199   4.814  0.7529  0.6334  2.4160
 3819TIP3    H211464   5.223   4.306   4.745 -0.1634 -0.2611 -0.2205
 3820TIP3   OH211465   0.480   3.188   3.229  0.2265 -0.2309  0.0985
 3820TIP3    H111466   0.468   3.123   3.298  0.5017  0.6229  0.9841
 3820TIP3    H211467   0.397   3.237   3.228  0.7276  0.6656  0.8242
 3821TIP3   OH211468   5.394   3.633   4.829 -0.5954  1.0452 -0.1478
 3821TIP3    H111469   5.418   3.564   4.767 -2.6267  2.5385 -2.8058
 3821TIP3    H211470   5.477   3.675   4.851  0.5522 -1.4541  0.6760
 3822TIP3   OH211471   1.605   3.259   4.936  1.2210 -0.4169  0.3857
 3822TIP3    H111472   1.662   3.190   4.971  1.8418 -0.2115 -0.1979
 3822TIP3    H211473   1.583   3.228   4.848 -0.8776 -1.2594  1.1450
 3823TIP3   OH211474   2.874   3.720   2.846  0.0029  0.3913  0.8132
 3823TIP3    H111475   2.938   3.773   2.800 -2.1072  0.3242 -2.5881
 3823TIP3    H211476   2.805   3.781   2.872 -0.7251 -0.1214  0.1622
 3824TIP3   OH211477   1.838   0.028   4.685  0.1834 -0.6977 -0.8442
 3824TIP3    H111478   1.760  -0.007   4.642  0.2101  0.6115 -2.0373
 3824TIP3    H211479   1.805   0.062   4.768 -0.5477 -0.1219 -1.3528
 3825TIP3   OH211480   4.222   4.540   5.025 -0.2170 -0.1433  0.2519
 3825TIP3    H111481   4.195   4.462   5.073 -1.8373  0.5150  0.4832
 3825TIP3    H211482   4.168   4.540   4.946  0.5192  0.2001 -0.2691
 3826TIP3   OH211483   0.079   1.471   2.872  0.4449 -0.1212  0.1278
 3826TIP3    H111484   0.050   1.438   2.787 -1.8002  0.2342  0.6689
 3826TIP3    H211485   0.126   1.552   2.853 -1.8703  1.1089 -0.7131
 3827TIP3   OH211486   1.101   0.330   2.149  0.0413  0.0456  0.1831
 3827TIP3    H111487   1.153   0.393   2.199  0.8258  0.1678 -0.7702
 3827TIP3    H211488   1.141   0.245   2.169 -1.1049 -0.2174  1.5834
 3828TIP3   OH211489   2.195   3.629   0.694  0.5414  0.4079  0.2331
 3828TIP3    H111490   2.205   3.720   0.668 -0.8488  1.5011  3.0938
 3828TIP3    H211491   2.283   3.592   0.688  0.9585  1.5622 -1.9870
 3829TIP3   OH211492   1.089   3.579   0.354  0.2574 -0.3659 -0.0804
 3829TIP3    H111493   1.061   3.524   0.427 -0.3468  0.1333  0.0726
 3829TIP3    H211494   1.116   3.661   0.395 -1.0980  0.3128 -0.4870
 3830TIP3   OH211495   6.302   5.496   4.811  0.5473 -0.0027  0.0131
 3830TIP3    H111496   6.253   5.459   4.738  1.2410 -0.0937 -0.4164
 3830TIP3    H211497   6.235   5.537   4.866  0.0689  0.5103 -0.9288
 3831TIP3   OH211498   3.244   1.976   2.966 -0.3268 -0.2786 -0.1005
 3831TIP3    H111499   3.290   1.919   3.028 -1.1046 -2.7214 -1.6284
 3831TIP3    H211500   3.161   1.932   2.950 -0.3718  0.5121 -2.4686
 3832TIP3   OH211501   5.548   3.287   2.890 -0.4939  0.0557 -0.0048
 3832TIP3    H111502   5.510   3.225   2.951  0.3523 -1.2708 -0.7664
 3832TIP3    H211503   5.498   3.275   2.809 -0.7611  0.8621  0.0325
 3833TIP3   OH211504   2.096   2.293   2.822  0.2047  0.0247 -0.6363
 3833TIP3    H111505   2.067   2.213   2.865  0.7011 -0.5803 -1.4050
 3833TIP3    H211506   2.045   2.298   2.741  2.0472 -0.9783 -1.9308
 3834TIP3   OH211507   5.914   0.278   3.446 -0.0205 -0.1183 -0.2274
 3834TIP3    H111508   5.988   0.322   3.488 -0.5632 -0.7476  1.4750
 3834TIP3    H211509   5.953   0.216   3.385  0.8455 -0.0997  0.2982
 3835TIP3   OH211510   5.182   2.111   2.425 -0.1258 -0.1863  0.3458
 3835TIP3    H111511   5.096   2.129   2.462 -1.3414 -1.0081 -1.9183
 3835TIP3    H211512   5.188   2.016   2.424  1.2660 -0.1408  1.3716
 3836TIP3   OH211513   3.570   2.499   4.292 -0.3114 -0.5255  0.8049
 3836TIP3    H111514   3.628   2.423   4.291  0.9586  0.4062  1.3319
 3836TIP3    H211515   3.574   2.531   4.382  1.4719  1.8199  0.0008
 3837TIP3   OH211516   1.140   4.301   4.139  0.3065  0.8231  0.1634
 3837TIP3    H111517   1.113   4.209   4.144  1.6421  0.4370  0.7200
 3837TIP3    H211518   1.231   4.298   4.110  1.0093  1.8245  2.0400
 3838TIP3   OH211519   0.255   2.769   1.578 -0.4700 -0.0631 -0.1109
 3838TIP3    H111520   0.171   2.813   1.581 -0.4355 -0.0173  0.2196
 3838TIP3    H211521   0.264   2.740   1.488 -0.7010  0.2026 -0.2202
 3839TIP3   OH211522   4.216   3.652   4.890  0.5674  0.2798 -0.6354
 3839TIP3    H111523   4.301   3.696   4.888 -0.6791  3.0099  0.4464
 3839TIP3    H211524   4.153   3.721   4.868 -1.4755 -1.2467  0.0910
 3840TIP3   OH211525   5.512   2.139   4.408  0.4974  0.1450  1.1110
 3840TIP3    H111526   5.460   2.175   4.480  1.6980  1.7776  1.2119
 3840TIP3    H211527   5.489   2.193   4.332  1.1699  0.1149  0.8829
 3841TIP3   OH211528   1.746   0.763   2.539 -0.9662 -0.0445  0.1227
 3841TIP3    H111529   1.741   0.858   2.525 -1.2436 -0.0638  0.0900
 3841TIP3    H211530   1.833   0.739   2.507 -0.9718  0.1669 -0.0571
 3842TIP3   OH211531   0.204   1.234   2.952 -0.1075 -0.1511  0.3628
 3842TIP3    H111532   0.130   1.271   2.904 -1.5392 -0.0991  2.4765
 3842TIP3    H211533   0.229   1.302   3.014  0.9001 -0.6521  0.5303
 3843TIP3   OH211534   2.775   0.051   0.213 -0.2142  0.2146  0.1433
 3843TIP3    H111535   2.871   0.054   0.219 -0.2757  1.6766  0.9298
 3843TIP3    H211536   2.747   0.141   0.232 -1.7226 -0.0612 -0.6323
 3844TIP3   OH211537   4.022   5.962   0.044  0.3184 -0.2890  0.0428
 3844TIP3    H111538   4.051   6.046   0.009 -0.0314 -0.0355  0.3484
 3844TIP3    H211539   3.991   5.913  -0.032  0.4802 -0.1223 -0.1293
 3845TIP3   OH211540   0.510   0.853   3.131 -0.2374 -0.1677  0.3186
 3845TIP3    H111541   0.503   0.948   3.130 -0.4403 -0.1717  1.0336
 3845TIP3    H211542   0.600   0.836   3.157  0.6166 -0.1751 -2.2816
 3846TIP3   OH211543   5.533   1.686   4.411  0.6471 -0.3412  0.3935
 3846TIP3    H111544   5.621   1.693   4.375  0.9582 -1.8141  0.8224
 3846TIP3    H211545   5.546   1.657   4.502 -0.2075  1.3645  1.1163
 3847TIP3   OH211546   1.773   2.112   4.935 -0.1508 -0.8062 -0.1614
 3847TIP3    H111547   1.687   2.152   4.944  0.8469  1.8518 -1.4807
 3847TIP3    H211548   1.755   2.025   4.901 -2.3146 -0.5000  0.0422
 3848TIP3   OH211549   2.136   1.012   1.214  0.5772 -0.7020 -0.3890
 3848TIP3    H111550   2.118   1.088   1.158 -0.7605 -1.9881 -1.8099
 3848TIP3    H211551   2.051   0.993   1.255  0.7683 -1.6871 -0.4222
 3849TIP3   OH211552   0.440   2.518   1.956 -0.0733  0.1658  0.1829
 3849TIP3    H111553   0.532   2.516   1.930 -0.0428  2.0928 -0.0096
 3849TIP3    H211554   0.443   2.548   2.047 -0.4910 -0.3106  0.3541
 3850TIP3   OH211555   2.898   3.489   2.490  0.3390 -0.1304 -0.0486
 3850TIP3    H111556   2.962   3.524   2.552 -0.6095  0.9120  0.3700
 3850TIP3    H211557   2.869   3.407   2.528 -0.7458  0.8261  1.2766
 3851TIP3   OH211558   4.024   2.012   1.178  0.5637 -0.5616 -0.2054
 3851TIP3    H111559   4.022   2.065   1.099 -0.8914 -0.7029 -0.2963
 3851TIP3    H211560   4.087   2.056   1.235  0.6192  0.3086 -0.9193
 3852TIP3   OH211561   5.489   4.626   0.268  0.2678  0.0084  0.4621
 3852TIP3    H111562   5.437   4.557   0.227  1.2627 -0.7561  0.4705
 3852TIP3    H211563   5.502   4.690   0.198  2.2662 -1.4528 -0.5986
 3853TIP3   OH211564   1.612   5.684   1.389  0.6194  0.0155  0.2043
 3853TIP3    H111565   1.576   5.620   1.450  0.3006 -1.3912 -1.3853
 3853TIP3    H211566   1.691   5.642   1.354  0.8735  0.8427 -0.2460
 3854TIP3   OH211567   2.479   0.381   3.912  0.7991 -0.2768  0.2342
 3854TIP3    H111568   2.531   0.448   3.867  1.6660 -0.9523  0.1966
 3854TIP3    H211569   2.494   0.301   3.861  0.3492 -0.6596  0.6880
 3855TIP3   OH211570   1.659   5.582   4.840 -0.2333  0.6796  0.0349
 3855TIP3    H111571   1.682   5.598   4.932  0.1942  1.4997 -0.1960
 3855TIP3    H211572   1.575   5.626   4.828  0.0072  1.1184 -0.1072
 3856TIP3   OH211573   5.644   4.266   4.271  0.4258  0.0447 -0.0562
 3856TIP3    H111574   5.677   4.326   4.338 -0.2163  0.1105  0.2029
 3856TIP3    H211575   5.657   4.179   4.308  0.2926  0.0699  0.0481
 3857TIP3   OH211576   5.943   1.801   4.582  0.1288  0.4243  0.0112
 3857TIP3    H111577   6.017   1.858   4.602  0.1897  0.2413  0.3130
 3857TIP3    H211578   5.869   1.861   4.569  0.3428  0.6095 -0.3624
 3858TIP3   OH211579   2.492   4.204   4.359 -0.4116  0.5388  0.2564
 3858TIP3    H111580   2.491   4.199   4.455 -0.0075  2.0147  0.3537
 3858TIP3    H211581   2.568   4.257   4.338  0.6108 -1.2992 -1.0022
 3859TIP3   OH211582   0.864   0.239   1.481  0.4554 -0.4042  0.5335
 3859TIP3    H111583   0.773   0.216   1.461  0.1551  2.9592 -3.0295
 3859TIP3    H211584   0.858   0.289   1.562 -0.6813 -1.1313  0.9270
 3860TIP3   OH211585   3.495   1.099   4.297  0.3980 -0.0909 -0.0652
 3860TIP3    H111586   3.408   1.077   4.332 -0.7376  0.1596 -2.5224
 3860TIP3    H211587   3.537   1.014   4.284  0.3869 -0.2344  0.8156
 3861TIP3   OH211588   1.406   3.306   1.264 -0.0359 -0.6592  0.3350
 3861TIP3    H111589   1.321   3.318   1.308 -0.3321 -0.0476 -0.3818
 3861TIP3    H211590   1.383   3.275   1.176  0.5252 -1.2633  0.3947
 3862TIP3   OH211591   2.367   3.574   1.501  0.5377  0.0193  0.6237
 3862TIP3    H111592   2.404   3.500   1.453  0.9385  0.4351  0.2675
 3862TIP3    H211593   2.348   3.639   1.433 -0.6784 -0.1101  0.8285
 3863TIP3   OH211594   2.190   5.379   4.767  0.2966 -0.4652  0.3384
 3863TIP3    H111595   2.157   5.289   4.762  0.2467 -0.3827 -1.7545
 3863TIP3    H211596   2.167   5.408   4.855 -1.4688 -1.8392  0.3858
 3864TIP3   OH211597   1.204   2.001   1.602 -0.0032  0.2583 -0.0960
 3864TIP3    H111598   1.298   2.014   1.591 -0.0623  0.2426 -0.6736
 3864TIP3    H211599   1.164   2.077   1.560 -0.2365  0.6711  0.8437
 3865TIP3   OH211600   5.893   2.354   1.283  0.3302 -0.3009 -0.0148
 3865TIP3    H111601   5.853   2.437   1.259 -3.0090 -1.3525  1.3177
 3865TIP3    H211602   5.911   2.362   1.376  0.6753 -0.8209 -0.0343
 3866TIP3   OH211603   0.311   2.167   0.618 -0.6393 -0.3791  0.0281
 3866TIP3    H111604   0.400   2.146   0.590 -0.5629  0.5609 -0.4780
 3866TIP3    H211605   0.303   2.126   0.704  0.6503  0.3998  0.5506
 3867TIP3   OH211606   0.206   1.064   3.578 -0.5477  0.7602 -0.0832
 3867TIP3    H111607   0.134   1.054   3.516 -1.2609  2.4729  0.4065
 3867TIP3    H211608   0.285   1.051   3.525 -1.1447  1.6695 -1.2442
 3868TIP3   OH211609   2.928   5.090   3.129 -0.3241  0.1798 -0.2317
 3868TIP3    H111610   2.943   5.180   3.155  1.0605  0.6552 -2.3970
 3868TIP3    H211611   2.986   5.038   3.184 -0.2312  0.7357  0.1981
 3869TIP3   OH211612   3.935   5.805   1.636 -0.6894 -0.2258  0.0578
 3869TIP3    H111613   3.913   5.854   1.557  0.3161 -0.4430 -0.3635
 3869TIP3    H211614   3.997   5.862   1.683 -0.0400 -0.7926 -0.1047
 3870TIP3   OH211615   2.901   4.414   0.374 -0.4054 -0.2111  0.6773
 3870TIP3    H111616   2.898   4.323   0.404  0.5643 -0.1637  0.9236
 3870TIP3    H211617   2.857   4.464   0.443 -0.7381 -0.4611  0.6471
 3871TIP3   OH211618   4.219   4.833   2.712 -0.0586  0.5222  0.1904
 3871TIP3    H111619   4.202   4.921   2.745  2.2108  1.5520 -1.2012
 3871TIP3    H211620   4.291   4.843   2.650  0.2260 -2.3130 -0.0893
 3872TIP3   OH211621   4.345   5.240   3.878  0.1655 -0.9074  0.0955
 3872TIP3    H111622   4.383   5.267   3.795 -0.5095 -1.1095 -0.2925
 3872TIP3    H211623   4.406   5.272   3.944  0.5892 -0.5347 -0.4642
 3873TIP3   OH211624   0.123   2.479   0.846 -0.1956 -0.1893 -0.0745
 3873TIP3    H111625   0.090   2.508   0.931 -2.2731 -0.7657 -0.6287
 3873TIP3    H211626   0.046   2.480   0.788  0.8020 -1.4346 -1.5155
 3874TIP3   OH211627   1.303   2.083   1.976  0.0362 -0.0235  0.0399
 3874TIP3    H111628   1.327   2.143   2.047 -1.6414  0.6788  0.0488
 3874TIP3    H211629   1.379   2.084   1.917  0.7116  0.7878  0.8948
 3875TIP3   OH211630   2.171   2.607   0.910  0.1355 -0.2756 -0.0664
 3875TIP3    H111631   2.106   2.677   0.905 -0.2914 -0.7468 -1.7597
 3875TIP3    H211632   2.223   2.628   0.987 -0.3763  1.5704 -0.1809
 3876TIP3   OH211633   1.991   5.508   3.987 -0.0564  0.1236 -0.2629
 3876TIP3    H111634   2.045   5.457   4.048  0.7833  1.0859 -0.1777
 3876TIP3    H211635   1.993   5.597   4.021  0.2786  0.6513 -1.5726
 3877TIP3   OH211636   3.245   1.880   0.466  0.1168  0.3385  0.1352
 3877TIP3    H111637   3.265   1.891   0.559  0.2926 -2.0167  0.4367
 3877TIP3    H211638   3.325   1.844   0.427 -0.3325  0.1757 -0.6749
 3878TIP3   OH211639   5.404   5.535   1.544 -0.8603 -0.1440  0.2588
 3878TIP3    H111640   5.345   5.465   1.519 -1.0599 -0.0821  0.5576
 3878TIP3    H211641   5.491   5.495   1.540 -0.8601 -0.0670 -0.7749
 3879TIP3   OH211642   2.054   4.138   3.225 -0.2540 -0.3439 -0.7054
 3879TIP3    H111643   2.055   4.217   3.280  0.2936 -0.4804 -0.5177
 3879TIP3    H211644   1.961   4.120   3.212 -0.3950 -0.3531  0.2486
 3880TIP3   OH211645   3.288   2.781   0.338 -0.0307 -0.1685  0.3787
 3880TIP3    H111646   3.356   2.848   0.346  0.4446 -0.7262  1.1022
 3880TIP3    H211647   3.334   2.699   0.354 -0.6879 -0.6437 -0.1115
 3881TIP3   OH211648   3.201   1.981   5.046  0.8148 -0.9152 -0.3345
 3881TIP3    H111649   3.287   1.995   5.083  0.6737 -1.5910  0.2750
 3881TIP3    H211650   3.141   1.986   5.120  0.3097 -0.3203 -0.7709
 3882TIP3   OH211651   4.401   3.010   0.888 -0.1851 -0.7019 -0.0682
 3882TIP3    H111652   4.367   3.100   0.883 -0.5426 -0.7859  0.6967
 3882TIP3    H211653   4.423   2.998   0.980 -1.2793 -1.8036  0.0783
 3883TIP3   OH211654   4.734   3.356   0.237 -0.6695 -0.2127  0.1442
 3883TIP3    H111655   4.824   3.330   0.255  0.0674  2.4329  0.7197
 3883TIP3    H211656   4.682   3.279   0.260  1.3701 -1.6358  0.2885
 3884TIP3   OH211657   6.200   4.591   4.772  1.2069 -0.6558  0.6490
 3884TIP3    H111658   6.199   4.673   4.822 -1.3109 -1.5839  2.3010
 3884TIP3    H211659   6.166   4.617   4.686  1.9351  0.2749  0.6154
 3885TIP3   OH211660   5.336   2.948   1.844  0.1562 -0.1198 -0.3946
 3885TIP3    H111661   5.294   3.030   1.816  0.0809 -0.0069  0.0499
 3885TIP3    H211662   5.424   2.975   1.872 -0.0517 -0.1062  0.2659
 3886TIP3   OH211663   5.091   1.345   3.060 -0.2676  0.3047  0.5489
 3886TIP3    H111664   5.162   1.408   3.072 -1.4112  1.2547  3.1461
 3886TIP3    H211665   5.135   1.260   3.056  1.1002  0.9900  0.6412
 3887TIP3   OH211666   0.435   4.994   4.712  0.7887 -0.0810  0.6234
 3887TIP3    H111667   0.432   5.060   4.781 -0.9983 -0.4133  0.9176
 3887TIP3    H211668   0.401   5.039   4.634 -2.0188 -1.0080  1.2138
 3888TIP3   OH211669   3.739   4.785   3.190 -0.6679  0.7389  0.1859
 3888TIP3    H111670   3.796   4.714   3.160 -3.2844 -0.7014 -1.9023
 3888TIP3    H211671   3.770   4.862   3.143  0.0282  0.1863 -0.2846
 3889TIP3   OH211672   2.434   5.401   1.862 -0.3517  0.2161  0.4505
 3889TIP3    H111673   2.511   5.343   1.860 -0.9028 -0.6344  2.0055
 3889TIP3    H211674   2.374   5.364   1.797  0.8078  1.3383 -1.3426
 3890TIP3   OH211675   5.061   3.520   0.600 -0.1285  0.4159  0.0853
 3890TIP3    H111676   5.011   3.598   0.624  1.5344  1.1625  1.3268
 3890TIP3    H211677   5.145   3.554   0.568  0.1287 -0.8283 -0.6398
 3891TIP3   OH211678   0.368   0.659   3.421 -0.1614 -0.1857  0.0047
 3891TIP3    H111679   0.431   0.594   3.391  1.2507  1.5138 -0.9272
 3891TIP3    H211680   0.328   0.694   3.341 -0.0141  0.8908  0.3766
 3892TIP3   OH211681   6.217   5.129   0.456 -0.5215 -0.1493  0.9548
 3892TIP3    H111682   6.257   5.173   0.531 -2.0826  0.7367  1.3209
 3892TIP3    H211683   6.227   5.036   0.474  1.5793  0.0213  0.8759
 3893TIP3   OH211684   3.227   1.233   1.888  0.4543 -0.1557  1.2968
 3893TIP3    H111685   3.159   1.179   1.847  0.8025  0.9834 -0.9820
 3893TIP3    H211686   3.296   1.238   1.822  1.7164  0.6636  2.6249
 3894TIP3   OH211687   0.306   1.716   0.729  0.0551 -0.4276 -0.3201
 3894TIP3    H111688   0.400   1.700   0.735 -0.3724 -4.2498 -1.4361
 3894TIP3    H211689   0.274   1.704   0.818  0.5848  0.9894  0.0831
 3895TIP3   OH211690   3.105   2.117   0.394 -0.4768 -0.2871  0.3453
 3895TIP3    H111691   3.153   2.051   0.444 -0.0592  0.0874  0.4474
 3895TIP3    H211692   3.082   2.073   0.313 -0.2475 -0.5798  0.4345
 3896TIP3   OH211693   4.410   3.139   0.091 -0.3934  0.2383  0.3138
 3896TIP3    H111694   4.494   3.114   0.052 -0.3452  0.3361  0.3549
 3896TIP3    H211695   4.418   3.116   0.184 -0.8415 -0.8568  0.0986
 3897TIP3   OH211696   5.551   3.805   1.083  0.6502 -0.0976 -0.0517
 3897TIP3    H111697   5.617   3.755   1.131 -2.3602 -1.2500  3.3798
 3897TIP3    H211698   5.541   3.886   1.133 -0.0080  0.3820 -0.9423
 3898TIP3   OH211699   4.827   1.743   2.035 -0.1014  0.0296  0.5283
 3898TIP3    H111700   4.831   1.767   2.128 -0.2525 -0.7138  0.7353
 3898TIP3    H211701   4.801   1.651   2.036 -0.5173  0.1369 -0.2697
 3899TIP3   OH211702   1.820   5.040   0.754 -0.2148 -0.1833 -0.1050
 3899TIP3    H111703   1.893   5.097   0.732 -0.8770  0.8428  0.2676
 3899TIP3    H211704   1.751   5.100   0.783 -0.6329 -1.2404  1.1634
 3900TIP3   OH211705   4.964   3.435   3.768 -0.1089  0.4631 -0.3303
 3900TIP3    H111706   4.910   3.379   3.824  1.6511  0.1025  1.1086
 3900TIP3    H211707   5.022   3.373   3.723  0.6166  0.9895 -0.1280
 3901TIP3   OH211708   3.391   4.683   2.853 -0.3970  0.0121  0.0809
 3901TIP3    H111709   3.352   4.702   2.938 -0.7368  0.7143 -0.2229
 3901TIP3    H211710   3.397   4.768   2.809  0.0856 -0.2933 -0.4682
 3902TIP3   OH211711   2.867   1.126   2.043  0.0249  0.1965  0.3439
 3902TIP3    H111712   2.830   1.119   1.955  0.6269 -0.6900  0.1512
 3902TIP3    H211713   2.901   1.215   2.047  2.0841 -0.4232 -1.2038
 3903TIP3   OH211714   1.335   2.613   1.655 -0.5703 -0.8082  0.3621
 3903TIP3    H111715   1.267   2.572   1.601 -0.1806  0.3757 -1.1221
 3903TIP3    H211716   1.415   2.606   1.602  0.0423 -0.4912  1.2260
 3904TIP3   OH211717   0.148   0.404   1.390 -0.4041 -0.0857 -0.1839
 3904TIP3    H111718   0.140   0.497   1.412  0.6533  0.2701 -1.1657
 3904TIP3    H211719   0.242   0.386   1.397 -0.6367 -1.1727  0.3089
 3905TIP3   OH211720   4.672   5.410   4.869 -0.4960 -0.3476  0.4039
 3905TIP3    H111721   4.588   5.412   4.823 -0.7235 -0.7604  0.7948
 3905TIP3    H211722   4.723   5.345   4.821 -0.6855 -0.6785  0.6408
 3906TIP3   OH211723   4.533   1.163   0.566 -0.2131  0.1442  0.0886
 3906TIP3    H111724   4.596   1.094   0.585 -1.5678 -1.0153  0.5720
 3906TIP3    H211725   4.585   1.243   0.560  1.4151 -0.9145 -0.5581
 3907TIP3   OH211726   6.148   0.425   2.361  0.4174  0.2408  0.3403
 3907TIP3    H111727   6.104   0.509   2.348  1.0746  0.5002 -0.2821
 3907TIP3    H211728   6.080   0.359   2.344 -0.6622  0.6182  2.8336
 3908TIP3   OH211729   0.311   1.692   2.909 -0.0793 -0.0641 -0.1464
 3908TIP3    H111730   0.332   1.659   2.822 -0.4903  1.1835 -0.7414
 3908TIP3    H211731   0.396   1.711   2.949  0.0808  1.2093 -1.0348
 3909TIP3   OH211732   1.507   1.778   0.447  0.2446 -0.0375 -0.1256
 3909TIP3    H111733   1.557   1.769   0.528 -0.0105  0.2294  0.0617
 3909TIP3    H211734   1.464   1.863   0.454 -0.1209 -0.2016 -0.3499
 3910TIP3   OH211735   6.100   0.008   4.198 -0.4561  0.4440  0.1414
 3910TIP3    H111736   6.075   0.099   4.216 -0.6133  0.4329 -0.0184
 3910TIP3    H211737   6.193   0.004   4.219 -0.8132  0.2039  1.8514
 3911TIP3   OH211738   3.810   3.835   4.675 -0.2352  0.1692 -0.4212
 3911TIP3    H111739   3.740   3.774   4.700 -0.0563 -0.2970 -1.0263
 3911TIP3    H211740   3.874   3.827   4.746 -0.1426 -0.4744 -0.5666
 3912TIP3   OH211741   3.422   0.540   4.060 -0.4571 -0.3851 -0.0586
 3912TIP3    H111742   3.406   0.615   4.003 -1.8100 -0.0687  0.6934
 3912TIP3    H211743   3.395   0.569   4.147  1.1701 -0.9926  0.6921
 3913TIP3   OH211744   0.969   5.301   1.776  0.1775 -0.0141  0.2424
 3913TIP3    H111745   0.934   5.218   1.809  0.7203  0.2743  1.6501
 3913TIP3    H211746   1.053   5.311   1.821 -0.5154  1.9673  1.2507
 3914TIP3   OH211747   1.982   5.116   2.383  0.2981  0.2077 -0.1910
 3914TIP3    H111748   1.933   5.194   2.411  1.4153  1.1650 -0.8040
 3914TIP3    H211749   2.074   5.142   2.389  0.7622 -1.4324  0.6071
 3915TIP3   OH211750   1.546   4.257   1.452 -0.2733  0.3898  0.2724
 3915TIP3    H111751   1.579   4.167   1.455 -1.5847 -0.1203  0.0832
 3915TIP3    H211752   1.585   4.300   1.528  0.9299 -0.1181 -0.0269
 3916TIP3   OH211753   3.087   4.433   4.471  0.0595 -0.2129  0.0024
 3916TIP3    H111754   3.046   4.470   4.393 -0.5290  0.0681  0.4310
 3916TIP3    H211755   3.145   4.502   4.503 -1.2752  0.5069  0.9808
 3917TIP3   OH211756   0.409   2.670   4.035  0.0176  0.3752 -0.4699
 3917TIP3    H111757   0.448   2.757   4.044  1.2098  0.0831 -2.2180
 3917TIP3    H211758   0.349   2.678   3.961  0.0107 -0.2616 -0.5359
 3918TIP3   OH211759   0.332   5.103   1.535 -0.3272  0.5399 -0.3318
 3918TIP3    H111760   0.281   5.134   1.459  0.0655 -0.9094 -1.2403
 3918TIP3    H211761   0.423   5.121   1.511 -0.2531  0.8591  0.1868
 3919TIP3   OH211762   3.650   0.217   5.007  0.2366 -0.1811  0.4317
 3919TIP3    H111763   3.706   0.149   4.971  2.1627  1.7320 -0.3874
 3919TIP3    H211764   3.646   0.198   5.101 -0.2108 -2.0025  0.0857
 3920TIP3   OH211765   1.967   2.986   0.596 -0.4504  0.0311  0.6071
 3920TIP3    H111766   1.972   2.974   0.501 -0.5111 -0.1626  0.6279
 3920TIP3    H211767   2.032   2.925   0.631 -1.6451 -1.1931  0.7819
 3921TIP3   OH211768   0.714   1.128   2.969 -0.1722 -0.4162 -0.1491
 3921TIP3    H111769   0.637   1.129   2.912  0.3997 -0.3686 -0.9380
 3921TIP3    H211770   0.733   1.035   2.983  0.7098 -0.4520 -1.4676
 3922TIP3   OH211771   0.740   3.862   3.911  0.1410 -0.3021  0.6107
 3922TIP3    H111772   0.832   3.833   3.913  0.1944 -0.1803  0.1393
 3922TIP3    H211773   0.737   3.935   3.972  0.4069 -0.1813  0.4826
 3923TIP3   OH211774   5.759   0.116   1.618  0.1389 -0.1130  0.0254
 3923TIP3    H111775   5.702   0.054   1.572  0.7393 -0.4728 -0.2442
 3923TIP3    H211776   5.751   0.197   1.569  0.7408 -0.4823 -0.7143
 3924TIP3   OH211777   1.601   3.993   1.409  0.6543 -0.5739 -0.1078
 3924TIP3    H111778   1.509   3.970   1.423  0.5080 -0.3324 -0.6356
 3924TIP3    H211779   1.630   3.935   1.339  1.6721 -2.4957  1.8080
 3925TIP3   OH211780   0.739   1.859   4.302  0.2424  0.2057 -0.1351
 3925TIP3    H111781   0.659   1.909   4.314 -0.1173 -0.5786  0.8114
 3925TIP3    H211782   0.776   1.893   4.220 -1.5307 -0.0814 -1.0919
 3926TIP3   OH211783   0.919   5.272   1.278  0.1811  0.8488  0.0012
 3926TIP3    H111784   0.930   5.235   1.366 -2.7952 -2.2696 -0.7108
 3926TIP3    H211785   0.995   5.241   1.229  1.0198  1.2068  1.0466
 3927TIP3   OH211786   3.293   2.534   1.075  0.3931 -0.2776  0.0497
 3927TIP3    H111787   3.359   2.466   1.059 -0.1231 -0.7791  0.0113
 3927TIP3    H211788   3.279   2.532   1.170 -0.0446 -0.6319 -0.0190
 3928TIP3   OH211789   1.731   1.931   2.171 -0.0136 -0.5909  0.9612
 3928TIP3    H111790   1.700   2.019   2.148  0.9509 -0.3575  0.5049
 3928TIP3    H211791   1.752   1.936   2.264 -0.6357 -0.5541  1.1097
 3929TIP3   OH211792   0.763   0.560   1.055 -0.4777 -0.1222 -0.1987
 3929TIP3    H111793   0.835   0.605   1.100  0.0605  1.0503 -2.1362
 3929TIP3    H211794   0.685   0.581   1.108  0.1066  1.3118  0.1303
 3930TIP3   OH211795   1.952   1.194   3.776  0.4484 -0.0638 -0.2496
 3930TIP3    H111796   1.969   1.202   3.682 -0.5726  2.3012 -0.3035
 3930TIP3    H211797   1.857   1.181   3.783  0.4873 -0.0282  0.4500
 3931TIP3   OH211798   5.300   4.726   3.253  0.5246  0.2358 -0.2560
 3931TIP3    H111799   5.306   4.712   3.158  2.1902  0.9915 -0.2965
 3931TIP3    H211800   5.312   4.639   3.291  1.9721  0.2089 -0.7122
 3932TIP3   OH211801   6.052   0.198   0.653  0.1946  0.1798 -0.0523
 3932TIP3    H111802   6.090   0.210   0.740  0.8056 -0.7987 -0.1664
 3932TIP3    H211803   6.001   0.277   0.637  0.5524  0.6198  0.9555
 3933TIP3   OH211804   3.143   5.918   0.023  0.1420 -0.2395 -0.5439
 3933TIP3    H111805   3.143   5.822   0.015 -0.9079 -0.3429  0.4700
 3933TIP3    H211806   3.054   5.939   0.050  0.3508  1.0409 -0.8227
 3934TIP3   OH211807   0.411   3.537   4.074  0.1973 -0.0579 -0.1565
 3934TIP3    H111808   0.456   3.620   4.090 -0.3312  0.7272 -2.3394
 3934TIP3    H211809   0.325   3.547   4.116 -0.0202  0.6916 -0.7629
 3935TIP3   OH211810   4.251   0.790   3.167 -0.0343  0.1282  0.6694
 3935TIP3    H111811   4.186   0.845   3.211  0.9376  1.1588  0.8527
 3935TIP3    H211812   4.251   0.709   3.217 -0.8833  0.2588  0.9076
 3936TIP3   OH211813   1.708   1.768   1.308  0.4147  0.2875  0.7853
 3936TIP3    H111814   1.632   1.739   1.358 -0.3818  0.9584 -0.0094
 3936TIP3    H211815   1.684   1.752   1.217  1.3270  0.2830  0.5407
 3937TIP3   OH211816   3.590   1.276   4.113 -0.1449 -0.5927  0.2122
 3937TIP3    H111817   3.591   1.222   4.191  0.8456 -0.0901  0.5606
 3937TIP3    H211818   3.542   1.224   4.048 -0.8208 -1.0882  1.0835
 3938TIP3   OH211819   6.046   3.511   1.671 -0.6658  0.2076 -0.0264
 3938TIP3    H111820   6.136   3.493   1.642 -0.8679 -0.5615 -0.2085
 3938TIP3    H211821   5.995   3.439   1.635 -1.3137  0.4894  0.3158
 3939TIP3   OH211822   5.255   2.418   4.516 -0.3571 -0.0007 -0.0346
 3939TIP3    H111823   5.169   2.440   4.551 -0.0701  0.4218  0.4222
 3939TIP3    H211824   5.314   2.483   4.554  0.5147 -1.5118  1.3190
 3940TIP3   OH211825   3.325   0.087   4.546  0.1020  0.2677  0.2024
 3940TIP3    H111826   3.236   0.074   4.513 -0.1057  0.7804  0.5299
 3940TIP3    H211827   3.321   0.172   4.591  0.4631 -0.2311  1.2038
 3941TIP3   OH211828   6.229   4.427   2.590 -0.0181  0.3530 -0.3985
 3941TIP3    H111829   6.230   4.413   2.685  0.1499 -1.6084 -0.6324
 3941TIP3    H211830   6.183   4.510   2.578  1.3802  1.4832  1.4698
 3942TIP3   OH211831   1.106   2.559   3.383  0.4727 -0.0349 -0.1842
 3942TIP3    H111832   1.067   2.562   3.296 -1.2478 -2.0009  0.4160
 3942TIP3    H211833   1.061   2.628   3.432  0.1766 -0.0561 -0.4199
 3943TIP3   OH211834   4.073   2.177   4.014 -0.1891  0.1314 -0.0235
 3943TIP3    H111835   4.138   2.107   4.010 -0.8269 -0.4980  0.4094
 3943TIP3    H211836   4.014   2.159   3.940 -0.7790 -0.2190  0.5277
 3944TIP3   OH211837   4.710   5.099   0.820  0.0941  0.2868 -0.5617
 3944TIP3    H111838   4.681   5.018   0.862 -0.5100  1.4072  1.2988
 3944TIP3    H211839   4.680   5.091   0.730 -1.3106 -0.9084 -0.0332
 3945TIP3   OH211840   3.165   0.421   3.247  0.5255 -0.3017  0.3988
 3945TIP3    H111841   3.097   0.469   3.294 -0.5614 -0.4685 -0.9473
 3945TIP3    H211842   3.237   0.414   3.310 -0.5841  0.1162  1.7660
 3946TIP3   OH211843   2.137   1.374   2.591 -0.3195 -0.0223  0.7004
 3946TIP3    H111844   2.181   1.333   2.665 -0.4344 -0.2721  0.6315
 3946TIP3    H211845   2.196   1.445   2.564 -0.4919  0.3636  1.3135
 3947TIP3   OH211846   4.843   5.631   4.048 -0.4713 -0.5885  0.1687
 3947TIP3    H111847   4.811   5.545   4.077  1.0496 -1.5575 -0.8781
 3947TIP3    H211848   4.911   5.653   4.112  1.6965 -1.9390 -1.5147
 3948TIP3   OH211849   1.092   2.774   4.163  0.0751 -0.4226  0.4714
 3948TIP3    H111850   1.102   2.698   4.221 -0.7790 -0.7869  0.1572
 3948TIP3    H211851   1.029   2.830   4.207  0.0850 -0.2857  0.3113
 3949TIP3   OH211852   5.714   3.261   0.300 -0.3921  0.1004 -0.3978
 3949TIP3    H111853   5.699   3.211   0.380 -2.1586 -2.5356 -2.2223
 3949TIP3    H211854   5.785   3.214   0.256  2.2026  2.8575  0.4986
 3950TIP3   OH211855   0.217   5.489   1.995  0.1526  0.0915  0.3260
 3950TIP3    H111856   0.167   5.418   1.954 -0.0362  0.6486 -0.4251
 3950TIP3    H211857   0.298   5.447   2.024  0.1972 -0.3704 -0.4185
 3951TIP3   OH211858   1.860   0.848   0.817  0.0898 -0.3500  0.0176
 3951TIP3    H111859   1.915   0.925   0.831  0.4004 -0.9465  2.4555
 3951TIP3    H211860   1.921   0.780   0.788  0.5246 -0.7097  1.6666
 3952TIP3   OH211861   5.478   0.516   4.892  0.6476  0.6597  0.0876
 3952TIP3    H111862   5.540   0.583   4.921  1.5512  0.6390 -1.6658
 3952TIP3    H211863   5.522   0.472   4.819 -0.9836 -0.0867 -0.5029
 3953TIP3   OH211864   4.872   4.769   2.292  0.0946 -0.1815  0.0575
 3953TIP3    H111865   4.935   4.702   2.267  0.8426  1.2390 -2.1370
 3953TIP3    H211866   4.925   4.839   2.330 -0.5679 -0.3403  1.3517
 3954TIP3   OH211867   2.139   5.677   3.162  0.4350 -0.0528  0.5623
 3954TIP3    H111868   2.075   5.745   3.179  1.0202  0.2191  1.8161
 3954TIP3    H211869   2.220   5.710   3.201  0.9611 -1.0417  0.3422
 3955TIP3   OH211870   5.844   1.118   1.567  0.0245 -0.1821  0.3033
 3955TIP3    H111871   5.769   1.162   1.607  0.3199  1.4533 -0.8225
 3955TIP3    H211872   5.853   1.160   1.481  0.8321 -1.9399 -0.5132
 3956TIP3   OH211873   5.093   5.926   3.917 -0.2398  0.0896 -0.6699
 3956TIP3    H111874   5.014   5.875   3.899  0.3170 -0.3680 -1.8909
 3956TIP3    H211875   5.065   5.990   3.983 -1.1036 -1.3790  0.4523
 3957TIP3   OH211876   1.407   0.349   3.393 -0.3507 -0.2972  0.3030
 3957TIP3    H111877   1.377   0.440   3.383 -0.3674 -0.4317 -1.0855
 3957TIP3    H211878   1.472   0.354   3.463 -0.2352  0.8209  0.1490
 3958TIP3   OH211879   4.994   5.188   1.299  0.2076 -0.0084 -0.0499
 3958TIP3    H111880   4.959   5.273   1.273  0.5199  1.1808  3.0274
 3958TIP3    H211881   4.916   5.133   1.308 -0.3059  0.8079  0.6919
 3959TIP3   OH211882   5.080   0.342   0.578 -0.6379  0.4958  0.3964
 3959TIP3    H111883   5.049   0.332   0.488  2.6307  1.8012 -1.0367
 3959TIP3    H211884   5.113   0.256   0.602 -0.2073  0.4796 -0.2365
 3960TIP3   OH211885   1.142   4.723   2.019  0.3216  0.3981  0.4459
 3960TIP3    H111886   1.060   4.673   2.011 -0.4806  1.6391  0.5517
 3960TIP3    H211887   1.113   4.811   2.043  1.6421  1.1101 -0.4718
 3961TIP3   OH211888   2.943   5.597   0.568  0.3021  0.1722  0.6870
 3961TIP3    H111889   2.872   5.584   0.630  0.8815 -2.4405  0.8899
 3961TIP3    H211890   3.014   5.634   0.620 -0.4677  1.6732  0.7196
 3962TIP3   OH211891   6.288   0.063   0.277 -0.6189 -0.0467 -0.1472
 3962TIP3    H111892   6.249   0.052   0.191 -1.7328 -2.8974  0.6085
 3962TIP3    H211893   6.213   0.073   0.336 -0.0399 -1.0582  0.7938
 3963TIP3   OH211894   2.872   2.480   1.830  0.4075  0.1250 -0.7273
 3963TIP3    H111895   2.824   2.561   1.814 -2.2018 -1.0591  0.5441
 3963TIP3    H211896   2.804   2.412   1.832  1.9777 -1.5511  2.1068
 3964TIP3   OH211897   6.286   5.854   3.035 -0.9799  0.0860 -0.3601
 3964TIP3    H111898   6.325   5.768   3.053  0.8213  0.2416 -2.9594
 3964TIP3    H211899   6.194   5.834   3.016 -1.1312 -0.9274  1.2223
 3965TIP3   OH211900   0.861   3.961   1.255  0.4722  0.6685  0.1672
 3965TIP3    H111901   0.805   4.017   1.309  0.1282  0.9983 -0.5171
 3965TIP3    H211902   0.933   3.936   1.313 -0.7764 -0.4077  1.3342
 3966TIP3   OH211903   4.753   4.712   2.791 -0.0540  0.0480  0.2637
 3966TIP3    H111904   4.706   4.772   2.850  2.1753  2.1866  0.0125
 3966TIP3    H211905   4.794   4.769   2.727  2.4869 -1.7180  0.1767
 3967TIP3   OH211906   3.028   3.304   2.315  0.5994 -0.3678 -0.0523
 3967TIP3    H111907   2.984   3.375   2.362 -2.1930  0.2965 -3.2645
 3967TIP3    H211908   2.967   3.230   2.321  0.4530 -0.4462 -1.9710
 3968TIP3   OH211909   2.955   2.351   2.815 -0.4370 -0.5325 -0.0442
 3968TIP3    H111910   3.043   2.372   2.847  1.0804 -3.1529 -2.0055
 3968TIP3    H211911   2.911   2.310   2.890 -1.6642  4.3003  2.2297
 3969TIP3   OH211912   2.124   1.907   2.884  0.4487 -0.0362 -0.2228
 3969TIP3    H111913   2.042   1.954   2.870 -0.7527 -1.6751  0.9635
 3969TIP3    H211914   2.159   1.942   2.966 -0.4415 -1.1290  0.6556
 3970TIP3   OH211915   4.374   3.410   3.834  0.0734  0.4396 -0.2053
 3970TIP3    H111916   4.367   3.470   3.908  0.6189 -0.6282  0.7298
 3970TIP3    H211917   4.451   3.442   3.786 -0.1882  1.0394 -0.2400
 3971TIP3   OH211918   5.325   3.083   1.019  0.6377 -0.2493 -0.0360
 3971TIP3    H111919   5.269   3.137   1.074  0.2606  0.3839 -1.0043
 3971TIP3    H211920   5.382   3.037   1.080  1.1043  1.3815  0.8324
 3972TIP3   OH211921   0.838   4.301   3.089  0.0253 -0.4690 -0.5383
 3972TIP3    H111922   0.929   4.303   3.119  0.4796 -2.4240 -1.6266
 3972TIP3    H211923   0.832   4.375   3.028  0.9221 -0.3695 -0.5188
 3973TIP3   OH211924   2.402   3.776   2.120 -0.4594 -0.5261  0.1359
 3973TIP3    H111925   2.440   3.689   2.133 -2.1382 -1.6331 -1.8250
 3973TIP3    H211926   2.447   3.831   2.184 -0.2824 -3.0764  2.3895
 3974TIP3   OH211927   2.643   1.507   1.559  0.2601  0.6069 -0.1881
 3974TIP3    H111928   2.704   1.579   1.548 -0.0458  0.8915 -0.0695
 3974TIP3    H211929   2.587   1.535   1.632  2.0855 -1.0839  2.0072
 3975TIP3   OH211930   1.255   3.412   4.093 -0.0913 -0.3370  0.1371
 3975TIP3    H111931   1.263   3.505   4.074 -0.6292 -0.5306 -1.1797
 3975TIP3    H211932   1.326   3.371   4.043 -1.1929 -0.8098 -1.1294
 3976TIP3   OH211933   5.527   4.240   2.533  0.2111 -0.0142  0.1540
 3976TIP3    H111934   5.562   4.280   2.453 -0.4292 -1.0481 -0.6635
 3976TIP3    H211935   5.580   4.162   2.547  1.7796  1.2795  2.0211
 3977TIP3   OH211936   5.789   0.663   2.129  0.8427 -0.3087 -0.2582
 3977TIP3    H111937   5.866   0.658   2.185 -1.2088 -0.7699  2.8217
 3977TIP3    H211938   5.731   0.595   2.164 -1.3997  0.7720 -1.6569
 3978TIP3   OH211939   3.505   3.581   0.066 -0.1984  0.1249  0.7759
 3978TIP3    H111940   3.589   3.583   0.113 -0.9804 -0.4328  2.2691
 3978TIP3    H211941   3.500   3.492   0.031  0.3734  0.5330 -0.4217
 3979TIP3   OH211942   4.457   0.750   0.708  0.3137  0.6187 -0.1834
 3979TIP3    H111943   4.460   0.767   0.614  1.6382 -1.1472 -0.5295
 3979TIP3    H211944   4.529   0.801   0.745  1.9020 -1.1293 -0.6728
 3980TIP3   OH211945   2.418   1.389   3.347 -0.4199 -0.1795 -0.5990
 3980TIP3    H111946   2.512   1.380   3.331  0.1113 -0.7380  2.2595
 3980TIP3    H211947   2.377   1.322   3.293  0.9746 -0.8241 -0.8838
 3981TIP3   OH211948   0.895   2.427   1.673 -0.3106 -0.4417  0.4073
 3981TIP3    H111949   0.937   2.361   1.729 -0.5884 -0.8884  0.0984
 3981TIP3    H211950   0.927   2.510   1.706  0.0364 -0.7323  0.8168
 3982TIP3   OH211951   0.593  -0.009   3.286  0.1357  0.0118 -0.0369
 3982TIP3    H111952   0.687   0.006   3.290  0.1793  0.4017 -1.6317
 3982TIP3    H211953   0.570   0.012   3.195 -1.4405 -0.3418  0.2571
 3983TIP3   OH211954   1.704   4.145   0.796 -0.2626  0.0312 -0.6245
 3983TIP3    H111955   1.682   4.056   0.824 -2.7237  1.3069  2.0691
 3983TIP3    H211956   1.629   4.172   0.743 -0.4542  1.0767  0.1403
 3984TIP3   OH211957   2.560   2.516   0.252  0.4413  0.0493  0.3889
 3984TIP3    H111958   2.582   2.423   0.252  0.1937 -0.0099  0.2647
 3984TIP3    H211959   2.641   2.560   0.225  0.4465 -0.1565  0.0658
 3985TIP3   OH211960   1.888   5.566   3.076 -0.0925  0.4969  0.2794
 3985TIP3    H111961   1.886   5.492   3.137 -1.0259  0.8049  0.6436
 3985TIP3    H211962   1.932   5.636   3.124  0.3480  0.3327  0.1162
 3986TIP3   OH211963   2.996   0.704   1.064 -0.4523  0.0618  0.5684
 3986TIP3    H111964   2.978   0.669   0.977 -3.2269  3.5229 -0.4850
 3986TIP3    H211965   2.940   0.652   1.122  0.0623 -1.1043  0.0589
 3987TIP3   OH211966   1.504   3.262   4.652 -0.0393 -0.1661  0.3702
 3987TIP3    H111967   1.558   3.248   4.574  1.4510 -1.9448  1.6208
 3987TIP3    H211968   1.486   3.174   4.684  1.7997  0.4432  3.5571
 3988TIP3   OH211969   4.175   5.033   3.830 -0.4642  0.3793 -0.3623
 3988TIP3    H111970   4.221   5.112   3.858 -0.6849 -0.2310  1.9264
 3988TIP3    H211971   4.091   5.036   3.877 -0.3986 -1.2965 -0.0644
 3989TIP3   OH211972   5.291   5.698   4.530 -0.4205  0.1360 -0.0815
 3989TIP3    H111973   5.348   5.621   4.529 -0.4509  0.0865 -2.0107
 3989TIP3    H211974   5.212   5.669   4.576 -0.5851 -1.1269 -1.0888
 3990TIP3   OH211975   1.269   0.509   4.879  0.1781 -0.4496  0.2145
 3990TIP3    H111976   1.353   0.550   4.858 -0.1350  0.9107  1.4708
 3990TIP3    H211977   1.218   0.516   4.798  0.6566  0.2788 -0.0300
 3991TIP3   OH211978   0.601   5.027   4.216  0.3676  0.0693  0.2144
 3991TIP3    H111979   0.537   4.973   4.169  1.1086 -0.4366 -0.2365
 3991TIP3    H211980   0.686   4.990   4.193  0.9091  1.4435 -0.1272
 3992TIP3   OH211981   2.566   1.450   2.005 -0.2865  0.0757 -0.3122
 3992TIP3    H111982   2.647   1.431   1.957  1.0091  2.6555  0.6983
 3992TIP3    H211983   2.499   1.400   1.958  1.7716 -1.8415 -1.4310
 3993TIP3   OH211984   3.252   1.234   3.227  0.1060 -0.0437  0.2997
 3993TIP3    H111985   3.297   1.172   3.283  0.3116 -0.7936 -0.6817
 3993TIP3    H211986   3.160   1.206   3.229  0.2690 -0.6414 -0.4795
 3994TIP3   OH211987   5.077   2.725   0.360 -0.7642 -0.1852 -0.2114
 3994TIP3    H111988   5.068   2.805   0.307  0.3276 -1.5547 -2.6797
 3994TIP3    H211989   5.140   2.748   0.428 -1.2486  1.3282 -0.2418
 3995TIP3   OH211990   1.390   2.388   4.080 -0.3977  0.2383  0.1723
 3995TIP3    H111991   1.305   2.345   4.073 -0.7619  1.1839 -2.8514
 3995TIP3    H211992   1.452   2.322   4.050 -0.4817  0.4826 -0.5782
 3996TIP3   OH211993   3.106   4.452   0.689  0.2589 -0.3319  0.7846
 3996TIP3    H111994   3.156   4.377   0.656  1.7464  0.1241  1.9370
 3996TIP3    H211995   3.157   4.529   0.664 -0.6207  0.2504  0.7174
 3997TIP3   OH211996   1.648   4.731   2.253  0.4788 -0.0426 -0.0448
 3997TIP3    H111997   1.721   4.791   2.267  0.1258  0.3688  0.0513
 3997TIP3    H211998   1.577   4.786   2.221 -0.2072 -0.2089  1.1242
 3998TIP3   OH211999   0.283   1.316   1.020  0.4531  0.3788  0.3799
 3998TIP3    H112000   0.299   1.232   0.977 -1.8598  1.2360 -2.4264
 3998TIP3    H212001   0.208   1.300   1.077  0.7141  0.3041  0.7075
 3999TIP3   OH212002   5.930   0.967   2.466 -0.3447 -0.1223 -0.4690
 3999TIP3    H112003   5.928   0.984   2.371 -0.7158  0.9914 -0.2734
 3999TIP3    H212004   5.840   0.980   2.494 -0.0518  0.5246  0.1934
 4000TIP3   OH212005   4.055   4.902   3.128 -0.4967 -0.0794 -0.9025
 4000TIP3    H112006   4.109   4.825   3.145  2.6141  2.2816  1.1500
 4000TIP3    H212007   4.039   4.940   3.214 -0.7929  2.2110 -1.8744
 4001TIP3   OH212008   4.938   3.332   0.990  0.3658  0.3662  0.1991
 4001TIP3    H112009   4.889   3.382   0.926  1.3523  0.4216 -0.5350
 4001TIP3    H212010   5.015   3.387   1.009  0.1988  0.2510  1.2603
 4002TIP3   OH212011   0.084   3.675   3.300 -0.2954 -0.4016 -0.0766
 4002TIP3    H112012   0.145   3.736   3.260 -1.2740 -0.6063 -1.9985
 4002TIP3    H212013   0.096   3.687   3.394  1.4911  0.7354 -0.4016
 4003TIP3   OH212014   2.023   3.298   4.835  0.2489  0.5594 -0.4381
 4003TIP3    H112015   2.019   3.256   4.749  1.0996 -0.2239 -0.1086
 4003TIP3    H212016   2.098   3.357   4.830  1.1564 -0.4958  0.1791
 4004TIP3   OH212017   0.141   5.998   3.747 -0.0777  0.2388  0.2361
 4004TIP3    H112018   0.099   5.976   3.830 -1.9953  0.5712 -0.5793
 4004TIP3    H212019   0.124   5.922   3.691 -0.8894  0.9616 -0.5398
 4005TIP3   OH212020   0.704   5.179   0.467 -0.2641 -0.5269  0.3777
 4005TIP3    H112021   0.653   5.116   0.518 -0.2718  0.3369  1.4706
 4005TIP3    H212022   0.640   5.225   0.414 -0.2676 -1.3673 -0.3715
 4006TIP3   OH212023   4.026   2.404   3.448 -0.0496  0.1321  0.2929
 4006TIP3    H112024   4.092   2.444   3.505  0.6342 -1.7248  0.8649
 4006TIP3    H212025   4.017   2.314   3.480 -0.3389 -0.6994 -1.9445
 4007TIP3   OH212026   0.699   3.055   1.999  0.3101  0.2431 -0.5559
 4007TIP3    H112027   0.764   3.124   2.014 -0.5801  0.5605  2.5629
 4007TIP3    H212028   0.616   3.101   1.996 -0.1646 -0.5343  0.2052
 4008TIP3   OH212029   3.332   0.141   0.015 -0.1016 -0.0071 -0.1264
 4008TIP3    H112030   3.246   0.102   0.033  0.5452 -0.4514  2.3232
 4008TIP3    H212031   3.377   0.075  -0.037 -1.3004  0.3738 -1.7563
 4009TIP3   OH212032   1.169   4.874   3.315  0.4762 -0.1771  0.2863
 4009TIP3    H112033   1.178   4.922   3.397 -1.7823 -1.1188  1.1537
 4009TIP3    H212034   1.192   4.784   3.336 -0.8662 -0.5790  0.1056
 4010TIP3   OH212035   1.783   4.012   1.174 -0.0487  0.8318  0.2445
 4010TIP3    H112036   1.845   4.020   1.102 -0.7576  1.4332 -0.3204
 4010TIP3    H212037   1.829   3.962   1.241  0.9473  1.0602 -0.2612
 4011TIP3   OH212038   0.331   2.519   2.932  0.5261 -0.0893 -0.3012
 4011TIP3    H112039   0.363   2.429   2.922 -0.2638 -0.3272 -0.8605
 4011TIP3    H212040   0.256   2.511   2.991  0.5983  0.2340 -0.1652
 4012TIP3   OH212041   1.815   4.311   2.817 -0.0781 -0.0022 -0.4975
 4012TIP3    H112042   1.758   4.261   2.758  0.8942  0.5177 -1.9611
 4012TIP3    H212043   1.780   4.400   2.814 -0.9288 -0.2634  0.9451
 4013TIP3   OH212044   5.575   3.546   3.826 -0.3672 -0.7191  0.4254
 4013TIP3    H112045   5.637   3.510   3.889 -1.0988  0.1286  1.6753
 4013TIP3    H212046   5.545   3.470   3.776 -0.9796 -1.7166  2.2054
 4014TIP3   OH212047   6.207   1.818   3.483 -0.3236 -0.2255  0.4564
 4014TIP3    H112048   6.139   1.789   3.423  1.2756 -0.8668 -1.1700
 4014TIP3    H212049   6.190   1.771   3.564 -3.4222  1.7848  1.1361
 4015TIP3   OH212050   3.849   0.270   4.008  0.2977 -0.3124  0.4000
 4015TIP3    H112051   3.895   0.193   3.973 -0.7683 -0.6169 -0.4199
 4015TIP3    H212052   3.884   0.343   3.958  0.3091 -0.4730  0.1667
 4016TIP3   OH212053   2.301   5.724   2.616  0.0542 -0.0950 -0.2805
 4016TIP3    H112054   2.346   5.782   2.678 -0.8040  1.2567 -0.8920
 4016TIP3    H212055   2.304   5.638   2.659  0.5718  0.5536  1.0654
 4017TIP3   OH212056   1.154   0.945   1.497 -0.1203 -0.1683 -0.2303
 4017TIP3    H112057   1.215   0.973   1.565 -1.0243 -1.6997  1.2807
 4017TIP3    H212058   1.178   0.853   1.480 -0.3286  0.0016 -1.5292
 4018TIP3   OH212059   3.343   4.972   1.138 -0.2366 -0.1440  0.8989
 4018TIP3    H112060   3.253   4.939   1.141  0.4453 -2.5585 -1.1325
 4018TIP3    H212061   3.396   4.896   1.162  1.3313  0.1810 -1.2087
 4019TIP3   OH212062   2.705   2.281   1.725  0.5588 -0.0893 -0.6806
 4019TIP3    H112063   2.717   2.323   1.639  1.4877 -2.2203 -1.6741
 4019TIP3    H212064   2.764   2.206   1.722  1.3855  0.3288  2.2664
 4020TIP3   OH212065   6.026   0.669   2.276 -0.5168 -0.2386 -0.0429
 4020TIP3    H112066   6.069   0.717   2.347 -0.1283 -0.8961  0.1713
 4020TIP3    H212067   6.055   0.715   2.197  0.6802 -0.7118  0.0867
 4021TIP3   OH212068   1.952   0.704   4.971  0.7156 -0.3189  0.2743
 4021TIP3    H112069   2.040   0.720   5.004  0.4482  2.4507 -0.0828
 4021TIP3    H212070   1.940   0.609   4.978  3.1201 -0.5920  1.7707
 4022TIP3   OH212071   4.451   4.073   1.701  0.1332  0.6898  0.2360
 4022TIP3    H112072   4.451   4.033   1.788 -2.8125  0.2523  0.1236
 4022TIP3    H212073   4.413   4.006   1.644  1.5854  1.1404 -1.3658
 4023TIP3   OH212074   4.631   4.631   3.267  0.4591  0.0004 -0.0952
 4023TIP3    H112075   4.642   4.705   3.326  1.7506 -1.0451  1.0338
 4023TIP3    H212076   4.548   4.591   3.295  0.2465  0.4551 -0.0684
 4024TIP3   OH212077   3.841   0.836   4.453 -0.4702 -0.3214 -0.0566
 4024TIP3    H112078   3.765   0.850   4.396 -1.3020 -1.2477  0.7783
 4024TIP3    H212079   3.836   0.907   4.518  0.0640  0.3100 -0.6972
 4025TIP3   OH212080   5.681   1.791   4.110  0.2290  0.3884  0.0035
 4025TIP3    H112081   5.746   1.792   4.180  0.2141  0.6877  0.0174
 4025TIP3    H212082   5.653   1.883   4.103 -1.6730 -0.0302  1.3687
 4026TIP3   OH212083   5.624   0.811   4.666 -0.2224  0.8304  0.0385
 4026TIP3    H112084   5.619   0.892   4.615 -1.1591  0.3013 -0.7291
 4026TIP3    H212085   5.589   0.834   4.752  1.8924  1.8789  0.7001
 4027TIP3   OH212086   4.775   4.153   0.262 -0.0189  0.3093  0.1098
 4027TIP3    H112087   4.777   4.058   0.249  0.6272  0.1865  0.9889
 4027TIP3    H212088   4.851   4.185   0.212  0.6979  0.1729  1.0847
 4028TIP3   OH212089   4.397   5.316   4.772 -0.2858 -0.0433 -0.6463
 4028TIP3    H112090   4.347   5.395   4.791 -1.6351 -0.2137 -3.1322
 4028TIP3    H212091   4.373   5.255   4.842 -2.8445  0.2322 -1.1862
 4029TIP3   OH212092   0.269   4.139   2.434  0.5356  0.1456  0.2469
 4029TIP3    H112093   0.339   4.143   2.499 -0.5926  0.1508  1.5181
 4029TIP3    H212094   0.216   4.217   2.451  1.3846  1.3282 -2.1233
 4030TIP3   OH212095   6.085   5.253   1.167 -0.7823 -0.6091  0.0512
 4030TIP3    H112096   6.097   5.162   1.195  0.5938  0.0757  1.8387
 4030TIP3    H212097   6.173   5.289   1.159 -1.2653  0.3454 -1.5667
 4031TIP3   OH212098   3.776   3.970   5.103  0.0235 -0.1208 -0.0142
 4031TIP3    H112099   3.817   4.004   5.023 -1.3175 -0.3258 -0.8071
 4031TIP3    H212100   3.718   4.041   5.132 -0.1523 -0.3899  0.2988
 4032TIP3   OH212101   1.839   0.782   3.594 -0.5814 -0.1306 -0.1290
 4032TIP3    H112102   1.783   0.828   3.530 -0.6965  0.8091  0.6235
 4032TIP3    H212103   1.908   0.743   3.540  0.0095  1.6509 -0.7614
 4033TIP3   OH212104   2.395   2.409   2.534 -0.6050 -0.0521  0.4608
 4033TIP3    H112105   2.466   2.472   2.543 -0.4933 -0.1909  0.5546
 4033TIP3    H212106   2.394   2.362   2.618 -2.0225  1.2062  1.2057
 4034TIP3   OH212107   2.375   4.137   3.388 -0.2983  0.5057  0.0469
 4034TIP3    H112108   2.346   4.080   3.459  0.1464  2.1013  1.5898
 4034TIP3    H212109   2.363   4.085   3.309 -0.3762 -1.5206  1.3163
 4035TIP3   OH212110   1.436   5.833   2.239  0.3475  0.1135  0.4592
 4035TIP3    H112111   1.514   5.824   2.184  1.7373  1.3100  2.1330
 4035TIP3    H212112   1.377   5.888   2.187  0.6316 -0.6754 -0.7632
 4036TIP3   OH212113   6.241   3.823   4.876  0.2516  0.4085 -0.5190
 4036TIP3    H112114   6.253   3.904   4.925 -0.6227  0.6866 -0.7543
 4036TIP3    H212115   6.318   3.818   4.819  1.4696 -0.0949  1.0750
 4037TIP3   OH212116   5.335   3.215   4.794 -0.6469  0.1488  0.3957
 4037TIP3    H112117   5.398   3.223   4.722 -0.0651 -1.5440  0.6639
 4037TIP3    H212118   5.372   3.268   4.864 -0.9805  1.4348 -0.3662
 4038TIP3   OH212119   3.019   3.307   0.558  0.4808  0.3671 -0.2485
 4038TIP3    H112120   2.937   3.266   0.587  0.2949  1.9662  1.7040
 4038TIP3    H212121   2.991   3.374   0.495  0.2592  0.9142  0.4186
 4039TIP3   OH212122   1.500   3.343   3.998  0.1255 -0.3513 -0.2021
 4039TIP3    H112123   1.595   3.349   3.991  0.2284 -0.7227  0.7141
 4039TIP3    H212124   1.480   3.251   3.979  0.1112 -0.6271  1.0338
 4040TIP3   OH212125   4.017   3.671   0.498 -0.1544 -0.1875 -1.0958
 4040TIP3    H112126   4.014   3.609   0.425 -0.8591  0.9101 -2.0487
 4040TIP3    H212127   4.109   3.694   0.507 -0.0936 -0.0856 -1.8900
 4041TIP3   OH212128   2.623   3.407   2.703  0.1949 -0.1741 -0.2463
 4041TIP3    H112129   2.654   3.426   2.615  0.5437 -1.0909 -0.3253
 4041TIP3    H212130   2.538   3.452   2.709 -0.1379 -0.6356 -1.2704
 4042TIP3   OH212131   5.865   1.605   2.632  0.1822  0.0422 -0.2740
 4042TIP3    H112132   5.842   1.600   2.539 -1.5951  0.1314  0.1147
 4042TIP3    H212133   5.959   1.593   2.634  0.6203  2.2595 -2.3010
 4043TIP3   OH212134   0.143   5.920   1.648  0.0267  0.0169  0.7776
 4043TIP3    H112135   0.178   5.851   1.592 -1.1396 -1.6307  1.9959
 4043TIP3    H212136   0.128   5.994   1.588 -0.2872 -1.3553 -0.9213
 4044TIP3   OH212137   3.887   3.426   0.553 -0.1452 -0.6357  0.2361
 4044TIP3    H112138   3.798   3.458   0.569 -0.6487 -2.3894  1.3257
 4044TIP3    H212139   3.937   3.503   0.529 -1.7505  0.5602  0.5692
 4045TIP3   OH212140   2.133   3.176   0.121  0.1437  0.3515  0.5212
 4045TIP3    H112141   2.078   3.207   0.049  0.3608  0.4141  0.3798
 4045TIP3    H212142   2.191   3.111   0.080 -0.8503 -0.8614  0.9723
 4046TIP3   OH212143   2.172   1.040   2.192  0.0940  0.3606 -0.7076
 4046TIP3    H112144   2.175   0.947   2.169 -0.8163  0.3898 -0.9657
 4046TIP3    H212145   2.263   1.070   2.182  1.1953 -1.2916  2.8764
 4047TIP3   OH212146   3.259   5.306   1.248  0.0296 -0.3411  0.0075
 4047TIP3    H112147   3.173   5.340   1.274  0.2028 -0.2158  0.4274
 4047TIP3    H212148   3.319   5.343   1.312  0.0422 -2.6229  1.4280
 4048TIP3   OH212149   4.328   3.120   0.590 -0.7825  0.1668 -0.3115
 4048TIP3    H112150   4.259   3.059   0.561 -0.1193 -0.0130 -1.6187
 4048TIP3    H212151   4.284   3.178   0.652 -1.1867 -2.3007  1.8911
 4049TIP3   OH212152   1.623   1.303   2.047  0.2645 -0.0432 -0.0692
 4049TIP3    H112153   1.600   1.395   2.062 -0.1897 -0.4613  2.1159
 4049TIP3    H212154   1.719   1.303   2.043  0.2788  0.5073  0.1770
 4050TIP3   OH212155   2.779   0.685   0.356  0.0711  0.1977 -0.3989
 4050TIP3    H112156   2.726   0.765   0.356  0.5498  0.5475  1.2418
 4050TIP3    H212157   2.715   0.615   0.370  0.0596  0.7498  3.3995
 4051TIP3   OH212158   1.956   0.493   1.671  0.3175  0.3694 -0.3434
 4051TIP3    H112159   1.966   0.465   1.581  1.5350 -0.4944  0.0443
 4051TIP3    H212160   1.924   0.416   1.717  0.7346  0.4961  0.1648
 4052TIP3   OH212161   3.248   5.294   4.850  0.0513  0.0024  0.5521
 4052TIP3    H112162   3.158   5.291   4.882  0.1000 -1.9285  0.6536
 4052TIP3    H212163   3.242   5.266   4.759  0.4872  0.5207  0.3554
 4053TIP3   OH212164   3.687   5.845   3.759  0.2106 -0.5476  0.0394
 4053TIP3    H112165   3.745   5.842   3.835  2.1484 -0.2214 -1.3511
 4053TIP3    H212166   3.650   5.933   3.761  1.8272  0.1757 -0.4718
 4054TIP3   OH212167   0.626   0.460   2.983 -0.3821  0.0265 -0.2538
 4054TIP3    H112168   0.566   0.534   2.972 -0.1743  0.2639  0.1504
 4054TIP3    H212169   0.713   0.500   2.983 -0.1574 -0.4156 -1.7781
 4055TIP3   OH212170   1.843   0.114   2.371  0.2625  0.6643  0.4146
 4055TIP3    H112171   1.861   0.106   2.277  1.7663  1.2499  0.6273
 4055TIP3    H212172   1.909   0.175   2.403 -0.6436  0.9777  1.7496
 4056TIP3   OH212173   5.221   0.752   1.954 -0.6516 -0.0838  0.3347
 4056TIP3    H112174   5.283   0.777   2.022 -0.9461  0.2551  0.4779
 4056TIP3    H212175   5.254   0.668   1.921  0.0077  0.2004  0.2584
 4057TIP3   OH212176   4.093   0.133   5.168 -0.0383  0.2701  0.0853
 4057TIP3    H112177   4.025   0.166   5.109 -0.9458  0.0256  0.9717
 4057TIP3    H212178   4.156   0.204   5.175 -0.3313  0.5982 -0.5347
 4058TIP3   OH212179   1.258   5.882   4.068 -0.6341  0.0970  0.0460
 4058TIP3    H112180   1.165   5.879   4.087 -1.0289  1.4160 -1.5320
 4058TIP3    H212181   1.275   5.802   4.017 -0.9878  0.0725 -0.0325
 4059TIP3   OH212182   5.771   4.030   4.033 -0.0752 -0.2213  0.2747
 4059TIP3    H112183   5.853   3.983   4.020  0.3687  0.7437 -0.6292
 4059TIP3    H212184   5.755   4.026   4.127  0.6394 -1.0210  0.3704
 4060TIP3   OH212185  -0.013   5.970   1.894 -0.1228  0.4879  0.0478
 4060TIP3    H112186   0.046   5.963   1.819 -1.2871 -1.5724 -0.7669
 4060TIP3    H212187   0.005   5.892   1.947 -1.7636  0.0173 -0.0107
 4061TIP3   OH212188   3.891   5.879   2.458  0.4889  0.2684  0.4357
 4061TIP3    H112189   3.919   5.950   2.516  1.2653 -0.3727  0.8756
 4061TIP3    H212190   3.957   5.810   2.471 -0.7127 -0.8761  0.6595
 4062TIP3   OH212191   0.492   2.454   4.493  0.4508  0.1777 -0.2999
 4062TIP3    H112192   0.503   2.459   4.398 -3.4677  0.1907 -0.9271
 4062TIP3    H212193   0.507   2.544   4.524 -0.2194  0.6138 -1.2079
 4063TIP3   OH212194   0.272   3.742   0.670 -0.7376 -0.0662 -0.3376
 4063TIP3    H112195   0.271   3.780   0.583 -0.3747  1.9704  0.4790
 4063TIP3    H212196   0.237   3.811   0.727  0.0359 -0.9230  1.2648
 4064TIP3   OH212197   6.016   5.467   2.007 -0.2137 -0.0467  0.0202
 4064TIP3    H112198   6.101   5.460   1.963 -0.4194  1.1965 -0.6272
 4064TIP3    H212199   5.966   5.529   1.953 -0.3997  1.7258  2.0849
 4065TIP3   OH212200   1.764   4.869   5.088 -0.3581 -0.0227  0.3796
 4065TIP3    H112201   1.754   4.876   5.183  1.6198 -1.5632  0.7640
 4065TIP3    H212202   1.818   4.944   5.063 -0.7202  0.2773  0.4969
 4066TIP3   OH212203   0.988   4.382   0.595  0.8641 -0.0682 -0.5008
 4066TIP3    H112204   0.956   4.452   0.539  0.2725  0.1296  0.0820
 4066TIP3    H212205   0.916   4.319   0.600  1.5033 -0.8864 -1.2843
 4067TIP3   OH212206   1.310   1.999   0.728  0.3526  0.0863 -0.1908
 4067TIP3    H112207   1.363   2.037   0.658  2.1869 -2.3064 -0.2264
 4067TIP3    H212208   1.269   1.922   0.689  1.1311 -1.0952  1.2203
 4068TIP3   OH212209   2.086   4.635   1.211 -0.2065 -0.2202 -0.5279
 4068TIP3    H112210   2.139   4.670   1.140 -1.3246 -0.1160 -1.3414
 4068TIP3    H212211   2.053   4.712   1.257  0.7884 -0.2932  0.3211
 4069TIP3   OH212212   2.951   3.134   1.411  0.1444 -0.4482  0.4402
 4069TIP3    H112213   2.961   3.165   1.501 -0.1524  2.0978 -0.3460
 4069TIP3    H212214   2.866   3.167   1.383 -0.1953 -2.0281 -0.4977
 4070TIP3   OH212215   0.449   3.276   2.542  0.3562  0.3968 -0.4855
 4070TIP3    H112216   0.462   3.187   2.510 -0.7682  0.3763 -0.9343
 4070TIP3    H212217   0.400   3.320   2.473 -3.6137 -0.0912  1.7005
 4071TIP3   OH212218   2.383   1.184   1.479 -0.7778 -0.4114  0.1011
 4071TIP3    H112219   2.305   1.136   1.508 -0.9182  0.1130  0.6220
 4071TIP3    H212220   2.447   1.171   1.549  0.8787 -3.6632 -1.8023
 4072TIP3   OH212221   3.182   3.869   5.091 -0.2808  0.1488 -0.0950
 4072TIP3    H112222   3.170   3.862   5.186 -2.9652  1.1851 -0.2508
 4072TIP3    H212223   3.274   3.849   5.076  0.0612 -0.6998  2.6509
 4073TIP3   OH212224   3.056   1.747   2.957  0.1900  0.5221  0.5079
 4073TIP3    H112225   2.992   1.762   2.887 -0.5610  0.7621  1.2319
 4073TIP3    H212226   3.010   1.772   3.037  1.6279  1.9697  0.9322
 4074TIP3   OH212227   0.463   5.875   0.123 -0.1496 -0.5581 -0.4914
 4074TIP3    H112228   0.553   5.903   0.140 -0.4538 -0.1456  0.4542
 4074TIP3    H212229   0.464   5.781   0.144 -0.1037 -0.4100  0.2035
 4075TIP3   OH212230   0.349   3.682   4.517  0.8640  0.2743  0.0530
 4075TIP3    H112231   0.328   3.603   4.467  0.4002  0.5891 -0.2571
 4075TIP3    H212232   0.439   3.703   4.492  0.0429  1.5101 -2.1569
 4076TIP3   OH212233   0.283   3.225   2.978 -0.0652  0.0299 -0.2589
 4076TIP3    H112234   0.275   3.133   3.002  2.3481 -0.9772 -2.7299
 4076TIP3    H212235   0.368   3.231   2.935 -0.8150  3.0964 -1.5715
 4077TIP3   OH212236   3.300   2.811   0.695  0.1928  0.5607  0.1014
 4077TIP3    H112237   3.366   2.817   0.626  1.0080 -0.3100  0.7878
 4077TIP3    H212238   3.347   2.832   0.775 -0.1426 -0.8834  0.7133
 4078TIP3   OH212239   0.035   2.189   0.971  0.3774  0.0891  0.2395
 4078TIP3    H112240   0.039   2.281   0.944 -1.0762 -0.5306 -2.4412
 4078TIP3    H212241   0.119   2.152   0.942  0.5133  0.3368  0.3137
 4079TIP3   OH212242   4.759   0.405   3.471  0.0263 -0.4460  0.1426
 4079TIP3    H112243   4.689   0.448   3.520  1.4806  1.2094  0.8611
 4079TIP3    H212244   4.812   0.362   3.537  0.1370 -1.0498 -0.3273
 4080TIP3   OH212245   3.238   5.125   4.602 -0.1407 -0.5106  0.1172
 4080TIP3    H112246   3.256   5.031   4.603  1.5402 -0.2142  1.4790
 4080TIP3    H212247   3.144   5.132   4.586 -0.3894 -2.4315  0.6186
 4081TIP3   OH212248   2.826   5.615   1.975  0.5308  0.4128 -0.0864
 4081TIP3    H112249   2.839   5.640   2.066 -2.7480 -0.9007  0.9071
 4081TIP3    H212250   2.866   5.528   1.968  1.0335  0.6358  0.0222
 4082TIP3   OH212251   5.127   3.711   4.526  0.6899 -0.5706 -0.7156
 4082TIP3    H112252   5.091   3.622   4.520  1.0351 -0.8439  0.7862
 4082TIP3    H212253   5.095   3.755   4.447  0.0483 -1.8560 -1.2114
 4083TIP3   OH212254   0.171   2.448   3.176  0.0865  0.2737 -0.0085
 4083TIP3    H112255   0.150   2.369   3.226  1.2734  0.7787  1.3737
 4083TIP3    H212256   0.106   2.450   3.105  0.3526 -2.2052 -0.4084
 4084TIP3   OH212257   4.050   1.782   4.128  0.1616  0.0861 -0.4372
 4084TIP3    H112258   4.053   1.852   4.194  1.4134  1.5169 -1.9377
 4084TIP3    H212259   3.957   1.766   4.115 -0.1302  0.7444  0.6852
 4085TIP3   OH212260   2.691   1.784   5.196  0.1456  0.5288 -0.4396
 4085TIP3    H112261   2.642   1.865   5.181  0.4918  0.6112 -1.1531
 4085TIP3    H212262   2.654   1.721   5.135 -0.9165 -0.2193  0.9107
 4086TIP3   OH212263   0.862   0.055   3.192 -0.4571  0.4870  0.0239
 4086TIP3    H112264   0.923  -0.009   3.229 -1.0576  0.2752  0.6519
 4086TIP3    H212265   0.817   0.008   3.121 -2.2423 -0.4090  1.6800
 4087TIP3   OH212266   0.079   2.775   2.802 -0.5217 -0.0769  0.3010
 4087TIP3    H112267   0.034   2.859   2.814 -0.4639  0.0375 -0.2933
 4087TIP3    H212268   0.172   2.795   2.814 -0.4838 -0.0047 -0.1130
 4088TIP3   OH212269   3.718   1.921   0.321  0.3029 -0.1628  0.1000
 4088TIP3    H112270   3.628   1.946   0.302  0.0667 -0.8238  0.3283
 4088TIP3    H212271   3.730   1.837   0.277  0.6400 -0.3286  0.5018
 4089TIP3   OH212272   5.985   0.720   1.183  0.0966  0.0893  0.3088
 4089TIP3    H112273   5.947   0.778   1.117 -0.8061 -1.6060 -0.7235
 4089TIP3    H212274   5.952   0.755   1.266 -0.5852  0.9405 -0.2979
 4090TIP3   OH212275   4.073   5.282   0.618  0.0303  0.2652 -1.2583
 4090TIP3    H112276   4.118   5.201   0.643  1.4328  1.5293  0.6941
 4090TIP3    H212277   3.984   5.255   0.599  0.3277 -1.6828 -0.1909
 4091TIP3   OH212278   1.227   5.933   2.090  0.1019  0.5345 -0.1711
 4091TIP3    H112279   1.196   5.861   2.034  0.2875  1.1421 -1.0837
 4091TIP3    H212280   1.151   5.990   2.100  1.0428  2.5984 -3.3218
 4092TIP3   OH212281   5.303   3.117   0.413  0.1579 -0.6890 -0.1325
 4092TIP3    H112282   5.343   3.100   0.328  0.7600 -1.8568  0.3471
 4092TIP3    H212283   5.271   3.207   0.408  2.4032  0.1628 -0.7589
 4093TIP3   OH212284   2.564   1.832   4.831  0.1545  0.2444 -0.2465
 4093TIP3    H112285   2.587   1.756   4.884  1.8045  1.1059  0.3617
 4093TIP3    H212286   2.507   1.798   4.763 -0.3402 -1.2622  0.8747
 4094TIP3   OH212287   1.873   3.484   0.314 -0.0172 -0.6970  0.2520
 4094TIP3    H112288   1.807   3.552   0.330  0.6757 -0.3011  1.5476
 4094TIP3    H212289   1.823   3.402   0.315 -0.4939 -0.4182  1.4048
 4095TIP3   OH212290   2.785   2.036   2.178 -0.3501  0.2707 -0.5044
 4095TIP3    H112291   2.789   2.131   2.165 -0.1679  0.5640  1.3357
 4095TIP3    H212292   2.802   2.025   2.271 -2.7487 -1.3948 -0.1690
 4096TIP3   OH212293   1.773   4.529   0.964  0.4436  0.3603 -0.2291
 4096TIP3    H112294   1.713   4.461   0.935  1.1188 -0.6921  0.7363
 4096TIP3    H212295   1.838   4.483   1.017 -0.0080  1.9733  1.8739
 4097TIP3   OH212296   0.502   3.294   2.809 -0.1658 -0.0514  0.0310
 4097TIP3    H112297   0.488   3.279   2.715  0.2267 -0.4477  0.0307
 4097TIP3    H212298   0.522   3.387   2.816 -3.0319  0.6524  0.0688
 4098TIP3   OH212299   5.046   5.966   1.653  0.4640  0.4829 -0.3374
 4098TIP3    H112300   5.071   5.877   1.631  0.8429  0.1595  1.3081
 4098TIP3    H212301   4.950   5.965   1.650  0.4040 -0.4248  1.2433
 4099TIP3   OH212302   1.995   2.803   1.486  0.5599  0.5137 -0.4005
 4099TIP3    H112303   1.957   2.891   1.482 -1.0249 -0.1234 -0.1864
 4099TIP3    H212304   1.933   2.752   1.538  2.7468 -0.1393  1.7272
 4100TIP3   OH212305   4.659   3.773   2.463  0.0313  0.6318 -0.6411
 4100TIP3    H112306   4.576   3.809   2.433 -0.0643  1.3730  0.4335
 4100TIP3    H212307   4.640   3.738   2.551  0.9775  1.3521 -0.1314
 4101TIP3   OH212308   2.038   4.124   4.544  0.0631 -0.2280 -0.4699
 4101TIP3    H112309   2.027   4.194   4.479  0.8594 -0.5707 -0.9964
 4101TIP3    H212310   1.954   4.119   4.589 -0.3407  0.3571 -1.1376
 4102TIP3   OH212311   0.439   1.332   3.948  0.6453 -0.1147 -0.5005
 4102TIP3    H112312   0.439   1.257   3.888 -1.2972 -1.0661  0.5768
 4102TIP3    H212313   0.396   1.402   3.898  1.3913 -0.0778 -1.1016
 4103TIP3   OH212314   2.425   3.176   1.702 -0.2001 -0.1385 -0.5462
 4103TIP3    H112315   2.362   3.110   1.671  1.0625 -0.3694 -2.8793
 4103TIP3    H212316   2.371   3.247   1.736 -1.6649 -1.1883 -0.5897
 4104TIP3   OH212317   2.420   0.155   0.128  0.3275 -0.0732  0.4021
 4104TIP3    H112318   2.460   0.144   0.041  1.6030  0.2671  0.9264
 4104TIP3    H212319   2.409   0.065   0.160  0.7696 -0.1708  0.2910
 4105TIP3   OH212320   4.938   1.106   0.114 -0.2118  0.2922 -0.6915
 4105TIP3    H112321   5.004   1.042   0.088 -0.3305  0.1625 -0.6722
 4105TIP3    H212322   4.911   1.147   0.032  0.5147  0.9518 -0.6158
 4106TIP3   OH212323   2.762   2.796   1.534  0.1587  0.3137  0.1871
 4106TIP3    H112324   2.801   2.709   1.536 -0.9668 -0.2126  1.0390
 4106TIP3    H212325   2.821   2.850   1.586  0.8112  0.0413 -0.2570
 4107TIP3   OH212326   2.583   2.299   2.099 -0.2113  0.1348 -0.0731
 4107TIP3    H112327   2.579   2.271   2.008 -1.9207  0.9095 -0.2650
 4107TIP3    H212328   2.677   2.302   2.118  0.1645 -0.8417 -1.5274
 4108TIP3   OH212329   6.177   2.934   2.624 -0.1410  0.2933  0.1392
 4108TIP3    H112330   6.248   2.886   2.580  0.0389  1.3906 -0.8132
 4108TIP3    H212331   6.120   2.865   2.658 -0.1534 -0.6147 -1.5968
 4109TIP3   OH212332   4.052   5.976   3.867  0.3396  0.0670 -0.6518
 4109TIP3    H112333   4.047   5.884   3.893 -0.7967  0.0030 -1.0306
 4109TIP3    H212334   3.981   6.019   3.914  1.0197  0.8209 -0.2758
 4110TIP3   OH212335   4.339   1.685   3.482 -0.4636 -0.1612  0.6329
 4110TIP3    H112336   4.423   1.696   3.437 -0.2483 -0.2013  1.0182
 4110TIP3    H212337   4.290   1.625   3.426 -0.6752  0.7624 -0.1738
 4111TIP3   OH212338   4.244   0.595   4.419 -0.3269  0.1244  0.2992
 4111TIP3    H112339   4.206   0.549   4.345  0.6956  0.3729 -0.4014
 4111TIP3    H212340   4.266   0.682   4.385 -0.4491  0.4720  1.0702
 4112TIP3   OH212341   1.256   0.304   1.095  0.1661 -0.1966  0.5938
 4112TIP3    H112342   1.195   0.306   1.169 -0.2089 -0.1541  0.2882
 4112TIP3    H212343   1.199   0.308   1.018  0.5250 -0.7749  0.2960
 4113TIP3   OH212344   4.805   0.774   2.505 -0.4936  0.3439  0.2659
 4113TIP3    H112345   4.749   0.813   2.572  0.5765  0.7706  0.9347
 4113TIP3    H212346   4.755   0.699   2.473 -2.5044  2.0446 -0.8852
 4114TIP3   OH212347   1.623   3.212   1.002 -0.2224 -0.0268  0.0929
 4114TIP3    H112348   1.588   3.222   0.913 -3.3204 -0.9355  1.0796
 4114TIP3    H212349   1.620   3.299   1.040 -2.6660 -0.2275  0.4928
 4115TIP3   OH212350   2.089   5.224   2.729 -0.2075 -0.0478 -0.0579
 4115TIP3    H112351   2.183   5.219   2.746 -0.0104 -0.0820 -1.0997
 4115TIP3    H212352   2.081   5.287   2.657 -0.9591 -0.2964 -0.1976
 4116TIP3   OH212353   4.151   4.220   1.136 -0.5029 -0.0672 -0.0253
 4116TIP3    H112354   4.083   4.160   1.165 -0.6687  0.6105  1.0445
 4116TIP3    H212355   4.219   4.163   1.099  0.0961 -1.0897  2.4685
 4117TIP3   OH212356   0.278   5.128   3.146  0.1528  0.1894 -0.5283
 4117TIP3    H112357   0.185   5.104   3.148  0.0146  0.5586 -1.6775
 4117TIP3    H212358   0.324   5.044   3.154 -0.3172 -0.2923 -2.2628
 4118TIP3   OH212359   4.555   0.455   0.893  0.2055 -0.2003 -0.2008
 4118TIP3    H112360   4.571   0.537   0.939  1.6462 -1.6103  2.0126
 4118TIP3    H212361   4.596   0.467   0.807 -3.2108  2.7698 -1.6624
 4119TIP3   OH212362   4.550   5.509   3.893  0.1066  0.0064  0.3460
 4119TIP3    H112363   4.533   5.512   3.799  1.3043  0.0958  0.1141
 4119TIP3    H212364   4.558   5.416   3.913  1.7785  0.0275 -0.0444
 4120TIP3   OH212365   3.699   3.874   1.717 -1.0506  0.8383  0.1410
 4120TIP3    H112366   3.758   3.890   1.790  0.7922  0.5592 -1.2382
 4120TIP3    H212367   3.618   3.920   1.741 -0.7433  0.2308  2.6107
 4121TIP3   OH212368   1.540   1.797   2.473 -0.3714  0.1341  0.0921
 4121TIP3    H112369   1.556   1.806   2.567  0.6911 -0.3242 -0.0217
 4121TIP3    H212370   1.458   1.748   2.467  0.6459 -1.7715  0.8301
 4122TIP3   OH212371   2.695   5.397   1.281 -0.7396  0.3138  0.2095
 4122TIP3    H112372   2.719   5.457   1.352 -0.5327 -0.9152  1.2105
 4122TIP3    H212373   2.662   5.319   1.326 -1.8622  0.0119 -1.0785
 4123TIP3   OH212374   4.399   1.876   3.186 -0.2956 -0.0132  0.0171
 4123TIP3    H112375   4.361   1.908   3.268 -1.0758  1.2189 -0.7877
 4123TIP3    H212376   4.324   1.853   3.133  0.0780  1.2896 -1.1465
 4124TIP3   OH212377   5.320   2.745   1.110  0.0121 -0.0470  0.0444
 4124TIP3    H112378   5.373   2.692   1.170  0.3119  1.2662  0.9896
 4124TIP3    H212379   5.229   2.726   1.134  0.0460 -1.7412 -1.0773
 4125TIP3   OH212380   4.275   4.891   2.210  0.3911  0.0297 -0.0578
 4125TIP3    H112381   4.322   4.973   2.226 -0.5443  0.4840  0.4145
 4125TIP3    H212382   4.284   4.876   2.116  1.3905  0.1457 -0.0005
 4126TIP3   OH212383   0.103   4.727   2.740  0.3571  0.0431  0.1947
 4126TIP3    H112384   0.068   4.638   2.749  2.0048 -0.6673  0.0132
 4126TIP3    H212385   0.086   4.767   2.825  0.0367 -0.6264  0.4596
 4127TIP3   OH212386   0.625   2.813   2.972 -0.5435  0.2338 -0.2772
 4127TIP3    H112387   0.532   2.796   2.965 -0.2609 -0.9438 -1.5956
 4127TIP3    H212388   0.632   2.909   2.972 -1.9069  0.4727  3.0231
 4128TIP3   OH212389   3.334   2.030   1.761  0.0784 -0.2348 -0.4469
 4128TIP3    H112390   3.251   2.050   1.717  0.1845  2.1146  0.3023
 4128TIP3    H212391   3.335   2.087   1.837  3.1448  1.0687 -1.3395
 4129TIP3   OH212392   1.128   4.789   0.508 -0.1656 -0.6474  0.0211
 4129TIP3    H112393   1.130   4.709   0.560  0.8004  1.9824  4.5324
 4129TIP3    H212394   1.220   4.815   0.501 -0.5655  0.8909  0.1398
 4130TIP3   OH212395   2.319   3.478   0.122 -0.5813  0.3390 -0.2368
 4130TIP3    H112396   2.269   3.503   0.199 -2.2420  0.6016 -1.3282
 4130TIP3    H212397   2.259   3.421   0.072  0.8113 -0.6581 -0.8467
 4131TIP3   OH212398   0.602   0.644   3.777  0.0453 -0.2947  0.1612
 4131TIP3    H112399   0.637   0.613   3.694 -3.3217 -0.7981 -1.2353
 4131TIP3    H212400   0.544   0.574   3.806 -0.1699  0.6164  2.0678
 4132TIP3   OH212401   4.228   3.596   0.093  0.0899 -0.5170 -0.1369
 4132TIP3    H112402   4.222   3.504   0.065 -0.1805 -0.0751 -1.5931
 4132TIP3    H212403   4.287   3.636   0.029  0.2413  0.3313  0.5173
 4133TIP3   OH212404   3.345   4.147   3.121 -0.1905  0.1251 -0.1727
 4133TIP3    H112405   3.311   4.074   3.173 -2.0912  0.0521 -1.4297
 4133TIP3    H212406   3.292   4.222   3.150 -0.9072  0.1866 -1.5737
 4134TIP3   OH212407   3.497   2.039   4.630 -0.3096 -0.2036  0.0336
 4134TIP3    H112408   3.482   2.133   4.617  0.6521 -0.2298 -1.4282
 4134TIP3    H212409   3.411   1.999   4.620 -0.4706  0.3673 -0.9671
 4135TIP3   OH212410   6.053   1.760   5.116 -0.1815  0.3947  0.0675
 4135TIP3    H112411   6.021   1.672   5.095  0.3521  0.0070  0.8271
 4135TIP3    H212412   6.070   1.800   5.031  3.2756 -1.6318 -0.4008
 4136TIP3   OH212413   5.215   2.872   0.591 -0.4006  0.1750 -0.3929
 4136TIP3    H112414   5.247   2.950   0.637 -0.0865  0.7349 -1.5280
 4136TIP3    H212415   5.121   2.871   0.607 -0.4735  1.0393 -0.7263
 4137TIP3   OH212416   3.801   4.935   1.050 -0.7784  0.3575 -0.7044
 4137TIP3    H112417   3.798   4.997   1.123 -0.6501  2.7004 -2.5593
 4137TIP3    H212418   3.710   4.918   1.028 -0.8339  1.2443 -1.2145
 4138TIP3   OH212419   0.849   1.496   1.906  0.3446  0.0598  0.3242
 4138TIP3    H112420   0.865   1.590   1.915  0.7347 -0.1996  3.5698
 4138TIP3    H212421   0.766   1.490   1.859  0.2361  2.0420  0.1819
 4139TIP3   OH212422   6.073   1.069   0.318  0.2487  0.2643 -0.2565
 4139TIP3    H112423   6.037   1.109   0.239 -1.6005 -1.8933 -0.6220
 4139TIP3    H212424   6.139   1.008   0.286 -0.5194 -0.6314 -0.1647
 4140TIP3   OH212425   2.334   2.387   0.410  0.0424  0.0559 -0.3424
 4140TIP3    H112426   2.399   2.446   0.371  0.2697 -0.4156 -0.6886
 4140TIP3    H212427   2.382   2.343   0.482 -0.7121  1.8275  1.3311
 4141TIP3   OH212428   6.326   0.606   1.954 -0.7282 -0.1034  0.1033
 4141TIP3    H112429   6.360   0.551   1.883 -1.2115 -0.3000  0.0200
 4141TIP3    H212430   6.320   0.547   2.029 -0.5880  0.0105  0.2055
 4142TIP3   OH212431   4.640   3.434   1.099  0.4924 -0.0885 -0.0470
 4142TIP3    H112432   4.718   3.383   1.076 -0.0755 -1.0114 -0.0083
 4142TIP3    H212433   4.626   3.416   1.192  2.1066  2.7071  0.8314
 4143TIP3   OH212434   5.536   2.532   4.191 -0.3497  0.1994  0.3051
 4143TIP3    H112435   5.517   2.625   4.207  0.8662  0.1872  2.2488
 4143TIP3    H212436   5.592   2.507   4.264 -0.0120 -1.8904 -0.6046
 4144TIP3   OH212437   5.895   3.758   0.132 -0.0804 -0.5781 -0.1964
 4144TIP3    H112438   5.941   3.757   0.048  1.1101  1.5428  0.3438
 4144TIP3    H212439   5.854   3.845   0.135  0.0715 -0.5368  1.4818
 4145TIP3   OH212440   0.173   3.470   4.743  0.1758  0.3181 -0.3195
 4145TIP3    H112441   0.136   3.395   4.790  2.2994 -0.3961  0.3279
 4145TIP3    H212442   0.181   3.440   4.652  1.1946 -0.3376 -0.0260
 4146TIP3   OH212443   2.589   3.451   3.573 -0.4688  0.0615 -1.2964
 4146TIP3    H112444   2.621   3.454   3.663 -1.7703 -1.1004 -0.7619
 4146TIP3    H212445   2.638   3.520   3.528  1.0017 -0.0529  0.0234
 4147TIP3   OH212446   1.919   2.161   0.898 -0.8098 -0.0262  0.1709
 4147TIP3    H112447   2.003   2.115   0.894 -1.7362 -2.0896  2.3761
 4147TIP3    H212448   1.942   2.251   0.920  0.9249  0.1467 -1.9599
 4148TIP3   OH212449   1.368   2.656   4.351 -0.0649  0.1337  0.3379
 4148TIP3    H112450   1.304   2.686   4.415 -0.8503 -1.3341  0.3001
 4148TIP3    H212451   1.318   2.646   4.270  0.4625  0.0449  0.0199
 4149TIP3   OH212452   1.829   2.694   2.484  0.0966  0.6413 -0.0100
 4149TIP3    H112453   1.851   2.608   2.519 -3.2070 -0.4097 -0.2073
 4149TIP3    H212454   1.753   2.723   2.535  0.1331  2.7408 -1.0190
 4150TIP3   OH212455   5.330   5.593   4.851 -0.4896  0.2942  0.0982
 4150TIP3    H112456   5.378   5.514   4.825 -0.7068  0.2087 -0.0486
 4150TIP3    H212457   5.250   5.590   4.798 -1.1778 -0.1480  1.1289
 4151TIP3   OH212458   3.174   3.333   2.791  0.1660 -0.1535  0.4529
 4151TIP3    H112459   3.114   3.272   2.833 -1.6042 -0.4388 -2.2276
 4151TIP3    H212460   3.140   3.420   2.814 -1.6418 -0.3052 -1.2735
 4152TIP3   OH212461   3.447   2.919   0.056 -0.1147 -0.2089 -0.8123
 4152TIP3    H112462   3.448   2.981   0.129  0.8536  0.7251 -1.5740
 4152TIP3    H212463   3.355   2.916   0.028 -0.4005 -0.1825  0.1032
 4153TIP3   OH212464   5.560   4.680   1.828 -0.2571  0.0496 -0.1458
 4153TIP3    H112465   5.589   4.661   1.917 -0.3032 -0.8574 -0.3136
 4153TIP3    H212466   5.551   4.594   1.787  0.8312  0.4888 -1.3710
 4154TIP3   OH212467   4.118   4.715   0.115 -0.2310  0.5788 -0.1047
 4154TIP3    H112468   4.155   4.705   0.027  0.1568  0.4462  0.0717
 4154TIP3    H212469   4.089   4.627   0.139 -0.1354  0.5720 -0.0129
 4155TIP3   OH212470   4.218   2.624   4.735  0.0614 -0.1956 -0.6744
 4155TIP3    H112471   4.136   2.666   4.709 -1.1030 -1.7315  0.3532
 4155TIP3    H212472   4.261   2.602   4.652  0.0238  1.6310 -1.2270
 4156TIP3   OH212473   0.488   3.577   5.035  0.2374 -0.1545  0.1160
 4156TIP3    H112474   0.522   3.654   5.081 -0.1158  0.3497 -0.4633
 4156TIP3    H212475   0.435   3.612   4.964 -0.1486 -0.9348  0.0056
 4157TIP3   OH212476   3.927   1.061   3.822  0.0897 -0.1534 -0.3306
 4157TIP3    H112477   3.922   0.998   3.894  1.5577  0.8404  0.6961
 4157TIP3    H212478   3.865   1.130   3.846  0.8039  0.3296  0.1648
 4158TIP3   OH212479   4.759   5.348   0.920 -0.2343  0.2589 -0.4074
 4158TIP3    H112480   4.852   5.371   0.926  0.1028 -1.0368 -0.4411
 4158TIP3    H212481   4.756   5.273   0.860 -1.3012  0.2380 -0.3561
 4159TIP3   OH212482   2.399   1.215   2.143  0.1599  0.3134  0.1025
 4159TIP3    H112483   2.409   1.232   2.049 -0.3973  2.9318  0.4457
 4159TIP3    H212484   2.408   1.301   2.184  0.1788 -0.7387  2.4576
 4160TIP3   OH212485   3.879   0.448   3.800 -0.0649  0.2592  0.3098
 4160TIP3    H112486   3.902   0.430   3.709 -0.3117 -0.6286  0.4167
 4160TIP3    H212487   3.784   0.451   3.801 -0.0494  1.6461  0.2989
 4161TIP3   OH212488   2.569   1.261   2.840  0.0089 -0.2574 -0.5127
 4161TIP3    H112489   2.614   1.186   2.879 -1.7265 -1.6035 -0.9779
 4161TIP3    H212490   2.639   1.315   2.803  1.3384 -1.3021  0.4089
 4162TIP3   OH212491   1.802   0.602   4.526  0.1554 -0.2163 -0.5100
 4162TIP3    H112492   1.890   0.633   4.551  0.7767 -2.0569 -0.2276
 4162TIP3    H212493   1.778   0.657   4.452  1.7760  0.0279 -0.9098
 4163TIP3   OH212494   1.583   3.890   0.796 -0.1038  0.6724 -0.7105
 4163TIP3    H112495   1.559   3.924   0.883  0.3038  0.8070 -0.6464
 4163TIP3    H212496   1.613   3.801   0.812  0.8979  1.0166 -0.5649
 4164TIP3   OH212497   0.380   2.853   3.659  0.3200 -0.1034 -0.6644
 4164TIP3    H112498   0.399   2.881   3.749 -0.3418 -0.2472 -0.4744
 4164TIP3    H212499   0.415   2.764   3.654 -0.8769 -0.6265 -0.1037
 4165TIP3   OH212500   4.207   1.426   2.160  0.4564 -0.1153  0.2761
 4165TIP3    H112501   4.255   1.353   2.121  0.5935 -0.2573  0.7067
 4165TIP3    H212502   4.275   1.485   2.193  0.4488  1.4779 -2.2747
 4166TIP3   OH212503   4.361   0.198   0.795 -0.1425 -0.2195 -0.4198
 4166TIP3    H112504   4.425   0.188   0.865  1.5493  1.6352 -1.5712
 4166TIP3    H212505   4.286   0.241   0.836 -1.0235 -2.9618  1.0870
 4167TIP3   OH212506   3.469   3.055   2.728  0.1643 -0.2165 -0.2206
 4167TIP3    H112507   3.503   2.969   2.751 -0.2973 -0.2463  0.3691
 4167TIP3    H212508   3.524   3.084   2.654  2.9999  0.6941  2.0545
 4168TIP3   OH212509   4.236   5.364   0.390 -0.4773 -0.5908  0.6023
 4168TIP3    H112510   4.280   5.435   0.438 -1.3174 -1.1331  2.2638
 4168TIP3    H212511   4.153   5.351   0.437 -1.6386 -0.7730 -1.3911
 4169TIP3   OH212512   0.887   0.832   4.909 -0.3075 -0.1305 -0.2433
 4169TIP3    H112513   0.868   0.914   4.864 -1.2895  0.5100  1.2799
 4169TIP3    H212514   0.930   0.859   4.990 -0.2710 -1.1525  0.0836
 4170TIP3   OH212515   5.719   2.393   1.846  0.0799  0.0723 -0.3347
 4170TIP3    H112516   5.793   2.427   1.795  1.4089 -2.0471  0.0630
 4170TIP3    H212517   5.697   2.464   1.907  1.1549  1.0979 -1.1097
 4171TIP3   OH212518   1.641   2.230   0.274 -1.1071  0.3050  0.2367
 4171TIP3    H112519   1.680   2.145   0.253 -2.0115 -0.4486  1.4903
 4171TIP3    H212520   1.601   2.259   0.192  0.4440  0.2228 -0.5820
 4172TIP3   OH212521   6.036   1.686   3.897  0.5733  0.2177 -0.8602
 4172TIP3    H112522   5.943   1.672   3.915 -0.0417  3.4406 -1.0216
 4172TIP3    H212523   6.077   1.685   3.984 -0.0758  1.4674 -0.5218
 4173TIP3   OH212524   4.531   5.764   0.297 -0.1344 -0.6067  0.0796
 4173TIP3    H112525   4.437   5.760   0.312 -0.0620  0.2594  0.8946
 4173TIP3    H212526   4.566   5.805   0.376  0.7375  0.5852 -0.8804
 4174TIP3   OH212527   4.707   4.565   1.850 -0.2909 -0.1458 -0.0891
 4174TIP3    H112528   4.723   4.646   1.801  1.3119 -0.3979 -0.0181
 4174TIP3    H212529   4.640   4.519   1.799 -0.9381  1.0308 -0.3359
 4175TIP3   OH212530   4.031   4.457   2.312  0.7388  0.2387 -0.4669
 4175TIP3    H112531   3.999   4.474   2.223  0.8509  0.6511 -0.4332
 4175TIP3    H212532   4.012   4.538   2.360 -0.4321 -0.4103  0.2132
 4176TIP3   OH212533   0.906   4.601   0.433 -0.2838  0.1802  0.7216
 4176TIP3    H112534   0.820   4.569   0.409 -0.4482  0.7995  0.4673
 4176TIP3    H212535   0.896   4.631   0.524 -0.1538 -0.3877  0.9272
 4177TIP3   OH212536   2.335   0.651   0.962 -0.1428  0.0158 -0.2488
 4177TIP3    H112537   2.333   0.567   1.009 -0.7196  0.2905  0.2384
 4177TIP3    H212538   2.255   0.651   0.910 -0.2302  0.3313 -0.1192
 4178TIP3   OH212539   3.804   5.881   4.630  0.0875 -0.2712  0.0901
 4178TIP3    H112540   3.777   5.959   4.679 -0.2897 -0.5880  0.3845
 4178TIP3    H212541   3.784   5.903   4.539  0.1239  0.0360  0.1540
 4179TIP3   OH212542   3.483   1.180   4.677  0.0568 -0.6382 -0.3401
 4179TIP3    H112543   3.441   1.255   4.634 -0.6019  0.3321  1.8328
 4179TIP3    H212544   3.413   1.116   4.689  0.2924 -1.0089 -0.9005
 4180TIP3   OH212545   1.181   2.641   0.684  0.2894 -0.0268 -0.2056
 4180TIP3    H112546   1.090   2.613   0.668  0.0820  0.2416  0.4561
 4180TIP3    H212547   1.234   2.579   0.634 -0.1526 -1.7073  1.3047
 4181TIP3   OH212548   4.936   5.438   4.431  0.4939 -0.1501  0.1073
 4181TIP3    H112549   4.998   5.366   4.435  1.7591  0.8656 -0.6468
 4181TIP3    H212550   4.989   5.516   4.412 -0.8630  0.9448  0.5572
 4182TIP3   OH212551   2.812   2.792   0.510 -0.4872  0.0918  0.1011
 4182TIP3    H112552   2.771   2.706   0.515  0.7542 -0.7443 -2.3918
 4182TIP3    H212553   2.863   2.799   0.591 -0.9606 -1.3245  0.5520
 4183TIP3   OH212554   1.440   3.813   2.631  0.1494 -0.4325  0.5914
 4183TIP3    H112555   1.462   3.758   2.557 -1.4071  0.4090 -0.5533
 4183TIP3    H212556   1.353   3.784   2.658  0.5141 -0.4437  1.8306
 4184TIP3   OH212557   5.023   5.812   4.568  0.0265 -0.3626 -0.0937
 4184TIP3    H112558   4.995   5.767   4.488  0.2019  1.3927 -1.1828
 4184TIP3    H212559   5.039   5.902   4.541  0.0129  0.3035  1.9510
 4185TIP3   OH212560   6.114   1.593   1.381 -0.0096  0.4632 -0.3006
 4185TIP3    H112561   6.074   1.659   1.437 -0.1798  0.3837 -0.3269
 4185TIP3    H212562   6.194   1.568   1.427  0.3316  1.0737 -0.5600
 4186TIP3   OH212563   4.077   4.577   1.405  0.1625  0.7962 -0.7070
 4186TIP3    H112564   4.102   4.614   1.490 -0.1260 -0.8323  0.1237
 4186TIP3    H212565   4.048   4.653   1.353 -1.3866  1.6222  1.2405
 4187TIP3   OH212566   2.660   0.418   4.554  0.1974  0.1081 -0.0412
 4187TIP3    H112567   2.679   0.407   4.461 -1.3140  0.5444 -0.4327
 4187TIP3    H212568   2.687   0.336   4.594 -0.2449 -0.5512 -1.0595
 4188TIP3   OH212569   3.736   1.681   0.175 -0.0683  0.4667 -0.1017
 4188TIP3    H112570   3.800   1.651   0.110  0.7745 -0.7991  1.2677
 4188TIP3    H212571   3.656   1.634   0.153  0.5212 -0.8197  0.4196
 4189TIP3   OH212572   1.113   0.272   4.020  0.0650  0.2614  0.0258
 4189TIP3    H112573   1.022   0.277   3.993  0.3492  3.2926 -0.7486
 4189TIP3    H212574   1.116   0.319   4.103  0.4976 -2.4097  1.6300
 4190TIP3   OH212575   3.176   3.715   2.663  0.6714 -0.2683 -0.2591
 4190TIP3    H112576   3.148   3.804   2.685  1.2797  0.3356 -1.8346
 4190TIP3    H212577   3.253   3.726   2.608  1.0907 -1.7954 -0.0319
 4191TIP3   OH212578   3.718   4.842   1.942  0.1317 -0.2216  0.2747
 4191TIP3    H112579   3.655   4.801   2.000 -0.8233 -1.7395 -1.7261
 4191TIP3    H212580   3.690   4.817   1.854  2.5855  0.3993 -0.7695
 4192TIP3   OH212581   0.364   5.526   3.628  0.4341 -0.3662 -0.1255
 4192TIP3    H112582   0.347   5.566   3.542  1.2975 -0.9597 -0.5895
 4192TIP3    H212583   0.394   5.437   3.607 -0.2136 -0.8155  0.8344
 4193TIP3   OH212584   6.019   5.803   2.005 -0.1181 -0.0790 -0.8002
 4193TIP3    H112585   6.102   5.764   2.032 -1.2494 -1.1382  1.4426
 4193TIP3    H212586   6.039   5.896   1.992  1.1512 -0.0221  1.1852
 4194TIP3   OH212587   1.890   4.243   0.578  0.1232 -0.5938  0.2030
 4194TIP3    H112588   1.827   4.180   0.612 -0.1875 -0.3961 -0.0072
 4194TIP3    H212589   1.853   4.328   0.601 -1.3158 -0.3379 -2.6851
 4195TIP3   OH212590   2.140   3.055   2.414 -0.2758  0.2067  0.2364
 4195TIP3    H112591   2.170   2.993   2.347 -0.8693  1.6416 -1.4174
 4195TIP3    H212592   2.093   3.000   2.477 -0.1353 -1.1242 -0.7638
 4196TIP3   OH212593   2.030   2.868   4.559  0.6391 -0.2653  0.4441
 4196TIP3    H112594   2.016   2.805   4.489  0.3299 -0.0567  0.3177
 4196TIP3    H212595   1.944   2.883   4.597  0.5240  0.8988 -0.2340
 4197TIP3   OH212596   4.085   2.666   4.226  0.0234 -0.3144 -0.3534
 4197TIP3    H112597   4.025   2.739   4.206  1.5188  1.1312  0.1636
 4197TIP3    H212598   4.146   2.665   4.153 -0.8132 -2.0477 -1.0814
 4198TIP3   OH212599   3.878   0.789   2.856 -0.1610  0.3802 -0.5303
 4198TIP3    H112600   3.807   0.775   2.794  0.4495  0.4273 -1.2451
 4198TIP3    H212601   3.903   0.701   2.885  0.2204  0.2949 -1.1093
 4199TIP3   OH212602   3.609   0.844   4.257  0.2614 -0.0660  0.0051
 4199TIP3    H112603   3.535   0.786   4.273  0.9306 -0.7918  0.5980
 4199TIP3    H212604   3.622   0.843   4.162 -0.3555 -0.0910 -0.0782
 4200TIP3   OH212605   4.929   3.488   1.780  0.3950  0.0853  0.5763
 4200TIP3    H112606   4.899   3.415   1.727 -0.5873  0.4200  0.6444
 4200TIP3    H212607   4.990   3.450   1.843 -0.9442 -0.8884  1.3434
 4201TIP3   OH212608   6.270   2.713   1.946  0.1579  0.1607 -0.1657
 4201TIP3    H112609   6.293   2.729   2.037  1.9521 -0.7091 -0.4337
 4201TIP3    H212610   6.352   2.724   1.898 -0.2290 -1.7326 -1.3578
 4202TIP3   OH212611   1.197   1.721   3.160 -0.3153 -0.3852 -0.0761
 4202TIP3    H112612   1.198   1.813   3.135 -0.5968 -0.0548  1.0742
 4202TIP3    H212613   1.250   1.717   3.240  0.4606 -1.3870 -0.6029
 4203TIP3   OH212614   2.605   1.409   2.563 -0.0719 -0.5900 -0.3535
 4203TIP3    H112615   2.585   1.322   2.530 -0.5891 -0.9495  0.8546
 4203TIP3    H212616   2.693   1.428   2.530 -0.3075 -1.1866 -1.3656
 4204TIP3   OH212617   2.437   0.569   1.957 -0.2083  0.6485 -0.6688
 4204TIP3    H112618   2.474   0.486   1.988  0.0760  1.2222  0.5894
 4204TIP3    H212619   2.423   0.556   1.863  2.7504  0.2168 -1.1381
 4205TIP3   OH212620   5.825   1.515   4.518  0.1124 -0.5091 -0.8130
 4205TIP3    H112621   5.845   1.599   4.560  1.7651 -0.6823 -1.1873
 4205TIP3    H212622   5.735   1.496   4.544 -0.3166  1.4086 -0.7795
 4206TIP3   OH212623   4.572   4.987   0.240  0.4220  0.1833  0.0388
 4206TIP3    H112624   4.564   5.078   0.210 -0.5283  0.3763  0.8135
 4206TIP3    H212625   4.486   4.949   0.222  0.6511 -0.4122  0.2014
 4207TIP3   OH212626   5.004   4.500   1.876  0.2463 -0.4210  0.1801
 4207TIP3    H112627   5.011   4.410   1.910  3.4231 -0.6585 -0.8035
 4207TIP3    H212628   4.994   4.554   1.954 -2.0972 -1.5796  0.7737
 4208TIP3   OH212629   1.525   0.571   0.085 -0.0888  0.1113 -0.0876
 4208TIP3    H112630   1.563   0.557   0.171  1.6345  1.2086 -0.6064
 4208TIP3    H212631   1.432   0.587   0.102  0.3003  0.8196  1.6298
 4209TIP3   OH212632   1.177   1.205   1.733 -0.2382 -0.1782  0.4379
 4209TIP3    H112633   1.160   1.256   1.654  0.6628  0.2646  0.5140
 4209TIP3    H212634   1.268   1.177   1.724 -0.9639 -2.6047 -0.0397
 4210TIP3   OH212635   4.031   0.084   2.639 -0.0831 -0.0557  0.3492
 4210TIP3    H112636   4.096   0.125   2.695 -0.9769  0.3378  1.1283
 4210TIP3    H212637   3.952   0.079   2.693 -0.8062 -0.1987 -0.6845
 4211TIP3   OH212638   3.718   3.196   2.741 -0.0377 -0.2644  0.1264
 4211TIP3    H112639   3.767   3.177   2.661  1.3593 -1.2529  1.1534
 4211TIP3    H212640   3.733   3.289   2.757 -0.5115 -0.0080 -0.8603
 4212TIP3   OH212641   4.394   3.927   2.363 -0.1093 -0.4031 -0.1280
 4212TIP3    H112642   4.406   3.856   2.301 -0.0651  0.3133 -0.9603
 4212TIP3    H212643   4.421   4.006   2.315 -0.2298  0.1840  0.7433
 4213TIP3   OH212644   1.264   2.304   1.538  0.4362 -0.1528  0.0791
 4213TIP3    H112645   1.356   2.327   1.532  0.6499 -1.2128 -1.1880
 4213TIP3    H212646   1.241   2.318   1.630  1.9643 -0.2693  0.4963
 4214TIP3   OH212647   3.812   2.439   3.270 -0.0308 -0.1948  0.3197
 4214TIP3    H112648   3.900   2.423   3.304  0.0118  0.2304  0.4075
 4214TIP3    H212649   3.775   2.351   3.259  1.0575 -0.4723 -1.4859
 4215TIP3   OH212650   2.800   3.064   3.624  0.0387  0.5982 -0.0671
 4215TIP3    H112651   2.800   3.125   3.697  1.1319  2.1625 -1.3126
 4215TIP3    H212652   2.797   2.978   3.665 -1.1663  1.4326  1.7540
 4216TIP3   OH212653   4.684   1.370   0.547 -0.4143 -0.2609 -0.4655
 4216TIP3    H112654   4.770   1.353   0.586 -1.2196 -1.7785  0.7564
 4216TIP3    H212655   4.677   1.466   0.546 -0.1622 -0.1100  2.8139
 4217TIP3   OH212656   0.698   5.843   1.116 -0.0042  0.0561 -0.1577
 4217TIP3    H112657   0.659   5.771   1.166 -0.4946  0.8765  0.6718
 4217TIP3    H212658   0.726   5.802   1.034 -1.0344 -0.9114 -0.0594
 4218TIP3   OH212659   1.653   0.402   2.679 -0.3447 -0.0811 -0.1365
 4218TIP3    H112660   1.744   0.401   2.708 -0.8154  1.4538  1.6068
 4218TIP3    H212661   1.637   0.314   2.644  1.4338 -0.7716  0.7092
 4219TIP3   OH212662   3.801   5.920   2.857  0.2085 -0.5772  0.1474
 4219TIP3    H112663   3.889   5.947   2.831 -0.7441  0.7605 -1.9096
 4219TIP3    H212664   3.788   5.959   2.944  1.2608  0.0838  0.0195
 4220TIP3   OH212665   1.207   5.937   3.688  0.3404  0.4253  0.6440
 4220TIP3    H112666   1.142   5.982   3.742 -0.9077  1.1792 -1.3415
 4220TIP3    H212667   1.163   5.858   3.657  1.9664 -1.4430  2.7820
 4221TIP3   OH212668   5.805   5.318   2.512 -0.1794  0.1661  0.5040
 4221TIP3    H112669   5.804   5.237   2.460  1.3355  0.0093  0.6642
 4221TIP3    H212670   5.799   5.388   2.447 -0.1269 -0.0590  0.2501
 4222TIP3   OH212671   1.192   4.535   1.293  0.0871  0.5142 -0.0259
 4222TIP3    H112672   1.132   4.605   1.264 -0.0061  0.1627 -0.7119
 4222TIP3    H212673   1.232   4.504   1.212  0.0031 -0.3454  0.2593
 4223TIP3   OH212674   4.441   0.926   2.995 -0.4792 -0.0612 -0.0835
 4223TIP3    H112675   4.408   1.010   2.963 -0.3937  1.7943  4.1208
 4223TIP3    H212676   4.371   0.892   3.050  0.4988 -1.5252  0.2982
 4224TIP3   OH212677   6.071   1.407   1.617  0.7331 -0.6570 -0.5071
 4224TIP3    H112678   6.101   1.421   1.527  0.0915 -0.7284 -0.7341
 4224TIP3    H212679   6.014   1.482   1.635  3.5656  1.3468  1.0888
 4225TIP3   OH212680   3.538   0.215   0.167  0.1324 -0.1474  0.1632
 4225TIP3    H112681   3.598   0.144   0.144 -0.5178 -1.7502  2.9734
 4225TIP3    H212682   3.458   0.196   0.118  0.2243 -0.9552  0.3100
 4226TIP3   OH212683   4.417   2.914   4.395  0.5364 -0.6306  0.7699
 4226TIP3    H112684   4.397   3.007   4.410 -1.2665 -1.1527  1.8634
 4226TIP3    H212685   4.483   2.915   4.325  0.5024  1.4578  0.7022
 4227TIP3   OH212686   2.975   1.240   2.963  0.3253  0.1634  0.0049
 4227TIP3    H112687   3.023   1.187   3.026  0.3823 -0.3648 -0.4780
 4227TIP3    H212688   2.924   1.301   3.017 -0.1793 -0.7491  0.5735
 4228TIP3   OH212689   2.050   2.221   4.273  0.3068 -0.2857  0.1026
 4228TIP3    H112690   2.101   2.180   4.343  3.2722  1.5108 -0.8477
 4228TIP3    H212691   2.028   2.308   4.307 -1.7223 -0.8016  0.2440
 4229TIP3   OH212692   2.536   5.591   0.329  0.3682  0.1276 -0.3933
 4229TIP3    H112693   2.579   5.660   0.379  1.0012  0.1217 -0.9158
 4229TIP3    H212694   2.480   5.546   0.392  0.0821  1.0078 -0.0151
 4230TIP3   OH212695   1.002   4.638   1.131 -0.0594 -0.5235 -0.7311
 4230TIP3    H112696   0.963   4.562   1.088 -2.4060  0.2907 -0.1728
 4230TIP3    H212697   0.989   4.710   1.070 -3.1877  0.5907  1.0197
 4231TIP3   OH212698   2.591   3.742   3.668  0.1170 -0.1345  0.0083
 4231TIP3    H112699   2.526   3.710   3.731  0.0902  1.2166  0.6981
 4231TIP3    H212700   2.567   3.701   3.586  0.0015 -1.7592  0.8062
 4232TIP3   OH212701   4.029   5.285   4.523  0.1331  0.1444 -0.3152
 4232TIP3    H112702   4.085   5.208   4.533 -1.7004 -1.4027 -1.2972
 4232TIP3    H212703   3.946   5.259   4.563 -1.7935  0.1066 -3.9735
 4233TIP3   OH212704   5.650   5.404   1.978 -0.4086 -0.0039  0.3672
 4233TIP3    H112705   5.703   5.471   1.935 -1.0518  0.8531  0.8753
 4233TIP3    H212706   5.633   5.340   1.909  0.4654  0.2001 -0.0531
 4234TIP3   OH212707   5.906   1.482   0.092  0.0896 -0.6952  0.0334
 4234TIP3    H112708   5.940   1.396   0.119  2.2771  0.0309 -0.2122
 4234TIP3    H212709   5.869   1.519   0.172  1.0450 -1.0268  0.6523
 4235TIP3   OH212710   3.303   0.937   3.116 -0.2923 -0.2981 -0.0200
 4235TIP3    H112711   3.230   0.951   3.176 -0.6265  1.1011 -0.7033
 4235TIP3    H212712   3.376   0.985   3.155 -0.4838  0.5315 -0.6528
 4236TIP3   OH212713   3.848   4.032   1.468  0.4423 -0.0397  0.4351
 4236TIP3    H112714   3.934   4.056   1.501 -0.5995  0.0471  3.3868
 4236TIP3    H212715   3.786   4.072   1.529 -1.7121 -0.4663 -1.3206
 4237TIP3   OH212716   2.677   5.924   2.613  0.1954  0.3987 -0.6501
 4237TIP3    H112717   2.761   5.905   2.571  1.6744 -0.3169  2.3247
 4237TIP3    H212718   2.629   5.842   2.611 -1.1535  1.1443 -3.5916
 4238TIP3   OH212719   5.428   4.161   0.954 -0.0250 -0.2843  0.1546
 4238TIP3    H112720   5.515   4.155   0.915 -0.1998 -0.2369 -0.2488
 4238TIP3    H212721   5.440   4.131   1.044  0.3987 -0.3226  0.0880
 4239TIP3   OH212722   4.617   4.463   4.215  0.3465  0.2413  0.1779
 4239TIP3    H112723   4.522   4.448   4.222 -0.1462  2.1326 -1.5600
 4239TIP3    H212724   4.651   4.438   4.301 -1.9639  1.0208  1.4203
 4240TIP3   OH212725   5.989   5.805   0.543 -0.3944 -0.0287 -0.4866
 4240TIP3    H112726   6.032   5.846   0.468  2.0149 -0.5670  0.5013
 4240TIP3    H212727   5.895   5.816   0.526  0.0904  1.1994 -2.7945
 4241TIP3   OH212728   2.547   3.211   2.911 -0.1216 -0.5832 -0.0454
 4241TIP3    H112729   2.543   3.291   2.859  0.5857 -0.9824 -0.7230
 4241TIP3    H212730   2.559   3.241   3.001 -0.2974  0.0759 -0.2380
 4242TIP3   OH212731   6.281   2.077   2.063  0.6197  0.1087  0.2975
 4242TIP3    H112732   6.217   2.020   2.106  0.5811  0.4502  0.6984
 4242TIP3    H212733   6.245   2.091   1.976  0.6461 -0.5055  0.1823
 4243TIP3   OH212734   6.282   3.368   1.580  0.1553 -0.5371 -0.0244
 4243TIP3    H112735   6.296   3.454   1.541  2.0544 -0.9418 -0.3271
 4243TIP3    H212736   6.297   3.307   1.507 -0.7307 -1.1631  0.2950
 4244TIP3   OH212737   2.081   4.693   4.822 -0.7060  0.2894 -0.3019
 4244TIP3    H112738   2.123   4.608   4.813  0.6975  0.8437  0.5947
 4244TIP3    H212739   2.081   4.709   4.917 -0.4239  1.5159 -0.4918
 4245TIP3   OH212740   6.175   4.186   0.142 -0.0250  0.0638 -0.0186
 4245TIP3    H112741   6.167   4.170   0.236 -2.5698  1.0664  0.0045
 4245TIP3    H212742   6.186   4.281   0.135  0.4141 -0.0336 -0.7453
 4246TIP3   OH212743   4.986   1.107   1.473 -0.0086  0.2783  0.4085
 4246TIP3    H112744   4.914   1.117   1.536  0.6638  0.0743  1.2309
 4246TIP3    H212745   5.042   1.040   1.512  1.2464  1.2796  0.3750
 4247TIP3   OH212746   4.513   4.051   1.372 -0.4735 -0.8193  0.3948
 4247TIP3    H112747   4.466   4.041   1.455 -1.4297 -0.0320 -0.0474
 4247TIP3    H212748   4.446   4.045   1.304  0.0741  0.1721 -0.2550
 4248TIP3   OH212749   1.498   0.151   2.675 -0.3197 -0.1673  0.4788
 4248TIP3    H112750   1.559   0.078   2.672 -0.8453 -0.5855 -0.4566
 4248TIP3    H212751   1.453   0.141   2.759  0.8409  0.1158  1.1489
 4249TIP3   OH212752   3.125   5.870   0.949  0.2607 -0.1459 -0.4659
 4249TIP3    H112753   3.173   5.874   0.866  0.2416  0.4724 -0.4481
 4249TIP3    H212754   3.174   5.806   1.001 -1.0983 -2.4126 -1.8102
 4250TIP3   OH212755   0.048   2.192   0.357 -0.1607  0.0514  0.0852
 4250TIP3    H112756   0.110   2.138   0.407 -0.4692  0.0241  0.4421
 4250TIP3    H212757   0.077   2.184   0.266  0.2446 -0.1148  0.2267
 4251TIP3   OH212758   4.083   3.878   0.853  0.5290 -0.0229  0.2945
 4251TIP3    H112759   4.005   3.930   0.837 -0.2848 -0.9774  1.0018
 4251TIP3    H212760   4.069   3.797   0.804  1.0575 -0.2220  0.4602
 4252TIP3   OH212761   0.269   1.868   3.511  0.3989 -0.0944  0.1451
 4252TIP3    H112762   0.273   1.830   3.599 -0.1396  0.1121  0.2691
 4252TIP3    H212763   0.304   1.801   3.453  0.5184 -0.3319  0.4891
 4253TIP3   OH212764   0.388   5.504   1.599  0.1568 -0.2355  0.3606
 4253TIP3    H112765   0.305   5.465   1.626 -0.6746 -0.7680 -2.5545
 4253TIP3    H212766   0.442   5.429   1.573  0.7418  0.2218  0.2269
 4254TIP3   OH212767   1.827   1.360   2.269  0.3313 -0.0232  0.3458
 4254TIP3    H112768   1.904   1.316   2.234 -0.8009  0.5011 -3.1646
 4254TIP3    H212769   1.772   1.290   2.303  1.1002 -0.6847  0.2590
 4255TIP3   OH212770   4.782   0.408   2.791 -0.2944 -0.0818 -0.4621
 4255TIP3    H112771   4.809   0.340   2.730 -0.2061  0.4659 -1.0453
 4255TIP3    H212772   4.693   0.430   2.765 -0.0621  0.5432 -0.7631
 4256TIP3   OH212773   2.072   1.982   2.111  0.2154  0.0559 -0.5294
 4256TIP3    H112774   2.167   1.978   2.115  0.2567 -0.9211 -1.7935
 4256TIP3    H212775   2.051   2.075   2.113  0.9919  0.2682  2.7364
 4257TIP3   OH212776   6.054   0.109   2.617 -0.1598 -0.1695 -0.1733
 4257TIP3    H112777   6.142   0.112   2.655 -0.4066 -1.8182  0.6086
 4257TIP3    H212778   6.002   0.166   2.674  0.0815 -0.3807  0.2656
 4258TIP3   OH212779   5.085   3.175   2.240 -0.6889  0.1687  0.0333
 4258TIP3    H112780   5.044   3.134   2.164  1.8766  0.6042 -1.7181
 4258TIP3    H212781   5.139   3.106   2.278  0.9762  0.9277 -0.8703
 4259TIP3   OH212782   0.944   2.753   3.494 -0.0856  0.3317  0.6764
 4259TIP3    H112783   0.899   2.778   3.414 -0.5954  2.2760  1.4959
 4259TIP3    H212784   0.898   2.802   3.563  1.1412 -0.2766  1.9728
 4260TIP3   OH212785   5.524   5.082   2.238 -0.0302 -0.0133  0.2718
 4260TIP3    H112786   5.454   5.144   2.216 -0.0088 -0.4179 -0.9984
 4260TIP3    H212787   5.490   5.034   2.314 -1.0145  0.0209 -0.1270
 4261TIP3   OH212788   5.975   3.586   0.610 -0.2523 -0.3841 -0.0679
 4261TIP3    H112789   5.967   3.493   0.592 -1.1912 -0.5287  0.9917
 4261TIP3    H212790   6.006   3.624   0.528 -0.1975 -1.5784 -0.6108
 4262TIP3   OH212791   3.278   4.700   3.103  0.5326 -0.0016 -0.0374
 4262TIP3    H112792   3.321   4.762   3.162  0.6493  0.1438 -0.2712
 4262TIP3    H212793   3.201   4.670   3.151  2.0163 -1.9315  1.3000
 4263TIP3   OH212794   0.410   4.910   0.806 -0.4922 -0.2423  0.2123
 4263TIP3    H112795   0.372   4.991   0.839 -0.0425  0.1267 -0.1558
 4263TIP3    H212796   0.337   4.847   0.807 -0.7699  0.0802  0.7725
 4264TIP3   OH212797   4.399   3.720   2.205  0.2628  0.4171 -0.5123
 4264TIP3    H112798   4.437   3.637   2.178 -0.6925 -0.0511 -0.4596
 4264TIP3    H212799   4.314   3.723   2.161  1.0152  2.1964 -1.9421
 4265TIP3   OH212800   5.557   4.537   2.885 -0.3065  0.6304 -0.0282
 4265TIP3    H112801   5.614   4.576   2.819 -0.4415 -2.2001 -2.0020
 4265TIP3    H212802   5.488   4.494   2.835 -1.0796 -0.6748  2.0183
 4266TIP3   OH212803   2.041   1.250   3.496  0.1173  0.1098 -0.0738
 4266TIP3    H112804   1.957   1.272   3.456  0.7572 -0.3236 -1.7570
 4266TIP3    H212805   2.085   1.196   3.430  1.9819  0.8696  0.4972
 4267TIP3   OH212806   4.551   1.302   4.864  0.1864 -0.4720 -0.2950
 4267TIP3    H112807   4.497   1.331   4.791 -0.1458  0.8767  0.4556
 4267TIP3    H212808   4.589   1.382   4.900  1.2312 -1.2142  0.3377
 4268TIP3   OH212809   0.555   5.685   2.758 -0.2847  0.3971 -0.7287
 4268TIP3    H112810   0.570   5.609   2.814  1.7968  0.8475 -0.5864
 4268TIP3    H212811   0.531   5.755   2.819 -0.9438  0.1675 -0.7229
 4269TIP3   OH212812   4.148   5.688   5.079  0.2283 -0.4607 -0.7900
 4269TIP3    H112813   4.065   5.663   5.119  0.4400 -0.4119 -0.3073
 4269TIP3    H212814   4.184   5.606   5.045  0.9578 -0.8665  0.8526
 4270TIP3   OH212815   3.893   4.748   4.398 -0.5887 -0.1757 -0.1771
 4270TIP3    H112816   3.871   4.841   4.407 -1.6370 -0.4930  0.6811
 4270TIP3    H212817   3.890   4.732   4.303  1.6068  1.1007 -0.5395
 4271TIP3   OH212818   5.429   2.780   4.158 -0.5619  0.3990 -0.3619
 4271TIP3    H112819   5.350   2.766   4.105 -1.2711  0.0509  0.7536
 4271TIP3    H212820   5.425   2.872   4.183 -1.5188  0.0048  1.0567
 4272TIP3   OH212821   0.279   1.057   0.259 -0.0851 -0.4492 -0.0507
 4272TIP3    H112822   0.364   1.091   0.231  0.1893 -2.5682 -2.1086
 4272TIP3    H212823   0.216   1.123   0.229  0.6846  0.2856 -0.0883
 4273TIP3   OH212824   3.709   0.451   1.921 -0.0184 -0.4207 -0.1132
 4273TIP3    H112825   3.778   0.403   1.966  2.0274  0.5374 -2.0183
 4273TIP3    H212826   3.704   0.411   1.834 -1.4032 -0.0339 -0.2396
 4274TIP3   OH212827   5.119   0.994   5.068  0.7827  0.0701  0.2033
 4274TIP3    H112828   5.186   1.057   5.096  0.8397  1.7636 -3.1654
 4274TIP3    H212829   5.040   1.047   5.059 -0.0841 -1.1300  0.5785
 4275TIP3   OH212830   5.477   5.473   5.086  0.2200  0.4941 -0.0530
 4275TIP3    H112831   5.430   5.546   5.045 -0.0801  0.1469 -0.3330
 4275TIP3    H212832   5.448   5.474   5.178 -0.0528  0.5133 -0.1377
 4276TIP3   OH212833   2.239   3.045   3.127 -0.2644  0.3000 -0.1629
 4276TIP3    H112834   2.265   2.988   3.200 -0.5781 -0.1951 -0.4277
 4276TIP3    H212835   2.280   3.129   3.147  0.5453 -0.1254  0.0350
 4277TIP3   OH212836   5.140   0.666   3.590  0.2928 -0.2181  0.4888
 4277TIP3    H112837   5.120   0.573   3.586 -0.0758 -0.1110 -1.5394
 4277TIP3    H212838   5.221   0.675   3.538  0.3515  0.5721  0.6977
 4278TIP3   OH212839   0.846   1.852   1.629 -0.1807 -0.5114  0.1732
 4278TIP3    H112840   0.814   1.930   1.674  0.0580 -0.0141 -0.5049
 4278TIP3    H212841   0.781   1.836   1.560  1.3500  0.9423 -1.6950
 4279TIP3   OH212842   1.628   5.518   1.039 -0.2986 -0.4131 -0.2426
 4279TIP3    H112843   1.664   5.573   1.109  1.0187  0.3687 -1.4682
 4279TIP3    H212844   1.576   5.577   0.986  0.2156 -0.5691 -0.9430
 4280TIP3   OH212845   0.735   2.559   2.938 -0.2579  0.0652  0.1880
 4280TIP3    H112846   0.680   2.527   2.867 -0.3551 -0.1710  0.3705
 4280TIP3    H212847   0.722   2.654   2.938  1.9396  0.4797 -1.9983
 4281TIP3   OH212848   4.350   0.914   2.109 -0.0641  0.0585 -0.0960
 4281TIP3    H112849   4.312   0.897   2.195 -2.0892  1.1069 -0.7098
 4281TIP3    H212850   4.355   0.828   2.066  0.2779 -0.3650  0.7765
 4282TIP3   OH212851   5.927   5.780   0.053 -0.5089  0.0251  0.2104
 4282TIP3    H112852   5.849   5.828   0.080 -1.8633 -1.9643 -0.0102
 4282TIP3    H212853   5.952   5.728   0.129 -1.1826 -1.5678 -0.6116
 4283TIP3   OH212854   2.157   1.388   1.455 -0.1384 -0.0580  0.2369
 4283TIP3    H112855   2.247   1.356   1.449  0.3729  1.1569  1.1056
 4283TIP3    H212856   2.151   1.454   1.386  0.0872  0.8379  1.0456
 4284TIP3   OH212857   5.915   3.460   4.417 -0.0999 -0.5924  0.6432
 4284TIP3    H112858   5.904   3.555   4.406 -2.2753 -0.8547  0.0863
 4284TIP3    H212859   5.938   3.428   4.330  1.5611 -0.5178  1.0164
 4285TIP3   OH212860   1.076   4.399   3.279 -0.5341 -0.0647  0.2900
 4285TIP3    H112861   1.049   4.484   3.245  0.7359 -0.1429 -1.0014
 4285TIP3    H212862   1.163   4.384   3.240 -0.5684 -1.7696  0.8052
 4286TIP3   OH212863   4.089   0.571   5.205 -0.0545  0.3139  0.5619
 4286TIP3    H112864   4.051   0.651   5.170 -0.2240  0.0349  0.0936
 4286TIP3    H212865   4.047   0.501   5.155  0.8305 -0.0148  0.2519
 4287TIP3   OH212866   2.769   2.976   2.620  0.0998 -0.1257  0.2692
 4287TIP3    H112867   2.790   2.939   2.534  1.4242  1.0175  0.0753
 4287TIP3    H212868   2.806   2.914   2.683 -2.3768 -1.8938  0.1285
 4288TIP3   OH212869   0.741   3.493   0.342 -0.2924 -0.5210 -0.2760
 4288TIP3    H112870   0.773   3.523   0.257 -1.1473 -0.7258 -0.6883
 4288TIP3    H212871   0.647   3.513   0.340  0.0363  1.6154  1.5299
 4289TIP3   OH212872   0.121   3.950   3.213  0.0856  0.0457  0.4162
 4289TIP3    H112873   0.204   3.958   3.166 -0.6398 -1.4684 -1.2434
 4289TIP3    H212874   0.055   3.976   3.149 -0.7967  0.4084  1.4387
 4290TIP3   OH212875   5.520   2.990   0.224  0.5697 -0.2146  0.5622
 4290TIP3    H112876   5.524   3.018   0.133  0.0975  0.4187  0.7295
 4290TIP3    H212877   5.600   2.938   0.237  0.1866 -1.1061 -0.4667
 4291TIP3   OH212878   4.211   5.733   2.992  0.1440 -0.5491  0.3918
 4291TIP3    H112879   4.165   5.772   3.066 -0.1368 -0.0697 -0.0317
 4291TIP3    H212880   4.292   5.784   2.985  1.5970 -2.4134  2.1679
 4292TIP3   OH212881   1.942   3.226   2.118  0.1778  0.2372  0.4654
 4292TIP3    H112882   1.949   3.304   2.173 -0.7750  0.0831  0.8074
 4292TIP3    H212883   1.855   3.232   2.079  0.7160  0.1796 -0.7886
 4293TIP3   OH212884   3.405   1.763   5.184 -0.2219 -0.0184 -0.3035
 4293TIP3    H112885   3.491   1.804   5.196 -0.6119  0.4866  1.0276
 4293TIP3    H212886   3.395   1.755   5.089  0.7924  1.0090 -0.5264
 4294TIP3   OH212887   1.455   1.668   1.711  0.3241  0.2475 -0.2602
 4294TIP3    H112888   1.378   1.651   1.766 -0.4963  1.3073 -1.0359
 4294TIP3    H212889   1.528   1.670   1.772 -0.3189 -0.3572  0.5590
 4295TIP3   OH212890   5.073   2.688   1.204  0.8193 -0.0519  0.6544
 4295TIP3    H112891   4.988   2.730   1.196  1.2399  0.7175  0.1781
 4295TIP3    H212892   5.055   2.606   1.250 -0.2053  0.0041  0.3628
 4296TIP3   OH212893   5.639   0.871   1.026 -0.0616  0.4743 -0.3149
 4296TIP3    H112894   5.655   0.935   1.095 -0.3927  0.9093 -0.6361
 4296TIP3    H212895   5.724   0.854   0.988  0.3871 -0.8942  1.1642
 4297TIP3   OH212896   1.945   3.690   4.941 -0.1794 -0.5946  0.1797
 4297TIP3    H112897   1.898   3.607   4.936  1.6379 -1.6776  0.2788
 4297TIP3    H212898   1.961   3.714   4.850 -1.0551 -0.1298  0.1416
 4298TIP3   OH212899   5.302   0.820   0.778 -0.2224  0.2152 -0.5615
 4298TIP3    H112900   5.286   0.750   0.715  0.6583 -0.1169 -0.4372
 4298TIP3    H212901   5.309   0.774   0.863  2.1847  0.1623 -0.7013
 4299TIP3   OH212902   1.189   5.335   1.927  0.1559  0.5596  0.0652
 4299TIP3    H112903   1.254   5.278   1.967 -0.7894 -1.1012 -0.6421
 4299TIP3    H212904   1.157   5.390   1.999 -0.3492 -1.2316  1.2802
 4300TIP3   OH212905   1.020   5.486   4.599  0.5309 -0.1342  0.0967
 4300TIP3    H112906   0.933   5.463   4.567  0.7698 -0.6144 -0.2280
 4300TIP3    H212907   1.079   5.458   4.528  0.9267  0.3830  0.2210
 4301TIP3   OH212908   2.418   2.610   2.140 -0.6366  0.7236 -0.0731
 4301TIP3    H112909   2.509   2.585   2.151 -0.7402 -0.5802 -1.8137
 4301TIP3    H212910   2.400   2.667   2.215  1.2983  0.2098  0.8514
 4302TIP3   OH212911   3.580   3.882   3.553 -0.4130 -0.0334 -0.3487
 4302TIP3    H112912   3.647   3.822   3.520  0.0568  0.3924 -0.1734
 4302TIP3    H212913   3.629   3.957   3.586 -1.0194  0.6344 -0.9350
 4303TIP3   OH212914   5.435   5.331   1.062 -0.2065 -0.2800  0.1198
 4303TIP3    H112915   5.447   5.396   0.993 -1.4199 -0.0220  0.1352
 4303TIP3    H212916   5.351   5.353   1.102  0.4106 -0.5028  1.6096
 4304TIP3   OH212917   4.335   4.895   0.895 -0.6036  0.0792  0.5504
 4304TIP3    H112918   4.254   4.845   0.892 -0.5976  0.0239  1.2056
 4304TIP3    H212919   4.318   4.967   0.955 -1.8645  3.1647 -3.0818
 4305TIP3   OH212920   0.857   4.520   2.917  0.1525 -0.3068 -0.1356
 4305TIP3    H112921   0.807   4.591   2.879  0.2425  0.1687  0.6164
 4305TIP3    H212922   0.896   4.557   2.996 -1.4091 -1.7135  1.3868
 4306TIP3   OH212923   4.209   1.066  -0.005  0.5790 -0.2060  0.5144
 4306TIP3    H112924   4.150   1.094   0.064 -0.2555 -1.6097  0.3938
 4306TIP3    H212925   4.269   1.005   0.037  1.9426  1.1361  0.6182
 4307TIP3   OH212926   2.151   3.823   3.986 -0.8492  0.2592 -0.3270
 4307TIP3    H112927   2.060   3.825   4.015 -0.4245  1.0804  1.0119
 4307TIP3    H212928   2.154   3.885   3.913 -1.2492  0.5870 -0.0646
 4308TIP3   OH212929   4.682   2.129   1.936  0.0583 -0.1549  0.3486
 4308TIP3    H112930   4.635   2.083   1.866 -1.2198 -0.8365  1.5934
 4308TIP3    H212931   4.612   2.166   1.991  0.8969 -1.6966  2.6079
 4309TIP3   OH212932   1.665   5.984   3.931  0.2757 -0.2415 -0.5663
 4309TIP3    H112933   1.660   5.889   3.938  0.1265 -0.2695 -1.0227
 4309TIP3    H212934   1.578   6.011   3.899 -0.3338  0.2262  1.3864
 4310TIP3   OH212935   5.847   4.209   3.814 -0.0542 -0.0159  0.5634
 4310TIP3    H112936   5.784   4.223   3.743 -0.8785  1.3033  1.5219
 4310TIP3    H212937   5.811   4.135   3.864 -1.1913  1.0703  1.4247
 4311TIP3   OH212938   6.036   0.882   4.074  0.4477  0.0564 -0.0884
 4311TIP3    H112939   6.038   0.837   3.990  0.0720  0.8759 -0.5388
 4311TIP3    H212940   6.076   0.967   4.057 -2.9251  1.7278 -0.3513
 4312TIP3   OH212941   1.290   1.705   3.424 -0.0225 -0.4066  0.1358
 4312TIP3    H112942   1.257   1.679   3.510  0.1898 -1.0420  0.0330
 4312TIP3    H212943   1.353   1.637   3.401 -0.2483 -0.3670 -0.6277
 4313TIP3   OH212944   3.511   4.443   2.824 -0.0606  0.1328 -0.1060
 4313TIP3    H112945   3.467   4.527   2.833  1.0335  0.5960  1.2496
 4313TIP3    H212946   3.586   4.448   2.883  0.2175 -1.6803 -0.2292
 4314TIP3   OH212947   4.859   2.673   2.689  0.4046  0.5958 -0.3422
 4314TIP3    H112948   4.860   2.659   2.594 -0.0276 -0.2014 -0.2386
 4314TIP3    H212949   4.902   2.596   2.725 -0.6257  0.2442  0.1752
 4315TIP3   OH212950   3.526   4.154   1.582 -0.5914  0.2863  0.4946
 4315TIP3    H112951   3.561   4.217   1.518  0.5108 -2.1379 -1.4791
 4315TIP3    H212952   3.598   4.140   1.643 -1.0281  1.3018  1.2602
 4316TIP3   OH212953   2.471   0.163   1.547 -0.5009  0.1174 -0.8077
 4316TIP3    H112954   2.453   0.157   1.453 -1.3475 -2.8613 -0.5598
 4316TIP3    H212955   2.525   0.086   1.566  2.3598  2.2665  0.7119
 4317TIP3   OH212956   1.027   4.032   0.186 -0.0105  0.4265 -0.2159
 4317TIP3    H112957   0.946   4.053   0.139  0.2536 -0.1415 -0.9483
 4317TIP3    H212958   1.025   3.937   0.196 -0.2552  0.5576  1.3227
 4318TIP3   OH212959   6.030   3.002   3.882 -0.3087 -0.0166 -0.0346
 4318TIP3    H112960   6.103   2.950   3.915 -1.5208 -1.6511  0.2285
 4318TIP3    H212961   5.965   2.937   3.856 -1.8530  1.3801  0.1845
 4319TIP3   OH212962   2.090   4.106   0.447  0.1953  0.8843  0.0588
 4319TIP3    H112963   2.067   4.108   0.354 -1.0416  1.4472  0.3514
 4319TIP3    H212964   2.025   4.163   0.489  0.5932  0.4585  1.2984
 4320TIP3   OH212965   4.964   0.123   3.096  0.2733 -0.1523  0.1746
 4320TIP3    H112966   4.924   0.197   3.140 -2.3189 -2.1795  1.5282
 4320TIP3    H212967   5.033   0.093   3.156  0.2205  0.1768  0.3994
 4321TIP3   OH212968   4.767   4.335   3.334  0.4231  0.3518  0.2416
 4321TIP3    H112969   4.844   4.387   3.359  1.8303 -1.6994  0.4660
 4321TIP3    H212970   4.803   4.267   3.277 -1.7004  0.9676 -1.9876
 4322TIP3   OH212971   2.038   1.552   3.745 -0.2526 -0.1505 -0.2796
 4322TIP3    H112972   2.030   1.457   3.753 -0.3371 -0.1027  0.1799
 4322TIP3    H212973   2.133   1.568   3.750 -0.3447 -0.0079  1.9499
 4323TIP3   OH212974   0.567   1.939   1.015  0.2671 -0.2523  0.5315
 4323TIP3    H112975   0.562   1.974   1.104  1.4657  0.3559  0.3868
 4323TIP3    H212976   0.636   1.991   0.973  0.4329 -1.2126 -0.4342
 4324TIP3   OH212977   0.802   1.668   4.695 -0.1511  0.2861  0.1511
 4324TIP3    H112978   0.867   1.613   4.651  0.5693  0.3853  1.0566
 4324TIP3    H212979   0.718   1.633   4.666  0.2990 -0.5734 -0.1669
 4325TIP3   OH212980   1.187   1.509   4.086 -0.0846  0.4776 -0.2500
 4325TIP3    H112981   1.238   1.545   4.014 -0.9662  2.1917 -0.0719
 4325TIP3    H212982   1.096   1.524   4.062 -0.6708 -3.0538 -0.8435
 4326TIP3   OH212983   2.006   5.601   0.019  0.0733  0.1784 -0.0977
 4326TIP3    H112984   1.920   5.633  -0.008 -1.2050 -2.1155  0.9646
 4326TIP3    H212985   1.988   5.544   0.093  2.2909 -1.8148 -0.9576
 4327TIP3   OH212986   5.897   2.580   0.130  0.4011  0.1837  0.3441
 4327TIP3    H112987   5.812   2.615   0.158  0.5754  1.7798 -0.9841
 4327TIP3    H212988   5.950   2.579   0.210 -0.5798 -0.0134  1.0102
 4328TIP3   OH212989   5.264   1.745   1.679  0.1813 -0.0633  0.8975
 4328TIP3    H112990   5.215   1.724   1.759  1.8273  0.2967  2.0557
 4328TIP3    H212991   5.242   1.837   1.662 -0.0177 -0.0785  1.0576
 4329TIP3   OH212992   2.361   5.567   4.283 -0.0408  0.3859  0.3587
 4329TIP3    H112993   2.404   5.600   4.204 -1.5236 -0.0845 -0.6946
 4329TIP3    H212994   2.301   5.637   4.308  0.1769  0.3886  0.8734
 4330TIP3   OH212995   5.727   5.068   4.890 -0.0066 -0.1981  1.1683
 4330TIP3    H112996   5.753   5.121   4.815  0.1126 -0.2137  1.1982
 4330TIP3    H212997   5.682   5.128   4.949  1.0867  0.1100  1.7045
 4331TIP3   OH212998   3.298   0.565   0.093 -0.0436 -0.6345 -0.4716
 4331TIP3    H112999   3.234   0.527   0.033 -0.0199 -0.6039 -0.5156
 4331TIP3    H213000   3.371   0.593   0.038 -1.9218  3.7507 -1.1269
 4332TIP3   OH213001   5.287   2.618   3.702 -0.1570 -0.4028 -0.3148
 4332TIP3    H113002   5.239   2.691   3.742 -1.0211 -0.5227 -1.1004
 4332TIP3    H213003   5.328   2.657   3.624  0.4670 -0.4649 -0.0254
 4333TIP3   OH213004   4.513   1.282   2.191 -0.0412 -0.6444  0.4396
 4333TIP3    H113005   4.508   1.363   2.139 -1.8944 -0.3531  1.0241
 4333TIP3    H213006   4.495   1.212   2.128 -2.3219 -0.2888  0.6114
 4334TIP3   OH213007   5.771   3.886   1.266 -0.1397  0.0454 -0.7190
 4334TIP3    H113008   5.803   3.812   1.317 -0.4714  0.4952  0.1597
 4334TIP3    H213009   5.835   3.896   1.195  0.9218  0.0795  0.2172
 4335TIP3   OH213010   6.041   1.892   3.016  0.1033  0.0294  0.1086
 4335TIP3    H113011   6.013   1.950   2.945  0.5161  0.1472  0.0377
 4335TIP3    H213012   6.084   1.819   2.971 -0.3413 -0.2957  0.2018
 4336TIP3   OH213013   4.830   3.689   0.348 -0.3003 -0.0324 -0.0470
 4336TIP3    H113014   4.814   3.738   0.428 -1.3048  0.7536 -0.6977
 4336TIP3    H213015   4.746   3.648   0.328  0.2493 -1.1894 -0.0826
 4337TIP3   OH213016   0.813   4.156   0.613 -0.0064 -0.0577  0.1685
 4337TIP3    H113017   0.831   4.062   0.610 -0.0096 -0.0754  0.6208
 4337TIP3    H213018   0.769   4.169   0.697  0.0556  0.3605  0.1378
 4338TIP3   OH213019   0.491   1.048   1.649 -0.0883  0.6593  0.0568
 4338TIP3    H113020   0.456   1.051   1.738 -1.2637 -0.7052 -0.3250
 4338TIP3    H213021   0.579   1.086   1.656  0.6430 -1.2021  2.1807
 4339TIP3   OH213022   5.362   5.350   2.579 -0.1485 -0.7205 -0.0897
 4339TIP3    H113023   5.274   5.377   2.605 -0.6870  2.3426 -4.0512
 4339TIP3    H213024   5.349   5.300   2.498  1.7465 -0.4353 -0.6219
 4340TIP3   OH213025   1.368   5.477   3.025  1.1069 -0.4300  0.3245
 4340TIP3    H113026   1.365   5.507   3.116  0.8758  0.4638  0.0335
 4340TIP3    H213027   1.429   5.537   2.982 -3.2997  3.3260 -1.5149
 4341TIP3   OH213028   3.873   3.631   1.721 -0.3114  0.0645  0.2029
 4341TIP3    H113029   3.901   3.709   1.768 -1.5011 -0.3064  1.5800
 4341TIP3    H213030   3.863   3.660   1.630 -0.4139  1.4306  0.6372
 4342TIP3   OH213031   4.580   2.097   0.801 -0.1007 -0.3388 -0.1065
 4342TIP3    H113032   4.587   2.045   0.720  3.0626 -1.6782  0.8854
 4342TIP3    H213033   4.667   2.136   0.812 -0.7493  0.6160  2.1757
 4343TIP3   OH213034   0.484   1.415   3.067 -0.2004  0.2116  0.2210
 4343TIP3    H113035   0.528   1.369   2.995 -1.9637 -1.4566  0.1578
 4343TIP3    H213036   0.555   1.461   3.112  1.1432  0.1743 -1.7412
 4344TIP3   OH213037   5.875   2.068   0.796  0.2132  0.0930  0.0816
 4344TIP3    H113038   5.837   2.003   0.856  0.6018 -0.8311 -0.6505
 4344TIP3    H213039   5.968   2.045   0.793  0.4998  1.1591  0.3814
 4345TIP3   OH213040   6.104   1.155   1.688  0.2846 -0.1501  0.1122
 4345TIP3    H113041   6.025   1.140   1.636 -0.5601  1.3069  0.9241
 4345TIP3    H213042   6.115   1.250   1.688  1.6331 -0.2893  0.6199
 4346TIP3   OH213043   6.321   4.030   1.045  0.4178  0.5454  0.3605
 4346TIP3    H113044   6.241   4.045   1.095  0.4724  0.3374  0.5127
 4346TIP3    H213045   6.299   3.959   0.984  0.6894 -0.0119  0.8919
 4347TIP3   OH213046   4.354   1.036   0.743 -0.2850  0.0224 -0.5179
 4347TIP3    H113047   4.388   1.063   0.657 -0.0398 -0.3109 -0.5301
 4347TIP3    H213048   4.394   0.950   0.758  1.6196  1.0845  1.0198
 4348TIP3   OH213049   5.965   3.299   2.931  0.1946  0.2710  0.3003
 4348TIP3    H113050   6.027   3.247   2.983  1.0348  1.3822  0.4361
 4348TIP3    H213051   5.880   3.283   2.972  0.3815 -1.1525  0.2112
 4349TIP3   OH213052   6.187   0.998   1.348  0.2684 -0.3402  0.0782
 4349TIP3    H113053   6.208   0.907   1.325  1.4313  0.2040 -1.1017
 4349TIP3    H213054   6.250   1.020   1.416  1.9751  0.4813 -1.6879
 4350TIP3   OH213055   3.182   5.712   1.804 -0.2012 -0.1193 -0.0098
 4350TIP3    H113056   3.154   5.756   1.724  2.1180 -0.5264 -1.1390
 4350TIP3    H213057   3.278   5.718   1.802 -0.0685 -0.0064  2.8336
 4351TIP3   OH213058   0.679   1.661   0.594 -0.1801 -0.4255 -0.1652
 4351TIP3    H113059   0.672   1.664   0.689  1.9665 -0.3222  0.0248
 4351TIP3    H213060   0.686   1.568   0.573  1.3962 -0.3576 -0.0173
 4352TIP3   OH213061   1.005   3.883   1.497 -0.5343 -0.2633 -0.2652
 4352TIP3    H113062   1.046   3.933   1.567  0.7817 -0.0619 -1.1500
 4352TIP3    H213063   1.020   3.791   1.520 -0.3558 -0.2041 -0.1483
 4353TIP3   OH213064   4.148   2.338   3.073  0.3421 -0.6873  0.5721
 4353TIP3    H113065   4.089   2.413   3.069  1.3383  0.1816  1.4101
 4353TIP3    H213066   4.099   2.272   3.121  0.1106  0.0974  1.4455
 4354TIP3   OH213067   3.994   0.047   2.125  0.5646  0.3220 -0.4038
 4354TIP3    H113068   4.025   0.044   2.215  0.8323  0.3985 -0.4942
 4354TIP3    H213069   4.042  -0.023   2.080  0.6059  0.4390 -0.5422
 4355TIP3   OH213070   4.596   4.606   0.571  0.7645 -0.0728  0.3034
 4355TIP3    H113071   4.504   4.618   0.548  1.2209  2.9043 -0.4192
 4355TIP3    H213072   4.626   4.535   0.515 -1.3769 -2.1569  1.6225
 4356TIP3   OH213073   3.254   0.560   0.489  0.2964  0.2284 -0.2537
 4356TIP3    H113074   3.160   0.570   0.507  0.1822  0.0008 -0.7312
 4356TIP3    H213075   3.297   0.604   0.563 -0.1883  0.7032 -0.2506
 4357TIP3   OH213076   3.193   5.861   4.922  0.5726 -0.2867  0.1160
 4357TIP3    H113077   3.218   5.952   4.935 -1.0410  0.5226 -1.9413
 4357TIP3    H213078   3.255   5.828   4.856  0.3358 -0.2915 -0.1032
 4358TIP3   OH213079   2.830   1.752   3.458  0.4507  0.1375 -0.1378
 4358TIP3    H113080   2.766   1.682   3.470  1.4764 -0.9211 -0.6785
 4358TIP3    H213081   2.780   1.833   3.472 -0.4228 -0.7057  2.1073
 4359TIP3   OH213082   4.526   2.653   2.104 -0.5530 -0.3684 -0.4057
 4359TIP3    H113083   4.591   2.610   2.160 -0.6242  0.4422  0.3276
 4359TIP3    H213084   4.477   2.710   2.164 -2.1449 -1.1858 -0.8698
 4360TIP3   OH213085   0.136   3.166   4.445  0.2410  0.4716 -0.6691
 4360TIP3    H113086   0.157   3.088   4.496  1.1916  1.0672 -0.1076
 4360TIP3    H213087   0.066   3.138   4.386 -1.3368 -0.1125  1.3328
 4361TIP3   OH213088   5.550   0.783   1.336 -0.1218 -0.0102 -0.8340
 4361TIP3    H113089   5.498   0.739   1.269 -0.9246 -0.3241 -0.0264
 4361TIP3    H213090   5.488   0.841   1.380 -0.2347 -1.5628  1.2155
 4362TIP3   OH213091   1.440   1.307   2.286  0.0282  0.7395  0.1298
 4362TIP3    H113092   1.472   1.383   2.237  0.5708  0.4261  0.0035
 4362TIP3    H213093   1.378   1.264   2.226  1.2131 -0.0424 -0.5639
 4363TIP3   OH213094   2.725   4.450   2.064 -0.2926  0.5316 -0.1760
 4363TIP3    H113095   2.747   4.529   2.113 -0.2057  0.7972 -0.6429
 4363TIP3    H213096   2.701   4.386   2.131  0.0755  0.8145  0.2274
 4364TIP3   OH213097   1.245   4.181   2.613  0.1431  0.5209 -0.1151
 4364TIP3    H113098   1.300   4.158   2.539  1.1097 -1.3568  1.1009
 4364TIP3    H213099   1.273   4.269   2.637  1.4424  0.2459 -0.5638
 4365TIP3   OH213100   3.941   3.094   1.170  0.6814 -0.3586 -0.4257
 4365TIP3    H113101   3.850   3.115   1.151  0.9569  1.5358  0.1509
 4365TIP3    H213102   3.941   3.001   1.191 -1.2074 -0.2568  0.1599
 4366TIP3   OH213103   5.853   0.456   0.331  0.2101 -0.0339  0.0831
 4366TIP3    H113104   5.940   0.440   0.295  0.4074  0.4175  0.3389
 4366TIP3    H213105   5.797   0.390   0.291  0.3384  0.6595 -1.3158
 4367TIP3   OH213106   2.028   3.469   2.267 -0.3282 -0.2162 -0.0291
 4367TIP3    H113107   2.118   3.496   2.284 -0.1249 -0.4316 -0.7487
 4367TIP3    H213108   1.986   3.546   2.228  0.2077 -0.8396 -1.9297
 4368TIP3   OH213109   5.535   5.974   4.388 -0.1595 -0.0934 -0.1676
 4368TIP3    H113110   5.573   5.923   4.459  2.6049  3.2876  1.1172
 4368TIP3    H213111   5.459   6.017   4.427  0.5856  0.7214  0.4554
 4369TIP3   OH213112   0.831   2.473   2.338 -0.2570 -0.4437 -0.5004
 4369TIP3    H113113   0.816   2.401   2.399 -1.7658 -0.3117 -0.6931
 4369TIP3    H213114   0.819   2.552   2.390 -0.4587 -0.3316 -0.7160
 4370TIP3   OH213115   5.222   2.578   2.165 -0.0613  0.2083 -0.3791
 4370TIP3    H113116   5.298   2.624   2.130  1.4399 -2.0085 -0.2603
 4370TIP3    H213117   5.150   2.603   2.107  0.5539  2.8752 -0.1013
 4371TIP3   OH213118   6.008   3.354   0.080  0.3201 -0.9364  0.3502
 4371TIP3    H113119   5.986   3.264   0.104 -0.4852 -1.1635 -1.1043
 4371TIP3    H213120   5.947   3.375   0.009  3.1807 -0.7609 -2.2850
 4372TIP3   OH213121   0.181   0.985   0.499 -0.0844 -0.0437 -0.1506
 4372TIP3    H113122   0.248   1.002   0.432  0.1939  0.3583  0.2282
 4372TIP3    H213123   0.120   1.058   0.491 -1.4442 -1.2482 -1.6442
 4373TIP3   OH213124   0.888   4.450   2.421  0.1358  0.0770  0.0226
 4373TIP3    H113125   0.884   4.380   2.487 -0.1022  0.5015  0.4642
 4373TIP3    H213126   0.969   4.497   2.440  0.2848 -0.0592 -0.2618
 4374TIP3   OH213127   3.724   3.957   3.846  0.4858 -0.1602  0.5075
 4374TIP3    H113128   3.658   4.004   3.794  1.2277  1.9541  1.3381
 4374TIP3    H213129   3.779   3.913   3.781 -0.0684  0.4025 -0.3642
 4375TIP3   OH213130   3.592   4.558   4.365 -0.3016  0.1611  0.2259
 4375TIP3    H113131   3.526   4.489   4.370  0.9579 -1.1277 -0.1418
 4375TIP3    H213132   3.542   4.639   4.363 -2.0190 -0.8166 -3.0893
 4376TIP3   OH213133   1.112   4.112   0.438  0.7320  1.0875 -0.2573
 4376TIP3    H113134   1.045   4.176   0.460  0.4006  0.5634  0.2728
 4376TIP3    H213135   1.085   4.077   0.353  0.9447  1.6855 -0.5731
 4377TIP3   OH213136   6.226   3.367   3.938 -0.7392  0.9215  0.2069
 4377TIP3    H113137   6.212   3.296   4.001  0.2078 -0.5622 -1.1915
 4377TIP3    H213138   6.212   3.326   3.852  1.5391  1.9714 -0.7327
 4378TIP3   OH213139   0.439   4.600   3.690 -0.4248 -0.1608  0.1217
 4378TIP3    H113140   0.487   4.570   3.768  0.6120 -0.8331 -0.7423
 4378TIP3    H213141   0.358   4.637   3.725  0.2697  0.0963  1.5658
 4379TIP3   OH213142   5.122   5.539   4.682 -0.0679 -0.2337 -0.5631
 4379TIP3    H113143   5.032   5.573   4.688 -0.1540 -0.6641  2.6377
 4379TIP3    H213144   5.112   5.444   4.688  0.5367 -0.4264 -2.2427
 4380TIP3   OH213145   3.736   3.102   0.545 -0.2597 -0.3348  0.0573
 4380TIP3    H113146   3.760   3.043   0.474 -1.8084 -0.7992 -0.1207
 4380TIP3    H213147   3.805   3.167   0.547 -0.8775  0.5454 -2.8284
 4381TIP3   OH213148   5.725   2.994   1.416 -0.0829  0.3217 -0.5119
 4381TIP3    H113149   5.699   3.067   1.361  0.6453  0.1537 -1.0899
 4381TIP3    H213150   5.644   2.942   1.427 -0.4609  0.8920 -0.5770
 4382TIP3   OH213151   0.540   4.091   1.185 -0.0912 -0.5000  0.1071
 4382TIP3    H113152   0.526   4.015   1.242  0.8134 -0.7538 -0.0030
 4382TIP3    H213153   0.456   4.101   1.139 -1.0242  0.0217  1.8305
 4383TIP3   OH213154   2.729   1.918   0.848 -0.6149  0.9732  0.9311
 4383TIP3    H113155   2.806   1.866   0.874 -0.2594  1.8090  1.5933
 4383TIP3    H213156   2.663   1.853   0.827  1.2564  0.0594 -3.0961
 4384TIP3   OH213157   1.516   5.785   3.743  0.2220 -0.5377 -0.5947
 4384TIP3    H113158   1.425   5.757   3.752 -0.0795  0.0353 -1.7112
 4384TIP3    H213159   1.566   5.703   3.747 -0.3660 -0.8903 -0.3250
 4385TIP3   OH213160   0.053   2.320   3.454  0.3899 -0.5350 -0.1821
 4385TIP3    H113161  -0.025   2.282   3.414 -0.1125  0.2313  0.0282
 4385TIP3    H213162   0.077   2.259   3.523 -1.2943  0.2229  1.1446
 4386TIP3   OH213163   4.056   1.406   0.696  0.0075 -0.0869 -0.2182
 4386TIP3    H113164   4.151   1.421   0.698 -0.2186  1.4892  0.7483
 4386TIP3    H213165   4.041   1.340   0.763  0.3336  0.4238  0.3716
 4387TIP3   OH213166   4.069   1.316   4.904 -0.4047 -0.3412 -0.3161
 4387TIP3    H113167   4.116   1.244   4.861 -1.0313 -1.0475  0.1377
 4387TIP3    H213168   4.019   1.273   4.974 -2.0926  0.2828 -1.0813
 4388TIP3   OH213169   5.692   1.612   1.226  0.2168 -0.5431  0.2002
 4388TIP3    H113170   5.656   1.594   1.139 -0.3558 -0.1115  0.3378
 4388TIP3    H213171   5.615   1.625   1.281  0.5804 -0.5364  0.7104
 4389TIP3   OH213172   4.492   3.815   0.189  0.2136 -0.1574 -0.0802
 4389TIP3    H113173   4.416   3.822   0.246  2.0944  1.6805  2.4420
 4389TIP3    H213174   4.531   3.730   0.212 -0.4436 -0.6110 -0.5951
 4390TIP3   OH213175   6.357   2.083   3.732  0.1602 -0.8892 -0.2868
 4390TIP3    H113176   6.321   2.107   3.647 -0.8859  0.4611  0.4826
 4390TIP3    H213177   6.345   1.989   3.738 -0.1634 -0.9351 -1.4443
 4391TIP3   OH213178   3.048   4.651   1.324  0.1895  0.1478  0.2718
 4391TIP3    H113179   2.961   4.629   1.358  0.0159  1.6366  0.8804
 4391TIP3    H213180   3.103   4.659   1.402  0.5379  0.5395 -0.0083
 4392TIP3   OH213181   4.646   2.990   2.624 -0.3764 -0.5766 -0.1447
 4392TIP3    H113182   4.737   3.001   2.651 -0.6506  0.3614  0.4135
 4392TIP3    H213183   4.632   2.895   2.626  0.8862 -0.8120 -1.2515
 4393TIP3   OH213184   0.253   2.374   1.826  0.0338 -0.8219 -0.3282
 4393TIP3    H113185   0.168   2.402   1.859 -0.0564 -1.3489 -0.1069
 4393TIP3    H213186   0.316   2.408   1.889 -0.0082 -0.4227 -0.4978
 4394TIP3   OH213187   0.791   5.213   5.145  0.3380 -0.3128 -0.2023
 4394TIP3    H113188   0.838   5.148   5.199 -1.1850 -3.1503 -2.0123
 4394TIP3    H213189   0.837   5.211   5.061 -1.1762 -0.9134 -1.0507
 4395TIP3   OH213190   4.214   5.046   0.306 -0.4506 -0.4554  0.2268
 4395TIP3    H113191   4.174   4.961   0.322 -0.2243 -0.4306  0.9700
 4395TIP3    H213192   4.211   5.090   0.391 -2.5917  1.1801 -0.6235
 4396TIP3   OH213193   2.181   1.449   0.272 -0.5919 -0.0167  0.0394
 4396TIP3    H113194   2.231   1.406   0.202 -1.5569 -0.0568 -0.6445
 4396TIP3    H213195   2.204   1.400   0.351 -1.1355 -1.3671 -0.6088
 4397TIP3   OH213196   5.207   4.296   0.561 -0.0587 -0.7092 -0.6096
 4397TIP3    H113197   5.196   4.336   0.475  0.7119  1.4300  0.2177
 4397TIP3    H213198   5.280   4.344   0.601 -1.2293 -0.7070  1.7295
 4398TIP3   OH213199   5.604   2.254   4.133  0.3818  0.2122 -0.0409
 4398TIP3    H113200   5.676   2.238   4.194  1.3942  1.5663 -0.8352
 4398TIP3    H213201   5.607   2.348   4.116 -2.2281  0.5032  0.6666
 4399TIP3   OH213202   3.041   3.188   1.680 -0.5408 -0.2018  0.4833
 4399TIP3    H113203   2.968   3.170   1.739 -0.9909 -0.0644 -0.0250
 4399TIP3    H213204   3.116   3.144   1.720 -0.8931 -0.3127  1.0279
 4400TIP3   OH213205   3.170   4.240   1.297  0.2919  0.8228 -0.2074
 4400TIP3    H113206   3.157   4.159   1.248  0.6782  0.2224  0.6623
 4400TIP3    H213207   3.239   4.286   1.250  0.8823  0.1053 -0.0585
 4401TIP3   OH213208   0.428   4.276   1.997  0.1238  0.2950  0.2282
 4401TIP3    H113209   0.512   4.233   1.984  0.7474  1.4092  0.5319
 4401TIP3    H213210   0.449   4.360   2.036 -1.0555  1.0224 -0.6248
 4402TIP3   OH213211   2.543   3.764   3.315  0.1838  0.1547  0.3239
 4402TIP3    H113212   2.599   3.703   3.266  0.7487  1.4224 -0.6888
 4402TIP3    H213213   2.597   3.842   3.327 -0.7049  0.6769  1.0918
 4403TIP3   OH213214   4.978   4.534   3.451 -0.6698 -0.0868 -0.5733
 4403TIP3    H113215   4.996   4.620   3.491 -2.0445  0.5834 -1.3160
 4403TIP3    H213216   5.032   4.533   3.372  0.4081 -0.5087  0.1504
 4404TIP3   OH213217   4.557   2.644   4.787  0.4588 -0.0757 -0.1884
 4404TIP3    H113218   4.479   2.620   4.737  0.6539  0.0989 -0.5774
 4404TIP3    H213219   4.630   2.610   4.736  0.6731  0.3493 -0.1716
 4405TIP3   OH213220   4.781   2.504   4.628  0.2407  0.5771 -0.7288
 4405TIP3    H113221   4.712   2.457   4.581 -1.0102  1.7336 -0.1107
 4405TIP3    H213222   4.860   2.452   4.612 -0.2586  0.4912 -3.4241
 4406TIP3   OH213223   6.054   5.218   1.736 -0.7124 -0.2450 -0.3352
 4406TIP3    H113224   6.046   5.303   1.692 -0.8916  0.9617  1.8801
 4406TIP3    H213225   6.137   5.182   1.704 -0.0497  1.3124 -0.4535
 4407TIP3   OH213226   4.381   2.997   2.479 -0.6051  0.1805  0.5439
 4407TIP3    H113227   4.368   3.091   2.463 -0.0063  0.2373  0.3763
 4407TIP3    H213228   4.471   2.991   2.510  0.0611 -0.5658 -1.3916
 4408TIP3   OH213229   5.749   5.802   3.083 -0.0511 -0.3310 -0.0076
 4408TIP3    H113230   5.780   5.847   3.162 -0.6599  1.0141 -0.5086
 4408TIP3    H213231   5.801   5.722   3.079  1.2534  0.4537  0.7583
 4409TIP3   OH213232   4.949   5.240   3.479 -0.0915  0.0017  0.0822
 4409TIP3    H113233   4.895   5.283   3.546 -0.2782 -1.2848  0.8032
 4409TIP3    H213234   5.037   5.275   3.494 -0.1021 -0.3603  1.1172
 4410TIP3   OH213235   2.535   0.705   5.142 -0.0549  0.2570 -0.4556
 4410TIP3    H113236   2.459   0.711   5.200  0.1692 -1.5341  0.0853
 4410TIP3    H213237   2.531   0.784   5.088 -2.3832  0.1132 -0.5574
 4411TIP3   OH213238   2.680   5.185   0.161  0.0684  0.2060 -0.6390
 4411TIP3    H113239   2.594   5.164   0.126 -0.4020  1.1472 -0.1121
 4411TIP3    H213240   2.676   5.280   0.178  1.2040  0.2623 -0.6129
 4412TIP3   OH213241   0.450   4.570   3.301 -0.1651  0.3985 -0.5338
 4412TIP3    H113242   0.519   4.549   3.365 -0.3717  1.5690  0.0968
 4412TIP3    H213243   0.381   4.506   3.319  0.3340 -0.1393 -0.4934
 4413TIP3   OH213244   4.256   3.640   2.852  0.0832  0.2060  0.6725
 4413TIP3    H113245   4.165   3.660   2.829  0.6349 -0.6807 -2.7778
 4413TIP3    H213246   4.251   3.554   2.895 -0.6898  0.1770  0.5375
 4414TIP3   OH213247   3.513   0.075   0.439  0.0959 -0.4242  0.2075
 4414TIP3    H113248   3.492   0.157   0.393  1.1048 -0.5447 -0.5048
 4414TIP3    H213249   3.608   0.080   0.455  0.2481 -1.6233 -0.2085
 4415TIP3   OH213250   5.177   3.479   1.013 -0.0096  0.0631 -0.0111
 4415TIP3    H113251   5.208   3.567   1.036  0.0917 -0.0343  0.2321
 4415TIP3    H213252   5.196   3.427   1.091 -0.2598 -0.1269 -0.0781
 4416TIP3   OH213253   2.955   3.828   3.359  0.4904  0.2648  0.2218
 4416TIP3    H113254   2.968   3.753   3.301  1.3884  1.1280 -0.7541
 4416TIP3    H213255   3.042   3.867   3.367 -0.2854  2.5302 -1.1974
 4417TIP3   OH213256   1.126   5.462   3.986  0.2461  0.4979 -0.0108
 4417TIP3    H113257   1.136   5.526   4.057 -1.0098 -0.6766  1.2760
 4417TIP3    H213258   1.165   5.382   4.020 -1.7636 -0.5229  0.0266
 4418TIP3   OH213259   3.447   2.992   0.323 -0.1102 -0.0027 -0.3258
 4418TIP3    H113260   3.433   3.086   0.318  0.1803 -0.0031 -1.8538
 4418TIP3    H213261   3.492   2.978   0.406 -1.2912  1.0300  0.5143
 4419TIP3   OH213262   4.845   3.983   2.488 -0.4204 -0.2097  0.1995
 4419TIP3    H113263   4.819   4.058   2.435 -1.3172  0.5075  1.5936
 4419TIP3    H213264   4.766   3.928   2.491 -0.4003 -0.2116  0.8183
 4420TIP3   OH213265   1.854   1.348   3.330  0.0760  0.1879 -0.7256
 4420TIP3    H113266   1.876   1.436   3.298  2.2008 -0.4342 -1.2082
 4420TIP3    H213267   1.797   1.311   3.262 -1.2039  1.3293 -0.2950
 4421TIP3   OH213268   2.449   4.852   4.283 -0.2225  0.1678 -0.7960
 4421TIP3    H113269   2.423   4.785   4.347  0.9080 -0.7872 -1.2871
 4421TIP3    H213270   2.384   4.845   4.213 -1.6711  1.4559  0.3521
 4422TIP3   OH213271   2.266   3.668   3.261 -0.2544  0.6941 -0.1643
 4422TIP3    H113272   2.248   3.622   3.179 -1.1211 -0.1046  0.4433
 4422TIP3    H213273   2.361   3.665   3.270 -0.2047  0.1609 -0.7912
 4423TIP3   OH213274   1.077   0.852   3.889  0.1058  0.2611 -0.0027
 4423TIP3    H113275   1.115   0.800   3.818  0.7067 -0.5346  0.8690
 4423TIP3    H213276   1.116   0.815   3.968  0.1887  1.7592  0.6783
 4424TIP3   OH213277   4.142   2.919   4.559  0.1299 -0.0933  0.0557
 4424TIP3    H113278   4.098   3.000   4.585 -1.3440 -0.4510 -1.1566
 4424TIP3    H213279   4.177   2.938   4.471  1.2045 -0.2797  0.4201
 4425TIP3   OH213280   2.710   3.938   2.721  0.3254  0.2376  0.2913
 4425TIP3    H113281   2.640   3.918   2.659  0.4230  0.4053  0.1276
 4425TIP3    H213282   2.705   4.032   2.734  0.8053  0.3212 -0.0672
 4426TIP3   OH213283   0.973   5.974   0.080  0.1485 -0.0692 -0.6727
 4426TIP3    H113284   0.976   5.991   0.174 -2.1108 -0.1495 -0.5491
 4426TIP3    H213285   0.996   5.882   0.072  1.0740  0.1085 -0.3076
 4427TIP3   OH213286   4.563   0.486   2.090  0.2775 -0.4056  0.2926
 4427TIP3    H113287   4.654   0.508   2.110  0.0147 -0.1700  1.3061
 4427TIP3    H213288   4.567   0.401   2.047  1.0097 -0.2011 -0.0454
 4428TIP3   OH213289   3.396   2.761   3.289 -0.0552 -0.3652 -0.2994
 4428TIP3    H113290   3.468   2.822   3.273 -0.6845  0.6534  0.5654
 4428TIP3    H213291   3.339   2.770   3.212 -0.3085  0.4007 -0.0324
 4429TIP3   OH213292   6.183   0.346   0.896 -0.0741  0.1492  0.3486
 4429TIP3    H113293   6.165   0.403   0.971  0.3023 -0.4863  0.9385
 4429TIP3    H213294   6.248   0.394   0.844 -1.2546  1.1563 -0.2570
 4430TIP3   OH213295   1.043   1.603   2.392 -0.1438  0.8183 -0.2619
 4430TIP3    H113296   0.949   1.609   2.407 -0.2803  0.9728 -1.0934
 4430TIP3    H213297   1.056   1.517   2.352 -0.0598  1.1425 -0.9515
 4431TIP3   OH213298   2.494   3.433   1.294  0.4668  0.4856  0.5519
 4431TIP3    H113299   2.476   3.472   1.209 -1.0807  1.1186  1.1365
 4431TIP3    H213300   2.448   3.349   1.292 -0.4661  0.9657  1.1223
 4432TIP3   OH213301   1.540   2.179   4.013  0.6379  0.9947 -0.0241
 4432TIP3    H113302   1.628   2.161   3.982  0.3494  0.7042 -0.6963
 4432TIP3    H213303   1.536   2.141   4.101  1.8364  2.8224  0.8778
 4433TIP3   OH213304   6.155   3.696   0.827 -0.4432 -1.0734 -0.4062
 4433TIP3    H113305   6.113   3.652   0.753  0.7227 -1.6090 -0.7675
 4433TIP3    H213306   6.249   3.692   0.808 -0.2324  0.6849  0.0520
 4434TIP3   OH213307   2.939   0.002   0.600 -0.7602 -0.3675  0.3597
 4434TIP3    H113308   2.938   0.093   0.570  1.1429 -0.3741  0.1008
 4434TIP3    H213309   2.964   0.008   0.692 -1.8212 -0.5828  0.6676
 4435TIP3   OH213310   0.735   1.265   3.278 -0.1575  0.3127  0.1508
 4435TIP3    H113311   0.757   1.178   3.312 -0.8314 -0.7291 -1.9324
 4435TIP3    H213312   0.790   1.275   3.200  0.0037  1.8433  0.4189
 4436TIP3   OH213313   5.612   1.208   1.715 -0.5425 -0.2177  0.1909
 4436TIP3    H113314   5.568   1.174   1.636  0.7603 -0.5790 -0.4002
 4436TIP3    H213315   5.618   1.132   1.773 -0.0160 -0.3607 -0.0459
 4437TIP3   OH213316   5.838   2.341   0.768  0.4496  0.0193  0.0474
 4437TIP3    H113317   5.840   2.246   0.760 -2.7284 -0.3367  1.6374
 4437TIP3    H213318   5.823   2.373   0.679  1.3157 -0.9489 -0.4609
 4438TIP3   OH213319   2.864   0.589   1.290  0.2095  0.4378 -0.3590
 4438TIP3    H113320   2.776   0.566   1.319  0.5481 -0.6577 -0.1688
 4438TIP3    H213321   2.907   0.623   1.368  0.4235 -0.4538 -0.0755
 4439TIP3   OH213322   1.632   0.750   4.695 -0.9677 -0.3655  0.2021
 4439TIP3    H113323   1.703   0.700   4.655  0.2011  0.8752  0.6580
 4439TIP3    H213324   1.552   0.706   4.665 -0.0288 -1.7034 -0.4428
 4440TIP3   OH213325   0.246   5.759   1.933  0.0814 -0.3439  0.3815
 4440TIP3    H113326   0.232   5.665   1.945  0.1429 -0.2707  1.0655
 4440TIP3    H213327   0.243   5.772   1.838 -0.9621 -0.8750  0.3287
 4441TIP3   OH213328   3.844   4.061   0.603 -0.0548  0.4340 -0.4335
 4441TIP3    H113329   3.775   4.006   0.640  1.6272 -1.6182 -0.1378
 4441TIP3    H213330   3.877   4.112   0.677 -1.2653  1.4742 -0.5932
 4442TIP3   OH213331   2.818   1.730   2.183  0.3069 -0.3228 -0.6026
 4442TIP3    H113332   2.802   1.762   2.272 -2.3887  1.5414 -1.6607
 4442TIP3    H213333   2.837   1.637   2.195 -3.7563 -1.1035  1.7428
 4443TIP3   OH213334   2.935   4.311   2.644 -0.3337  0.0715 -0.0346
 4443TIP3    H113335   2.950   4.403   2.624  1.8386 -0.4944 -1.2713
 4443TIP3    H213336   3.015   4.267   2.618 -0.4846 -1.9322  2.4395
 4444TIP3   OH213337   6.152   3.448   3.524 -0.2673  0.2355 -1.0108
 4444TIP3    H113338   6.117   3.537   3.532 -0.6350 -0.0621  1.4215
 4444TIP3    H213339   6.206   3.436   3.602 -0.6086 -1.8097 -1.0324
 4445TIP3   OH213340   0.360   2.206   4.968 -0.3035 -0.4359 -0.5818
 4445TIP3    H113341   0.293   2.243   4.909  0.1436  2.2529  0.4167
 4445TIP3    H213342   0.443   2.229   4.927 -0.0034  0.0357  0.2647
 4446TIP3   OH213343   4.304   0.016   1.641  0.4220  0.0912  0.5698
 4446TIP3    H113344   4.375  -0.017   1.697 -0.5359 -0.9494  1.2154
 4446TIP3    H213345   4.266   0.088   1.692  1.3319  1.0010 -0.0121
 4447TIP3   OH213346   5.632   1.467   2.681 -0.2094  0.5959  0.2034
 4447TIP3    H113347   5.672   1.547   2.649 -0.2248  0.0263 -1.2947
 4447TIP3    H213348   5.541   1.491   2.699 -0.9628  0.3470 -2.8139
 4448TIP3   OH213349   1.467   2.477   5.100  0.2942 -0.2109  0.6120
 4448TIP3    H113350   1.504   2.389   5.102 -0.9130 -0.9469 -2.8026
 4448TIP3    H213351   1.542   2.533   5.079  0.3147 -1.2102 -2.4902
 4449TIP3   OH213352   6.184   0.191   5.067  0.4701  0.2195  0.2018
 4449TIP3    H113353   6.126   0.131   5.019  0.6936  0.2490 -0.1111
 4449TIP3    H213354   6.124   0.252   5.110  0.2428 -0.1947  0.4789
 4450TIP3   OH213355   0.163   5.662   0.770  0.2377  0.1328 -0.4479
 4450TIP3    H113356   0.120   5.678   0.686  1.1077 -0.8984 -1.1088
 4450TIP3    H213357   0.253   5.691   0.757  0.8543 -1.6721 -0.4770
 4451TIP3   OH213358   5.556   5.482   2.766  0.3490  0.2507 -0.3246
 4451TIP3    H113359   5.502   5.561   2.766  1.6356  1.1645 -0.2180
 4451TIP3    H213360   5.519   5.427   2.697  0.1804  1.4938 -1.2575
 4452TIP3   OH213361   4.398   0.638   4.932 -0.0025 -0.8269  0.4428
 4452TIP3    H113362   4.416   0.608   5.021  0.3929 -1.8316  0.0413
 4452TIP3    H213363   4.302   0.641   4.927 -0.0251 -0.3719  1.0162
 4453TIP3   OH213364   2.327   5.470   2.712  0.2132 -0.5274  0.5474
 4453TIP3    H113365   2.287   5.469   2.798  0.5008 -2.0882  0.7031
 4453TIP3    H213366   2.375   5.387   2.707  0.5717 -0.2666 -0.9383
 4454TIP3   OH213367   1.281   2.568   2.094 -0.3398  0.2715  0.0980
 4454TIP3    H113368   1.273   2.558   1.999 -0.2495 -0.2181  0.1394
 4454TIP3    H213369   1.191   2.579   2.125 -0.4523 -0.4142  0.0409
 4455TIP3   OH213370   5.679   2.144   5.177 -0.3343 -0.2386  0.1094
 4455TIP3    H113371   5.660   2.052   5.196  1.1029 -0.5222  0.3000
 4455TIP3    H213372   5.770   2.144   5.147 -0.8470  0.9109 -1.5567
 4456TIP3   OH213373   1.740   5.388   2.143  0.2921  0.7485  0.0760
 4456TIP3    H113374   1.753   5.296   2.118 -2.6322  0.5863 -1.1936
 4456TIP3    H213375   1.815   5.433   2.105  2.0903 -1.1255  1.1872
 4457TIP3   OH213376   3.987   0.616   0.382 -0.6816 -0.3211 -0.1005
 4457TIP3    H113377   3.971   0.662   0.299 -0.6174 -0.9151 -0.4524
 4457TIP3    H213378   3.976   0.683   0.449  0.9112  0.5716 -0.6708
 4458TIP3   OH213379   0.874   5.550   1.232 -0.0876 -0.2247  0.1363
 4458TIP3    H113380   0.886   5.455   1.224  0.5016 -0.2516  1.1605
 4458TIP3    H213381   0.962   5.586   1.221 -0.4447  0.2896 -1.1950
 4459TIP3   OH213382   1.822   4.597   5.097 -0.2688  0.4839 -0.2179
 4459TIP3    H113383   1.800   4.690   5.094  0.3967  0.6468 -0.1727
 4459TIP3    H213384   1.786   4.566   5.180 -3.6143 -0.1301 -1.6959
 4460TIP3   OH213385   0.406   4.607   1.854  0.0240  0.1742 -0.0136
 4460TIP3    H113386   0.430   4.575   1.941  1.7257  1.0809 -0.1110
 4460TIP3    H213387   0.450   4.546   1.794 -0.4366  0.0567 -0.2329
 4461TIP3   OH213388   0.235   2.104   3.003 -0.5062 -0.0763 -0.0553
 4461TIP3    H113389   0.166   2.143   3.057 -2.0633  0.1968 -2.1249
 4461TIP3    H213390   0.203   2.015   2.985 -0.2032 -0.0403 -0.8045
 4462TIP3   OH213391   4.410   1.574   0.801  0.3860 -0.5648  0.5351
 4462TIP3    H113392   4.323   1.601   0.830 -0.4720 -3.4223  0.9235
 4462TIP3    H213393   4.465   1.651   0.815 -1.8252  0.9606  1.3652
 4463TIP3   OH213394   1.785   4.186   4.815  0.3179 -0.0492 -0.0341
 4463TIP3    H113395   1.750   4.190   4.726  1.6499  0.2242 -0.5672
 4463TIP3    H213396   1.851   4.117   4.812  2.4870  1.8989 -0.0815
 4464TIP3   OH213397   6.275   3.734   4.260  0.6442 -0.2965 -0.5858
 4464TIP3    H113398   6.365   3.746   4.230  0.9504  0.8866  0.7429
 4464TIP3    H213399   6.239   3.822   4.268 -1.2736 -0.7539 -2.7926
 4465TIP3   OH213400   5.102   4.765   1.487 -0.0872  0.2004 -0.4129
 4465TIP3    H113401   5.085   4.855   1.514 -0.4909  0.1469 -0.4942
 4465TIP3    H213402   5.077   4.762   1.395  1.6430  0.4904 -0.9407
 4466TIP3   OH213403   2.420   0.918   4.187 -0.1349  0.4297 -0.1964
 4466TIP3    H113404   2.430   1.003   4.228 -1.6104  0.8687 -0.6926
 4466TIP3    H213405   2.502   0.905   4.138  0.4403  1.1670  0.5474
 4467TIP3   OH213406   1.559   1.239   4.804 -0.2868  0.5483  0.0112
 4467TIP3    H113407   1.651   1.253   4.782 -0.1260  1.7460  1.3713
 4467TIP3    H213408   1.519   1.325   4.796 -1.4387 -0.0546 -1.0975
 4468TIP3   OH213409   0.231   3.316   3.279  0.3700  0.1741 -0.5033
 4468TIP3    H113410   0.208   3.310   3.372  2.6883  0.4142  0.1475
 4468TIP3    H213411   0.259   3.406   3.267 -4.2557  1.6392 -2.6638
 4469TIP3   OH213412   2.363   1.540   4.944 -0.1633  0.0343  0.4091
 4469TIP3    H113413   2.363   1.547   4.848 -1.6070  0.9710  0.4467
 4469TIP3    H213414   2.305   1.465   4.962  0.1009 -0.1350  0.5500
 4470TIP3   OH213415   2.122   4.642   3.349 -0.0045  0.7372  0.3050
 4470TIP3    H113416   2.194   4.695   3.315  1.8078 -0.2093  2.4520
 4470TIP3    H213417   2.145   4.625   3.440 -2.0873 -1.0734  0.5731
 4471TIP3   OH213418   5.064   3.916   4.253 -0.5546 -0.0481  0.3189
 4471TIP3    H113419   4.998   3.917   4.183  0.7888  0.3490 -1.0087
 4471TIP3    H213420   5.134   3.860   4.219  1.1531  1.9320  0.2997
 4472TIP3   OH213421   5.603   5.798   4.630 -0.6417 -0.0924  0.4017
 4472TIP3    H113422   5.687   5.758   4.654  1.0575  2.3587 -1.0981
 4472TIP3    H213423   5.551   5.795   4.711  1.9103  0.7555  2.1956
 4473TIP3   OH213424   3.557   2.291   2.447 -0.2743 -0.0677  0.1475
 4473TIP3    H113425   3.546   2.346   2.369 -0.9084  2.1694  1.6996
 4473TIP3    H213426   3.646   2.256   2.440 -0.4305 -0.1578 -1.7068
 4474TIP3   OH213427   0.036   2.331   3.852 -0.6335 -0.6339  0.5814
 4474TIP3    H113428   0.068   2.256   3.802 -1.3651 -0.8595  0.4407
 4474TIP3    H213429  -0.030   2.295   3.911 -1.1942 -0.0652  0.3192
 4475TIP3   OH213430   3.396   1.274   1.629 -0.4311  0.4026 -0.5749
 4475TIP3    H113431   3.324   1.241   1.575  0.7043 -0.4782 -1.5973
 4475TIP3    H213432   3.426   1.352   1.583  0.1194  0.0141 -0.8856
 4476TIP3   OH213433   0.302   0.630   1.140  0.2313 -0.0677  0.2727
 4476TIP3    H113434   0.270   0.719   1.160  1.8854  0.4043  0.9420
 4476TIP3    H213435   0.224   0.584   1.108 -0.6276  1.6795 -0.3029
 4477TIP3   OH213436   5.227   0.362   2.107 -0.5469  0.2831 -0.1465
 4477TIP3    H113437   5.196   0.280   2.146  0.9305 -1.0669 -1.6496
 4477TIP3    H213438   5.255   0.414   2.183 -0.9171 -0.8541  0.8109
 4478TIP3   OH213439   4.384   4.769   3.662  0.2413  0.1999  0.1341
 4478TIP3    H113440   4.346   4.704   3.603 -2.4728  0.4317  1.4522
 4478TIP3    H213441   4.469   4.733   3.687 -0.2542 -1.7826 -0.8336
 4479TIP3   OH213442   5.821   5.233   0.473  0.4165  0.2856 -0.1735
 4479TIP3    H113443   5.802   5.227   0.567  0.2933  0.3043 -0.1973
 4479TIP3    H213444   5.888   5.166   0.458 -0.1833 -0.3124 -0.2341
 4480TIP3   OH213445   3.848   2.263   4.197  0.3328  0.2100 -0.5979
 4480TIP3    H113446   3.827   2.286   4.107 -0.1601 -1.3888 -0.9273
 4480TIP3    H213447   3.806   2.178   4.210  0.7392  0.2248  1.0115
 4481TIP3   OH213448   5.662   4.722   1.442 -0.2795  0.1689 -0.3355
 4481TIP3    H113449   5.619   4.666   1.377 -0.2573  1.3245 -1.3868
 4481TIP3    H213450   5.659   4.810   1.403  0.0807  0.8252  1.0667
 4482TIP3   OH213451   5.212   0.400   4.695 -0.2523  0.2794  0.1504
 4482TIP3    H113452   5.280   0.333   4.700  1.7592  2.2102  0.8593
 4482TIP3    H213453   5.261   0.482   4.689 -2.5773  1.6314 -2.2979
 4483TIP3   OH213454   4.824   4.738   3.811  0.1226 -0.3629  0.0863
 4483TIP3    H113455   4.876   4.687   3.873 -1.2159 -0.2864  1.3254
 4483TIP3    H213456   4.794   4.675   3.746 -0.5415 -0.9528  0.9459
 4484TIP3   OH213457   1.433   0.971   2.257  0.1292  0.2959 -0.0940
 4484TIP3    H113458   1.449   0.986   2.350  1.0068 -0.1888 -0.1530
 4484TIP3    H213459   1.350   0.923   2.254  0.4746 -0.3650  0.5046
 4485TIP3   OH213460   5.285   2.192   0.783 -0.0300 -0.0397  0.3801
 4485TIP3    H113461   5.246   2.106   0.803 -0.8999  0.8118  2.7758
 4485TIP3    H213462   5.378   2.181   0.805 -0.1386 -0.3844  0.6923
 4486TIP3   OH213463   5.770   2.048   4.487  0.3931  0.2492  0.0790
 4486TIP3    H113464   5.807   2.078   4.404  1.6221 -1.8592 -0.1886
 4486TIP3    H213465   5.678   2.075   4.483  0.5236  0.5566 -1.7621
 4487TIP3   OH213466   4.513   4.338   4.691 -0.5186  0.2396  0.3955
 4487TIP3    H113467   4.511   4.370   4.781 -0.4550  1.8250 -0.1438
 4487TIP3    H213468   4.438   4.380   4.648 -0.7050 -0.6978 -0.2363
 4488TIP3   OH213469   5.874   4.024   1.708  0.3449  0.0084  0.1192
 4488TIP3    H113470   5.841   4.083   1.775  0.7426  0.5846 -0.1862
 4488TIP3    H213471   5.843   3.938   1.735 -0.2449  0.3520  0.5686
 4489TIP3   OH213472   3.885   5.651   2.966  0.2229  0.2936  0.2141
 4489TIP3    H113473   3.898   5.733   2.920  0.9069  0.7680  1.2030
 4489TIP3    H213474   3.813   5.668   3.027 -0.7435 -0.3560 -0.7183
 4490TIP3   OH213475   4.550   5.236   3.401 -0.0687  0.2232  0.6947
 4490TIP3    H113476   4.560   5.330   3.416  0.5757  0.1924  0.4866
 4490TIP3    H213477   4.524   5.229   3.309 -0.7430  0.2275  0.8782
 4491TIP3   OH213478   5.737   2.224   3.224  0.4423  0.2370 -0.1695
 4491TIP3    H113479   5.765   2.286   3.156 -0.2086 -0.2343 -0.8801
 4491TIP3    H213480   5.715   2.144   3.176  0.8156 -0.4001  0.6910
 4492TIP3   OH213481   0.258   3.544   0.077 -0.9838  0.3264  0.2873
 4492TIP3    H113482   0.323   3.611   0.102 -0.0486 -0.8117  1.0496
 4492TIP3    H213483   0.311   3.468   0.054 -2.0444 -0.3679  0.0977
 4493TIP3   OH213484   2.785   4.650   1.422 -0.1379  0.5038 -0.5883
 4493TIP3    H113485   2.707   4.633   1.370 -0.3211  0.5732 -0.3376
 4493TIP3    H213486   2.752   4.671   1.509  0.0857  1.8165 -0.8030
 4494TIP3   OH213487   2.418   5.737   3.989  0.2498 -0.2973 -0.2773
 4494TIP3    H113488   2.334   5.771   4.020 -0.0813 -1.0925 -0.2632
 4494TIP3    H213489   2.484   5.784   4.039 -0.1181  1.4094 -1.3353
 4495TIP3   OH213490   3.083   4.817   1.113  0.1401 -0.4497 -0.5854
 4495TIP3    H113491   3.090   4.746   1.178  1.7151 -0.5316 -0.7925
 4495TIP3    H213492   2.989   4.832   1.104 -0.2297 -2.3333 -0.3280
 4496TIP3   OH213493   2.480   0.286   4.738 -0.1034  0.2155  0.1701
 4496TIP3    H113494   2.538   0.360   4.755 -0.9332  0.4315  2.2433
 4496TIP3    H213495   2.443   0.305   4.652  0.9910  1.3241 -0.0950
 4497TIP3   OH213496   0.203   4.712   0.754  0.7900 -0.2472  0.8750
 4497TIP3    H113497   0.124   4.675   0.713  1.8295 -1.7004  0.1165
 4497TIP3    H213498   0.264   4.639   0.759  2.0465  0.8134  1.6133
 4498TIP3   OH213499   5.345   1.724   1.043 -0.0090 -0.0001 -0.1892
 4498TIP3    H113500   5.313   1.733   0.953  0.6639  2.6957 -0.2447
 4498TIP3    H213501   5.267   1.704   1.095 -0.4188 -1.4933 -1.3157
 4499TIP3   OH213502   5.688   0.670   0.739 -0.3200  0.2023  0.0640
 4499TIP3    H113503   5.723   0.636   0.657 -0.4036  0.6327 -0.1534
 4499TIP3    H213504   5.626   0.739   0.713  0.9120  1.5415  0.5179
 4500TIP3   OH213505   2.835   0.721   2.812  0.1978 -0.0191  0.0568
 4500TIP3    H113506   2.774   0.670   2.866  0.5265  0.0053  0.4610
 4500TIP3    H213507   2.915   0.725   2.864  0.1798  0.9149  0.0322
 4501TIP3   OH213508   1.514   0.158   4.349 -0.1042 -0.3780 -0.1739
 4501TIP3    H113509   1.430   0.119   4.326  0.8813 -1.6156 -1.8969
 4501TIP3    H213510   1.564   0.085   4.387  0.6425  0.0166 -0.3888
 4502TIP3   OH213511   6.358   2.075   1.284  0.7213 -0.5120  0.1438
 4502TIP3    H113512   6.371   2.041   1.195  1.6238  1.0521 -0.3658
 4502TIP3    H213513   6.280   2.131   1.277  0.7785 -0.4087  0.3466
 4503TIP3   OH213514   1.124   4.213   4.554 -0.5232 -0.2053 -0.5688
 4503TIP3    H113515   1.100   4.203   4.646 -3.7711  0.3153 -1.2516
 4503TIP3    H213516   1.217   4.190   4.551 -0.3933 -0.5710  2.7524
 4504TIP3   OH213517   1.044   4.636   3.131 -0.0423  1.0236 -0.0085
 4504TIP3    H113518   1.021   4.720   3.091  0.0100  0.5984 -0.9486
 4504TIP3    H213519   1.131   4.616   3.096 -0.1043  0.5265  0.1189
 4505TIP3   OH213520   6.024   4.521   2.324  0.1132 -0.1268 -0.0410
 4505TIP3    H113521   6.081   4.570   2.383  0.2884 -1.3810  0.8885
 4505TIP3    H213522   6.008   4.439   2.371 -0.9093 -0.5657 -1.1343
 4506TIP3   OH213523   4.357   3.258   1.790 -1.2212 -0.1434  0.1836
 4506TIP3    H113524   4.365   3.352   1.806 -0.6906 -0.3166  1.0201
 4506TIP3    H213525   4.384   3.246   1.700  0.0744  0.3387  0.4894
 4507TIP3   OH213526   2.160   1.890   0.756 -0.1545 -0.3472  0.7868
 4507TIP3    H113527   2.188   1.872   0.846  0.8279 -0.0348  0.5627
 4507TIP3    H213528   2.068   1.865   0.753 -0.2774 -0.0681  1.9610
 4508TIP3   OH213529   5.043   4.810   3.415 -0.6981 -0.6534  0.1305
 4508TIP3    H113530   5.060   4.804   3.509  0.0932  0.2136  0.0599
 4508TIP3    H213531   5.123   4.846   3.378 -1.4472  0.2419 -0.7029
 4509TIP3   OH213532   2.147   4.909   1.342  0.7536 -0.3883 -0.3224
 4509TIP3    H113533   2.230   4.873   1.373  0.4250 -1.6051 -0.8048
 4509TIP3    H213534   2.172   4.977   1.280  1.3928  0.3060  0.6722
 4510TIP3   OH213535   0.696   4.453   1.590  0.0293  0.6421  0.3125
 4510TIP3    H113536   0.634   4.503   1.538  1.3549  0.2241 -1.8247
 4510TIP3    H213537   0.778   4.460   1.541  0.7603 -1.8554  1.0586
 4511TIP3   OH213538   3.575   3.685   3.078  0.4089 -0.7251  0.2148
 4511TIP3    H113539   3.556   3.775   3.104  1.0328 -0.4024 -0.4254
 4511TIP3    H213540   3.492   3.639   3.091 -0.0583  0.0488  0.0753
 4512TIP3   OH213541   3.618   5.959   3.471  0.3173  0.8288 -0.6066
 4512TIP3    H113542   3.527   5.948   3.496  0.4174  0.6275 -0.3291
 4512TIP3    H213543   3.656   5.871   3.480  0.9006  1.1982  0.7183
 4513TIP3   OH213544   0.307   5.062   1.898 -0.1384  0.4904  0.0338
 4513TIP3    H113545   0.260   4.979   1.892  0.6102 -0.1099  1.6696
 4513TIP3    H213546   0.296   5.103   1.812  0.0659 -1.6254 -1.0780
 4514TIP3   OH213547   4.492   0.768   3.683  0.0021 -0.4586  0.5069
 4514TIP3    H113548   4.580   0.800   3.703 -0.7741  1.3724  1.2353
 4514TIP3    H213549   4.475   0.799   3.594 -0.1103 -0.3153  0.5775
 4515TIP3   OH213550   0.071   0.357   4.528 -0.7758  0.4146 -0.1805
 4515TIP3    H113551   0.094   0.366   4.435  0.6333  2.0528  0.2742
 4515TIP3    H213552   0.051   0.264   4.539  1.0997 -0.2234 -1.7017
 4516TIP3   OH213553   1.100   3.997   1.744 -0.0188 -0.1390  0.3397
 4516TIP3    H113554   1.087   4.090   1.764 -0.3326 -0.2032  0.4413
 4516TIP3    H213555   1.195   3.986   1.745  0.0019  0.0517  0.9217
 4517TIP3   OH213556   5.339   3.024   1.417 -0.3439 -0.7233 -0.3875
 4517TIP3    H113557   5.409   2.961   1.401  0.6730  0.3438 -0.3490
 4517TIP3    H213558   5.258   2.973   1.414  0.4756 -2.1027  0.2043
 4518TIP3   OH213559   0.750   0.653   1.762  0.5735 -0.6297 -0.3419
 4518TIP3    H113560   0.753   0.624   1.671 -0.5832 -1.9815  0.0226
 4518TIP3    H213561   0.727   0.746   1.757 -0.8616 -1.0118 -1.4067
 4519TIP3   OH213562   0.047   2.836   5.156  0.0278  0.6016  0.2507
 4519TIP3    H113563   0.112   2.843   5.225  1.7713 -2.0189 -0.9615
 4519TIP3    H213564   0.004   2.751   5.172  0.6728 -0.2100 -1.9462
 4520TIP3   OH213565   0.093   1.224   0.127  0.1288  0.6022  0.3435
 4520TIP3    H113566   0.053   1.295   0.177 -0.8986  0.5779 -0.4023
 4520TIP3    H213567   0.062   1.237   0.038 -1.3020 -1.5768  0.4303
 4521TIP3   OH213568   1.048   3.022   1.946  0.1951 -0.0292 -0.3463
 4521TIP3    H113569   1.007   2.938   1.925  1.3177 -0.9906  1.1069
 4521TIP3    H213570   1.117   3.032   1.882 -0.9759  0.6256 -1.5538
 4522TIP3   OH213571   5.687   2.862   2.874 -0.0094 -0.2538  0.2745
 4522TIP3    H113572   5.673   2.827   2.786 -2.8797  0.3864  0.3724
 4522TIP3    H213573   5.782   2.859   2.886  0.8340  2.1284 -3.8787
 4523TIP3   OH213574   5.824   4.003   3.215 -0.4696 -0.0204 -0.2596
 4523TIP3    H113575   5.734   3.981   3.193 -0.3081 -1.0491  0.0514
 4523TIP3    H213576   5.830   4.098   3.201 -0.7021 -0.3613 -3.5151
 4524TIP3   OH213577   0.098   2.905   3.702 -0.1904 -0.5909  0.1112
 4524TIP3    H113578   0.016   2.919   3.655 -0.5666 -0.0571  0.9046
 4524TIP3    H213579   0.160   2.879   3.634 -0.8448 -0.3277 -0.6063
 4525TIP3   OH213580   1.209   1.613   4.618 -0.1409  0.0834 -0.0931
 4525TIP3    H113581   1.190   1.639   4.528 -0.2486 -0.0088 -0.0970
 4525TIP3    H213582   1.178   1.686   4.671  2.1140  1.2629 -0.2675
 4526TIP3   OH213583   1.927   3.504   3.354  0.1070 -0.2235  0.0595
 4526TIP3    H113584   1.898   3.421   3.392  0.5709 -0.5184 -0.2226
 4526TIP3    H213585   1.883   3.508   3.269  1.7240 -1.2054 -0.8615
 4527TIP3   OH213586   5.323   5.326   4.328 -0.5254  0.1989  0.9581
 4527TIP3    H113587   5.293   5.410   4.292  1.1624  0.4013 -0.1070
 4527TIP3    H213588   5.379   5.350   4.402 -1.2783 -0.0675  1.6184
 4528TIP3   OH213589   4.193   0.185   0.430 -0.2316  0.5484  0.9587
 4528TIP3    H113590   4.131   0.230   0.372 -1.5138  0.0550  1.9066
 4528TIP3    H213591   4.160   0.202   0.518  0.3858 -0.6132  1.4278
 4529TIP3   OH213592   2.194   4.230   0.724 -0.1330  0.9779 -0.0473
 4529TIP3    H113593   2.176   4.200   0.635 -0.8338 -0.9794  0.6928
 4529TIP3    H213594   2.108   4.231   0.767  0.3636  0.4559  1.0105
 4530TIP3   OH213595   3.524   1.444   0.306 -0.0876  0.2832 -0.0209
 4530TIP3    H113596   3.561   1.403   0.384 -0.5023  1.8665  1.0530
 4530TIP3    H213597   3.594   1.441   0.242  0.7520  0.2478  0.8783
 4531TIP3   OH213598   5.874   3.768   3.341  0.6100 -0.0494  0.1850
 4531TIP3    H113599   5.845   3.849   3.299  0.1130 -0.0986  0.4272
 4531TIP3    H213600   5.814   3.701   3.306 -1.2130  0.2309  2.5250
 4532TIP3   OH213601   2.835   4.703   3.304 -0.2414  0.3262 -0.3254
 4532TIP3    H113602   2.750   4.671   3.336  0.2631 -1.9420 -1.0440
 4532TIP3    H213603   2.818   4.725   3.212 -0.4616  1.6903  0.0295
 4533TIP3   OH213604   0.515   4.760   4.442  0.1159 -0.3758 -0.6587
 4533TIP3    H113605   0.579   4.699   4.477  0.5530  0.5380  0.1726
 4533TIP3    H213606   0.555   4.846   4.452 -0.9783  0.1599 -0.7114
 4534TIP3   OH213607   0.352   0.235   4.446  0.5794  0.2373  0.2533
 4534TIP3    H113608   0.396   0.317   4.423  0.8928 -0.2859 -1.1629
 4534TIP3    H213609   0.309   0.208   4.365 -0.2337 -0.5601  0.9376
 4535TIP3   OH213610   2.349   4.077   0.891 -0.4406 -0.1244 -0.2298
 4535TIP3    H113611   2.306   4.149   0.844  3.1483  2.3281 -0.2047
 4535TIP3    H213612   2.399   4.031   0.824  1.1271  0.5544  0.4180
 4536TIP3   OH213613   3.363   5.030   0.841  0.0583  0.1108 -0.3922
 4536TIP3    H113614   3.334   4.940   0.829 -0.2884  0.2354 -0.5092
 4536TIP3    H213615   3.344   5.050   0.933  1.0188 -0.2427 -0.1044
 4537TIP3   OH213616   4.908   4.480   1.622 -0.2470  0.3210 -0.0490
 4537TIP3    H113617   4.831   4.521   1.584 -0.7334 -0.5959 -0.0755
 4537TIP3    H213618   4.898   4.493   1.717 -1.1630 -1.0146  0.0542
 4538TIP3   OH213619   3.083   5.030   4.130  0.1151  0.2000  0.4294
 4538TIP3    H113620   3.089   5.120   4.161 -2.6400  0.7259 -0.2901
 4538TIP3    H213621   3.027   4.986   4.195 -1.0457 -0.1585 -0.7726
 4539TIP3   OH213622   4.928   1.688   3.929 -0.3532 -0.2791  0.2234
 4539TIP3    H113623   5.000   1.692   3.991 -1.3025  0.9781  1.2838
 4539TIP3    H213624   4.950   1.613   3.872  1.7877  0.0899  0.4659
 4540TIP3   OH213625   6.148   0.904   1.783 -0.1583  0.1532  0.4274
 4540TIP3    H113626   6.153   0.994   1.751  0.7149  0.0264  0.1801
 4540TIP3    H213627   6.082   0.862   1.727 -0.1930  0.4993  0.2076
 4541TIP3   OH213628   4.973   1.773   0.961  0.1412  0.1440 -0.4392
 4541TIP3    H113629   5.010   1.745   1.045 -0.8285 -0.6762 -0.2575
 4541TIP3    H213630   4.935   1.858   0.979  0.8233  0.4291 -0.3145
 4542TIP3   OH213631   2.102   5.021   3.076  0.3257 -0.0603 -0.1488
 4542TIP3    H113632   2.180   5.006   3.022  0.1917  1.4809 -0.8186
 4542TIP3    H213633   2.058   4.936   3.078  1.9904 -0.9731  0.2356
 4543TIP3   OH213634   1.637   3.137   0.211  0.5279  0.6736  0.2374
 4543TIP3    H113635   1.700   3.072   0.181 -1.3476 -2.2944  2.1530
 4543TIP3    H213636   1.583   3.157   0.134  1.4743  0.3676 -0.5160
 4544TIP3   OH213637   5.681   0.088   4.038  0.3174  0.0939  0.3614
 4544TIP3    H113638   5.685   0.114   4.130 -0.4692  0.7234  0.2320
 4544TIP3    H213639   5.726   0.158   3.991  3.2648 -1.5762  0.4616
 4545TIP3   OH213640   0.907   5.454   4.230  0.4905  0.3950  0.5578
 4545TIP3    H113641   0.906   5.493   4.143  0.8951  0.4689  0.5848
 4545TIP3    H213642   0.914   5.529   4.290  0.4493  0.3301  0.6446
 4546TIP3   OH213643   0.726   3.148   3.423 -0.1114 -0.0914  0.2197
 4546TIP3    H113644   0.635   3.174   3.423 -0.1849 -0.2152 -1.5344
 4546TIP3    H213645   0.775   3.230   3.427 -0.3170  0.0890 -0.8148
 4547TIP3   OH213646   3.259   0.960   1.307 -0.2557  0.0570  0.6066
 4547TIP3    H113647   3.343   1.006   1.304 -0.2233  0.0243  1.0095
 4547TIP3    H213648   3.224   0.970   1.219  1.8937 -3.1427 -0.7916
 4548TIP3   OH213649   1.983   5.508   0.801  0.8157  0.3649  0.2520
 4548TIP3    H113650   2.071   5.534   0.829  1.4355 -0.3992 -0.8768
 4548TIP3    H213651   1.971   5.551   0.716  0.1428  0.3745  0.3443
 4549TIP3   OH213652   3.512   3.094   1.366 -0.1049 -0.4147 -0.1928
 4549TIP3    H113653   3.443   3.041   1.406  0.9916 -2.5774 -1.0155
 4549TIP3    H213654   3.555   3.136   1.440 -0.7857 -0.9625  0.5356
 4550TIP3   OH213655   5.652   0.772   2.455 -0.5564  0.2097 -0.2088
 4550TIP3    H113656   5.664   0.837   2.385  0.5304 -0.5422 -0.7453
 4550TIP3    H213657   5.561   0.782   2.481 -0.3662  2.1029 -0.1223
 4551TIP3   OH213658   1.262   0.027   3.999  0.1996 -0.4565  0.0535
 4551TIP3    H113659   1.198  -0.044   4.000 -0.6761  0.2465 -1.4761
 4551TIP3    H213660   1.211   0.106   4.020  1.2352 -0.2843  2.1777
 4552TIP3   OH213661   5.315   4.417   0.107 -0.2320  0.0572  0.7076
 4552TIP3    H113662   5.385   4.411   0.043 -1.3691 -3.4495 -0.4707
 4552TIP3    H213663   5.258   4.488   0.076  0.3010 -0.2532 -1.0357
 4553TIP3   OH213664   2.953   4.267   1.108 -0.1536  0.2910  0.1683
 4553TIP3    H113665   2.859   4.274   1.120 -0.3788 -0.5478 -0.9657
 4553TIP3    H213666   2.986   4.237   1.192 -0.9603  0.0869  0.4172
 4554TIP3   OH213667   0.297   1.035   5.143 -0.1263  0.0200  0.1076
 4554TIP3    H113668   0.310   1.129   5.132 -0.2397  0.0252  0.0185
 4554TIP3    H213669   0.315   1.019   5.236  0.7854 -0.0135 -0.0681
 4555TIP3   OH213670   5.902   4.945   3.728  0.3249 -0.5192 -0.4942
 4555TIP3    H113671   5.875   4.946   3.636 -0.5921  1.6522 -0.2712
 4555TIP3    H213672   5.820   4.937   3.776  0.6805 -0.4491  0.1312
 4556TIP3   OH213673   0.983   5.909   1.972  0.1899  0.0888  0.1020
 4556TIP3    H113674   0.938   5.992   1.954 -2.4045 -0.4407  3.2086
 4556TIP3    H213675   0.984   5.863   1.888 -1.8055  1.7267 -0.8972
 4557TIP3   OH213676   3.337   4.681   0.093  0.1737  0.2762 -0.0754
 4557TIP3    H113677   3.243   4.696   0.104  0.5266  3.0163 -0.1281
 4557TIP3    H213678   3.357   4.720   0.008  1.3472 -0.4323 -0.1435
 4558TIP3   OH213679   2.112   3.328   1.864  0.0603  0.7430  0.3955
 4558TIP3    H113680   2.054   3.330   1.941  0.2087  2.1675  0.4998
 4558TIP3    H213681   2.142   3.419   1.854 -0.3687  0.7104 -1.6596
 4559TIP3   OH213682   4.075   2.213   0.231  0.0679  0.4586 -0.2039
 4559TIP3    H113683   4.081   2.159   0.152 -1.7275 -1.7816  1.0789
 4559TIP3    H213684   4.028   2.291   0.203 -0.9680 -0.5164 -1.2689
 4560TIP3   OH213685   2.885   3.845   5.028 -0.2367  0.4740 -0.4363
 4560TIP3    H113686   2.978   3.822   5.040 -0.6661 -2.1984 -1.4101
 4560TIP3    H213687   2.885   3.906   4.955  0.7643  0.3595 -0.5503
 4561TIP3   OH213688   5.098   4.530   4.805 -0.2021 -0.0291 -0.0388
 4561TIP3    H113689   5.073   4.463   4.868  0.6916 -1.5810 -1.2678
 4561TIP3    H213690   5.083   4.491   4.720  1.5305  0.8330 -0.8057
 4562TIP3   OH213691   3.728   5.232   0.867 -0.1192  0.0613 -0.1346
 4562TIP3    H113692   3.650   5.217   0.921 -1.3002  2.1889 -1.1058
 4562TIP3    H213693   3.762   5.316   0.898  1.4933 -0.5505 -0.1357
 4563TIP3   OH213694   1.386   1.018   1.626  0.3363 -0.0265  0.4036
 4563TIP3    H113695   1.428   1.004   1.711 -0.3454  0.2723  0.7951
 4563TIP3    H213696   1.441   0.969   1.564  0.2402 -1.1330  1.1644
 4564TIP3   OH213697   1.368   3.317   2.841  0.1427 -0.0600 -0.0075
 4564TIP3    H113698   1.440   3.313   2.778  0.5960 -1.5208  0.5652
 4564TIP3    H213699   1.296   3.355   2.792  1.7881  3.3611 -0.0628
 4565TIP3   OH213700   2.841   5.365   4.394  0.0279 -0.7301 -0.1946
 4565TIP3    H113701   2.745   5.367   4.394  0.0292  0.9571  0.6004
 4565TIP3    H213702   2.867   5.456   4.404  1.7349 -1.1776 -0.2476
 4566TIP3   OH213703   0.823   0.940   3.870  0.0748 -0.0723 -0.0054
 4566TIP3    H113704   0.902   0.894   3.900 -1.2763 -2.9144 -0.4831
 4566TIP3    H213705   0.856   1.018   3.825  2.6667 -1.4883 -0.7537
 4567TIP3   OH213706   0.960   1.134   3.622  0.2916 -0.3045  0.2702
 4567TIP3    H113707   0.909   1.088   3.556  0.7079 -1.3891  0.6678
 4567TIP3    H213708   1.048   1.140   3.585 -0.2428  2.3591 -0.8012
 4568TIP3   OH213709   1.557   5.023   2.582 -0.3650 -0.1644  0.3490
 4568TIP3    H113710   1.510   5.104   2.599  1.3671  0.8597  0.5170
 4568TIP3    H213711   1.589   4.996   2.669  0.0217 -0.4121  0.1318
 4569TIP3   OH213712   3.826   1.545   3.481 -0.3049  0.1304  0.0627
 4569TIP3    H113713   3.814   1.504   3.567 -0.3903 -1.0487 -0.4939
 4569TIP3    H213714   3.842   1.638   3.501  0.5386 -0.2728  1.3862
 4570TIP3   OH213715   1.147   0.394   4.278 -0.3670 -0.1894 -0.5122
 4570TIP3    H113716   1.235   0.433   4.283  0.1558 -1.2904 -0.9673
 4570TIP3    H213717   1.154   0.312   4.326 -0.9381 -0.6584 -1.2071
 4571TIP3   OH213718   3.613   2.452   4.772  0.4085  0.1036  0.1238
 4571TIP3    H113719   3.638   2.384   4.709  0.1333  0.4544 -0.3711
 4571TIP3    H213720   3.697   2.491   4.799  0.4936  0.3585 -0.4927
 4572TIP3   OH213721   2.612   0.385   1.292  0.1407 -0.1468  0.5711
 4572TIP3    H113722   2.527   0.413   1.257  0.5836  0.7739  0.2096
 4572TIP3    H213723   2.593   0.361   1.383 -0.2206  1.5736  0.9759
 4573TIP3   OH213724   3.820   5.432   0.484  0.0873 -0.5278  0.7984
 4573TIP3    H113725   3.806   5.491   0.409  1.8551 -1.0088  0.0478
 4573TIP3    H213726   3.870   5.485   0.546 -0.4103 -0.4885  1.1700
 4574TIP3   OH213727   1.804   3.696   2.375 -0.1836  0.2437  0.0774
 4574TIP3    H113728   1.866   3.657   2.436 -0.2014 -0.0769 -0.1074
 4574TIP3    H213729   1.836   3.786   2.363 -0.3478  0.4010  0.7762
 4575TIP3   OH213730   2.949   4.867   4.287 -0.2103 -0.5714 -0.7117
 4575TIP3    H113731   2.967   4.787   4.336  1.3644  0.4791  0.5438
 4575TIP3    H213732   2.871   4.903   4.327 -1.2038 -1.6656 -1.5893
 4576TIP3   OH213733   3.429   2.797   0.952  0.3343 -0.3234 -0.1712
 4576TIP3    H113734   3.385   2.722   0.991 -0.2550 -1.1720 -2.3346
 4576TIP3    H213735   3.521   2.786   0.977  0.0868 -1.1759  0.3977
 4577TIP3   OH213736   1.890   1.246   5.165  0.1191  0.0204  0.1536
 4577TIP3    H113737   1.801   1.216   5.146 -0.3858  0.7263  1.3040
 4577TIP3    H213738   1.922   1.282   5.082  0.1709 -2.1779 -0.8709
 4578TIP3   OH213739   1.270   0.117   0.671 -0.0915 -0.3895  0.4466
 4578TIP3    H113740   1.214   0.098   0.595 -0.0150  0.8300  0.0569
 4578TIP3    H213741   1.210   0.149   0.738  0.2285  4.4074 -1.0948
 4579TIP3   OH213742   1.526   4.426   0.964  0.1020 -0.0064 -0.7086
 4579TIP3    H113743   1.432   4.441   0.976  0.2162  0.1745  0.0078
 4579TIP3    H213744   1.544   4.346   1.014  0.4350  0.2820 -0.3574
 4580TIP3   OH213745   3.870   1.092   0.577 -0.4052  0.4051 -0.2941
 4580TIP3    H113746   3.917   1.009   0.578  0.7541  1.0087 -1.6703
 4580TIP3    H213747   3.888   1.131   0.662 -1.0608 -0.7730  0.4188
 4581TIP3   OH213748   3.832   0.560   1.144 -0.0279  0.6179  0.6120
 4581TIP3    H113749   3.789   0.645   1.134  0.8824  0.9459 -0.6081
 4581TIP3    H213750   3.769   0.508   1.194 -1.9250  1.0486 -1.1929
 4582TIP3   OH213751   5.542   0.032   1.454  0.6251  0.1043 -0.2208
 4582TIP3    H113752   5.516   0.069   1.370  0.2156 -0.7764 -0.5032
 4582TIP3    H213753   5.514  -0.060   1.449 -0.2276  0.2467  1.2235
 4583TIP3   OH213754   5.457   1.483   0.348 -0.0727  0.2680 -0.2695
 4583TIP3    H113755   5.385   1.423   0.368  1.2802 -2.3579 -2.5146
 4583TIP3    H213756   5.415   1.566   0.330 -2.0557  0.1442  3.0268
 4584TIP3   OH213757   4.911   4.493   2.154  0.0740  0.4538 -0.0905
 4584TIP3    H113758   4.950   4.463   2.236  0.4815  0.3624 -0.3134
 4584TIP3    H213759   4.818   4.472   2.162 -0.1586  1.7554  0.9475
 4585TIP3   OH213760   5.047   2.781   1.584  0.2019 -0.5071 -0.6591
 4585TIP3    H113761   5.143   2.784   1.591  0.2592  0.8335 -1.6371
 4585TIP3    H213762   5.028   2.829   1.503 -1.3504  0.0761  0.0265
 4586TIP3   OH213763   0.790   4.149   2.298  0.3552  0.5847 -0.4209
 4586TIP3    H113764   0.774   4.081   2.364  2.1877  0.7166  0.2274
 4586TIP3    H213765   0.772   4.106   2.214  2.0568 -0.9410 -0.0696
 4587TIP3   OH213766   2.676   0.662   1.468 -0.2018 -0.1568  1.0349
 4587TIP3    H113767   2.682   0.602   1.542 -0.8078 -0.6312  0.7073
 4587TIP3    H213768   2.609   0.725   1.492 -0.5077 -0.4000  0.8421
 4588TIP3   OH213769   5.492   3.017   2.177  0.6178  0.0521 -0.5446
 4588TIP3    H113770   5.468   3.060   2.259  1.0184 -3.1980  1.4450
 4588TIP3    H213771   5.584   3.039   2.165  0.9097 -0.4604  0.6125
 4589TIP3   OH213772   5.327   0.925   1.431 -0.2038  0.4773  0.2459
 4589TIP3    H113773   5.282   0.922   1.346 -0.1352  0.8269  0.1956
 4589TIP3    H213774   5.264   0.888   1.493 -1.1423  2.2941  0.4269
 4590TIP3   OH213775   1.195   1.784   0.589 -0.0566  0.4021 -0.2049
 4590TIP3    H113776   1.279   1.740   0.582 -0.3162  0.0680 -1.3711
 4590TIP3    H213777   1.131   1.713   0.595 -0.3296  0.6426 -0.2369
 4591TIP3   OH213778   2.131   1.064   1.795 -0.2446 -0.8733 -0.1078
 4591TIP3    H113779   2.088   1.021   1.869  0.8574 -0.5642  0.7453
 4591TIP3    H213780   2.109   1.156   1.804  0.6307 -0.7027  0.3784
 4592TIP3   OH213781   3.246   2.031   3.947  0.2863 -0.0322 -0.3093
 4592TIP3    H113782   3.339   2.021   3.928  0.0767  1.9942 -2.9720
 4592TIP3    H213783   3.206   1.948   3.918  0.9979  0.0482 -1.6010
 4593TIP3   OH213784   0.900   1.742   3.041 -0.2581 -0.6597 -0.1881
 4593TIP3    H113785   0.989   1.719   3.014 -0.5564 -0.2431 -1.6167
 4593TIP3    H213786   0.871   1.805   2.976 -1.1545  0.1803  1.0006
 4594TIP3   OH213787   5.159   5.375   1.161 -0.7844  0.0181 -0.3243
 4594TIP3    H113788   5.146   5.468   1.144 -0.7626  0.1692  0.4434
 4594TIP3    H213789   5.110   5.331   1.092 -0.3433  0.5972 -1.0177
 4595TIP3   OH213790   0.380   3.108   0.516  0.3086  0.2015  0.5401
 4595TIP3    H113791   0.466   3.141   0.490 -0.0797 -1.2384 -3.1792
 4595TIP3    H213792   0.399   3.027   0.564  1.0098  2.2729  4.1863
 4596TIP3   OH213793   4.310   3.109   4.067  0.2804  0.7620  0.6916
 4596TIP3    H113794   4.226   3.092   4.024  0.4992 -1.6175  1.0624
 4596TIP3    H213795   4.287   3.132   4.157  0.0067  1.0126  0.5583
 4597TIP3   OH213796   0.618   5.137   2.006  0.0941  0.5112 -0.0045
 4597TIP3    H113797   0.605   5.081   2.082 -1.3596  0.0949 -0.5357
 4597TIP3    H213798   0.539   5.126   1.953  1.1944  0.5294 -1.7548
 4598TIP3   OH213799   3.231   0.935   2.835  0.2757 -0.1149 -0.3580
 4598TIP3    H113800   3.271   0.927   2.922 -4.3923 -1.0055  2.0267
 4598TIP3    H213801   3.194   0.848   2.818 -1.5346  0.8788 -1.7876
 4599TIP3   OH213802   5.588   3.611   5.082 -0.5119 -0.3944  0.4141
 4599TIP3    H113803   5.675   3.579   5.061 -1.2776 -1.5306 -1.2645
 4599TIP3    H213804   5.599   3.706   5.094  1.0034 -0.5862  0.6729
 4600TIP3   OH213805   1.319   1.627   1.943  0.1291  0.2696  0.2014
 4600TIP3    H113806   1.387   1.625   2.010 -2.2454  3.5899  3.1174
 4600TIP3    H213807   1.263   1.552   1.964  0.4353  0.1734  0.7058
 4601TIP3   OH213808   1.221   1.696   4.350 -0.5821  0.4572  0.5824
 4601TIP3    H113809   1.233   1.682   4.257  1.4922  0.1515  0.8539
 4601TIP3    H213810   1.160   1.769   4.356  0.2818  1.3548 -1.0324
 4602TIP3   OH213811   5.610   4.178   3.374 -0.0302  0.4376 -0.2782
 4602TIP3    H113812   5.622   4.238   3.300 -2.1006  0.3941 -0.7036
 4602TIP3    H213813   5.562   4.104   3.337  0.9425 -0.6947  0.6333
 4603TIP3   OH213814   2.549   2.956   0.200  0.4270  0.0397  0.0957
 4603TIP3    H113815   2.473   2.990   0.153  0.1588  0.9655  1.1329
 4603TIP3    H213816   2.516   2.881   0.248  0.4623 -0.2966 -0.4034
 4604TIP3   OH213817   2.198   3.570   4.721  0.1974 -0.2570 -0.5338
 4604TIP3    H113818   2.217   3.567   4.815  0.8203 -0.5502 -0.6617
 4604TIP3    H213819   2.247   3.496   4.685 -0.8997 -0.8099 -0.9440
 4605TIP3   OH213820   2.078   0.262   1.867 -0.2325 -0.4094  0.3998
 4605TIP3    H113821   2.038   0.176   1.853  0.5194 -0.8632  0.9583
 4605TIP3    H213822   2.152   0.264   1.806  0.9358 -0.9722  1.7495
 4606TIP3   OH213823   5.956   2.437   0.976 -0.3531 -0.4389 -0.3291
 4606TIP3    H113824   6.048   2.426   0.953 -0.5041 -1.6963 -0.4602
 4606TIP3    H213825   5.909   2.384   0.910 -1.1103 -0.3904  0.1584
 4607TIP3   OH213826   4.095   3.855   2.404  0.3055 -0.4504 -0.0970
 4607TIP3    H113827   4.066   3.892   2.487 -0.9203 -0.6136 -0.4255
 4607TIP3    H213828   4.188   3.875   2.399  0.0853  0.8408  0.6355
 4608TIP3   OH213829   3.155   3.250   0.234 -0.8081  0.6299 -0.2211
 4608TIP3    H113830   3.080   3.296   0.272 -1.1914 -0.2362  0.1052
 4608TIP3    H213831   3.146   3.160   0.265 -0.1173  0.3118 -0.9107
 4609TIP3   OH213832   2.309   0.571   2.564  0.2977 -0.1616 -0.4808
 4609TIP3    H113833   2.295   0.485   2.525  2.5023 -1.3564  1.1046
 4609TIP3    H213834   2.346   0.552   2.650  1.6385  2.3751 -0.4042
 4610TIP3   OH213835   0.622   5.724   2.482 -0.0388 -0.6344 -0.0703
 4610TIP3    H113836   0.567   5.799   2.463 -2.0315 -2.0339 -0.1625
 4610TIP3    H213837   0.594   5.694   2.569  3.1476  0.7010  1.5957
 4611TIP3   OH213838   0.457   3.795   3.852 -0.0170  0.7734 -0.3401
 4611TIP3    H113839   0.463   3.709   3.894 -0.4305  0.0961 -1.6096
 4611TIP3    H213840   0.547   3.826   3.850  0.4491 -0.5119 -1.5728
 4612TIP3   OH213841   6.236   0.381   3.793  0.6252  0.3475 -0.5577
 4612TIP3    H113842   6.314   0.328   3.809  0.2838  0.0355  0.1366
 4612TIP3    H213843   6.163   0.323   3.815  0.2122  0.7707 -0.8011
 4613TIP3   OH213844   1.214   0.235   4.710  0.0306  0.1016  0.1147
 4613TIP3    H113845   1.289   0.286   4.680 -0.4167 -0.7019 -2.6236
 4613TIP3    H213846   1.164   0.296   4.765  0.4813  2.0270 -1.5078
 4614TIP3   OH213847   4.862   3.670   0.697  0.2541  0.0532  0.2304
 4614TIP3    H113848   4.881   3.688   0.789  2.0438  2.6396 -0.5544
 4614TIP3    H213849   4.770   3.695   0.686 -0.4798 -1.8107  1.5962
 4615TIP3   OH213850   2.867   1.498   0.644 -0.1475 -0.2527  0.0527
 4615TIP3    H113851   2.896   1.427   0.586 -1.2819 -2.2746  1.8405
 4615TIP3    H213852   2.940   1.511   0.705 -0.2692 -0.4720  0.2452
 4616TIP3   OH213853   6.060   2.298   5.090  0.2050  0.3600  0.2759
 4616TIP3    H113854   6.057   2.245   5.169  1.8618  2.3561  1.7848
 4616TIP3    H213855   5.985   2.357   5.097 -0.4363 -0.3597 -0.3610
 4617TIP3   OH213856   1.591   0.125   5.119  0.4500  0.0018 -0.2790
 4617TIP3    H113857   1.566   0.038   5.088  0.0966  0.2370 -0.6642
 4617TIP3    H213858   1.623   0.170   5.040  0.2554  0.3486 -0.1635
 4618TIP3   OH213859   2.035   2.247   2.154  0.1251  0.1058  0.2094
 4618TIP3    H113860   1.945   2.226   2.128 -0.3247 -0.5846  2.1598
 4618TIP3    H213861   2.029   2.332   2.197 -0.0749 -0.9457  2.4164
 4619TIP3   OH213862   2.757   4.172   0.203 -0.2728  0.0589 -0.2894
 4619TIP3    H113863   2.757   4.264   0.230 -1.7551  0.0039 -0.0360
 4619TIP3    H213864   2.701   4.128   0.267  0.2032 -0.9792 -0.5667
 4620TIP3   OH213865   1.661   5.286   3.052  0.5898  0.7280  0.0206
 4620TIP3    H113866   1.626   5.371   3.025 -1.2589 -0.0645 -0.2244
 4620TIP3    H213867   1.739   5.274   2.997 -0.3150  1.3430 -1.4634
 4621TIP3   OH213868   2.118   2.711   0.528 -0.1656 -0.1512  0.0480
 4621TIP3    H113869   2.053   2.723   0.459 -1.6718  0.9616  1.5918
 4621TIP3    H213870   2.110   2.618   0.552 -0.0432 -0.4012 -0.8355
 4622TIP3   OH213871   1.273   5.929   3.233 -0.7015  0.0008  0.0951
 4622TIP3    H113872   1.285   5.956   3.324  0.8757  0.9512 -0.3633
 4622TIP3    H213873   1.324   5.848   3.226 -2.4900 -1.2487  0.5267
 4623TIP3   OH213874   2.368   3.907   4.731  0.2040 -0.3696 -0.2061
 4623TIP3    H113875   2.458   3.901   4.764  0.3764  2.5547  0.1610
 4623TIP3    H213876   2.368   3.854   4.651  1.7839 -1.7085  0.6230
 4624TIP3   OH213877   4.903   0.306   1.740 -0.1375 -0.1634  0.3685
 4624TIP3    H113878   4.869   0.386   1.699  1.7985  0.2849 -0.5151
 4624TIP3    H213879   4.962   0.338   1.808  0.0087 -0.8539  0.5699
 4625TIP3   OH213880   6.311   0.957   0.181 -0.1375 -0.1073  0.4106
 4625TIP3    H113881   6.386   1.016   0.175 -0.6594  0.5322  0.1337
 4625TIP3    H213882   6.316   0.904   0.101 -0.0385 -0.0100  0.3522
 4626TIP3   OH213883   2.995   5.906   0.409 -0.1434  0.0693  0.0342
 4626TIP3    H113884   2.910   5.892   0.366  0.0879  0.4235 -0.5518
 4626TIP3    H213885   3.044   5.826   0.389 -0.3082 -0.1072  0.3171
 4627TIP3   OH213886   0.241   2.363   4.111  0.0249 -0.0079 -0.3658
 4627TIP3    H113887   0.267   2.434   4.170 -2.4719 -0.6188  1.6446
 4627TIP3    H213888   0.268   2.393   4.024  3.2985  1.2327  0.8950
 4628TIP3   OH213889   5.287   3.545   1.502  0.0423  0.2342 -0.2515
 4628TIP3    H113890   5.353   3.516   1.439 -0.4810  1.2128 -1.2805
 4628TIP3    H213891   5.264   3.634   1.473 -0.3657  0.6206  1.2007
 4629TIP3   OH213892   4.644   0.597   4.756 -0.3156  0.2675  0.2946
 4629TIP3    H113893   4.703   0.548   4.812 -1.6293 -2.0246 -0.2140
 4629TIP3    H213894   4.573   0.625   4.814  0.4442  1.6948  0.5899
 4630TIP3   OH213895   6.296   0.956   4.691 -0.1757 -0.2562 -0.1142
 4630TIP3    H113896   6.306   1.047   4.717 -0.7901  0.0707 -0.9553
 4630TIP3    H213897   6.238   0.918   4.757  0.7556 -0.2695  0.7081
 4631TIP3   OH213898   0.218   2.638   4.702  0.4473 -0.6274  0.3807
 4631TIP3    H113899   0.236   2.594   4.785 -0.4961 -1.2676  0.2708
 4631TIP3    H213900   0.123   2.633   4.693  0.4795  0.0232 -0.4207
 4632TIP3   OH213901   1.988   0.409   0.488 -0.3095 -0.2333  0.1992
 4632TIP3    H113902   1.986   0.364   0.404 -4.9442  1.0835 -0.6773
 4632TIP3    H213903   2.047   0.357   0.542  1.1108 -2.4060 -3.1334
 4633TIP3   OH213904   0.860   4.633   3.591  0.1061 -0.0699 -0.6813
 4633TIP3    H113905   0.940   4.649   3.641  1.9757 -3.3377 -2.2575
 4633TIP3    H213906   0.855   4.705   3.529  1.5767  0.4368 -0.2494
 4634TIP3   OH213907   0.242   0.168   3.630 -0.0713 -0.1972 -0.1583
 4634TIP3    H113908   0.171   0.130   3.578 -0.8058  1.2965 -0.3106
 4634TIP3    H213909   0.321   0.155   3.578 -0.3144 -1.3413 -0.2642
 4635TIP3   OH213910   2.158   5.959   0.955  0.2115  0.4199  0.1196
 4635TIP3    H113911   2.224   5.899   0.990  1.9344  1.9032 -0.4584
 4635TIP3    H213912   2.192   5.985   0.869 -0.9068  1.5849 -0.0051
 4636TIP3   OH213913   3.025   0.518   0.819  0.3699  0.1422  0.0320
 4636TIP3    H113914   3.025   0.423   0.831 -0.1784  0.2417  0.8737
 4636TIP3    H213915   2.961   0.534   0.750  0.0794 -0.0539  0.2570
 4637TIP3   OH213916   3.152   4.300   0.251  0.0162  0.3385 -0.2420
 4637TIP3    H113917   3.061   4.321   0.270 -0.5384 -0.2637 -2.0424
 4637TIP3    H213918   3.148   4.216   0.204  1.5011  0.2257 -0.2108
 4638TIP3   OH213919   2.090   4.596   5.185 -0.2067  0.1542  0.2621
 4638TIP3    H113920   2.001   4.596   5.150  0.1143 -0.1598 -0.5805
 4638TIP3    H213921   2.118   4.687   5.179 -0.7964  0.4334  1.4193
 4639TIP3   OH213922   1.352   3.162   1.545 -0.2294  0.4070  0.5197
 4639TIP3    H113923   1.418   3.232   1.549  1.6759 -1.1755 -0.9556
 4639TIP3    H213924   1.280   3.200   1.495  1.0946  1.1220 -0.9527
 4640TIP3   OH213925   1.630   1.270   0.822  0.3017  0.1044 -0.2900
 4640TIP3    H113926   1.701   1.332   0.812 -0.4841  1.4590  1.7917
 4640TIP3    H213927   1.572   1.287   0.748 -0.0398  2.1384  0.3737
 4641TIP3   OH213928   5.683   0.929   2.248 -0.0037 -0.3491 -0.1792
 4641TIP3    H113929   5.633   0.974   2.180  0.6277  0.2258 -0.2769
 4641TIP3    H213930   5.745   0.875   2.199  0.9415  0.6130 -0.0896
 4642TIP3   OH213931   4.608   4.816   3.452  0.2747  0.0285 -0.3171
 4642TIP3    H113932   4.551   4.878   3.498 -0.7544  0.2900 -1.8512
 4642TIP3    H213933   4.682   4.869   3.423 -0.4804  0.5465 -1.4037
 4643TIP3   OH213934   4.326   0.822   1.370  0.2816 -1.0449 -0.2812
 4643TIP3    H113935   4.351   0.880   1.298  0.1033 -0.4870  0.0997
 4643TIP3    H213936   4.382   0.848   1.443 -0.8542 -0.2841  0.3553
 4644TIP3   OH213937   1.547   0.589   3.988  0.4121 -0.2643 -0.0111
 4644TIP3    H113938   1.578   0.611   3.900  0.0633  0.8973  0.1388
 4644TIP3    H213939   1.453   0.606   3.985  0.6383  1.3778  1.0257
 4645TIP3   OH213940   3.918   1.687   4.910 -0.2452 -0.3399  0.3079
 4645TIP3    H113941   3.826   1.664   4.922 -0.3020 -0.5823 -0.5162
 4645TIP3    H213942   3.951   1.622   4.847 -0.1637  1.2136 -1.3295
 4646TIP3   OH213943   2.932   2.702   0.745 -0.1010 -0.3197 -0.0772
 4646TIP3    H113944   3.004   2.691   0.683  0.7504  0.4472  0.7402
 4646TIP3    H213945   2.975   2.705   0.831 -1.0614  0.5062  0.3935
 4647TIP3   OH213946   6.268   1.669   3.142 -0.0223  0.0396 -0.1476
 4647TIP3    H113947   6.193   1.646   3.197  0.4287 -0.9624  0.0680
 4647TIP3    H213948   6.235   1.665   3.053 -0.6082  1.0969 -0.0011
 4648TIP3   OH213949   4.633   2.012   2.329 -0.2171 -0.5337 -0.6050
 4648TIP3    H113950   4.637   2.108   2.323 -0.1159 -0.4737  0.2521
 4648TIP3    H213951   4.717   1.983   2.294 -0.2675 -0.3137 -0.9167
 4649TIP3   OH213952   1.704   4.943   1.482  0.1341  0.1108 -0.6639
 4649TIP3    H113953   1.612   4.918   1.474  0.8875 -3.2011 -0.5228
 4649TIP3    H213954   1.710   4.981   1.570 -0.7389 -1.9648  0.3849
 4650TIP3   OH213955   5.702   3.547   3.499  0.1626  0.1444 -0.6297
 4650TIP3    H113956   5.659   3.479   3.551 -1.1565  2.3709  1.3607
 4650TIP3    H213957   5.785   3.563   3.544  0.2854  0.1626 -0.8604
 4651TIP3   OH213958   5.745   1.764   0.479 -0.1730 -0.1588  0.0967
 4651TIP3    H113959   5.760   1.857   0.465 -0.9035  0.0857  0.8270
 4651TIP3    H213960   5.801   1.742   0.554  0.4675 -0.4594 -0.4599
 4652TIP3   OH213961   0.189   4.829   5.024  0.2711  0.2536  0.0148
 4652TIP3    H113962   0.235   4.796   5.102  1.4747 -0.5288 -0.9703
 4652TIP3    H213963   0.213   4.921   5.019  2.8821 -0.3811 -1.1429
 4653TIP3   OH213964   3.280   5.533   0.373 -0.3789 -0.1010 -0.3574
 4653TIP3    H113965   3.327   5.586   0.437 -1.1193  0.3955 -0.2173
 4653TIP3    H213966   3.347   5.474   0.337  0.4986  1.0327 -0.6285
 4654TIP3   OH213967   4.683   2.351   3.716  0.0015 -0.3078  0.0471
 4654TIP3    H113968   4.662   2.284   3.781 -1.1244  0.1847  0.2006
 4654TIP3    H213969   4.674   2.305   3.632  0.0830 -0.5714  0.1804
 4655TIP3   OH213970   4.720   3.962   1.203  0.0632 -0.1524 -0.0998
 4655TIP3    H113971   4.662   3.972   1.279 -0.7016 -2.1862 -0.3592
 4655TIP3    H213972   4.665   3.982   1.128  0.7622  1.6387 -0.1785
 4656TIP3   OH213973   5.205   5.007   0.293  0.2531 -0.5642  0.0830
 4656TIP3    H113974   5.143   4.948   0.335  0.0720 -0.4617 -0.0410
 4656TIP3    H213975   5.167   5.025   0.207 -0.2493  0.5921  0.5185
 4657TIP3   OH213976   5.290   2.345   2.511  0.3288  0.5582 -0.1170
 4657TIP3    H113977   5.279   2.254   2.481  1.7913  0.9327 -1.9708
 4657TIP3    H213978   5.263   2.343   2.603  0.3504 -1.7558 -0.0978
 4658TIP3   OH213979   4.604   3.710   4.172 -0.2623  0.1417  0.4187
 4658TIP3    H113980   4.553   3.766   4.115 -0.8038 -1.9235 -1.2353
 4658TIP3    H213981   4.555   3.628   4.178  1.8240 -1.2146  0.4129
 4659TIP3   OH213982   5.508   3.910   2.536 -0.6983 -0.2041 -0.0466
 4659TIP3    H113983   5.501   3.951   2.623 -0.0222 -0.1347 -0.0148
 4659TIP3    H213984   5.419   3.881   2.515 -1.4706  2.3117 -0.5719
 4660TIP3   OH213985   2.851   3.749   3.759 -0.7856 -0.7207 -0.3687
 4660TIP3    H113986   2.836   3.713   3.847 -0.0560  1.2214  0.6163
 4660TIP3    H213987   2.764   3.771   3.727 -0.9715 -0.0483  0.5380
 4661TIP3   OH213988   3.144   1.672   5.171  0.6935 -0.6321  0.2170
 4661TIP3    H113989   3.237   1.694   5.177  0.2964  0.8566  1.7221
 4661TIP3    H213990   3.113   1.717   5.093  0.6171  1.5096  1.4199
 4662TIP3   OH213991   3.592   1.301   0.540 -0.7192 -0.3489 -0.2140
 4662TIP3    H113992   3.592   1.317   0.634  0.8950  0.2086 -0.2836
 4662TIP3    H213993   3.504   1.267   0.522 -0.3780 -2.5489  1.8276
 4663TIP3   OH213994   0.705   3.142   4.646  0.1067 -0.1669  0.6054
 4663TIP3    H113995   0.617   3.125   4.680 -0.0295  2.6315  1.9884
 4663TIP3    H213996   0.745   3.199   4.712  2.9680 -1.2966 -0.0119
 4664TIP3   OH213997   6.281   4.800   4.932  0.2454  0.1405 -0.8351
 4664TIP3    H113998   6.252   4.887   4.905 -1.0900  0.5141  1.5414
 4664TIP3    H213999   6.363   4.815   4.979 -0.4329  0.2678  0.3424
 4665TIP3   OH214000   5.629   2.611   2.644 -0.3675  0.4562 -0.4425
 4665TIP3    H114001   5.706   2.604   2.586 -0.6047  0.2875 -0.7432
 4665TIP3    H214002   5.554   2.601   2.585 -0.7150  3.1073 -0.5726
 4666TIP3   OH214003   1.378   3.050   3.514  0.8171 -0.5067  0.0437
 4666TIP3    H114004   1.300   3.090   3.554 -1.0477 -0.9551 -2.8675
 4666TIP3    H214005   1.412   3.118   3.456  3.4904  0.1314  2.1423
 4667TIP3   OH214006   0.002   4.146   0.604 -0.0730  0.6513 -0.7137
 4667TIP3    H114007   0.070   4.213   0.610 -0.3280  0.7880  1.9672
 4667TIP3    H214008   0.038   4.071   0.651 -1.0547  0.0969 -0.8192
 4668TIP3   OH214009   4.893   4.077   0.890 -0.5634  0.1894 -0.5765
 4668TIP3    H114010   4.889   4.128   0.971  0.9254  1.6335 -1.3613
 4668TIP3    H214011   4.986   4.075   0.867 -0.9495 -0.2774 -2.2020
 4669TIP3   OH214012   1.551   5.859   0.735  0.3986  0.4131  0.7707
 4669TIP3    H114013   1.503   5.811   0.667  1.7501 -0.2254  0.2172
 4669TIP3    H214014   1.596   5.928   0.687  0.6498  0.5145  1.1560
 4670TIP3   OH214015   3.991   1.549   3.200  0.4541  0.0537 -0.0490
 4670TIP3    H114016   3.953   1.491   3.266  0.4224  1.1647  0.9561
 4670TIP3    H214017   3.950   1.523   3.118 -3.3173  1.7580  1.0643
 4671TIP3   OH214018   2.523   4.196   2.506 -0.6169  0.1662 -0.2296
 4671TIP3    H114019   2.467   4.119   2.509 -0.2136 -0.1154  1.2600
 4671TIP3    H214020   2.490   4.251   2.577  0.4783  0.3538  0.1476
 4672TIP3   OH214021   2.269   1.740   5.109 -0.2508 -0.1855 -0.2154
 4672TIP3    H114022   2.298   1.660   5.065 -3.5931 -0.8803 -1.4422
 4672TIP3    H214023   2.262   1.715   5.202 -0.0798 -0.9619 -0.4030
 4673TIP3   OH214024   3.999   3.698   4.129  0.4592 -0.5367 -0.5866
 4673TIP3    H114025   3.975   3.622   4.181 -1.1390 -0.5770 -1.3261
 4673TIP3    H214026   3.961   3.681   4.043 -0.3250  1.3014 -0.6424
 4674TIP3   OH214027   0.087   5.211   4.778 -0.4154  0.5023  0.3511
 4674TIP3    H114028   0.153   5.245   4.718  0.3866 -1.2198  0.1970
 4674TIP3    H214029   0.103   5.257   4.861 -0.3210  1.5312 -0.2263
 4675TIP3   OH214030   4.632   5.947   0.479 -0.2512 -0.2037  0.1163
 4675TIP3    H114031   4.583   6.028   0.497 -1.5302 -1.1605  1.1243
 4675TIP3    H214032   4.711   5.977   0.435 -0.7303  1.5975  0.3780
 4676TIP3   OH214033   2.813   1.696   2.824  0.1352  0.1086  0.0470
 4676TIP3    H114034   2.833   1.602   2.830 -0.6721  0.0051  2.6671
 4676TIP3    H214035   2.725   1.699   2.786  0.9513 -0.0130 -1.9808
 4677TIP3   OH214036   2.400   4.959   2.643  0.2195 -0.0045 -0.4563
 4677TIP3    H114037   2.327   4.932   2.587 -0.2512 -1.5656  0.8485
 4677TIP3    H214038   2.476   4.915   2.606 -0.0384 -0.7885 -0.0645
 4678TIP3   OH214039   4.278   2.377   3.965  0.6252 -0.2495  0.2969
 4678TIP3    H114040   4.246   2.418   3.885 -0.9156  0.5266  1.2686
 4678TIP3    H214041   4.227   2.297   3.974  3.1868 -2.2264 -1.2545
 4679TIP3   OH214042   5.751   4.891   1.719 -1.2606 -0.0239  0.4869
 4679TIP3    H114043   5.689   4.818   1.711 -1.6326  0.4420 -1.5351
 4679TIP3    H214044   5.836   4.849   1.729 -1.7211 -0.6775  2.1147
 4680TIP3   OH214045   3.806   3.367   3.361  0.1915 -0.1717  0.0461
 4680TIP3    H114046   3.901   3.352   3.363  0.1975 -0.0989  1.2673
 4680TIP3    H214047   3.777   3.346   3.450 -1.0486 -0.8303 -0.4987
 4681TIP3   OH214048   0.290   2.952   4.982  0.7203  0.1094  0.3655
 4681TIP3    H114049   0.255   2.869   4.949 -0.5268  0.7410  0.0132
 4681TIP3    H214050   0.224   2.982   5.045  1.7076  0.2945  1.3368
 4682TIP3   OH214051   5.963   2.908   3.042  0.0449  0.3097 -0.0446
 4682TIP3    H114052   5.880   2.948   3.069  0.8815  1.7342  0.5473
 4682TIP3    H214053   6.027   2.979   3.048  1.3992 -0.8553 -0.0638
 4683TIP3   OH214054   1.044   4.287   0.862  0.3316 -0.1293 -0.3256
 4683TIP3    H114055   1.075   4.326   0.781  1.7896 -0.5771 -0.0038
 4683TIP3    H214056   0.965   4.336   0.884  1.3404  1.7068 -0.6516
 4684TIP3   OH214057   5.905   4.876   2.323 -0.1903  0.1976 -0.0798
 4684TIP3    H114058   5.933   4.962   2.354  1.2185 -0.0365 -0.6733
 4684TIP3    H214059   5.881   4.889   2.231 -1.3222  0.2248  0.1982
 4685TIP3   OH214060   4.505   4.092   2.163  0.2682  0.1824 -0.0572
 4685TIP3    H114061   4.470   4.147   2.093  0.2244  1.6377  1.0638
 4685TIP3    H214062   4.567   4.033   2.118 -1.1574 -0.2338 -1.5775
 4686TIP3   OH214063   6.203   4.008   4.235  0.0436 -0.6037 -0.1930
 4686TIP3    H114064   6.198   4.032   4.328  0.9665 -1.2287  0.0285
 4686TIP3    H214065   6.146   4.071   4.191 -0.9028 -0.6870  0.8643
 4687TIP3   OH214066   1.980   2.603   3.860  0.2176  0.0653  0.2117
 4687TIP3    H114067   1.958   2.537   3.926  0.6937 -0.4163 -0.1096
 4687TIP3    H214068   1.895   2.640   3.834  0.0163  0.1707  0.9897
 4688TIP3   OH214069   2.033   1.098   4.190 -0.0615  0.2813 -0.0187
 4688TIP3    H114070   2.099   1.074   4.254 -0.1644 -0.0560 -0.0325
 4688TIP3    H214071   2.069   1.174   4.144 -0.2259  0.8724  0.8067
 4689TIP3   OH214072   3.530   5.554   0.764 -0.7579  0.0408 -0.1055
 4689TIP3    H114073   3.619   5.521   0.755 -0.3591  0.7732  1.0500
 4689TIP3    H214074   3.486   5.490   0.821 -0.8550 -0.0814 -0.3138
 4690TIP3   OH214075   4.976   4.866   0.387 -0.2247 -0.4423  0.2738
 4690TIP3    H114076   4.886   4.837   0.405 -0.3667  0.3048  0.8339
 4690TIP3    H214077   5.005   4.811   0.315 -0.9258 -1.0993  0.4807
 4691TIP3   OH214078   4.635   1.996   0.556 -0.0137  0.4056 -0.3340
 4691TIP3    H114079   4.660   2.031   0.470  0.4214 -0.0465 -0.3955
 4691TIP3    H214080   4.575   1.925   0.536 -0.7844  1.0102 -0.2135
 4692TIP3   OH214081   4.056   4.244   3.606 -0.2259 -0.3026  0.2806
 4692TIP3    H114082   4.124   4.309   3.624 -0.6957  0.1407  0.4878
 4692TIP3    H214083   4.038   4.253   3.512  0.7303 -1.1518 -0.0106
 4693TIP3   OH214084   5.160   5.421   1.838  0.1716 -0.5532  0.0305
 4693TIP3    H114085   5.113   5.338   1.825 -0.4868 -0.1826 -0.0135
 4693TIP3    H214086   5.251   5.400   1.820 -0.1948 -0.9183 -1.5796
 4694TIP3   OH214087   3.786   5.457   1.034 -0.1926 -0.5914 -0.8217
 4694TIP3    H114088   3.878   5.485   1.040 -0.6783  0.8304  0.7827
 4694TIP3    H214089   3.744   5.499   1.109 -2.2052 -1.0929 -1.6241
 4695TIP3   OH214090   6.164   1.952   0.201  0.5470 -0.4235 -0.4849
 4695TIP3    H114091   6.201   2.035   0.231  1.7366 -0.1571 -2.4912
 4695TIP3    H214092   6.241   1.895   0.188 -0.0628 -1.0996 -1.2258
 4696TIP3   OH214093   3.619   0.794   2.741  0.0554  0.0715 -0.0951
 4696TIP3    H114094   3.626   0.773   2.647  0.0718 -0.0087 -0.0755
 4696TIP3    H214095   3.641   0.887   2.746  0.5190 -0.0382 -0.1084
 4697TIP3   OH214096   0.771   2.708   1.076  0.1016 -0.0314 -0.0162
 4697TIP3    H114097   0.851   2.675   1.117  0.6601  1.0557 -0.1920
 4697TIP3    H214098   0.720   2.630   1.057  0.0879 -0.6237  2.1693
 4698TIP3   OH214099   3.389   3.757   3.348  0.0065  0.4076  0.7342
 4698TIP3    H114100   3.468   3.812   3.349  0.6182 -0.4046 -0.9055
 4698TIP3    H214101   3.421   3.668   3.361 -0.4761 -0.0756 -1.0874
 4699TIP3   OH214102   3.169   5.176   2.700 -0.9994 -0.0070  0.2254
 4699TIP3    H114103   3.141   5.261   2.667  2.2068  1.7989  1.6495
 4699TIP3    H214104   3.194   5.127   2.622  0.2580  1.7053 -0.5265
 4700TIP3   OH214105   2.220   2.607   4.164 -0.3408  0.3426 -0.3527
 4700TIP3    H114106   2.214   2.678   4.228  0.5089  0.2753 -0.1828
 4700TIP3    H214107   2.130   2.579   4.150 -0.9012  2.6882 -1.8430
 4701TIP3   OH214108   4.090   5.334   3.490  0.0911 -0.5284  0.1338
 4701TIP3    H114109   4.184   5.350   3.483  0.0862 -0.8580 -0.7950
 4701TIP3    H214110   4.052   5.421   3.503  0.5272 -0.3987  0.5280
 4702TIP3   OH214111   2.306   3.298   3.262  0.8468  0.0060  0.0490
 4702TIP3    H114112   2.250   3.367   3.225 -0.4050 -1.6491 -1.2602
 4702TIP3    H214113   2.256   3.265   3.337 -1.0604 -2.7678 -2.2064
 4703TIP3   OH214114   0.128   2.279   4.756 -0.1929  0.1823 -0.2090
 4703TIP3    H114115   0.097   2.330   4.831  0.5288  0.1667  0.1052
 4703TIP3    H214116   0.048   2.240   4.719 -0.9270  2.2676 -1.0302
 4704TIP3   OH214117   0.188   0.141   2.670  0.1008  0.1018  0.5639
 4704TIP3    H114118   0.119   0.174   2.612 -0.6843 -1.0638  0.8142
 4704TIP3    H214119   0.270   0.162   2.624 -0.5007 -1.5184 -1.3938
 4705TIP3   OH214120   2.104   1.875   1.451  0.0290  0.3934 -0.2977
 4705TIP3    H114121   2.167   1.918   1.509  0.2618 -0.2197 -0.0879
 4705TIP3    H214122   2.020   1.913   1.474 -0.4050 -1.9638  2.6313
 4706TIP3   OH214123   5.586   2.723   3.528  0.0244  0.5196 -0.2715
 4706TIP3    H114124   5.592   2.786   3.456 -0.2734 -0.3231 -1.0503
 4706TIP3    H214125   5.574   2.777   3.606 -1.2180  1.4086 -1.0400
 4707TIP3   OH214126   5.680   3.352   2.034 -0.5107 -0.1986  0.3441
 4707TIP3    H114127   5.686   3.412   2.108  0.0565 -0.3377  0.4200
 4707TIP3    H214128   5.722   3.272   2.065  3.3194  0.9159 -1.3155
 4708TIP3   OH214129   5.432   1.505   1.708 -0.2656 -0.2179  0.3008
 4708TIP3    H114130   5.385   1.579   1.670 -0.1916  0.0462  0.7169
 4708TIP3    H214131   5.364   1.449   1.746 -0.7079 -2.1219 -2.8618
 4709TIP3   OH214132   0.286   0.296   3.165 -0.0420 -0.2876 -0.2322
 4709TIP3    H114133   0.245   0.371   3.123 -0.3998 -1.0415 -1.2573
 4709TIP3    H214134   0.224   0.268   3.232  0.3433  0.6545  0.5514
 4710TIP3   OH214135   0.280   0.735   0.527  0.1875  0.4551  0.3778
 4710TIP3    H114136   0.242   0.821   0.547  1.2378  1.0108  0.0422
 4710TIP3    H214137   0.299   0.739   0.433 -3.4073 -1.6183 -0.6414
 4711TIP3   OH214138   3.926   2.831   1.185  0.6143 -0.5443 -0.0666
 4711TIP3    H114139   3.860   2.792   1.127  1.1572 -0.8042 -0.5189
 4711TIP3    H214140   3.910   2.790   1.270  1.3810 -2.0596 -0.5970
 4712TIP3   OH214141   3.825   5.588   4.625 -0.2287  0.1510  0.4300
 4712TIP3    H114142   3.807   5.681   4.611  0.2573  0.2152  0.2058
 4712TIP3    H214143   3.739   5.547   4.622 -0.5620  0.7162  1.5756
 4713TIP3   OH214144   1.913   1.608   1.647 -0.1555 -0.8206  0.3802
 4713TIP3    H114145   1.998   1.638   1.615  0.0134 -0.3098  1.2752
 4713TIP3    H214146   1.859   1.598   1.568  0.1979  0.5484 -0.0548
 4714TIP3   OH214147   5.505   2.197   1.133 -0.8279  0.3109  0.1591
 4714TIP3    H114148   5.502   2.107   1.100 -0.0293  0.4644 -0.3701
 4714TIP3    H214149   5.598   2.214   1.147 -0.8029  1.6032 -1.3100
 4715TIP3   OH214150   4.416   5.379   4.349  0.3341 -0.3166  0.4286
 4715TIP3    H114151   4.368   5.439   4.292 -0.1507 -0.1081  1.0386
 4715TIP3    H214152   4.369   5.296   4.341 -1.0759  0.2445  2.1288
 4716TIP3   OH214153   4.416   3.250   3.554 -0.4038  0.0279  0.4311
 4716TIP3    H114154   4.473   3.243   3.631 -0.4074 -0.9584  0.3502
 4716TIP3    H214155   4.328   3.233   3.587 -0.5773  0.8715  0.4298
 4717TIP3   OH214156   5.933   3.649   3.641 -0.2696 -0.6446  0.0967
 4717TIP3    H114157   5.861   3.698   3.680 -1.0385 -1.3483 -0.4082
 4717TIP3    H214158   5.982   3.713   3.590 -0.6925 -0.2166  0.2293
 4718TIP3   OH214159   1.101   1.060   1.992  0.6015  0.8857  0.1284
 4718TIP3    H114160   1.186   1.085   1.956  0.2587  1.2067 -0.4771
 4718TIP3    H214161   1.107   0.965   2.003  1.1810  0.9568  0.4815
 4719TIP3   OH214162   4.602   0.955   2.571 -0.4237 -0.0923 -0.0875
 4719TIP3    H114163   4.609   1.041   2.612  0.7082  0.3496 -1.1596
 4719TIP3    H214164   4.597   0.973   2.477 -0.0446 -1.2013 -0.3371
 4720TIP3   OH214165   1.775   1.917   4.137 -0.1688 -0.2980 -0.0674
 4720TIP3    H114166   1.869   1.930   4.149 -0.4356  3.2351 -0.7366
 4720TIP3    H214167   1.745   1.881   4.221  1.5950 -0.3441  0.5825
 4721TIP3   OH214168   0.047   4.964   2.596  0.4553 -0.3363 -0.1867
 4721TIP3    H114169   0.088   4.879   2.605  1.2674 -0.0920 -1.4124
 4721TIP3    H214170   0.024   4.971   2.503 -0.2938  0.4649  0.0399
 4722TIP3   OH214171   6.084   1.451   4.580  0.4381  0.2248 -0.2675
 4722TIP3    H114172   5.994   1.453   4.547  0.6311  1.1125 -0.7536
 4722TIP3    H214173   6.102   1.358   4.595 -0.1884 -0.0561 -1.2106
 4723TIP3   OH214174   2.354   0.372   1.199  0.1111  0.0778  0.2178
 4723TIP3    H114175   2.390   0.376   1.111  0.0437  2.1382  0.2296
 4723TIP3    H214176   2.279   0.313   1.192  0.4604 -0.2507 -0.9576
 4724TIP3   OH214177   1.624   3.005   2.407  0.1807  0.3932 -0.4647
 4724TIP3    H114178   1.529   3.006   2.416  0.1988  0.3178 -0.2526
 4724TIP3    H214179   1.649   3.097   2.407  0.4154  0.4769  2.9930
 4725TIP3   OH214180   3.571   0.014   1.761  0.0310 -0.0107  0.1054
 4725TIP3    H114181   3.519   0.088   1.794 -0.3125 -0.5015  0.6904
 4725TIP3    H214182   3.619   0.049   1.686  0.2790  0.9458  0.6999
 4726TIP3   OH214183   3.825   3.992   3.367 -0.4444 -0.2016 -0.3174
 4726TIP3    H114184   3.760   3.983   3.298 -1.1582  0.3595  0.2523
 4726TIP3    H214185   3.828   3.906   3.409 -1.3798 -0.0347  0.1200
 4727TIP3   OH214186   4.430   0.466   2.936 -0.2290  0.3105  0.0928
 4727TIP3    H114187   4.476   0.491   2.856 -1.7470  0.3207 -0.8232
 4727TIP3    H214188   4.338   0.491   2.920 -0.5761  0.3218  1.8431
 4728TIP3   OH214189   0.026   0.307   2.512 -0.1220 -0.0176  0.2924
 4728TIP3    H114190   0.084   0.381   2.527  0.6226 -0.3796 -0.6772
 4728TIP3    H214191  -0.053   0.346   2.475 -0.0189  0.3680  0.4735
 4729TIP3   OH214192   2.641   1.288   4.650  0.6228 -0.7855 -0.0825
 4729TIP3    H114193   2.636   1.218   4.584  0.7443  1.3116 -2.4460
 4729TIP3    H214194   2.620   1.368   4.603 -3.3513  0.5016  3.2893
 4730TIP3   OH214195   6.329   4.646   4.003 -0.0047 -0.0721  0.1626
 4730TIP3    H114196   6.374   4.725   3.972  0.7562 -0.5942 -0.0947
 4730TIP3    H214197   6.297   4.604   3.923 -1.5247  0.6180  0.3858
 4731TIP3   OH214198   1.645   2.665   4.069 -0.6698  0.7094 -0.5142
 4731TIP3    H114199   1.550   2.674   4.056 -0.7416 -0.0709 -0.5773
 4731TIP3    H214200   1.661   2.571   4.064 -0.1100  0.7037  1.0317
 4732TIP3   OH214201   4.599   4.874   0.938  0.3238  0.0416  0.6459
 4732TIP3    H114202   4.591   4.865   1.033  0.2596 -1.7733  0.4967
 4732TIP3    H214203   4.515   4.845   0.904  0.9767 -1.1282 -0.0326
 4733TIP3   OH214204   3.472   5.519   2.668  0.0273 -0.6121 -0.2453
 4733TIP3    H114205   3.503   5.452   2.606 -2.2900 -1.5740 -0.4541
 4733TIP3    H214206   3.388   5.547   2.633  0.6208  1.9918  0.2146
 4734TIP3   OH214207   2.814   4.595   4.958  0.4381 -0.4953  0.1632
 4734TIP3    H114208   2.719   4.588   4.951  0.0496  2.4393  1.0458
 4734TIP3    H214209   2.834   4.684   4.928  3.0129 -1.2122 -0.5417
 4735TIP3   OH214210   3.884   3.507   4.340 -0.4732  0.1201 -0.4798
 4735TIP3    H114211   3.791   3.518   4.360 -0.3705 -0.7258  0.4825
 4735TIP3    H214212   3.928   3.510   4.424  0.3392  0.1161 -0.8925
 4736TIP3   OH214213   4.546   1.851   2.517  0.3166 -0.8764  0.8548
 4736TIP3    H114214   4.458   1.890   2.514  0.3546 -0.8592 -0.3915
 4736TIP3    H214215   4.595   1.897   2.449  0.6223 -2.4586 -0.0461
 4737TIP3   OH214216   5.252   3.187   4.495 -0.1018 -0.1229 -0.4060
 4737TIP3    H114217   5.333   3.188   4.546 -0.1081 -0.6488 -0.3780
 4737TIP3    H214218   5.208   3.106   4.522 -0.1835 -0.3206 -1.1258
 4738TIP3   OH214219   4.413   4.976   2.541 -0.2258 -0.3681  0.6353
 4738TIP3    H114220   4.411   5.040   2.470  0.7788 -0.0596  0.8797
 4738TIP3    H214221   4.476   4.910   2.512  2.4034  1.1823  2.4051
 4739TIP3   OH214222   5.303   5.264   2.035  0.3711  1.1173 -0.4007
 4739TIP3    H114223   5.237   5.209   1.992 -0.9394  0.2499  2.4820
 4739TIP3    H214224   5.374   5.270   1.971 -0.8870 -1.1247 -2.1621
 4740TIP3   OH214225   2.655   3.442   2.051  0.1599  0.3370  0.2528
 4740TIP3    H114226   2.726   3.499   2.079  2.0657 -2.1875  0.8943
 4740TIP3    H214227   2.679   3.413   1.963  0.1613 -0.8536  0.6278
 4741TIP3   OH214228   4.437   0.425   2.497 -0.0022 -0.3060 -0.0218
 4741TIP3    H114229   4.471   0.336   2.490  1.0200  0.1714 -2.1899
 4741TIP3    H214230   4.352   0.422   2.453 -0.6955 -0.5080  1.2859
 4742TIP3   OH214231   0.155   4.713   3.163 -0.0237  0.0859  0.3908
 4742TIP3    H114232   0.115   4.693   3.248 -0.6003  0.4439  0.2035
 4742TIP3    H214233   0.198   4.631   3.138 -1.0758 -0.4743  0.3544
 4743TIP3   OH214234   2.198   4.246   1.668  0.0078  0.2713 -0.4180
 4743TIP3    H114235   2.130   4.260   1.735 -0.2453  0.6461 -0.7487
 4743TIP3    H214236   2.280   4.254   1.716 -0.1691 -1.4122  0.2403
 4744TIP3   OH214237   5.520   5.792   1.082  0.2569  0.1364 -0.0005
 4744TIP3    H114238   5.432   5.821   1.058  0.1995  0.4644  0.5818
 4744TIP3    H214239   5.576   5.821   1.009  0.0341  0.7831  0.0759
 4745TIP3   OH214240   2.765   0.328   2.769  0.5047 -0.1264 -0.3386
 4745TIP3    H114241   2.826   0.376   2.825 -0.3772  2.4617 -1.4670
 4745TIP3    H214242   2.708   0.282   2.830  0.2364  1.7489  0.9087
 4746TIP3   OH214243   1.864   3.116   4.618  0.3622  0.4420  0.5511
 4746TIP3    H114244   1.793   3.158   4.568 -0.2897 -0.0292  1.0648
 4746TIP3    H214245   1.846   3.022   4.610  0.0776  0.3709  1.9183
 4747TIP3   OH214246   4.228   5.734   4.476 -0.1384  0.5976 -0.0834
 4747TIP3    H114247   4.196   5.784   4.552 -2.0546 -0.3667 -0.1833
 4747TIP3    H214248   4.162   5.666   4.463  2.0527 -1.6421 -0.3075
 4748TIP3   OH214249   3.913   2.464   0.288 -0.2443 -0.2785 -0.3255
 4748TIP3    H114250   3.975   2.537   0.288 -0.8650  0.2986 -2.0908
 4748TIP3    H214251   3.886   2.456   0.380  0.0720  1.5244 -0.0342
 4749TIP3   OH214252   2.204   1.510   1.886 -0.3108  1.0848 -0.3662
 4749TIP3    H114253   2.186   1.575   1.955 -0.3880  0.5971  0.0782
 4749TIP3    H214254   2.165   1.548   1.807 -0.6852  1.4101 -0.0317
 4750TIP3   OH214255   1.444   4.583   0.632 -0.0237  0.4089  0.6881
 4750TIP3    H114256   1.520   4.574   0.575 -0.0015 -0.2094  0.8049
 4750TIP3    H214257   1.429   4.495   0.666 -1.8021  0.1312 -0.6436
 4751TIP3   OH214258   5.932   4.964   0.453  0.5427 -0.0707 -0.0737
 4751TIP3    H114259   6.021   4.935   0.433  0.2528 -2.2666  1.4262
 4751TIP3    H214260   5.877   4.912   0.394  0.1106 -1.5051  1.4965
 4752TIP3   OH214261   1.920   0.852   4.116 -0.6312 -0.1917  0.0529
 4752TIP3    H114262   1.952   0.939   4.141 -2.4163  0.3296  0.6646
 4752TIP3    H214263   1.918   0.853   4.021  0.8668 -0.1645 -0.0096
 4753TIP3   OH214264   3.572   1.873   2.952 -0.3547  0.0582  0.3239
 4753TIP3    H114265   3.540   1.847   3.038 -0.4914  2.0985  0.9468
 4753TIP3    H214266   3.517   1.825   2.890 -2.2797  0.7906  1.3862
 4754TIP3   OH214267   4.386   1.612   0.138  0.2889  0.2015  0.0460
 4754TIP3    H114268   4.441   1.536   0.157  0.2291 -0.1797 -1.2128
 4754TIP3    H214269   4.301   1.590   0.176  0.2259 -0.4434 -0.4478
 4755TIP3   OH214270   1.905   4.194   0.196 -0.2424 -0.7144 -0.3773
 4755TIP3    H114271   1.814   4.201   0.225 -0.0926 -0.0437 -0.0558
 4755TIP3    H214272   1.914   4.103   0.166 -0.6157 -1.2140  0.9706
 4756TIP3   OH214273   2.705   4.842   4.422 -0.5166 -0.0141 -0.7087
 4756TIP3    H114274   2.620   4.867   4.387 -0.5911  1.9198  0.7215
 4756TIP3    H214275   2.700   4.747   4.434 -2.1314 -0.0417 -1.4695
 4757TIP3   OH214276   1.714   1.116   3.158 -0.4799  0.3068 -0.1226
 4757TIP3    H114277   1.632   1.132   3.203 -1.2796  1.6047 -1.8926
 4757TIP3    H214278   1.711   1.024   3.132 -2.3313  0.8055 -1.8759
 4758TIP3   OH214279   4.639   2.993   5.060  0.7806 -0.3486  0.0820
 4758TIP3    H114280   4.645   2.945   5.143  1.4483 -1.6080 -0.6684
 4758TIP3    H214281   4.688   2.940   4.998 -0.1501  0.3066 -1.2588
 4759TIP3   OH214282   5.394   4.172   3.049  0.0718 -0.4909 -0.3961
 4759TIP3    H114283   5.465   4.163   2.986 -0.8952  0.9976 -1.7736
 4759TIP3    H214284   5.344   4.248   3.019 -1.1671 -0.5014  1.4551
 4760TIP3   OH214285   4.550   3.438   2.510 -0.0523  1.1779 -0.0943
 4760TIP3    H114286   4.624   3.434   2.449 -0.7321  2.4641 -1.0363
 4760TIP3    H214287   4.565   3.518   2.561 -0.4743  1.1071  0.1416
 4761TIP3   OH214288   2.487   4.565   2.968 -0.1448 -0.4200 -0.0313
 4761TIP3    H114289   2.482   4.518   2.885 -1.1002 -0.5318  0.0725
 4761TIP3    H214290   2.459   4.500   3.033  2.6635 -1.0323  0.7012
 4762TIP3   OH214291   2.561   2.972   3.242  0.1769  0.1709  0.1963
 4762TIP3    H114292   2.638   2.921   3.265  0.7335  0.4487 -0.9897
 4762TIP3    H214293   2.557   3.041   3.309 -0.5801 -1.3689  1.8025
 4763TIP3   OH214294   4.525   2.243   3.893 -0.3582  0.1914  0.5002
 4763TIP3    H114295   4.472   2.175   3.852  1.2631 -0.8046 -0.0478
 4763TIP3    H214296   4.463   2.314   3.911 -2.1018 -1.3475  0.9805
 4764TIP3   OH214297   1.632   4.264   3.558 -0.3954 -0.1726 -0.6037
 4764TIP3    H114298   1.609   4.172   3.575 -1.3444 -0.1173 -1.5140
 4764TIP3    H214299   1.607   4.310   3.638  0.5381 -0.7704  0.0500
 4765TIP3   OH214300   6.346   2.432   5.003  0.1665 -0.1555  0.1273
 4765TIP3    H114301   6.331   2.490   5.077  1.0756  0.2357  0.0206
 4765TIP3    H214302   6.266   2.438   4.950  0.3068  1.1257  0.0299
 4766TIP3   OH214303   5.892   5.479   2.259 -0.4681  0.1199 -0.1622
 4766TIP3    H114304   5.939   5.480   2.176 -1.2618  0.3748 -0.6127
 4766TIP3    H214305   5.808   5.519   2.240 -0.3529  0.9451  0.9489
 4767TIP3   OH214306   4.006   5.540   2.535  0.1006  0.5307  0.0504
 4767TIP3    H114307   4.050   5.614   2.577  1.4557  0.3507 -0.9673
 4767TIP3    H214308   3.941   5.511   2.598  1.5402  0.7454  1.6939
 4768TIP3   OH214309   1.447   4.923   4.310  0.0243 -0.0616 -0.1875
 4768TIP3    H114310   1.385   4.858   4.343  1.2167 -0.5266  1.2231
 4768TIP3    H214311   1.445   4.994   4.374  1.7988 -0.6338  0.5685
 4769TIP3   OH214312   4.516   3.220   2.682  0.3063 -0.1816  0.2315
 4769TIP3    H114313   4.539   3.283   2.614 -1.1498  0.3872  0.2388
 4769TIP3    H214314   4.552   3.137   2.650 -2.1049 -0.3791 -2.3154
 4770TIP3   OH214315   3.963   2.114   4.700  0.4685  0.4373  0.8715
 4770TIP3    H114316   4.020   2.169   4.754  1.8097 -1.0668  1.0520
 4770TIP3    H214317   3.920   2.056   4.763  0.6372 -0.1024  0.4869
 4771TIP3   OH214318   0.864   4.848   5.054  0.0723  0.5808 -0.3011
 4771TIP3    H114319   0.789   4.878   5.002 -0.4802  0.2268  0.2742
 4771TIP3    H214320   0.891   4.925   5.104  0.1576  0.7382 -0.5917
 4772TIP3   OH214321   3.455   3.722   4.436 -0.1139 -0.4967 -0.0060
 4772TIP3    H114322   3.461   3.631   4.465 -0.7964 -0.6591 -0.3465
 4772TIP3    H214323   3.418   3.716   4.348 -1.9526  0.1989  0.6724
 4773TIP3   OH214324   2.711   5.237   2.785  0.0327  0.5732  0.7103
 4773TIP3    H114325   2.667   5.174   2.842  0.0298 -0.6383 -0.5825
 4773TIP3    H214326   2.736   5.309   2.844 -0.4643 -0.3645  2.1211
 4774TIP3   OH214327   2.495   0.387   4.265  0.4063  0.1554  0.1300
 4774TIP3    H114328   2.573   0.438   4.287  0.0582  1.1837 -0.9239
 4774TIP3    H214329   2.454   0.436   4.193 -1.0100 -0.5609  0.4185
 4775TIP3   OH214330   2.003   3.027   0.320  0.3165  1.3720 -0.4197
 4775TIP3    H114331   2.039   3.096   0.265 -0.4577  2.3722  0.3018
 4775TIP3    H214332   2.002   2.950   0.263  0.8210  2.0389 -1.3598
 4776TIP3   OH214333   1.387   3.615   4.995  0.1496  0.2594  0.0816
 4776TIP3    H114334   1.333   3.572   5.062  0.3072  0.8158  0.5673
 4776TIP3    H214335   1.385   3.554   4.921 -1.3291  0.3724  0.0076
 4777TIP3   OH214336   4.333   1.962   0.172  0.0729 -0.9582 -0.2311
 4777TIP3    H114337   4.270   1.983   0.103  2.2850 -1.6160 -2.5881
 4777TIP3    H214338   4.326   2.035   0.234 -1.4102  0.0852 -1.5467
 4778TIP3   OH214339   2.550   0.072   4.293  0.1883 -0.1784  0.3472
 4778TIP3    H114340   2.535   0.163   4.269  1.2148  0.2494  1.2561
 4778TIP3    H214341   2.523   0.022   4.216  1.2549  0.9987 -0.8460
 4779TIP3   OH214342   5.666   5.214   0.722 -0.6945  0.0381  0.1444
 4779TIP3    H114343   5.591   5.156   0.713  0.6483 -1.8598  0.6139
 4779TIP3    H214344   5.692   5.206   0.814  1.5745 -1.3692 -0.5288
 4780TIP3   OH214345   1.752   3.857   3.135 -0.3707 -0.2360 -0.1251
 4780TIP3    H114346   1.771   3.894   3.049 -0.8035 -0.8872 -0.5138
 4780TIP3    H214347   1.837   3.835   3.172  0.0921  2.9170  0.9662
 4781TIP3   OH214348   0.332   4.040   4.744  0.3401  0.0705 -0.2992
 4781TIP3    H114349   0.298   3.992   4.668 -1.7411  1.5444 -0.3955
 4781TIP3    H214350   0.300   4.130   4.732 -0.5651  0.2528  2.5544
 4782TIP3   OH214351   4.251   3.557   3.242 -0.1355 -0.4082 -0.1544
 4782TIP3    H114352   4.197   3.629   3.210 -0.7290 -0.9250 -0.3343
 4782TIP3    H214353   4.269   3.578   3.334 -1.9500 -0.9789  0.3713
 4783TIP3   OH214354   5.253   0.251   1.751  0.2803  0.1576  0.0114
 4783TIP3    H114355   5.289   0.311   1.816 -2.3587 -1.0399  2.8280
 4783TIP3    H214356   5.262   0.297   1.668 -0.0505  3.7311  1.7821
 4784TIP3   OH214357   0.492   2.658   1.678  0.1358 -0.2083 -0.0071
 4784TIP3    H114358   0.508   2.671   1.772  0.3561 -0.7181  0.0281
 4784TIP3    H214359   0.403   2.691   1.664 -0.1802 -0.8146  0.5295
 4785TIP3   OH214360   3.694   2.064   2.175  0.3407 -0.0268  0.0631
 4785TIP3    H114361   3.765   2.048   2.237  0.9886 -0.9307 -0.8786
 4785TIP3    H214362   3.732   2.042   2.089 -0.6965  0.6692 -0.5964
 4786TIP3   OH214363   1.477   4.376   2.990  0.5631 -0.8308 -0.6993
 4786TIP3    H114364   1.550   4.407   2.937 -0.3136 -1.0506 -2.0828
 4786TIP3    H214365   1.436   4.308   2.937 -1.2135 -0.0643 -0.3956
 4787TIP3   OH214366   5.741   4.395   0.270 -0.1809  0.5270 -0.3673
 4787TIP3    H114367   5.831   4.428   0.277  0.4160 -1.1366  0.2390
 4787TIP3    H214368   5.686   4.472   0.285  1.1399  1.5132 -0.4415
 4788TIP3   OH214369   2.299   1.598   3.105  0.5650  0.2923  0.5058
 4788TIP3    H114370   2.293   1.684   3.147  0.0197  0.4283  0.1557
 4788TIP3    H214371   2.361   1.550   3.160  1.9669  1.3494 -0.0762
 4789TIP3   OH214372   5.713   3.808   3.702  0.3150  0.8633 -0.0406
 4789TIP3    H114373   5.639   3.747   3.708  0.5859  0.6220  1.3580
 4789TIP3    H214374   5.694   3.874   3.769  0.3871  1.9240 -1.0523
 4790TIP3   OH214375   4.812   2.794   2.140  0.1013  0.2205  0.0830
 4790TIP3    H114376   4.753   2.776   2.213 -0.2342  1.3602  0.1118
 4790TIP3    H214377   4.788   2.882   2.111 -0.1774 -0.4201 -1.7836
 4791TIP3   OH214378   1.817   2.417   2.303  0.0279  0.0752 -0.0960
 4791TIP3    H114379   1.885   2.444   2.364  0.3762 -0.5119 -0.2102
 4791TIP3    H214380   1.832   2.469   2.224  0.5231 -0.2406 -0.2172
 4792TIP3   OH214381   5.387   3.989   3.471  0.0631  0.5493 -0.1519
 4792TIP3    H114382   5.382   3.976   3.566  1.4435 -0.9186 -0.2461
 4792TIP3    H214383   5.421   3.906   3.437  1.2582  1.6339 -1.7440
 4793TIP3   OH214384   3.812   0.198   1.996 -0.0200 -0.3375 -0.1760
 4793TIP3    H114385   3.879   0.133   2.017  0.3125 -0.1070 -0.5016
 4793TIP3    H214386   3.794   0.185   1.903 -0.7820 -0.7165  0.0199
 4794TIP3   OH214387   1.216   5.305   2.491  0.2119 -0.0578 -0.0755
 4794TIP3    H114388   1.198   5.395   2.520  0.8222  0.1778 -0.4035
 4794TIP3    H214389   1.302   5.285   2.529  0.3273 -0.2993 -0.4618
 4795TIP3   OH214390   5.782   5.461   4.206 -0.7022 -0.0496  0.5650
 4795TIP3    H114391   5.862   5.503   4.176 -1.2851  0.0425 -0.9510
 4795TIP3    H214392   5.762   5.396   4.139 -2.6469  0.8831  0.1730
 4796TIP3   OH214393   3.461   1.388   2.329 -0.5622 -0.4688  0.3604
 4796TIP3    H114394   3.401   1.397   2.403 -0.2874 -2.7348  0.9435
 4796TIP3    H214395   3.519   1.464   2.336 -1.4036  0.0995  1.6476
 4797TIP3   OH214396   4.063   5.546   1.053  0.0072 -0.4677  0.1813
 4797TIP3    H114397   4.019   5.618   1.098 -1.9946 -2.5762  1.8266
 4797TIP3    H214398   4.078   5.579   0.964 -1.9383  1.5420  0.5137
 4798TIP3   OH214399   6.235   2.990   3.522 -0.2346 -0.0405  0.4891
 4798TIP3    H114400   6.238   3.051   3.448 -0.6812  1.8733  1.9912
 4798TIP3    H214401   6.182   2.917   3.490  0.9061 -0.0283 -1.6007
 4799TIP3   OH214402   3.540   2.570   2.198 -1.0521 -0.5538 -0.0274
 4799TIP3    H114403   3.607   2.502   2.206 -0.1200  0.4617  0.9895
 4799TIP3    H214404   3.474   2.531   2.140  0.8051 -1.2751 -1.7814
 4800TIP3   OH214405   0.627   4.619   0.980  0.0123 -0.3948 -0.0872
 4800TIP3    H114406   0.637   4.691   1.043 -0.4945  0.4202 -0.9095
 4800TIP3    H214407   0.626   4.662   0.895  0.2305 -1.4415 -0.6301
 4801TIP3   OH214408   0.611   4.211   0.386 -0.3471  0.0857  0.0350
 4801TIP3    H114409   0.692   4.181   0.427  0.7223 -0.0003 -2.0339
 4801TIP3    H214410   0.599   4.300   0.419  1.0351  0.3948 -0.2163
 4802TIP3   OH214411   0.399   5.772   2.153  0.1162 -0.0881 -0.2682
 4802TIP3    H114412   0.332   5.766   2.085 -0.4688 -1.3500  0.3704
 4802TIP3    H214413   0.476   5.732   2.114 -0.6700 -2.3029  0.2822
 4803TIP3   OH214414   1.816   1.452   3.596 -0.0801 -0.9358 -0.0329
 4803TIP3    H114415   1.867   1.512   3.650 -0.5117  0.3764 -1.0549
 4803TIP3    H214416   1.876   1.425   3.527  0.4259 -2.5050  0.9521
 4804TIP3   OH214417   6.056   1.900   4.843  0.1296 -0.3482 -0.2974
 4804TIP3    H114418   6.121   1.969   4.845 -0.8519  0.6054  1.9221
 4804TIP3    H214419   6.102   1.824   4.807  1.7617  0.9165 -0.9718
 4805TIP3   OH214420   5.057   1.872   3.171  0.1158  0.1295 -0.7804
 4805TIP3    H114421   5.024   1.782   3.167  0.6081 -0.0996 -0.0116
 4805TIP3    H214422   4.983   1.923   3.204  0.0984 -0.1456 -0.3869
 4806TIP3   OH214423   1.007   0.368   4.885 -0.1013  0.2567 -0.2025
 4806TIP3    H114424   1.036   0.350   4.975  0.0353 -2.0077 -0.6554
 4806TIP3    H214425   0.958   0.450   4.892 -1.9325 -0.9388  2.3284
 4807TIP3   OH214426   1.387   5.514   5.138 -0.1820 -0.4137  0.1617
 4807TIP3    H114427   1.469   5.558   5.115 -0.0706 -0.3489  0.6734
 4807TIP3    H214428   1.411   5.422   5.147 -0.8073 -0.9971 -2.9957
 4808TIP3   OH214429   0.852   2.844   2.711  0.1315  0.0159 -0.6808
 4808TIP3    H114430   0.913   2.865   2.782  0.9376  1.8535 -1.8595
 4808TIP3    H214431   0.863   2.750   2.698  2.7478  0.2466 -0.8028
 4809TIP3   OH214432   2.488   3.242   0.002  0.1178 -1.1706  0.0787
 4809TIP3    H114433   2.582   3.234  -0.015 -0.0853  0.2258 -2.0481
 4809TIP3    H214434   2.480   3.325   0.051 -0.1567 -0.0267 -1.8097
 4810TIP3   OH214435   6.081   2.765   4.781  0.0081  0.1634  0.0588
 4810TIP3    H114436   6.027   2.832   4.741 -1.0386 -0.0115  1.1274
 4810TIP3    H214437   6.049   2.683   4.743 -1.3453 -0.0512  1.5773
 4811TIP3   OH214438   0.647   0.079   0.600 -0.1045  0.4528 -0.5584
 4811TIP3    H114439   0.637   0.029   0.519 -2.3591 -2.4946  1.3045
 4811TIP3    H214440   0.594   0.157   0.586  0.7388  0.7454 -2.4013
 4812TIP3   OH214441   0.356   3.279   0.995 -0.4088 -0.0969  0.2807
 4812TIP3    H114442   0.397   3.195   0.978 -0.5769 -0.4776  1.6866
 4812TIP3    H214443   0.399   3.339   0.934  0.1423 -1.0652 -0.3078
 4813TIP3   OH214444   5.513   0.278   3.720 -0.4533  0.2679  0.1914
 4813TIP3    H114445   5.450   0.209   3.743 -1.2935  0.4171 -1.4884
 4813TIP3    H214446   5.491   0.350   3.779  0.0455 -0.6433  1.5649
 4814TIP3   OH214447   0.567   5.356   0.703  0.1402 -0.5157 -0.5776
 4814TIP3    H114448   0.495   5.339   0.763  0.4002  0.5057  0.0328
 4814TIP3    H214449   0.633   5.290   0.726 -0.3182 -1.0271 -0.7004
 4815TIP3   OH214450   5.729   0.168   5.168  0.0653 -0.8862 -0.2356
 4815TIP3    H114451   5.764   0.163   5.079 -0.0035 -1.6817 -0.2243
 4815TIP3    H214452   5.649   0.219   5.160  0.4851 -0.2424 -0.4877
 4816TIP3   OH214453   5.009   4.448   0.748 -0.7818  0.0268  0.4011
 4816TIP3    H114454   5.017   4.475   0.656  1.6431 -0.1923  0.4885
 4816TIP3    H214455   5.097   4.422   0.773 -1.9223 -2.7642  1.9491
 4817TIP3   OH214456   1.488   5.587   4.164  0.0493  0.3858 -0.0522
 4817TIP3    H114457   1.481   5.491   4.158 -0.6888  0.5192 -1.6174
 4817TIP3    H214458   1.398   5.617   4.173  0.1517  1.0112 -1.0090
 4818TIP3   OH214459   0.078   5.761   4.786  0.0528 -0.2544 -0.6988
 4818TIP3    H114460   0.012   5.695   4.807 -0.2770  0.1050 -0.5937
 4818TIP3    H214461   0.155   5.711   4.760  0.8417 -0.7982  2.2859
 4819TIP3   OH214462   2.212   3.457   3.033  0.0652 -0.0521 -0.3299
 4819TIP3    H114463   2.209   3.388   2.967 -1.6658 -1.5015  1.1742
 4819TIP3    H214464   2.125   3.497   3.031 -0.4444 -0.9162  1.8110
 4820TIP3   OH214465   4.536   0.181   2.438 -0.1173 -0.0556 -0.2773
 4820TIP3    H114466   4.578   0.140   2.362 -1.5488  0.6949 -1.5425
 4820TIP3    H214467   4.458   0.127   2.455 -0.2867  0.2963  0.0856
 4821TIP3   OH214468   2.959   0.147   1.924 -0.7207 -0.0215 -0.4266
 4821TIP3    H114469   3.011   0.195   1.988 -2.3695  0.1840  0.7997
 4821TIP3    H214470   2.910   0.215   1.877  0.0632 -0.2132 -1.5800
 4822TIP3   OH214471   4.788   5.353   1.657  0.0657  0.3842  0.0288
 4822TIP3    H114472   4.787   5.369   1.751  2.3613 -1.2207  0.4174
 4822TIP3    H214473   4.763   5.261   1.648 -1.0872  0.7726 -1.0480
 4823TIP3   OH214474   0.367   0.946   1.411  0.1419 -0.3618  0.1155
 4823TIP3    H114475   0.408   0.973   1.493  1.5000 -1.6782 -0.0915
 4823TIP3    H214476   0.439   0.940   1.349 -1.0579  2.1289 -1.6527
 4824TIP3   OH214477   4.239   5.454   1.755  0.2350 -0.0232  0.1266
 4824TIP3    H114478   4.185   5.380   1.783  0.2256  0.5915  1.8399
 4824TIP3    H214479   4.224   5.521   1.822  3.0626  0.1976  0.6740
 4825TIP3   OH214480   2.563   1.313   0.436 -0.4061 -0.3803  0.0188
 4825TIP3    H114481   2.621   1.248   0.396 -1.2323 -1.3041  0.2784
 4825TIP3    H214482   2.583   1.395   0.391  1.4040 -0.5656  0.3953
 4826TIP3   OH214483   1.924   0.898   3.838  0.0477 -0.0708 -0.4944
 4826TIP3    H114484   1.855   0.961   3.816  1.4885  1.4293 -0.8274
 4826TIP3    H214485   1.905   0.822   3.782 -1.5899  0.1100 -0.2404
 4827TIP3   OH214486   5.099   0.588   0.722  0.0781  0.0379 -0.1143
 4827TIP3    H114487   5.070   0.665   0.673  1.7377 -0.1561 -1.5002
 4827TIP3    H214488   5.075   0.514   0.666 -1.6159 -0.5156  1.2604
 4828TIP3   OH214489   1.188   0.801   3.092  0.1494 -0.1941  0.3329
 4828TIP3    H114490   1.108   0.853   3.082 -1.1557 -2.2597 -0.7003
 4828TIP3    H214491   1.248   0.838   3.028 -1.0916 -0.5496 -1.0852
 4829TIP3   OH214492   3.411   4.186   1.125  0.4960  0.4508 -0.0437
 4829TIP3    H114493   3.399   4.155   1.036 -2.5091 -0.1671  0.4598
 4829TIP3    H214494   3.452   4.112   1.171 -0.3307 -0.2065 -0.3512
 4830TIP3   OH214495   5.008   3.783   2.575 -0.0067 -0.5364  0.0775
 4830TIP3    H114496   4.961   3.780   2.659 -0.7164  0.0681 -0.2876
 4830TIP3    H214497   4.984   3.867   2.537  0.9744 -0.4350 -0.3648
 4831TIP3   OH214498   1.764   1.729   2.976 -0.0673  0.0854  0.5653
 4831TIP3    H114499   1.778   1.819   3.005  0.5342  0.9080 -2.0335
 4831TIP3    H214500   1.852   1.695   2.960 -0.3508 -0.0551 -0.8627
 4832TIP3   OH214501   5.866   3.030   1.664 -0.1783 -0.0212  0.3920
 4832TIP3    H114502   5.869   2.946   1.709 -1.8456  0.3479  1.2887
 4832TIP3    H214503   5.814   3.014   1.585 -1.9749  0.4819  1.4204
 4833TIP3   OH214504   5.903   3.877   5.077  0.0954  0.0401 -0.1280
 4833TIP3    H114505   5.834   3.920   5.027 -0.8809 -1.6666 -0.3377
 4833TIP3    H214506   5.889   3.906   5.167  0.3835  1.2752 -0.4649
 4834TIP3   OH214507   2.691   2.240   2.693  0.0780 -0.4044 -0.1387
 4834TIP3    H114508   2.782   2.218   2.711  0.1186  0.7254  1.3015
 4834TIP3    H214509   2.670   2.308   2.757 -1.6495 -0.3231 -0.7273
 4835TIP3   OH214510   0.022   2.528   2.686  0.6729 -0.2474  0.8359
 4835TIP3    H114511   0.034   2.613   2.729  0.9441  0.5643 -0.7838
 4835TIP3    H214512   0.075   2.534   2.607 -1.9756 -0.6000 -1.0914
 4836TIP3   OH214513   5.954   1.164   1.321  0.1868 -1.0299  0.0626
 4836TIP3    H114514   5.988   1.232   1.264 -1.1946 -2.1928 -2.2793
 4836TIP3    H214515   6.025   1.099   1.326  0.8836 -0.2302  0.9856
 4837TIP3   OH214516   2.363   2.038   0.580 -0.4371 -0.0213 -0.5064
 4837TIP3    H114517   2.358   2.023   0.486 -0.5346 -1.0161 -0.3445
 4837TIP3    H214518   2.320   1.963   0.620  1.4640 -0.6941  0.3999
 4838TIP3   OH214519   5.293   0.869   3.240 -0.3943  0.2584 -0.1578
 4838TIP3    H114520   5.337   0.858   3.155 -0.5067 -1.0061 -0.0673
 4838TIP3    H214521   5.233   0.795   3.245 -1.2131  0.9644  0.5336
 4839TIP3   OH214522   0.872   4.817   0.946 -0.2383  0.2551 -0.5800
 4839TIP3    H114523   0.892   4.899   0.903  1.1717 -0.3089 -1.0707
 4839TIP3    H214524   0.794   4.835   0.998 -2.1625  0.9217 -3.4649
 4840TIP3   OH214525   5.664   5.218   5.109  0.6160  0.3709  0.1217
 4840TIP3    H114526   5.667   5.301   5.158  0.6584  0.1269  0.5346
 4840TIP3    H214527   5.580   5.179   5.135  1.4137 -0.5874  1.3733
 4841TIP3   OH214528   0.409   0.078   3.837  0.0748 -0.2795 -0.0116
 4841TIP3    H114529   0.386   0.147   3.899 -1.4096 -0.6269 -0.1351
 4841TIP3    H214530   0.346   0.088   3.765  1.4334 -0.2004 -1.2350
 4842TIP3   OH214531   1.701   2.417   4.135 -0.6256  0.2746 -0.6942
 4842TIP3    H114532   1.703   2.473   4.213  0.1071  0.8493 -1.1205
 4842TIP3    H214533   1.671   2.332   4.169 -1.2331  0.7680  0.0459
 4843TIP3   OH214534   4.601   3.754   0.649  0.0832 -0.5746  0.2801
 4843TIP3    H114535   4.618   3.825   0.586 -3.1734  0.1198  0.0002
 4843TIP3    H214536   4.614   3.795   0.735 -0.3581 -0.0351  0.0985
 4844TIP3   OH214537   5.217   3.351   2.508 -0.1652  0.4823 -0.0493
 4844TIP3    H114538   5.224   3.337   2.414 -0.0928 -1.5149  0.2225
 4844TIP3    H214539   5.296   3.311   2.545 -1.1846 -0.6133  1.0176
 4845TIP3   OH214540   2.264   4.179   4.125  0.0090  0.5441 -0.5000
 4845TIP3    H114541   2.289   4.229   4.048 -0.0882  1.4045  0.0178
 4845TIP3    H214542   2.342   4.180   4.181  0.8090 -1.8268 -1.4290
 4846TIP3   OH214543   1.383   0.118   2.922 -0.3340 -0.0769 -0.3651
 4846TIP3    H114544   1.421   0.136   3.008 -0.6175  2.9061 -0.7427
 4846TIP3    H214545   1.294   0.089   2.941 -0.0084 -0.6161  0.3762
 4847TIP3   OH214546   5.018   1.459   1.321 -0.2308  0.2131 -0.0014
 4847TIP3    H114547   5.008   1.459   1.417 -0.3470  2.5499  0.0414
 4847TIP3    H214548   5.018   1.366   1.297 -1.9721 -0.4193  2.0832
 4848TIP3   OH214549   5.484   3.862   4.153  0.3614 -0.0663  0.2865
 4848TIP3    H114550   5.405   3.810   4.170  0.7954 -0.3888  1.3898
 4848TIP3    H214551   5.556   3.806   4.181  0.7898  1.5245  2.6371
 4849TIP3   OH214552   6.294   0.735   1.359  0.4819 -0.1522  0.4184
 4849TIP3    H114553   6.331   0.690   1.434  1.0515  0.2695  0.3965
 4849TIP3    H214554   6.268   0.665   1.299 -1.6510 -0.5729  1.7563
 4850TIP3   OH214555   2.774   1.531   4.652 -0.4754  0.1560  0.2196
 4850TIP3    H114556   2.691   1.561   4.689  0.3004  1.4429  0.9762
 4850TIP3    H214557   2.817   1.611   4.622  1.0991 -0.3233  1.1094
 4851TIP3   OH214558   2.615   1.899   3.883 -0.0107  0.0351 -0.4180
 4851TIP3    H114559   2.592   1.971   3.824 -0.4177 -0.2247 -0.5718
 4851TIP3    H214560   2.652   1.832   3.826 -0.0466 -0.0604 -0.3284
 4852TIP3   OH214561   1.902   2.799   5.018 -0.3072  0.0349  0.3061
 4852TIP3    H114562   1.973   2.763   5.069  0.3897 -0.3206 -0.8700
 4852TIP3    H214563   1.907   2.753   4.934 -1.9746 -0.0575  0.2288
 4853TIP3   OH214564   2.782   1.762   2.469  0.3248  0.5104 -0.2484
 4853TIP3    H114565   2.831   1.843   2.483  1.1876 -0.3535  2.4876
 4853TIP3    H214566   2.710   1.767   2.533 -1.1995  0.2487 -1.8844
 4854TIP3   OH214567   1.270   3.663   4.228 -0.4233  0.3172 -0.2380
 4854TIP3    H114568   1.241   3.746   4.265 -0.6903  0.8359 -1.5395
 4854TIP3    H214569   1.295   3.610   4.303  1.0907  2.0698  0.5509
 4855TIP3   OH214570   5.641   1.629   3.296 -0.1873 -0.3134 -0.3228
 4855TIP3    H114571   5.554   1.589   3.290  0.0618 -0.7329 -1.2700
 4855TIP3    H214572   5.666   1.646   3.206  0.1926  0.9717  0.0034
 4856TIP3   OH214573   6.046   2.464   2.700 -0.3183  0.1803  0.6144
 4856TIP3    H114574   6.124   2.451   2.754  0.8273 -0.8237 -1.1803
 4856TIP3    H214575   5.977   2.415   2.745  0.2515  0.4691  1.8399
 4857TIP3   OH214576   2.986   0.995   0.423  0.1006 -0.0603  0.4087
 4857TIP3    H114577   2.995   0.910   0.379  0.7977  0.4400 -0.4609
 4857TIP3    H214578   2.980   0.973   0.516 -0.6825 -1.1142  0.1309
 4858TIP3   OH214579   0.925   2.375   4.021  0.1094 -0.0794 -0.6462
 4858TIP3    H114580   0.976   2.409   3.947  0.5051  1.9344  0.4751
 4858TIP3    H214581   0.841   2.421   4.014 -0.0052 -0.2045 -0.1048
 4859TIP3   OH214582   3.767   0.297   1.696 -0.2066 -0.1700 -0.0914
 4859TIP3    H114583   3.839   0.320   1.638 -1.3799  0.9566 -1.1747
 4859TIP3    H214584   3.727   0.220   1.655 -0.1466 -0.2747  0.0443
 4860TIP3   OH214585   2.143   2.365   4.650 -0.0899  0.1970 -0.2547
 4860TIP3    H114586   2.214   2.372   4.714  1.4624  1.3580 -2.0127
 4860TIP3    H214587   2.063   2.372   4.702  1.0990  0.8547  1.5848
 4861TIP3   OH214588   4.239   1.530   3.281  0.3364  0.0728 -0.5328
 4861TIP3    H114589   4.159   1.550   3.232 -0.3329  1.2654  0.9570
 4861TIP3    H214590   4.223   1.445   3.320 -0.0536  0.1324 -0.5550
 4862TIP3   OH214591   5.063   4.935   2.136  0.0969  0.0519  0.5328
 4862TIP3    H114592   5.027   5.021   2.117  2.8972  0.8549 -1.9812
 4862TIP3    H214593   5.067   4.930   2.231  0.9770  3.2740  0.7668
 4863TIP3   OH214594   2.887   1.699   1.728  0.1319 -0.3161 -0.1398
 4863TIP3    H114595   2.979   1.724   1.736  0.4656 -1.5913  0.1986
 4863TIP3    H214596   2.870   1.699   1.634  0.0874  1.1957 -0.1614
 4864TIP3   OH214597   1.426   2.117   0.503 -0.2516  0.2773 -0.2057
 4864TIP3    H114598   1.344   2.150   0.466 -0.9942  0.9151  1.9011
 4864TIP3    H214599   1.486   2.192   0.497 -0.4149  0.4269  0.0207
 4865TIP3   OH214600   1.664   5.513   1.600  0.0314  0.3521  0.3429
 4865TIP3    H114601   1.735   5.571   1.627  2.2675 -1.9211 -0.3477
 4865TIP3    H214602   1.641   5.465   1.680 -0.4570  0.7441  0.4502
 4866TIP3   OH214603   1.944   0.419   5.001  0.4847  0.2971 -0.3821
 4866TIP3    H114604   1.986   0.402   4.917  0.5511  1.2034 -0.5462
 4866TIP3    H214605   2.010   0.393   5.066  0.0927 -1.2580 -0.5787
 4867TIP3   OH214606   3.547   5.478   1.640 -0.3581  0.0344  0.4749
 4867TIP3    H114607   3.473   5.483   1.701 -1.6232 -0.4326 -0.9376
 4867TIP3    H214608   3.600   5.405   1.671 -1.8040 -1.1968  0.1883
 4868TIP3   OH214609   1.943   5.352   4.511  0.0962  0.4250  0.2622
 4868TIP3    H114610   1.933   5.351   4.606 -0.8056 -0.7032  0.1883
 4868TIP3    H214611   2.002   5.278   4.493  0.9149  1.1358 -0.0051
 4869TIP3   OH214612   4.528   2.774   2.852  0.4615 -0.2444 -0.5303
 4869TIP3    H114613   4.435   2.760   2.871  0.7573 -0.8728  0.6083
 4869TIP3    H214614   4.569   2.774   2.938  1.6515 -1.0460 -1.0742
 4870TIP3   OH214615   2.052   0.712   3.093  0.3113  0.0582 -0.2352
 4870TIP3    H114616   2.028   0.804   3.083 -1.3121 -0.0772  1.7596
 4870TIP3    H214617   2.001   0.666   3.025 -1.9424  0.2729  1.2002
 4871TIP3   OH214618   0.407   2.941   1.841 -0.5507  0.2887  0.2601
 4871TIP3    H114619   0.347   2.977   1.776  0.2796 -2.7171 -2.4619
 4871TIP3    H214620   0.494   2.954   1.803  0.0095 -1.0998  0.9987
 4872TIP3   OH214621   2.668   4.827   2.573  0.0317 -0.1613 -0.5070
 4872TIP3    H114622   2.621   4.750   2.604  0.2121  0.1942  0.6793
 4872TIP3    H214623   2.735   4.844   2.639 -0.4793  1.4584 -0.3402
 4873TIP3   OH214624   2.135   5.934   4.853  0.3653 -0.2623  0.0530
 4873TIP3    H114625   2.189   5.883   4.792  0.8009  0.9310 -0.5891
 4873TIP3    H214626   2.051   5.944   4.808  0.2648 -0.4341  0.1986
 4874TIP3   OH214627   4.606   2.425   0.767 -0.1592 -0.0329  0.1807
 4874TIP3    H114628   4.627   2.380   0.685  1.5833 -0.0601  0.6130
 4874TIP3    H214629   4.657   2.506   0.764 -0.9116  0.4770  0.7759
 4875TIP3   OH214630   1.797   3.372   3.721  0.4014  0.0089 -0.0034
 4875TIP3    H114631   1.833   3.283   3.719 -0.4148 -0.3715  0.8965
 4875TIP3    H214632   1.792   3.393   3.814 -3.1589 -0.6302  0.0920
 4876TIP3   OH214633   2.361   0.057   1.301  0.4064  0.0819  0.4900
 4876TIP3    H114634   2.323  -0.019   1.258 -0.7675  1.5755 -1.2664
 4876TIP3    H214635   2.443   0.073   1.254 -0.3647  1.0882 -0.5766
 4877TIP3   OH214636   4.467   3.871   3.985  0.3883  0.1036  0.2315
 4877TIP3    H114637   4.527   3.913   3.924 -1.3549  1.3626 -0.6785
 4877TIP3    H214638   4.421   3.943   4.028 -0.5260 -0.8281  0.8730
 4878TIP3   OH214639   0.855   5.848   4.672 -0.1120 -0.5569 -0.3268
 4878TIP3    H114640   0.765   5.836   4.701  0.5427  1.9109  3.6815
 4878TIP3    H214641   0.908   5.810   4.743  2.0405 -1.2776 -2.1902
 4879TIP3   OH214642   1.858   4.081   1.691  0.8054 -0.1599 -0.1485
 4879TIP3    H114643   1.899   4.167   1.688  0.2356  0.1611  0.7859
 4879TIP3    H214644   1.765   4.099   1.703  0.6841 -0.9055  0.0911
 4880TIP3   OH214645   2.058   0.241   3.859  0.0008 -0.2276  0.0100
 4880TIP3    H114646   2.082   0.159   3.903 -0.2645 -0.7226 -0.7495
 4880TIP3    H214647   2.139   0.267   3.814 -0.0526 -0.3240 -0.1404
 4881TIP3   OH214648   1.579   0.040   0.678  0.3640  0.6551  0.2297
 4881TIP3    H114649   1.523  -0.018   0.627 -1.2153  1.1695  1.2846
 4881TIP3    H214650   1.658   0.051   0.625  0.5346 -2.0384 -0.2244
 4882TIP3   OH214651   0.977   4.719   3.943 -0.2081 -0.3605  0.8736
 4882TIP3    H114652   0.967   4.814   3.939 -0.6407 -0.4191  0.5365
 4882TIP3    H214653   1.030   4.697   3.867  0.9117 -0.2707  1.5918
 4883TIP3   OH214654   2.992   3.575   4.834  0.1940  0.5970 -0.1322
 4883TIP3    H114655   3.002   3.642   4.767  0.4175  1.9581  1.2088
 4883TIP3    H214656   2.903   3.587   4.867 -0.0472 -0.3079 -0.4036
 4884TIP3   OH214657   2.503   4.628   2.616 -0.1687  0.2115 -0.6478
 4884TIP3    H114658   2.470   4.612   2.528 -1.4826  1.5925 -0.4703
 4884TIP3    H214659   2.486   4.547   2.664  1.3815 -0.8681 -1.8554
 4885TIP3   OH214660   4.341   3.277   2.422  0.0295  0.0967 -0.3602
 4885TIP3    H114661   4.418   3.334   2.434  0.1398  0.0688 -0.9359
 4885TIP3    H214662   4.328   3.274   2.328 -0.1288 -0.6382 -0.3195
 4886TIP3   OH214663   3.975   1.517   1.303 -0.3974 -0.2408  0.1958
 4886TIP3    H114664   3.986   1.611   1.293  1.3248 -0.5255 -1.0818
 4886TIP3    H214665   3.977   1.482   1.214 -0.9500 -1.4918  0.6467
 4887TIP3   OH214666   3.622   5.574   4.360 -0.1290  0.2860  0.2072
 4887TIP3    H114667   3.670   5.503   4.317 -1.0159 -0.6156  0.6773
 4887TIP3    H214668   3.585   5.535   4.438  0.1459  1.5189  0.9810
 4888TIP3   OH214669   4.399   1.838   0.520  0.6798 -0.8969 -0.0577
 4888TIP3    H114670   4.334   1.851   0.589  2.1907 -0.1308  1.2730
 4888TIP3    H214671   4.353   1.860   0.439 -0.8991 -1.0375  0.7669
 4889TIP3   OH214672   2.209   2.207   0.892  0.2971 -0.2606  0.1229
 4889TIP3    H114673   2.244   2.265   0.824  1.5877 -0.5501  0.5056
 4889TIP3    H214674   2.255   2.124   0.879 -1.5094 -1.2292 -0.4025
 4890TIP3   OH214675   5.555   2.568   0.702 -0.1060 -0.8403 -0.0393
 4890TIP3    H114676   5.525   2.617   0.779  0.8437 -1.0851  0.5076
 4890TIP3    H214677   5.644   2.599   0.687 -0.1594 -1.0500 -0.8390
 4891TIP3   OH214678   3.756   5.582   4.028  0.3494 -0.8053 -0.7314
 4891TIP3    H114679   3.807   5.653   4.068 -1.4839  0.5951 -0.7473
 4891TIP3    H214680   3.752   5.514   4.095 -2.0633  1.1917  1.3436
 4892TIP3   OH214681   3.309   1.814   4.594  0.3101  0.1691  0.3018
 4892TIP3    H114682   3.378   1.778   4.537  0.0297  0.9388 -0.5518
 4892TIP3    H214683   3.231   1.816   4.538  0.0354  0.9805  0.7000
 4893TIP3   OH214684   5.632   5.037   1.510 -0.3068  0.2192  0.1042
 4893TIP3    H114685   5.687   5.116   1.510  0.0065  0.0304  1.2724
 4893TIP3    H214686   5.668   4.983   1.581 -2.4650  0.4370  1.4696
 4894TIP3   OH214687   4.014   1.803   3.367  0.3274 -0.0022  0.4050
 4894TIP3    H114688   4.077   1.781   3.436  3.4139  2.1842 -1.4576
 4894TIP3    H214689   4.016   1.727   3.309 -0.0566 -0.6435  1.2134
 4895TIP3   OH214690   2.448   1.696   4.340  0.3331  0.1484 -0.0991
 4895TIP3    H114691   2.461   1.706   4.434 -1.1357  1.0157  0.0350
 4895TIP3    H214692   2.357   1.669   4.331  0.1169  1.2023 -1.3271
 4896TIP3   OH214693   0.644   1.822   4.898 -0.6539 -0.8775 -0.2235
 4896TIP3    H114694   0.579   1.851   4.833  0.5720  0.1083 -1.0643
 4896TIP3    H214695   0.712   1.780   4.845  0.3383 -0.1122  0.4390
 4897TIP3   OH214696   6.158   0.707   4.251  0.1415  0.3408  0.3426
 4897TIP3    H114697   6.230   0.766   4.273 -3.0087  3.7807  2.8244
 4897TIP3    H214698   6.127   0.739   4.167 -0.1843  0.7979  0.6290
 4898TIP3   OH214699   5.171   2.032   0.079 -0.1717  0.6051  0.2797
 4898TIP3    H114700   5.121   2.029   0.161  0.3338 -0.7553  0.5668
 4898TIP3    H214701   5.261   2.011   0.106  0.2132  1.2682 -0.4711
 4899TIP3   OH214702   1.153   1.337   0.032  0.0266  0.8635  0.2266
 4899TIP3    H114703   1.232   1.357   0.082  1.0770  0.7419 -1.2954
 4899TIP3    H214704   1.096   1.291   0.093  0.7291  1.7748  1.6280
 4900TIP3   OH214705   4.535   1.828   0.104  0.2467  0.2236  0.1152
 4900TIP3    H114706   4.457   1.880   0.124 -0.0074 -0.1738  0.1682
 4900TIP3    H214707   4.516   1.742   0.140  0.3545 -0.1201 -0.6333
 4901TIP3   OH214708   5.740   3.189   5.022 -0.1081 -0.1824 -0.3807
 4901TIP3    H114709   5.740   3.182   5.117  1.5342  3.2183  0.0322
 4901TIP3    H214710   5.677   3.259   5.003 -0.0562 -0.4671 -1.7591
 4902TIP3   OH214711   4.151   0.820   4.021 -0.1308 -0.3352 -0.3110
 4902TIP3    H114712   4.166   0.813   4.116  0.8347  0.2657 -0.4066
 4902TIP3    H214713   4.056   0.829   4.013 -0.2633 -0.7503  0.5707
 4903TIP3   OH214714   2.267   4.970   4.615  0.5256 -0.3623 -0.1349
 4903TIP3    H114715   2.359   4.993   4.615  0.4801  0.0533  1.9424
 4903TIP3    H214716   2.265   4.879   4.585  1.4229  0.0593 -1.5784
 4904TIP3   OH214717   0.428   0.480   0.192 -0.6371 -0.0505  0.1981
 4904TIP3    H114718   0.419   0.387   0.171 -0.5900  0.0499 -0.2752
 4904TIP3    H214719   0.340   0.507   0.217 -1.1135  0.2493 -1.6438
 4905TIP3   OH214720   2.740   3.169   5.143  0.4640 -0.4803  0.1264
 4905TIP3    H114721   2.750   3.074   5.153 -0.4150 -0.5653  0.2763
 4905TIP3    H214722   2.746   3.203   5.232 -0.4119 -0.5243  0.2096
 4906TIP3   OH214723   3.775   1.320   2.289  0.0707 -0.6141 -0.0247
 4906TIP3    H114724   3.819   1.274   2.218  0.3223  0.2152 -0.4182
 4906TIP3    H214725   3.684   1.292   2.282 -0.4278  1.1867 -2.1806
 4907TIP3   OH214726   3.662   0.807   3.642 -0.3723 -0.1892 -0.0341
 4907TIP3    H114727   3.585   0.847   3.602  0.9688  1.6037 -0.9707
 4907TIP3    H214728   3.660   0.838   3.733  0.2906  1.6173 -0.5778
 4908TIP3   OH214729   5.247   4.198   3.293 -0.1713  0.2556  0.3880
 4908TIP3    H114730   5.288   4.153   3.219 -0.4251 -0.7725  0.8567
 4908TIP3    H214731   5.272   4.146   3.369  0.6722  1.6866  1.1392
 4909TIP3   OH214732   4.932   5.162   2.137 -0.1183 -0.2340 -0.2083
 4909TIP3    H114733   4.921   5.145   2.230  1.0165 -2.3272 -0.3848
 4909TIP3    H214734   4.975   5.247   2.132  1.2363 -0.7927  1.2838
 4910TIP3   OH214735   5.497   3.097   4.591  0.1689 -0.0504 -0.0950
 4910TIP3    H114736   5.483   3.014   4.546  0.4037  0.2253 -0.6954
 4910TIP3    H214737   5.578   3.086   4.640  1.5169  0.5622 -2.0361
 4911TIP3   OH214738   4.789   5.959   5.115 -0.1953 -0.0040 -0.0595
 4911TIP3    H114739   4.711   5.921   5.155  1.1237 -2.2841  0.5370
 4911TIP3    H214740   4.826   6.015   5.183 -0.8050  0.3227  0.0020
 4912TIP3   OH214741   3.380   1.566   0.976 -0.5575  0.1703 -0.3049
 4912TIP3    H114742   3.395   1.648   1.023  0.4070 -0.1149 -0.1043
 4912TIP3    H214743   3.390   1.497   1.042 -1.8494 -0.1003 -0.3636
 4913TIP3   OH214744   1.892   3.748   0.585 -0.7289  0.5871 -0.5389
 4913TIP3    H114745   1.827   3.735   0.516 -1.7059  1.5688  0.1382
 4913TIP3    H214746   1.905   3.661   0.623  0.0324 -0.0068 -2.1136
 4914TIP3   OH214747   4.633   2.937   0.709  0.2247 -0.2735 -0.1402
 4914TIP3    H114748   4.546   2.977   0.703  0.0073 -0.5784  0.8157
 4914TIP3    H214749   4.631   2.865   0.647 -1.1941 -2.0324  1.7949
 4915TIP3   OH214750   2.567   4.586   3.317 -0.1839 -0.0545 -0.2890
 4915TIP3    H114751   2.588   4.588   3.410  0.0073  0.7228 -0.3334
 4915TIP3    H214752   2.481   4.545   3.312 -0.8254  1.1520  0.3695
 4916TIP3   OH214753   5.982   4.520   3.006 -0.2976 -0.1181  0.3751
 4916TIP3    H114754   5.985   4.613   2.986 -1.3731  0.0901  1.1479
 4916TIP3    H214755   5.998   4.515   3.100 -0.8602 -0.6682  0.4476
 4917TIP3   OH214756   2.512   3.029   2.086 -0.2167  0.4740  0.3649
 4917TIP3    H114757   2.474   3.079   2.158  1.5645  1.6528  0.5448
 4917TIP3    H214758   2.437   2.984   2.046 -1.2859 -0.0860  2.8096
 4918TIP3   OH214759   3.542   5.758   1.192  0.2374 -0.0568 -0.5136
 4918TIP3    H114760   3.613   5.753   1.128  2.1313 -0.5895  1.5094
 4918TIP3    H214761   3.577   5.713   1.269 -2.5984 -0.9828  0.3332
 4919TIP3   OH214762   5.484   4.920   4.920  0.1729  0.5018  0.8138
 4919TIP3    H114763   5.547   4.853   4.945  0.5815 -0.1472 -1.6871
 4919TIP3    H214764   5.538   4.989   4.881 -0.5865 -0.1455 -1.5347
 4920TIP3   OH214765   5.550   5.201   3.402 -0.0716  0.4581  0.2668
 4920TIP3    H114766   5.457   5.215   3.385 -0.5334 -0.7072  1.6452
 4920TIP3    H214767   5.591   5.203   3.316 -1.8667 -2.4000 -0.8099
 4921TIP3   OH214768   2.125   3.507   1.048  0.0791  0.4664  0.5103
 4921TIP3    H114769   2.216   3.530   1.069 -0.4912  1.6248  1.9292
 4921TIP3    H214770   2.130   3.465   0.963  1.8697  1.1305  0.2385
 4922TIP3   OH214771   6.228   5.078   4.908 -0.6037 -0.4680 -0.1781
 4922TIP3    H114772   6.307   5.122   4.876 -0.1311 -0.2258  1.2390
 4922TIP3    H214773   6.159   5.143   4.896 -0.3266 -0.1631 -0.1579
 4923TIP3   OH214774   2.388   0.176   0.401  0.3676  0.3060 -0.4056
 4923TIP3    H114775   2.444   0.102   0.425  1.0922  1.0546  0.3092
 4923TIP3    H214776   2.417   0.202   0.314  0.7945  0.3595 -0.2501
 4924TIP3   OH214777  -0.018   4.767   1.247 -0.2314 -0.3402 -0.3336
 4924TIP3    H114778   0.075   4.791   1.239 -0.3009 -0.1809 -0.6794
 4924TIP3    H214779  -0.021   4.675   1.220 -0.2640 -0.1736 -0.9168
 4925TIP3   OH214780   1.676   3.652   0.451 -0.1922  0.2216  0.2420
 4925TIP3    H114781   1.643   3.567   0.481  0.5040 -0.0520  0.2588
 4925TIP3    H214782   1.606   3.713   0.470 -1.3670 -0.6074 -1.2564
 4926TIP3   OH214783   5.681   3.209   1.256  0.1233 -0.1407  0.4458
 4926TIP3    H114784   5.609   3.264   1.224 -0.3035 -0.4155  0.9109
 4926TIP3    H214785   5.743   3.207   1.184 -0.5014 -0.1843 -0.1053
 4927TIP3   OH214786   1.855   5.734   2.328 -0.2471 -0.1764 -0.2352
 4927TIP3    H114787   1.797   5.739   2.252 -1.7408 -0.1691  0.8516
 4927TIP3    H214788   1.928   5.679   2.300 -0.6169  0.0621 -1.7458
 4928TIP3   OH214789   6.255   3.926   1.995 -0.0392  0.0241  0.3506
 4928TIP3    H114790   6.238   3.964   2.081  0.6088 -0.3658  0.6652
 4928TIP3    H214791   6.169   3.901   1.962 -0.3535  0.7248  0.6255
 4929TIP3   OH214792   5.457   0.968   3.667  0.6545  0.3395  0.4623
 4929TIP3    H114793   5.421   0.899   3.610  1.6224  0.0196  0.2263
 4929TIP3    H214794   5.529   0.926   3.713 -0.6428  0.3241  2.6368
 4930TIP3   OH214795   5.872   3.376   4.676 -0.3399  0.2488 -0.5768
 4930TIP3    H114796   5.882   3.410   4.587 -2.8257  1.1650 -0.5973
 4930TIP3    H214797   5.824   3.445   4.722 -0.8203 -1.0316  0.9289
 4931TIP3   OH214798   1.623   1.814   2.751 -0.1700  0.1988  0.2471
 4931TIP3    H114799   1.665   1.887   2.796 -0.0874 -0.5819  1.4812
 4931TIP3    H214800   1.659   1.736   2.794 -0.1648 -0.5859 -1.1139
 4932TIP3   OH214801   0.511   4.029   4.272  0.5986 -0.5227  0.1647
 4932TIP3    H114802   0.577   4.090   4.305  0.6307 -0.1426 -0.5985
 4932TIP3    H214803   0.465   4.077   4.204  0.4586 -1.2572 -0.2758
 4933TIP3   OH214804   2.114   0.012   4.030  0.6734 -0.3357  0.4347
 4933TIP3    H114805   2.049   0.021   4.100  0.7081  2.6076  0.1988
 4933TIP3    H214806   2.186   0.070   4.055  0.9590  0.3357 -1.6958
 4934TIP3   OH214807   2.504   0.120   3.705 -0.5691  0.1105 -0.2944
 4934TIP3    H114808   2.426   0.064   3.707 -0.3503 -0.2109 -0.5636
 4934TIP3    H214809   2.577   0.058   3.708 -0.3098  0.4397  1.2651
 4935TIP3   OH214810   5.683   4.705   5.001  0.0550  0.3670 -0.1847
 4935TIP3    H114811   5.753   4.758   4.961 -0.3514  0.0068 -1.4063
 4935TIP3    H214812   5.709   4.615   4.986  2.0880 -0.0496  4.1412
 4936TIP3   OH214813   0.376   4.512   0.827 -0.0105  0.3051  0.4004
 4936TIP3    H114814   0.398   4.428   0.868  1.0295 -0.7502 -2.1446
 4936TIP3    H214815   0.432   4.576   0.872  0.6131 -0.6809  1.0598
 4937TIP3   OH214816   6.285   4.835   3.489 -0.7303  0.7779  0.0634
 4937TIP3    H114817   6.363   4.783   3.469 -0.3818  1.2736  0.1381
 4937TIP3    H214818   6.217   4.769   3.507 -0.4974  0.3339 -0.6062
 4938TIP3   OH214819   4.578   3.571   0.258 -0.4930 -0.2244  0.4845
 4938TIP3    H114820   4.647   3.505   0.268 -1.3961 -1.1443  0.7064
 4938TIP3    H214821   4.501   3.532   0.299 -1.2410  0.6677 -0.0478
 4939TIP3   OH214822   3.073   3.443   1.771 -0.0920 -0.3890  0.5870
 4939TIP3    H114823   3.078   3.441   1.866  0.6420  1.0627  0.6093
 4939TIP3    H214824   3.061   3.351   1.746 -0.5412 -0.7677  2.0732
 4940TIP3   OH214825   4.359   0.812   4.229  0.1816  0.0657  0.0753
 4940TIP3    H114826   4.438   0.852   4.192  0.7782 -0.4751  0.7202
 4940TIP3    H214827   4.357   0.724   4.191  0.5287 -0.3197  0.9399
 4941TIP3   OH214828   1.794   3.049   1.415 -0.3449  0.1432  0.4776
 4941TIP3    H114829   1.852   3.124   1.405  1.2699 -1.1073  0.0160
 4941TIP3    H214830   1.780   3.017   1.326  1.8502 -2.1113  0.8108
 4942TIP3   OH214831   3.591   1.366   0.814  0.4373 -0.0619  0.2035
 4942TIP3    H114832   3.524   1.329   0.871 -0.2635 -0.6139 -0.9530
 4942TIP3    H214833   3.602   1.456   0.846  0.7395 -0.6122  1.7825
 4943TIP3   OH214834   1.510   5.314   1.407  0.7826  0.0872  0.3885
 4943TIP3    H114835   1.555   5.347   1.485  1.6412 -3.5462  1.6105
 4943TIP3    H214836   1.576   5.263   1.360 -1.0758 -2.6287  0.4588
 4944TIP3   OH214837   2.861   2.784   3.764 -0.8207  0.1432  0.4813
 4944TIP3    H114838   2.801   2.721   3.803  0.6578 -0.1459  2.4570
 4944TIP3    H214839   2.947   2.742   3.768 -0.2015  1.2339 -0.6145
 4945TIP3   OH214840   4.259   5.818   4.849  0.2647  0.0886  0.6699
 4945TIP3    H114841   4.225   5.809   4.938 -1.9350  1.0423 -0.0159
 4945TIP3    H214842   4.185   5.798   4.792  1.4618  0.0488 -0.9605
 4946TIP3   OH214843   5.803   0.580   2.833 -0.2538 -0.8794 -0.1705
 4946TIP3    H114844   5.721   0.625   2.811  0.4516  1.1171  1.0146
 4946TIP3    H214845   5.864   0.607   2.764  0.5081  1.1004  1.1935
 4947TIP3   OH214846   2.032   5.587   2.182  1.0239  0.6743  0.2446
 4947TIP3    H114847   2.096   5.521   2.157  0.0043 -0.5467  0.7730
 4947TIP3    H214848   1.999   5.622   2.099  0.1761 -0.8745 -0.0984
 4948TIP3   OH214849   3.715   4.608   0.416  0.4261  0.1637  0.1221
 4948TIP3    H114850   3.806   4.594   0.391  0.6524  0.8547  0.5122
 4948TIP3    H214851   3.679   4.664   0.348  0.8444  1.4616  0.9246
 4949TIP3   OH214852   1.156   2.930   0.141  0.2752  0.0631 -0.3127
 4949TIP3    H114853   1.084   2.948   0.081 -0.4095  0.9553  0.7196
 4949TIP3    H214854   1.175   3.015   0.181  2.4778  0.0273 -1.1340
 4950TIP3   OH214855   4.232   3.616   3.512 -0.1202 -0.5695  0.2266
 4950TIP3    H114856   4.281   3.579   3.586 -0.1919 -1.5143 -0.1802
 4950TIP3    H214857   4.262   3.706   3.506  0.4938 -0.7147  0.8933
 4951TIP3   OH214858   4.243   2.144   2.511  0.2801  0.4473 -0.1093
 4951TIP3    H114859   4.316   2.191   2.471 -0.1537  0.8712 -0.4307
 4951TIP3    H214860   4.166   2.196   2.487 -0.3891 -1.1406 -1.6225
 4952TIP3   OH214861   3.410   5.789   0.273 -0.5567 -0.2929  0.3573
 4952TIP3    H114862   3.409   5.708   0.222  0.2064 -0.4007  0.5095
 4952TIP3    H214863   3.385   5.762   0.361  1.8113 -0.7605  0.9508
 4953TIP3   OH214864   4.333   3.958   1.101 -0.2333 -0.0045  0.6250
 4953TIP3    H114865   4.277   3.880   1.105  0.2331 -0.2912  1.9292
 4953TIP3    H214866   4.357   3.966   1.009 -0.6517 -1.1478  0.4073
 4954TIP3   OH214867   6.088   3.283   1.127  0.0982  0.1136 -0.7158
 4954TIP3    H114868   6.058   3.277   1.218  1.1189 -0.7513 -0.4193
 4954TIP3    H214869   6.078   3.376   1.105 -1.4201  0.1147 -0.1824
 4955TIP3   OH214870   4.516   2.800   3.581  0.6282 -0.1306  0.1551
 4955TIP3    H114871   4.469   2.718   3.598  1.0596 -0.6710 -1.1250
 4955TIP3    H214872   4.601   2.772   3.547 -0.1603  0.7971 -2.8802
 4956TIP3   OH214873   0.646   4.830   1.144 -0.0952 -0.6393 -0.4083
 4956TIP3    H114874   0.690   4.829   1.229 -1.7774 -2.3460  0.5305
 4956TIP3    H214875   0.570   4.887   1.157 -0.3656 -0.9164 -0.7552
 4957TIP3   OH214876   4.553   5.765   4.824  0.3867  0.3639  0.3250
 4957TIP3    H114877   4.586   5.678   4.804  1.4613  0.8829 -0.2172
 4957TIP3    H214878   4.461   5.763   4.797  0.5552 -0.4300 -0.2080
 4958TIP3   OH214879   1.589   4.767   3.395 -0.1461 -0.1911  0.0212
 4958TIP3    H114880   1.654   4.758   3.464  0.1710 -0.1594 -0.2699
 4958TIP3    H214881   1.553   4.679   3.384  0.0408 -0.2656 -0.0024
 4959TIP3   OH214882   6.029   2.106   1.669  0.8611  0.5401 -0.1572
 4959TIP3    H114883   5.972   2.041   1.710  1.7739  0.9538  1.9113
 4959TIP3    H214884   5.979   2.187   1.671  0.2280  0.2111 -1.5418
 4960TIP3   OH214885   1.064   5.009   2.005  0.2944  0.1061  0.0658
 4960TIP3    H114886   0.994   5.012   1.940  0.4196  2.5785 -0.0283
 4960TIP3    H214887   1.019   5.016   2.089  0.3102 -0.5877  0.1421
 4961TIP3   OH214888   6.195   2.459   4.186  0.0041 -0.3624 -0.5088
 4961TIP3    H114889   6.221   2.454   4.278 -2.4804  0.9317  0.3465
 4961TIP3    H214890   6.142   2.538   4.180 -0.3287 -0.6977 -2.9534
 4962TIP3   OH214891   3.151   2.577   0.557 -0.5799  0.0765  0.6521
 4962TIP3    H114892   3.207   2.655   0.559 -0.7493  0.2307 -0.2135
 4962TIP3    H214893   3.202   2.510   0.602 -0.1853  0.5274  0.8878
 4963TIP3   OH214894   4.797   0.667   5.096  0.1070 -0.4905 -0.1818
 4963TIP3    H114895   4.738   0.670   5.171 -0.6842  4.9319 -0.6182
 4963TIP3    H214896   4.884   0.679   5.133 -0.0087 -0.2765  0.0222
 4964TIP3   OH214897   5.953   5.681   3.296  0.3901  0.1468 -0.1183
 4964TIP3    H114898   5.940   5.657   3.204 -1.4704  2.1042 -0.4347
 4964TIP3    H214899   5.988   5.601   3.336 -0.3807 -1.3164 -2.1581
 4965TIP3   OH214900   5.692   1.438   1.556 -0.1626 -0.1823  0.2746
 4965TIP3    H114901   5.782   1.467   1.572 -0.1467 -0.6455  1.0952
 4965TIP3    H214902   5.661   1.493   1.484  1.3725 -1.2279 -1.2550
 4966TIP3   OH214903   2.126   3.351   0.805 -0.2208 -0.3428  0.0455
 4966TIP3    H114904   2.056   3.319   0.749 -0.0377  0.4648 -0.6575
 4966TIP3    H214905   2.170   3.419   0.754  0.0669  0.2907  1.0875
 4967TIP3   OH214906   6.324   4.700   0.244  0.1214  0.4529  0.0113
 4967TIP3    H114907   6.292   4.733   0.160 -0.5601  1.0177  0.4791
 4967TIP3    H214908   6.264   4.629   0.266  0.3360  0.2664 -0.0153
 4968TIP3   OH214909   2.580   4.614   0.785  0.0664 -0.1029 -0.0422
 4968TIP3    H114910   2.598   4.698   0.745  0.3545  0.2826  0.8573
 4968TIP3    H214911   2.488   4.597   0.766 -0.1059  0.6200  0.1327
 4969TIP3   OH214912   0.946   2.595   2.668 -0.3818  0.7234 -0.7251
 4969TIP3    H114913   1.007   2.621   2.737 -1.1715 -0.2875  0.3936
 4969TIP3    H214914   0.932   2.501   2.682 -2.6194  1.0244 -0.5742
 4970TIP3   OH214915   1.483   1.662   4.426 -0.7640 -0.2602  0.2151
 4970TIP3    H114916   1.396   1.692   4.398 -0.0179  2.0934  0.2836
 4970TIP3    H214917   1.486   1.570   4.397 -2.7623 -0.0246 -0.9619
 4971TIP3   OH214918   3.144   4.170   4.467  0.3669  0.1321 -0.4059
 4971TIP3    H114919   3.126   4.264   4.476 -0.6196  0.0579 -1.4650
 4971TIP3    H214920   3.063   4.133   4.435 -0.0154 -1.4976  2.1897
 4972TIP3   OH214921   6.214   4.122   4.483  0.0249 -0.2321 -0.0224
 4972TIP3    H114922   6.161   4.098   4.558 -0.8366  0.1700 -0.4909
 4972TIP3    H214923   6.268   4.195   4.513  0.0382 -0.3949  0.3455
 4973TIP3   OH214924   4.336   2.039   3.422 -0.1382 -0.7862  0.2428
 4973TIP3    H114925   4.342   2.106   3.353 -0.6923 -0.5040  0.4652
 4973TIP3    H214926   4.427   2.013   3.437  0.2216  0.8140  1.0438
 4974TIP3   OH214927   0.520   0.499   4.875 -0.3066  0.3139  0.2084
 4974TIP3    H114928   0.526   0.511   4.970 -1.1812  0.1538  0.2962
 4974TIP3    H214929   0.610   0.482   4.847 -0.1254 -0.2674  1.0957
 4975TIP3   OH214930   5.921   2.959   4.964  0.7686  0.4649  0.1807
 4975TIP3    H114931   5.882   3.046   4.974  0.2423  0.2777 -0.1665
 4975TIP3    H214932   6.001   2.974   4.914 -0.3543  0.5365 -1.7033
 4976TIP3   OH214933   4.575   1.395   0.920  0.4474 -0.1534  0.9908
 4976TIP3    H114934   4.510   1.444   0.869 -0.0406 -1.6487  0.1103
 4976TIP3    H214935   4.602   1.455   0.989 -0.0575  1.3731 -0.0969
 4977TIP3   OH214936   4.008   2.521   1.786  0.5038  0.3897 -0.1194
 4977TIP3    H114937   3.994   2.615   1.777  0.8102  0.4599  0.0968
 4977TIP3    H214938   3.925   2.481   1.762 -0.3057  0.8166  1.7901
 4978TIP3   OH214939   3.320   0.645   4.540  0.2235 -0.1570  0.3065
 4978TIP3    H114940   3.230   0.656   4.569  0.6833  3.0233  0.9480
 4978TIP3    H214941   3.372   0.641   4.621  0.7071 -1.5415 -0.0534
 4979TIP3   OH214942   5.407   5.778   2.042  0.7070  0.4361  0.0718
 4979TIP3    H114943   5.434   5.692   2.075  0.1832  0.3828  0.3700
 4979TIP3    H214944   5.433   5.777   1.950  3.2761  1.0412  0.7121
 4980TIP3   OH214945   3.060   2.716   1.468 -0.2250 -0.1158  0.0846
 4980TIP3    H114946   3.128   2.670   1.518 -1.0571 -0.4667  0.9165
 4980TIP3    H214947   2.982   2.663   1.479 -0.9779  0.9918  0.2546
 4981TIP3   OH214948   0.755   3.523   5.116  0.0172 -0.1588  0.2312
 4981TIP3    H114949   0.681   3.487   5.067 -0.1726 -2.8111  2.2596
 4981TIP3    H214950   0.822   3.538   5.049 -1.4265 -0.2298 -1.2933
 4982TIP3   OH214951   5.270   5.870   3.271 -0.1693  0.4326 -0.4006
 4982TIP3    H114952   5.201   5.805   3.284  0.2503  0.0133 -0.2364
 4982TIP3    H214953   5.350   5.818   3.257  0.4527  0.8969  1.1809
 4983TIP3   OH214954   1.621   3.868   0.173 -0.2191 -0.3539 -0.2067
 4983TIP3    H114955   1.532   3.833   0.169 -0.5020  0.3132  0.1516
 4983TIP3    H214956   1.645   3.861   0.266  0.3668 -1.1499 -0.4003
 4984TIP3   OH214957   0.879   3.863   0.656 -0.3986 -0.0892 -0.0369
 4984TIP3    H114958   0.926   3.789   0.695 -1.0283 -1.5893 -1.9627
 4984TIP3    H214959   0.787   3.837   0.659 -0.4812 -0.3047 -2.4233
 4985TIP3   OH214960   4.533   1.148   3.753 -0.2132 -0.4665 -0.1273
 4985TIP3    H114961   4.616   1.121   3.793  1.1459  2.4785 -0.7448
 4985TIP3    H214962   4.466   1.110   3.809  1.5905  0.2528  2.6933
 4986TIP3   OH214963   0.671   4.578   2.272 -0.2162 -0.1590  0.1012
 4986TIP3    H114964   0.724   4.515   2.321 -0.5629 -1.5566 -1.2604
 4986TIP3    H214965   0.735   4.627   2.220  0.0394  0.5480  1.0499
 4987TIP3   OH214966   3.609   1.337   4.853 -0.2369 -0.1058  0.2352
 4987TIP3    H114967   3.624   1.291   4.936  0.1949  0.8863  0.7234
 4987TIP3    H214968   3.579   1.269   4.793 -0.1930 -0.9101  1.1026
 4988TIP3   OH214969   5.454   0.272   0.143  0.1020  0.2919  0.5517
 4988TIP3    H114970   5.522   0.281   0.210  0.7005  0.1865 -0.0298
 4988TIP3    H214971   5.491   0.211   0.078 -0.6642  0.0021  0.3717
 4989TIP3   OH214972   1.934   1.989   1.839 -0.1676  0.3876  0.0727
 4989TIP3    H114973   2.015   1.950   1.808 -0.5954 -1.5936  1.2274
 4989TIP3    H214974   1.953   2.016   1.929 -0.1675  2.0539 -0.3940
 4990TIP3   OH214975   1.490   1.983   4.658  0.1507  0.3244  0.2461
 4990TIP3    H114976   1.535   1.907   4.622  0.6523  0.9107 -0.4006
 4990TIP3    H214977   1.535   2.001   4.740  0.3629  0.2327  0.1510
 4991TIP3   OH214978   6.247   5.042   5.178 -0.0388 -0.1115  0.2547
 4991TIP3    H114979   6.251   5.051   5.083 -0.3056  0.0619  0.2570
 4991TIP3    H214980   6.164   4.997   5.194  0.4610 -1.0105  0.3493
 4992TIP3   OH214981   2.719   4.002   4.387  0.4869 -0.1009 -0.5454
 4992TIP3    H114982   2.790   4.067   4.385 -0.3534  0.8358 -2.0652
 4992TIP3    H214983   2.722   3.960   4.301  0.2261 -1.2134 -0.0237
 4993TIP3   OH214984   1.446   0.240   4.058 -0.4652  0.4872 -0.0891
 4993TIP3    H114985   1.402   0.313   4.014 -0.0565  0.7262 -0.1064
 4993TIP3    H214986   1.396   0.163   4.032 -0.4620  0.6755 -0.6682
 4994TIP3   OH214987   2.216   2.531   3.737  0.0642  0.2540  0.8620
 4994TIP3    H114988   2.261   2.459   3.782  0.8502  1.5212  2.1960
 4994TIP3    H214989   2.137   2.546   3.790 -1.2133 -0.9360 -0.5946
 4995TIP3   OH214990   1.949   2.481   1.523 -0.1393  0.2350 -0.0458
 4995TIP3    H114991   1.947   2.508   1.615  0.3573 -1.7770  0.6044
 4995TIP3    H214992   2.037   2.447   1.510 -0.5409 -0.4947 -0.9552
 4996TIP3   OH214993   6.310   0.634   3.866 -0.2122  0.1610  0.3033
 4996TIP3    H114994   6.224   0.673   3.851 -0.3630 -0.6240 -1.0058
 4996TIP3    H214995   6.299   0.541   3.845  0.5441 -0.3093  1.7768
 4997TIP3   OH214996   4.375   0.144   2.761  0.3817  0.0772  0.5564
 4997TIP3    H114997   4.331   0.228   2.750  0.3011  0.0112  0.3868
 4997TIP3    H214998   4.308   0.086   2.796 -0.0124 -0.3660 -0.8908
 4998TIP3   OH214999   1.888   2.400   3.174  0.0674  0.6249 -0.2886
 4998TIP3    H115000   1.875   2.385   3.267  0.9271 -1.3322 -0.4441
 4998TIP3    H215001   1.959   2.464   3.169  0.2545  0.4743  0.3886
 4999TIP3   OH215002   2.070   5.633   4.668 -0.0826  0.4584  0.1813
 4999TIP3    H115003   1.979   5.661   4.653 -0.8917 -1.7532  0.5147
 4999TIP3    H215004   2.063   5.540   4.687  2.3447  0.1171 -0.2851
 5000TIP3   OH215005   2.519   1.928   1.679  0.3064 -0.2748 -0.3864
 5000TIP3    H115006   2.564   1.975   1.609  0.6727 -0.0441 -0.0008
 5000TIP3    H215007   2.479   1.997   1.732  1.0803 -0.3707  0.3391
 5001TIP3   OH215008   6.101   5.235   0.017 -0.3382  0.0312 -0.2020
 5001TIP3    H115009   6.078   5.316  -0.028  1.1831  0.2256 -0.6866
 5001TIP3    H215010   6.113   5.260   0.108  0.1973  0.3794 -0.3638
 5002TIP3   OH215011   1.823   2.814   4.328 -0.3157  0.3053  0.2604
 5002TIP3    H115012   1.782   2.729   4.313 -0.5204  0.7380 -2.2041
 5002TIP3    H215013   1.753   2.869   4.362 -0.5039 -0.1774  0.6680
 5003TIP3   OH215014   5.192   0.305   2.971  0.4534 -0.3210  0.2788
 5003TIP3    H115015   5.113   0.265   3.006  0.2812 -1.1912 -1.0372
 5003TIP3    H215016   5.196   0.275   2.880  2.2853 -0.2751  0.3035
 5004TIP3   OH215017   1.769   2.762   1.698 -0.2801 -0.2355  0.0810
 5004TIP3    H115018   1.821   2.834   1.734 -0.2408  0.2747 -0.9487
 5004TIP3    H215019   1.680   2.798   1.694 -0.9164 -1.3267  2.4648
 5005TIP3   OH215020   5.905   0.840   0.959 -0.0428 -0.0780  0.5625
 5005TIP3    H115021   5.986   0.891   0.969 -0.5874  0.5764  1.9064
 5005TIP3    H215022   5.877   0.857   0.869  0.4460  1.0357  0.5987
 5006TIP3   OH215023   1.142   5.479   0.495  0.1694 -0.8558  0.9164
 5006TIP3    H115024   1.085   5.433   0.433 -1.7936  1.0467  1.2113
 5006TIP3    H215025   1.109   5.453   0.581 -0.7414  0.6987  1.0881
 5007TIP3   OH215026   3.334   5.468   2.351 -0.4944  0.5550  0.3340
 5007TIP3    H115027   3.250   5.422   2.348 -0.3128  0.1386  1.4184
 5007TIP3    H215028   3.310   5.561   2.356 -0.9132  0.4043  1.3764
 5008TIP3   OH215029   2.853   3.938   1.488  0.1906  0.1498  0.0407
 5008TIP3    H115030   2.872   3.845   1.498  0.6621  0.3620  1.3179
 5008TIP3    H215031   2.924   3.982   1.536  1.5077  1.2843 -2.7288
 5009TIP3   OH215032   2.420   5.781   3.285  0.2238 -0.3421 -0.4369
 5009TIP3    H115033   2.458   5.702   3.325 -0.7983 -0.0291  1.2451
 5009TIP3    H215034   2.440   5.772   3.192  1.5509 -1.7757 -0.0622
 5010TIP3   OH215035   4.734   4.621   3.580  0.2510 -0.0902 -0.2372
 5010TIP3    H115036   4.702   4.687   3.518  0.1058  0.9857  0.9508
 5010TIP3    H215037   4.779   4.557   3.525 -0.8522  0.2308 -1.5815
 5011TIP3   OH215038   5.702   4.173   4.587  0.2530 -0.3761  0.2065
 5011TIP3    H115039   5.666   4.190   4.674 -0.9334 -0.5888 -0.2276
 5011TIP3    H215040   5.687   4.254   4.538 -0.7800 -0.8847 -0.3433
 5012TIP3   OH215041   1.376   4.100   4.175 -0.4454  0.5232  0.1978
 5012TIP3    H115042   1.438   4.055   4.118  0.6045  1.5737  0.4649
 5012TIP3    H215043   1.413   4.091   4.263 -0.9089  0.7717  0.4270
 5013TIP3   OH215044   5.500   4.241   1.302 -0.4545 -0.0618 -0.7897
 5013TIP3    H115045   5.551   4.163   1.325  0.5480  0.5417 -0.8651
 5013TIP3    H215046   5.411   4.222   1.332  0.2605 -0.2867  1.3924
 5014TIP3   OH215047   1.381   5.915   4.693 -0.2031 -0.2228 -0.4421
 5014TIP3    H115048   1.334   5.941   4.613 -0.9804  0.4406  0.2040
 5014TIP3    H215049   1.419   5.997   4.725  3.1111 -1.0179 -1.9543
 5015TIP3   OH215050   5.259   2.297   3.646  0.1116 -0.4298 -0.1201
 5015TIP3    H115051   5.318   2.372   3.639  0.9382 -1.1605 -1.4285
 5015TIP3    H215052   5.178   2.333   3.680  0.7555  0.9096  0.0688
 5016TIP3   OH215053   6.099   0.241   1.181 -0.1111 -0.2018  0.0507
 5016TIP3    H115054   6.039   0.312   1.159 -0.5437 -0.9835 -1.4236
 5016TIP3    H215055   6.044   0.164   1.188  0.5674 -0.7281 -0.2473
 5017TIP3   OH215056   1.460   4.848   2.083  0.8546  0.2723 -0.2291
 5017TIP3    H115057   1.436   4.800   2.004  1.4304  1.4938 -1.1890
 5017TIP3    H215058   1.416   4.932   2.074  0.6877  0.3256  0.9172
 5018TIP3   OH215059   5.104   4.338   1.455  0.1635  0.1663 -0.5855
 5018TIP3    H115060   5.026   4.334   1.510 -0.1052  0.7667 -0.9143
 5018TIP3    H215061   5.076   4.385   1.377  1.3205  2.1139  0.0929
 5019TIP3   OH215062   4.040   4.550   0.850 -0.1120 -0.3530 -0.4974
 5019TIP3    H115063   4.006   4.520   0.934  1.3847  0.8025  0.5889
 5019TIP3    H215064   3.972   4.607   0.815 -2.0519 -3.1198 -1.5737
 5020TIP3   OH215065   0.085   5.651   4.231 -0.5792 -0.1550  0.0265
 5020TIP3    H115066   0.056   5.560   4.242  1.7243 -0.8668  0.8860
 5020TIP3    H215067   0.121   5.654   4.143  0.4963 -0.4620  0.4400
 5021TIP3   OH215068   0.432   0.540   1.575  0.4366 -0.1464 -0.8513
 5021TIP3    H115069   0.379   0.600   1.627  1.6123 -0.0743  0.2929
 5021TIP3    H215070   0.514   0.587   1.559  0.3074 -0.3753 -2.3450
 5022TIP3   OH215071   3.816   1.458   1.832  1.0195  0.3250  0.9137
 5022TIP3    H115072   3.734   1.430   1.872 -0.2821  2.5812  0.0416
 5022TIP3    H215073   3.883   1.435   1.897 -0.1816 -2.0097  1.4397
 5023TIP3   OH215074   3.184   0.358   4.004  0.0751 -0.2535  0.8015
 5023TIP3    H115075   3.095   0.380   4.032 -0.3397 -0.3133 -0.4129
 5023TIP3    H215076   3.227   0.326   4.084 -1.1982 -0.8765  1.2672
 5024TIP3   OH215077   1.088   0.161   2.421 -0.6535 -0.1975 -0.5495
 5024TIP3    H115078   1.163   0.139   2.366 -0.4124  0.7988 -0.6457
 5024TIP3    H215079   1.125   0.210   2.494 -1.1614  0.0002 -0.4164
 5025TIP3   OH215080   6.268   5.479   1.862  0.2547  0.4087  0.1247
 5025TIP3    H115081   6.318   5.504   1.784  1.6640  2.9937  1.7206
 5025TIP3    H215082   6.300   5.392   1.884  0.7461  0.1591 -1.4373
 5026TIP3   OH215083   0.079   1.879  -0.020  0.2097  0.1334 -0.4437
 5026TIP3    H115084   0.172   1.875  -0.040  0.3010 -0.2710  0.0325
 5026TIP3    H215085   0.075   1.901   0.073 -0.1695  0.2334 -0.4807
 5027TIP3   OH215086   5.036   4.230   1.113 -0.3352 -0.1265  0.2893
 5027TIP3    H115087   5.016   4.323   1.105 -1.6634 -0.3500  0.7668
 5027TIP3    H215088   5.081   4.208   1.031  0.2210  0.9806  0.2796
 5028TIP3   OH215089   0.681   3.576   2.787 -0.0475  0.1202  0.3921
 5028TIP3    H115090   0.608   3.607   2.733 -0.3062 -0.7653  0.2187
 5028TIP3    H215091   0.742   3.537   2.726  1.1788  1.8947  0.3902
 5029TIP3   OH215092   0.304   1.560   2.444  0.0959 -1.0459 -0.6506
 5029TIP3    H115093   0.287   1.470   2.416 -0.7767 -0.5802 -1.6949
 5029TIP3    H215094   0.348   1.600   2.369 -1.1172 -0.1278 -0.9123
 5030TIP3   OH215095   1.389   1.378   1.037 -0.4322 -0.0574 -0.8924
 5030TIP3    H115096   1.402   1.472   1.025 -0.1911  0.0482  0.1326
 5030TIP3    H215097   1.370   1.346   0.948  2.3685  0.4696 -1.7717
 5031TIP3   OH215098   6.112   0.318   4.100 -0.0576  0.0823  0.0357
 5031TIP3    H115099   6.080   0.329   4.189 -0.6447  1.5625 -0.3349
 5031TIP3    H215100   6.033   0.304   4.047  0.2703 -0.6068 -0.2865
 5032TIP3   OH215101   6.279   2.589   3.927 -0.7379  0.7720  0.0022
 5032TIP3    H115102   6.325   2.507   3.909 -1.6190  0.2023  0.2354
 5032TIP3    H215103   6.219   2.567   3.999 -1.8505  1.2948 -0.7387
 5033TIP3   OH215104   2.179   4.190   5.023 -0.3815 -0.1505 -0.2218
 5033TIP3    H115105   2.102   4.133   5.030 -0.8494  0.4176 -0.6960
 5033TIP3    H215106   2.214   4.173   4.936  0.3872 -0.8405  0.2059
 5034TIP3   OH215107   4.968   0.650   4.169  0.3772  1.0876 -0.1695
 5034TIP3    H115108   4.967   0.729   4.223  0.4610  0.5100  0.6962
 5034TIP3    H215109   5.059   0.643   4.139  0.2700  1.5588 -0.6241
 5035TIP3   OH215110   2.704   3.760   0.182 -0.3453 -0.0332 -0.0808
 5035TIP3    H115111   2.659   3.839   0.153 -0.5188  1.2403  3.2038
 5035TIP3    H215112   2.633   3.701   0.210 -0.1262 -0.5171 -0.5170
 5036TIP3   OH215113   5.387   0.287   1.256  0.4445  0.4058  0.0038
 5036TIP3    H115114   5.451   0.246   1.199  0.3174  0.7280 -0.3773
 5036TIP3    H215115   5.316   0.223   1.262  0.8913 -0.0479  0.6118
 5037TIP3   OH215116   4.830   2.098   3.651  0.2425 -0.2105 -0.0971
 5037TIP3    H115117   4.891   2.087   3.578  0.9445  1.6306  0.1727
 5037TIP3    H215118   4.886   2.093   3.729  0.4494  3.2694  0.1134
 5038TIP3   OH215119   2.424   1.176   4.288 -0.2543 -0.3923 -0.4683
 5038TIP3    H115120   2.478   1.254   4.300 -0.7771 -0.0766 -0.1389
 5038TIP3    H215121   2.358   1.202   4.224 -1.2474 -0.1326  0.6323
 5039TIP3   OH215122   3.020   1.313   3.625  0.5523 -0.0081  0.4393
 5039TIP3    H115123   3.106   1.316   3.667  0.8147  1.8298 -0.1155
 5039TIP3    H215124   2.993   1.405   3.619 -1.3763 -0.5319  0.4208
 5040TIP3   OH215125   1.316   4.165   1.803  0.1017 -0.6735  0.3863
 5040TIP3    H115126   1.292   4.199   1.717  0.6593 -0.6916  0.2144
 5040TIP3    H215127   1.345   4.243   1.852 -0.7406 -0.5823  0.7477
 5041TIP3   OH215128   4.105   0.841   1.048 -0.5593  0.0042 -0.7159
 5041TIP3    H115129   4.101   0.932   1.021 -1.8107 -0.1016 -0.9386
 5041TIP3    H215130   4.019   0.823   1.086 -0.5822 -1.2678 -1.3182
 5042TIP3   OH215131   1.602   4.457   4.954 -0.3141 -0.9980  0.4799
 5042TIP3    H115132   1.633   4.529   4.900 -1.3229 -0.3184  0.7756
 5042TIP3    H215133   1.648   4.467   5.037 -2.9411  1.4543  1.7971
 5043TIP3   OH215134   2.945   5.485   3.044 -0.4565  0.3322  0.0095
 5043TIP3    H115135   2.863   5.501   2.997 -0.5604  1.4992  0.5505
 5043TIP3    H215136   3.013   5.512   2.982 -0.3844 -1.7971 -0.9128
 5044TIP3   OH215137   1.421   4.262   0.352  0.1212  0.0738  0.4625
 5044TIP3    H115138   1.352   4.328   0.345 -1.7299 -1.7137  0.8977
 5044TIP3    H215139   1.406   4.221   0.437  1.8828 -0.2658  0.6565
 5045TIP3   OH215140   3.156   4.056   0.522 -0.0418  0.7932  0.2638
 5045TIP3    H115141   3.248   4.039   0.501 -0.4354 -1.1653 -0.1438
 5045TIP3    H215142   3.136   3.993   0.592 -1.7065 -0.6727 -1.4359
 5046TIP3   OH215143   4.617   3.236   0.638 -0.4806  0.2772  0.3190
 5046TIP3    H115144   4.667   3.171   0.687 -1.9512 -0.3559  1.0103
 5046TIP3    H215145   4.554   3.271   0.701 -0.2676  1.7969 -0.2630
 5047TIP3   OH215146   4.685   4.110   4.208  0.1173  0.0568 -0.1270
 5047TIP3    H115147   4.609   4.054   4.190  0.0115  0.7695 -2.0957
 5047TIP3    H215148   4.704   4.094   4.300 -2.3051 -0.2878  0.3949
 5048TIP3   OH215149   3.357   5.293   4.391 -0.0400  0.4166  0.8479
 5048TIP3    H115150   3.277   5.288   4.339  0.0601  0.2860  0.7059
 5048TIP3    H215151   3.331   5.337   4.472 -0.2450  0.4119  0.7834
 5049TIP3   OH215152   2.914   2.450   4.304 -0.2151 -0.1524  0.3225
 5049TIP3    H115153   2.828   2.474   4.339  1.0024 -0.2539  3.8481
 5049TIP3    H215154   2.935   2.518   4.241 -3.1702 -0.6063 -1.3449
 5050TIP3   OH215155   2.987   0.648   1.937  0.1592  0.1424 -0.1049
 5050TIP3    H115156   2.905   0.673   1.980  1.0290  0.1060  1.6960
 5050TIP3    H215157   3.031   0.731   1.918 -0.6258  0.1893 -1.8102
 5051TIP3   OH215158   1.545   3.996   3.468  0.1474 -0.5304  0.1740
 5051TIP3    H115159   1.507   4.057   3.404  0.5028 -0.5937 -0.1036
 5051TIP3    H215160   1.591   3.931   3.414 -0.4901 -1.2293  0.4531
 5052TIP3   OH215161   6.189   0.270   1.778 -0.4342 -0.7768 -0.0896
 5052TIP3    H115162   6.128   0.344   1.781  0.8179  0.2857  0.4485
 5052TIP3    H215163   6.152   0.205   1.838 -0.8976 -0.0334  0.4523
 5053TIP3   OH215164   1.530   2.055   2.387 -0.3436 -0.1254 -0.3328
 5053TIP3    H115165   1.447   2.087   2.421 -0.2123  0.4267 -0.5181
 5053TIP3    H215166   1.533   1.963   2.411 -0.1398  0.3079  1.3783
 5054TIP3   OH215167   4.409   2.350   2.457  0.8023 -0.5840 -0.4926
 5054TIP3    H115168   4.371   2.436   2.438 -0.0192 -1.0434 -0.9938
 5054TIP3    H215169   4.501   2.368   2.475  0.5872  0.4311 -0.3387
 5055TIP3   OH215170   5.854   4.531   0.935 -0.2157 -0.1853 -0.4524
 5055TIP3    H115171   5.759   4.539   0.944 -0.1451  0.9162 -0.5517
 5055TIP3    H215172   5.889   4.588   1.004  0.3687 -0.6503 -0.3644
 5056TIP3   OH215173   4.384   5.343   2.561  0.2138  0.1205  0.2535
 5056TIP3    H115174   4.314   5.340   2.495  0.9322  0.1823 -0.5234
 5056TIP3    H215175   4.428   5.427   2.544 -0.2525  0.6379  1.5072
 5057TIP3   OH215176   2.262   0.505   4.129 -0.2663 -0.1275 -0.1310
 5057TIP3    H115177   2.168   0.496   4.149 -0.2599  0.9445  0.4839
 5057TIP3    H215178   2.268   0.590   4.085  0.3194 -0.5530 -0.8765
 5058TIP3   OH215179   1.033   3.331   4.766 -0.4027 -0.3497 -0.0394
 5058TIP3    H115180   1.036   3.308   4.673 -1.0703 -0.2667 -0.0895
 5058TIP3    H215181   1.099   3.276   4.807  0.2953  0.0162 -0.6441
 5059TIP3   OH215182   0.997   2.234   0.086 -0.2781  0.3020  0.3372
 5059TIP3    H115183   1.080   2.220   0.132  0.3923  0.2168 -0.8402
 5059TIP3    H215184   0.934   2.251   0.155  0.3602 -1.3164  1.3928
 5060TIP3   OH215185   3.359   0.650   2.190 -0.1022 -0.4877 -0.0550
 5060TIP3    H115186   3.393   0.568   2.225  0.6557 -0.6216 -1.0448
 5060TIP3    H215187   3.399   0.657   2.103 -0.1495  0.9326  0.0104
 5061TIP3   OH215188   1.680   4.208   0.328 -0.2034  0.6868  0.0791
 5061TIP3    H115189   1.593   4.245   0.340 -0.5756 -0.1975  0.1506
 5061TIP3    H215190   1.685   4.135   0.390  1.2767  1.8543  1.4367
 5062TIP3   OH215191   2.382   1.299   1.880  0.1674 -0.3846 -0.2609
 5062TIP3    H115192   2.316   1.367   1.869  0.0415 -0.7414 -2.0764
 5062TIP3    H215193   2.411   1.279   1.791  1.8792 -1.0728  0.4055
 5063TIP3   OH215194   1.132   0.374   3.268  0.0811  0.3626 -0.1957
 5063TIP3    H115195   1.149   0.459   3.309 -0.3451  0.5807 -0.4595
 5063TIP3    H215196   1.204   0.318   3.298 -0.5087  0.3580  1.3043
 5064TIP3   OH215197   2.937   2.093   4.214 -0.3920  0.2233  0.9277
 5064TIP3    H115198   2.893   2.073   4.132  1.3872 -0.6335  0.1134
 5064TIP3    H215199   3.010   2.150   4.188  1.8584 -2.2401  1.4217
 5065TIP3   OH215200   3.605   1.175   3.704  0.1494  0.0624  0.8993
 5065TIP3    H115201   3.616   1.127   3.786 -1.9594 -0.1708  1.1026
 5065TIP3    H215202   3.650   1.122   3.638 -0.1999 -1.0257  1.5112
 5066TIP3   OH215203   5.618   1.084   4.571 -0.3256  0.4672  0.4423
 5066TIP3    H115204   5.685   1.129   4.622 -0.1247  1.2654 -0.5047
 5066TIP3    H215205   5.550   1.151   4.557  0.5765  0.9496 -2.1148
 5067TIP3   OH215206   2.327   3.676   3.533  0.2885  0.3931 -0.2950
 5067TIP3    H115207   2.302   3.655   3.443  1.3759 -1.0529 -0.3067
 5067TIP3    H215208   2.249   3.654   3.585 -0.2981  1.1113 -0.8494
 5068TIP3   OH215209   3.978   0.256   4.940 -1.3951  0.3137  0.1542
 5068TIP3    H115210   3.936   0.335   4.973 -1.3492  1.1580 -1.6443
 5068TIP3    H215211   3.983   0.271   4.845 -0.4240 -1.3932 -0.0892
 5069TIP3   OH215212   5.571   5.804   2.883 -0.0188 -0.2293 -0.2047
 5069TIP3    H115213   5.643   5.822   2.944  0.1502 -0.2193 -0.4078
 5069TIP3    H215214   5.597   5.847   2.802 -1.3371  1.8038  0.3972
 5070TIP3   OH215215   2.506   0.362   3.566 -0.5556 -0.2787  0.1177
 5070TIP3    H115216   2.576   0.347   3.503  0.3562  2.8484  0.2379
 5070TIP3    H215217   2.521   0.296   3.634  1.0731 -0.9145 -0.8063
 5071TIP3   OH215218   1.379   2.660   4.038 -0.5100  0.7118 -0.0980
 5071TIP3    H115219   1.399   2.579   4.087 -0.8521  1.5948  1.5918
 5071TIP3    H215220   1.327   2.630   3.963  0.8544 -0.8092 -0.5052
 5072TIP3   OH215221   6.114   5.512   0.508  0.2259  0.5305  0.2729
 5072TIP3    H115222   6.184   5.488   0.569 -0.2115 -2.0542 -0.1081
 5072TIP3    H215223   6.058   5.571   0.558  1.3607  0.7152  1.3965
 5073TIP3   OH215224   2.592   5.624   2.341 -0.3919  0.2315 -0.2072
 5073TIP3    H115225   2.507   5.665   2.325 -2.0346 -2.5995  0.5562
 5073TIP3    H215226   2.594   5.549   2.282 -0.0663 -1.8207  2.2320
 5074TIP3   OH215227   1.494   3.230   3.350 -0.1343 -0.7320  0.1010
 5074TIP3    H115228   1.530   3.289   3.415  0.9494 -1.2894  0.0289
 5074TIP3    H215229   1.486   3.283   3.270 -1.4683 -0.0477  0.6567
 5075TIP3   OH215230   4.575   2.682   2.612 -0.1806 -0.6044  0.2537
 5075TIP3    H115231   4.552   2.721   2.696  2.5801  0.4216  0.6555
 5075TIP3    H215232   4.609   2.595   2.633 -0.5357 -0.7933  0.0583
 5076TIP3   OH215233   1.186   3.007   4.394  0.0724  0.2422  0.7224
 5076TIP3    H115234   1.155   2.922   4.427 -1.9425  0.3989 -0.6581
 5076TIP3    H215235   1.111   3.045   4.350  1.2813  2.2604  0.2900
 5077TIP3   OH215236   5.735   3.101   4.130 -0.5456  0.0098  0.1395
 5077TIP3    H115237   5.645   3.116   4.158 -1.4032 -1.4660 -1.6046
 5077TIP3    H215238   5.747   3.157   4.054 -0.9723 -1.7827 -1.3082
 5078TIP3   OH215239   3.986   0.790   0.172  0.1792 -0.2780 -0.0834
 5078TIP3    H115240   4.006   0.882   0.158 -0.6427 -0.2660 -1.3706
 5078TIP3    H215241   4.023   0.745   0.096 -0.8464 -0.7905 -0.3013
 5079TIP3   OH215242   0.073   0.134   0.673  0.0776 -0.1101 -0.3229
 5079TIP3    H115243   0.139   0.126   0.742  1.0770 -1.3107 -1.3616
 5079TIP3    H215244   0.113   0.193   0.609 -0.7222  0.7563 -0.0509
 5080TIP3   OH215245   2.266   2.841   0.713 -1.0301  0.2612 -0.0471
 5080TIP3    H115246   2.197   2.849   0.778 -0.5677 -1.2834  0.6841
 5080TIP3    H215247   2.231   2.779   0.649 -0.5466 -0.1224  0.0509
 5081TIP3   OH215248   0.061   4.290   4.606 -0.5371 -0.1861  0.3172
 5081TIP3    H115249   0.089   4.313   4.518 -1.6004  1.5880  0.4066
 5081TIP3    H215250   0.122   4.337   4.664 -1.0729  0.2655  0.5171
 5082TIP3   OH215251   1.792   0.520   0.738 -0.1285 -0.0599 -0.1963
 5082TIP3    H115252   1.861   0.560   0.686 -0.0775  0.5468  0.3255
 5082TIP3    H215253   1.724   0.496   0.673  0.0693  0.3886 -0.5735
 5083TIP3   OH215254   2.595   3.780   0.444 -0.0258  0.4509  0.3265
 5083TIP3    H115255   2.627   3.795   0.533 -1.1217 -1.3955  1.0883
 5083TIP3    H215256   2.668   3.806   0.388  1.7817 -0.9408  1.8826
 5084TIP3   OH215257   0.591   1.533   3.570 -0.2429  0.2938  0.1937
 5084TIP3    H115258   0.670   1.491   3.603 -0.6576  0.2749  1.1915
 5084TIP3    H215259   0.559   1.474   3.502  1.0720  0.7340 -0.8566
 5085TIP3   OH215260   2.992   2.467   0.380  0.4215  0.1617 -0.0459
 5085TIP3    H115261   2.935   2.400   0.418 -0.4688 -0.0392 -1.6346
 5085TIP3    H215262   3.025   2.516   0.455  0.1063 -1.2617  1.0786
 5086TIP3   OH215263   4.502   0.343   0.265 -0.3054 -0.0872 -0.1244
 5086TIP3    H115264   4.422   0.295   0.287 -0.6738 -0.0515 -1.3522
 5086TIP3    H215265   4.472   0.429   0.234  0.2349  0.1113 -0.1191
 5087TIP3   OH215266   3.840   3.350   4.114  0.1104  0.1457  0.0234
 5087TIP3    H115267   3.870   3.414   4.179  0.1796 -0.9194  1.0566
 5087TIP3    H215268   3.746   3.366   4.107  0.5791  2.6770 -2.3296
 5088TIP3   OH215269   5.639   3.307   3.732  0.0130  0.4107 -0.6904
 5088TIP3    H115270   5.585   3.233   3.704  0.6577  0.4113 -2.0100
 5088TIP3    H215271   5.728   3.272   3.732  0.2134  0.9099 -0.2694
 5089TIP3   OH215272   3.218   0.436   2.815  0.6471  0.5989  0.1990
 5089TIP3    H115273   3.155   0.439   2.743  0.4852  1.1307  0.3569
 5089TIP3    H215274   3.293   0.389   2.780  0.4947  0.6929 -0.2556
 5090TIP3   OH215275   1.429   0.627   1.014  0.0545 -0.6515  0.6957
 5090TIP3    H115276   1.480   0.691   1.064  1.0416 -0.1663 -0.8499
 5090TIP3    H215277   1.494   0.562   0.986 -0.2747 -0.4229 -0.6741
 5091TIP3   OH215278   5.457   5.019   2.526 -0.0141 -0.4751 -0.4663
 5091TIP3    H115279   5.365   5.010   2.503 -0.7129  2.1029  0.9361
 5091TIP3    H215280   5.457   5.033   2.621  1.4758  2.4168 -0.7732
 5092TIP3   OH215281   2.616   2.639   4.492  0.5972 -0.3373  0.3032
 5092TIP3    H115282   2.531   2.595   4.496  0.0091  0.2894 -2.7216
 5092TIP3    H215283   2.679   2.571   4.515 -0.4902 -1.9404 -1.1972
 5093TIP3   OH215284   2.224   2.058   1.645 -0.5745  0.1824 -0.4399
 5093TIP3    H115285   2.166   2.118   1.692 -1.2627 -0.9029  0.1608
 5093TIP3    H215286   2.208   1.973   1.687  1.9535 -0.0585  0.2061
 5094TIP3   OH215287   1.522   3.242   2.637 -0.3757 -0.4562 -0.2555
 5094TIP3    H115288   1.601   3.189   2.638  0.1033  0.2197  1.5938
 5094TIP3    H215289   1.450   3.179   2.630  0.2621 -1.1381 -0.8942
 5095TIP3   OH215290   4.496   5.075   3.631 -0.0647  0.0604  0.0512
 5095TIP3    H115291   4.405   5.048   3.619 -0.0949  0.1713  0.0305
 5095TIP3    H215292   4.516   5.127   3.554 -0.3768  1.0920  0.6464
 5096TIP3   OH215293   1.361   4.837   2.522  0.4438  0.1774 -0.3240
 5096TIP3    H115294   1.403   4.923   2.512 -1.2985  0.9311 -1.6389
 5096TIP3    H215295   1.390   4.787   2.446  0.4253  0.0668 -0.2581
 5097TIP3   OH215296   0.224   4.113   1.084  0.1070  0.0457 -0.1763
 5097TIP3    H115297   0.142   4.087   1.042  1.1521 -1.8252 -1.1787
 5097TIP3    H215298   0.213   4.087   1.176  0.2572 -2.0649 -0.6942
 5098TIP3   OH215299   5.113   1.704   1.192 -0.6623  0.3060  0.3036
 5098TIP3    H115300   5.145   1.761   1.261  1.5851 -0.9120  0.3532
 5098TIP3    H215301   5.066   1.634   1.238  1.5390 -0.9543  0.7436
 5099TIP3   OH215302   5.959   4.711   1.794 -0.4180 -0.3513 -0.6059
 5099TIP3    H115303   6.024   4.703   1.863  0.4437  0.3219 -1.3116
 5099TIP3    H215304   5.920   4.624   1.787 -0.4569 -0.4465  0.6503
 5100TIP3   OH215305   2.189   4.803   2.399  0.5762  0.2540 -0.2016
 5100TIP3    H115306   2.103   4.828   2.367  0.2922 -0.8511 -0.3295
 5100TIP3    H215307   2.225   4.745   2.332 -0.5902 -3.2277  1.9261
 5101TIP3   OH215308   2.799   4.090   3.065  0.1640  0.1217 -0.0802
 5101TIP3    H115309   2.872   4.098   3.004 -0.3572 -0.4143 -0.7862
 5101TIP3    H215310   2.722   4.118   3.016 -0.4379 -1.4100 -0.0626
 5102TIP3   OH215311   2.467   5.421   4.811 -0.1471  0.4638  0.4025
 5102TIP3    H115312   2.436   5.430   4.720 -1.0889 -2.5995  0.3241
 5102TIP3    H215313   2.387   5.425   4.863  0.2866  1.1282  1.0375
 5103TIP3   OH215314   2.326   1.916   4.019 -0.2229 -0.1611 -0.2770
 5103TIP3    H115315   2.332   1.995   4.073 -0.8523 -0.2823 -0.0208
 5103TIP3    H215316   2.387   1.932   3.947 -0.8638  0.8657 -0.6165
 5104TIP3   OH215317   3.241   3.896   2.242  0.1176  0.0357  0.0849
 5104TIP3    H115318   3.286   3.980   2.239 -0.1853  0.2933  1.8146
 5104TIP3    H215319   3.171   3.908   2.306  0.9970 -1.9579  1.5417
 5105TIP3   OH215320   6.347   5.935   0.394  0.1917  0.4997  0.0745
 5105TIP3    H115321   6.395   5.912   0.315 -0.1122  0.5901 -0.1355
 5105TIP3    H215322   6.270   5.983   0.363  0.3030  0.9284  0.4521
 5106TIP3   OH215323   0.034   0.996   3.313  0.3281 -0.1416 -0.5763
 5106TIP3    H115324   0.056   1.087   3.294 -1.4686  0.7796  1.3376
 5106TIP3    H215325  -0.049   0.981   3.268  0.6867 -0.9135 -1.0080
 5107TIP3   OH215326   5.125   1.949   0.813  0.2027 -0.8427 -0.3396
 5107TIP3    H115327   5.077   1.875   0.851 -0.0724 -0.5494 -0.1182
 5107TIP3    H215328   5.155   1.916   0.728 -1.2277 -0.7259 -0.9155
 5108TIP3   OH215329   5.779   3.991   4.324 -0.2207  0.1884 -0.4696
 5108TIP3    H115330   5.841   4.009   4.393  1.0732 -0.0984 -1.5159
 5108TIP3    H215331   5.754   3.900   4.337  0.0991  0.1044 -0.4332
 5109TIP3   OH215332   2.357   2.093   3.493 -0.1102  0.5540  0.6231
 5109TIP3    H115333   2.394   2.021   3.443 -0.3585  0.7345  0.1639
 5109TIP3    H215334   2.406   2.170   3.464 -1.1421  0.8734 -0.3563
 5110TIP3   OH215335   4.519   5.232   1.233  0.4211 -0.7374  0.3191
 5110TIP3    H115336   4.439   5.267   1.192 -0.2107 -1.5760  0.8128
 5110TIP3    H215337   4.493   5.210   1.322  1.1459 -1.2377  0.4157
 5111TIP3   OH215338   4.799   2.547   4.926  0.0934  0.2432  0.0330
 5111TIP3    H115339   4.740   2.622   4.924 -1.8606 -1.2269 -0.2638
 5111TIP3    H215340   4.841   2.547   4.840  1.1533  1.7457  0.5211
 5112TIP3   OH215341   1.950   1.747   2.179  0.1610  0.5195  0.3847
 5112TIP3    H115342   1.882   1.705   2.126  2.7206 -1.2516 -1.7560
 5112TIP3    H215343   1.959   1.834   2.142  1.7593 -0.6190 -2.1532
 5113TIP3   OH215344   1.399   4.841   3.634  0.0929  0.0466  0.1621
 5113TIP3    H115345   1.441   4.820   3.718  0.2966 -0.7138 -0.1161
 5113TIP3    H215346   1.469   4.828   3.569 -0.3743 -0.5514 -0.2373
 5114TIP3   OH215347   4.708   3.352   3.853 -0.0618  0.5133 -0.6636
 5114TIP3    H115348   4.653   3.419   3.811 -1.0863 -0.5932 -1.1399
 5114TIP3    H215349   4.648   3.280   3.872  1.1349 -0.5202 -0.6949
 5115TIP3   OH215350   2.925   0.542   4.850  0.3293  0.4116 -0.2128
 5115TIP3    H115351   2.941   0.457   4.809  0.9051  0.6109 -0.4103
 5115TIP3    H215352   2.964   0.535   4.937 -0.1613  0.2709  0.0001
 5116TIP3   OH215353   2.110   5.035   3.382  0.1875 -0.3458  0.3932
 5116TIP3    H115354   2.203   5.021   3.399  0.3961  1.7789  1.3002
 5116TIP3    H215355   2.102   5.033   3.287  1.1336 -0.6896  0.3108
 5117TIP3   OH215356   3.901   5.157   3.590 -0.0146 -0.6188  0.7167
 5117TIP3    H115357   3.918   5.067   3.561 -1.9802 -0.3442 -1.5655
 5117TIP3    H215358   3.943   5.212   3.524 -1.7641  0.0604  0.1080
 5118TIP3   OH215359   4.767   0.377   0.716 -0.3209  0.0696 -1.2978
 5118TIP3    H115360   4.788   0.286   0.694 -1.2358 -0.5656  0.3529
 5118TIP3    H215361   4.804   0.390   0.803 -2.4302  0.4351 -0.3969
 5119TIP3   OH215362   1.615   4.939   2.854  0.2103  0.0526 -0.0014
 5119TIP3    H115363   1.683   5.005   2.862 -0.0213  0.3664 -0.5621
 5119TIP3    H215364   1.641   4.870   2.915  0.6730  0.4705  0.2809
 5120TIP3   OH215365   3.122   2.138   3.558  0.3847  0.0323 -0.1388
 5120TIP3    H115366   3.185   2.069   3.579  0.9109  0.8649  1.1295
 5120TIP3    H215367   3.129   2.149   3.464  1.5154 -0.4833 -0.1328
 5121TIP3   OH215368   3.829   2.077   1.356  0.5553 -0.2632 -0.0536
 5121TIP3    H115369   3.880   2.124   1.422  0.7298 -2.7583  1.7289
 5121TIP3    H215370   3.894   2.025   1.308  0.0983 -0.6205 -0.2954
 5122TIP3   OH215371   5.849   4.011   0.029  0.0033 -0.2855  0.1479
 5122TIP3    H115372   5.821   4.044   0.114 -0.1640 -0.8247  0.3105
 5122TIP3    H215373   5.774   3.960  -0.003  0.0571 -0.0704 -0.3315
 5123TIP3   OH215374   4.017   3.144   0.093  0.9295 -0.3565  0.4460
 5123TIP3    H115375   4.002   3.050   0.097 -0.1195 -0.3342 -1.5058
 5123TIP3    H215376   3.939   3.183   0.131  0.7603 -0.2821  0.0291
 5124TIP3   OH215377   4.813   4.974   1.311 -0.7105 -0.6751  0.1394
 5124TIP3    H115378   4.778   5.014   1.232  1.2787 -0.5462 -0.7507
 5124TIP3    H215379   4.818   4.881   1.290  0.6007 -0.5380 -0.2439
 5125TIP3   OH215380   1.351   4.171   2.877 -0.3847  0.1363  0.0167
 5125TIP3    H115381   1.302   4.144   2.955 -0.0695 -0.7283 -0.0762
 5125TIP3    H215382   1.284   4.186   2.810 -0.5796 -0.1691  0.1435
 5126TIP3   OH215383   0.672   0.363   2.192 -0.4792  0.1408  0.3545
 5126TIP3    H115384   0.580   0.335   2.194 -0.3664 -0.3241 -0.3704
 5126TIP3    H215385   0.711   0.324   2.270 -0.4430 -1.3456 -0.3696
 5127TIP3   OH215386   0.516   5.390   3.079  0.1875 -0.3322  0.0356
 5127TIP3    H115387   0.598   5.410   3.034 -0.3325 -0.6860 -1.1000
 5127TIP3    H215388   0.451   5.385   3.010 -0.7257 -0.4763  0.8772
 5128TIP3   OH215389   5.275   1.425   2.244 -0.0538 -0.0868  0.2339
 5128TIP3    H115390   5.233   1.510   2.231  2.4668  1.3372  0.7657
 5128TIP3    H215391   5.204   1.367   2.275 -2.2322  1.2719 -1.8332
 5129TIP3   OH215392   4.809   4.646   5.078 -0.3478 -0.0683 -0.1009
 5129TIP3    H115393   4.774   4.734   5.090  0.6627  0.5392 -1.3179
 5129TIP3    H215394   4.890   4.646   5.130 -0.8586 -0.6333  0.7128
 5130TIP3   OH215395   6.106   3.094   4.521  0.3358 -0.2014 -0.1935
 5130TIP3    H115396   6.067   3.131   4.442 -1.5535  0.8616  1.1690
 5130TIP3    H215397   6.149   3.168   4.563 -3.0035  0.5463  2.2730
 5131TIP3   OH215398   0.501   1.490   0.995 -0.0907 -0.0513 -0.3731
 5131TIP3    H115399   0.558   1.417   1.017  0.4546 -0.5170 -2.9820
 5131TIP3    H215400   0.414   1.452   0.990 -0.1750 -0.0028  0.5158
 5132TIP3   OH215401   0.188   5.024   3.979  0.3830  0.1445  0.3624
 5132TIP3    H115402   0.120   4.999   3.918  0.0216 -1.3719  1.3364
 5132TIP3    H215403   0.267   4.982   3.946  0.6434  1.0480 -0.1935
 5133TIP3   OH215404   2.997   0.273   3.410 -0.3583  0.1415 -0.0416
 5133TIP3    H115405   2.986   0.259   3.316 -0.8802 -1.1703  0.1932
 5133TIP3    H215406   3.088   0.251   3.428 -0.1450  0.8023 -0.3027
 5134TIP3   OH215407   5.020   0.868   4.015 -0.4592  0.5162 -0.4514
 5134TIP3    H115408   4.997   0.810   3.942 -2.2696 -0.2844  0.6807
 5134TIP3    H215409   5.115   0.859   4.024  0.0138  1.4733 -3.3529
 5135TIP3   OH215410   3.787   3.579   2.316  0.4993 -0.0743  0.0393
 5135TIP3    H115411   3.699   3.603   2.290  1.1098  0.5778 -1.5357
 5135TIP3    H215412   3.832   3.557   2.234  2.0341  0.4172  0.7038
 5136TIP3   OH215413   1.915   4.812   1.397  0.3338  0.1627  0.1314
 5136TIP3    H115414   1.856   4.864   1.452 -0.3989  0.2463 -0.7130
 5136TIP3    H215415   1.992   4.868   1.386 -0.8582  1.5708 -1.6195
 5137TIP3   OH215416   3.602   3.802   0.416  0.1699 -0.2899  0.0964
 5137TIP3    H115417   3.600   3.748   0.336 -1.0004  0.6081 -0.5124
 5137TIP3    H215418   3.669   3.867   0.399  0.5759 -0.6657  0.2387
 5138TIP3   OH215419   6.389   2.452   1.988 -0.3936 -0.1923 -0.1740
 5138TIP3    H115420   6.314   2.393   1.976 -0.1140 -0.3331 -1.3431
 5138TIP3    H215421   6.350   2.539   1.995 -0.6806 -0.2843 -0.6095
 5139TIP3   OH215422   0.604   3.216   1.245  0.4362 -0.5231  0.0662
 5139TIP3    H115423   0.638   3.128   1.231  0.4810 -0.4337 -0.4194
 5139TIP3    H215424   0.682   3.270   1.257  0.3893 -1.0183  3.5883
 5140TIP3   OH215425   1.833   3.267   3.402 -0.0278  0.0337  0.1393
 5140TIP3    H115426   1.754   3.286   3.453  0.2521 -0.0532  0.6203
 5140TIP3    H215427   1.812   3.188   3.353  0.2767 -0.9267  1.4768
 5141TIP3   OH215428   3.179   0.684   2.919 -0.5853  0.2233 -0.1047
 5141TIP3    H115429   3.209   0.646   3.001  2.7383  1.8670 -0.3627
 5141TIP3    H215430   3.171   0.609   2.860 -1.0962 -0.7719  1.1831
 5142TIP3   OH215431   5.967   2.591   1.691 -0.3709  0.0510 -0.2632
 5142TIP3    H115432   6.009   2.574   1.607  0.7456 -0.4768  0.3825
 5142TIP3    H215433   5.998   2.521   1.748 -1.6297  0.0191  0.4310
 5143TIP3   OH215434   4.377   4.352   4.274  0.2510  0.3414  0.3363
 5143TIP3    H115435   4.291   4.370   4.236 -0.0367 -2.0936 -0.3230
 5143TIP3    H215436   4.367   4.370   4.368 -0.1237  2.7523 -0.1202
 5144TIP3   OH215437   4.683   3.401   1.355 -0.5876  0.0288 -0.1786
 5144TIP3    H115438   4.719   3.312   1.349 -0.1220  0.2699 -1.1357
 5144TIP3    H215439   4.759   3.458   1.358 -0.8897  0.4263 -0.0436
 5145TIP3   OH215440   0.446   0.378   1.205 -0.1513  0.3753  0.2650
 5145TIP3    H115441   0.506   0.447   1.176 -0.2660  0.3413 -0.0667
 5145TIP3    H215442   0.361   0.404   1.171 -0.0885 -0.2267 -0.3907
 5146TIP3   OH215443   1.931   1.990   1.200  0.3187  0.0885  0.6500
 5146TIP3    H115444   1.898   1.997   1.290  2.3045 -0.8520  1.5013
 5146TIP3    H215445   1.995   2.061   1.193  1.0462 -0.5850  0.3975
 5147TIP3   OH215446   3.808   4.316   3.729  0.1334 -0.4538 -0.1525
 5147TIP3    H115447   3.875   4.251   3.710  0.2456 -0.5383  0.4950
 5147TIP3    H215448   3.843   4.398   3.693 -0.6884 -0.9978 -2.3433
 5148TIP3   OH215449   4.200   3.359   0.688  0.6508 -0.0046  0.3156
 5148TIP3    H115450   4.161   3.416   0.754  0.1507  0.5451 -0.4444
 5148TIP3    H215451   4.146   3.370   0.610  1.9730  0.3319 -0.5961
 5149TIP3   OH215452   4.352   3.625   4.019  0.2339  0.1834 -0.2391
 5149TIP3    H115453   4.279   3.630   4.081 -0.5764 -0.5498 -1.0832
 5149TIP3    H215454   4.375   3.716   4.002 -0.0256  0.4134  0.5581
 5150TIP3   OH215455   0.533   2.120   0.020  0.0937 -0.0375 -0.4862
 5150TIP3    H115456   0.514   2.089   0.109 -2.6076 -3.6661 -2.0760
 5150TIP3    H215457   0.620   2.085   0.000 -1.2804 -3.5990 -0.8189
 5151TIP3   OH215458   2.931   5.843   2.525 -0.1960  0.1010  0.9822
 5151TIP3    H115459   2.925   5.748   2.534 -0.0373  0.0922  0.9937
 5151TIP3    H215460   3.025   5.862   2.522 -0.2314  0.1377 -0.2801
 5152TIP3   OH215461   4.221   3.328   0.045 -0.1194 -0.3015  0.4660
 5152TIP3    H115462   4.290   3.268   0.074 -0.0263 -0.2328  0.3880
 5152TIP3    H215463   4.140   3.280   0.060  0.0326 -1.6295 -2.2899
 5153TIP3   OH215464   0.845   4.479   5.015 -0.3877 -0.7793 -0.7363
 5153TIP3    H115465   0.927   4.506   5.056 -0.9960 -2.0065  1.4837
 5153TIP3    H215466   0.844   4.383   5.023 -0.7787 -1.0542 -3.3295
 5154TIP3   OH215467   2.406   4.350   1.863 -0.0941 -0.0058 -0.5113
 5154TIP3    H115468   2.413   4.313   1.951  1.0617 -1.3167 -1.1129
 5154TIP3    H215469   2.422   4.444   1.875  1.9711 -0.4216  0.4679
 5155TIP3   OH215470   0.698   2.522   1.849  0.3832  0.0429  0.0167
 5155TIP3    H115471   0.752   2.491   1.921  0.1235  0.3437  0.3424
 5155TIP3    H215472   0.732   2.477   1.772  1.1055  0.2394  0.2198
 5156TIP3   OH215473   5.846   5.005   1.184 -0.5242  0.0901  0.2274
 5156TIP3    H115474   5.811   4.924   1.148 -2.6038  1.3424 -0.7511
 5156TIP3    H215475   5.940   4.988   1.194 -0.8861 -2.3808  0.0053
 5157TIP3   OH215476   2.441   0.554   2.800  0.2553 -0.2112  0.7276
 5157TIP3    H115477   2.405   0.526   2.884 -1.5480  0.2519  0.1575
 5157TIP3    H215478   2.536   0.557   2.814  0.1176 -1.6831  2.2527
 5158TIP3   OH215479   0.701   4.472   1.223 -0.5768 -0.9664 -0.0532
 5158TIP3    H115480   0.726   4.530   1.295  0.6058 -1.8067  0.2350
 5158TIP3    H215481   0.615   4.505   1.196  0.2352  1.2285 -0.2271
 5159TIP3   OH215482   4.007   1.861   1.737  0.6724 -0.2890 -0.1920
 5159TIP3    H115483   4.005   1.953   1.762 -2.5419 -0.3975  0.3838
 5159TIP3    H215484   4.058   1.859   1.656 -1.0570  2.3981 -1.4921
 5160TIP3   OH215485   2.143   1.283   1.042  0.4068 -0.0081  0.8523
 5160TIP3    H115486   2.193   1.345   1.095  0.5814  0.0140  0.6618
 5160TIP3    H215487   2.168   1.302   0.952 -0.6073  0.5918  0.6859
 5161TIP3   OH215488   5.677   0.746   3.194  0.3181  0.2868  0.9912
 5161TIP3    H115489   5.660   0.684   3.123 -0.4768  1.7152 -0.1402
 5161TIP3    H215490   5.669   0.695   3.274  0.4459 -1.2147  0.0788
 5162TIP3   OH215491   6.119   3.743   3.419 -0.0803 -0.1534 -0.0720
 5162TIP3    H115492   6.030   3.756   3.387  0.0696  0.6951 -0.1775
 5162TIP3    H215493   6.173   3.742   3.339  0.0190 -0.4978  0.0007
 5163TIP3   OH215494   2.713   0.955   1.106 -0.2463 -0.2513  0.0275
 5163TIP3    H115495   2.782   0.931   1.169  0.7036 -2.6771 -1.7818
 5163TIP3    H215496   2.640   0.896   1.127 -0.6504  0.2396  0.0234
 5164TIP3   OH215497   1.039   4.320   3.836 -0.0544  0.1332 -0.3684
 5164TIP3    H115498   1.067   4.371   3.912  0.5873  1.4731 -1.4428
 5164TIP3    H215499   0.956   4.360   3.810 -0.6591 -0.8185  0.0696
 5165TIP3   OH215500   5.378   1.465   2.798 -0.5541  0.1096  0.5775
 5165TIP3    H115501   5.369   1.529   2.869 -2.8371  0.4709  0.0396
 5165TIP3    H215502   5.288   1.445   2.773  0.1069 -2.8940  0.3087
 5166TIP3   OH215503   2.087   2.225   3.980  0.2737  0.7462 -0.6304
 5166TIP3    H115504   1.994   2.219   3.956  0.0987 -0.1248  0.2094
 5166TIP3    H215505   2.088   2.219   4.076  1.2087  0.5632 -0.6408
 5167TIP3   OH215506   4.217   0.653   0.825 -0.5794 -0.4050  0.5188
 5167TIP3    H115507   4.281   0.686   0.763 -1.5008 -0.2354 -0.3669
 5167TIP3    H215508   4.200   0.727   0.884 -0.7258 -0.1189  0.1202
 5168TIP3   OH215509   1.702   4.374   4.358 -0.5855  0.2923  0.6298
 5168TIP3    H115510   1.609   4.397   4.356 -0.5713  0.3761  0.9214
 5168TIP3    H215511   1.742   4.443   4.411 -0.4737 -0.1479  1.1223
 5169TIP3   OH215512   0.164   4.745   1.783  0.0829  0.1027  0.4720
 5169TIP3    H115513   0.233   4.682   1.803  1.0053  0.9476  0.0185
 5169TIP3    H215514   0.130   4.772   1.869  0.1371 -0.5049  0.6868
 5170TIP3   OH215515   3.072   3.866   1.702  0.3095 -0.1512  0.1201
 5170TIP3    H115516   3.090   3.955   1.669 -1.1271  0.9175  2.0369
 5170TIP3    H215517   3.115   3.863   1.787 -2.5863  0.0627  1.7178
 5171TIP3   OH215518   2.665   5.886   1.437 -0.4979 -0.2827  0.2871
 5171TIP3    H115519   2.664   5.823   1.366 -0.2984  2.3163 -2.2115
 5171TIP3    H215520   2.574   5.897   1.462 -0.6832 -0.5213 -0.2771
 5172TIP3   OH215521   4.226   0.225   2.396  0.0986 -0.1710 -0.4964
 5172TIP3    H115522   4.181   0.141   2.386  2.3801 -1.5205 -0.2158
 5172TIP3    H215523   4.227   0.241   2.490 -1.5300  0.9612 -0.6106
 5173TIP3   OH215524   1.111   0.179   4.449  0.1778  0.4075 -0.0723
 5173TIP3    H115525   1.137   0.228   4.527  0.1724  1.6668 -0.8304
 5173TIP3    H215526   1.028   0.137   4.473  0.7401 -0.1596  0.9543
 5174TIP3   OH215527   0.756   0.703   3.994  0.6418  0.0916 -0.1315
 5174TIP3    H115528   0.710   0.687   3.912  0.1619 -1.6759  0.4351
 5174TIP3    H215529   0.724   0.788   4.024  1.0390  0.8984 -1.8842
 5175TIP3   OH215530   0.618   2.553   2.650  0.0463  0.5338  0.7308
 5175TIP3    H115531   0.573   2.480   2.607 -0.4350  0.5413  1.2143
 5175TIP3    H215532   0.662   2.599   2.578 -1.1528  0.8381  0.1694
 5176TIP3   OH215533   5.196   4.517   1.120  0.4939 -0.0078 -0.0881
 5176TIP3    H115534   5.153   4.596   1.087  2.1170  1.4964  1.2069
 5176TIP3    H215535   5.247   4.486   1.046  0.5024  0.6536 -0.3705
 5177TIP3   OH215536   4.259   3.302   2.667 -0.0041  0.1328  0.3106
 5177TIP3    H115537   4.259   3.311   2.572 -0.3363  1.4802  0.4184
 5177TIP3    H215538   4.350   3.282   2.689  0.4887  1.7273 -0.1458
 5178TIP3   OH215539   4.245   5.293   1.099  0.3552  0.6214 -0.0995
 5178TIP3    H115540   4.192   5.228   1.053  0.0072  1.9488 -1.6642
 5178TIP3    H215541   4.214   5.377   1.065  0.4367  1.6629  2.2303
 5179TIP3   OH215542   4.221   4.733   1.587 -0.4667  0.6168 -0.4525
 5179TIP3    H115543   4.302   4.742   1.636 -0.1292 -0.1738 -0.8439
 5179TIP3    H215544   4.230   4.792   1.513  0.5116 -0.7193 -1.4500
 5180TIP3   OH215545   3.732   4.315   0.385 -0.1575  0.5616  0.1943
 5180TIP3    H115546   3.689   4.275   0.310  1.7685 -2.4719  0.5645
 5180TIP3    H215547   3.681   4.395   0.401 -0.6744  1.3871 -4.2314
 5181TIP3   OH215548   5.583   5.337   0.317 -0.9327  0.2578  0.1967
 5181TIP3    H115549   5.653   5.374   0.263  0.8242  2.3126  3.5137
 5181TIP3    H215550   5.627   5.277   0.376 -2.2735  0.1803  1.1739
 5182TIP3   OH215551   3.444   1.126   0.193  0.0828  0.0441 -0.1810
 5182TIP3    H115552   3.451   1.185   0.118 -1.2047 -0.9643 -1.1448
 5182TIP3    H215553   3.352   1.103   0.198  0.6408 -2.6635 -0.5033
 5183TIP3   OH215554   4.019   0.313   1.516  0.3568  0.1731 -0.1439
 5183TIP3    H115555   4.105   0.333   1.553  0.2191 -0.4411  0.5397
 5183TIP3    H215556   4.012   0.369   1.438  1.2337  0.4667 -0.0199
 5184TIP3   OH215557   4.022   2.392   2.478  0.5760  0.0976 -0.0185
 5184TIP3    H115558   4.007   2.391   2.572  0.2473  0.0994 -0.0684
 5184TIP3    H215559   4.033   2.485   2.457  4.7595 -0.0473  0.6262
 5185TIP3   OH215560   2.427   5.164   3.612  0.1422  0.0460  0.0315
 5185TIP3    H115561   2.432   5.092   3.548 -0.6104 -0.1108  0.1405
 5185TIP3    H215562   2.478   5.235   3.572 -0.7071  0.1185 -0.9703
 5186TIP3   OH215563   3.086   4.749   0.184 -0.2741  0.6699 -0.4221
 5186TIP3    H115564   3.034   4.829   0.177  1.0747  1.7916  1.7167
 5186TIP3    H215565   3.033   4.683   0.138 -3.1967  1.9180  0.8821
 5187TIP3   OH215566   4.154   2.033   2.255 -0.0631 -0.1041  0.3839
 5187TIP3    H115567   4.121   1.943   2.253  0.1587 -0.2173  1.4654
 5187TIP3    H215568   4.197   2.042   2.340  1.2889  0.5476 -0.3276
 5188TIP3   OH215569   1.645   0.750   2.202 -0.4803 -0.0819 -0.5594
 5188TIP3    H115570   1.660   0.845   2.202 -0.1096 -0.1196  0.6399
 5188TIP3    H215571   1.555   0.740   2.234  0.3244 -0.1762  1.9596
 5189TIP3   OH215572   0.312   4.697   4.139 -0.3820 -0.4503 -0.3075
 5189TIP3    H115573   0.295   4.774   4.086  1.3811  0.2344  0.0326
 5189TIP3    H215574   0.362   4.639   4.082 -2.4040 -1.7736 -0.8394
 5190TIP3   OH215575   2.260   4.571   2.213 -0.0696  0.3568  0.1539
 5190TIP3    H115576   2.225   4.507   2.275 -0.2127 -0.4100 -0.7050
 5190TIP3    H215577   2.348   4.539   2.193 -0.7939 -0.6244 -1.6837
 5191TIP3   OH215578   1.693   3.764   2.118  0.1926  0.5063 -0.3776
 5191TIP3    H115579   1.718   3.795   2.031 -0.7978 -1.4541 -1.4193
 5191TIP3    H215580   1.765   3.707   2.144  0.3037  0.7857 -0.0685
 5192TIP3   OH215581   3.910   3.671   0.742 -0.1796 -0.0265  0.2336
 5192TIP3    H115582   3.978   3.626   0.793 -1.4084  0.1807  2.1317
 5192TIP3    H215583   3.932   3.651   0.651  0.7342 -2.4163  0.9039
 5193TIP3   OH215584   1.722   4.154   4.534 -0.1383 -0.1472 -0.4203
 5193TIP3    H115585   1.683   4.111   4.457 -0.7380 -0.5043  0.0733
 5193TIP3    H215586   1.735   4.244   4.506  2.3294 -0.8508 -1.9288
 5194TIP3   OH215587   3.140   5.003   1.364  0.3139 -0.0421  0.3983
 5194TIP3    H115588   3.199   5.065   1.322  2.0594 -2.5865 -1.1795
 5194TIP3    H215589   3.055   5.018   1.322  0.5715  1.5112  0.3787
 5195TIP3   OH215590   5.531   5.677   3.778  0.4873  0.0784  0.0273
 5195TIP3    H115591   5.499   5.683   3.868  1.0095  0.2325  0.2042
 5195TIP3    H215592   5.534   5.767   3.747 -1.4414 -0.0885 -0.7763
 5196TIP3   OH215593   5.659   5.939   2.306 -0.1679 -0.3807 -0.2013
 5196TIP3    H115594   5.702   5.920   2.222  0.2903 -0.6958  0.0994
 5196TIP3    H215595   5.628   5.854   2.337 -0.7942 -0.1904 -0.2923
 5197TIP3   OH215596   6.171   2.244   4.026 -0.4082 -0.0313 -0.0067
 5197TIP3    H115597   6.175   2.320   4.084  1.0632 -0.6990  0.8235
 5197TIP3    H215598   6.078   2.227   4.014 -0.7442  0.7995  1.2850
 5198TIP3   OH215599   2.757   2.429   4.577 -0.3313  0.4800 -0.1150
 5198TIP3    H115600   2.722   2.382   4.652 -2.7372  0.1339 -1.3450
 5198TIP3    H215601   2.793   2.361   4.520  1.5931  0.7508  0.6967
 5199TIP3   OH215602   3.237   0.425   1.470  0.0378 -0.2915 -0.7537
 5199TIP3    H115603   3.180   0.498   1.495 -0.4440 -1.0029  0.2892
 5199TIP3    H215604   3.257   0.381   1.553  0.9153 -0.9190 -1.2866
 5200TIP3   OH215605   0.252   4.819   1.275 -0.2953  0.3998  0.1353
 5200TIP3    H115606   0.311   4.791   1.346 -0.7446 -0.0528  0.3310
 5200TIP3    H215607   0.289   4.902   1.246  1.1011 -0.4058 -0.4964
 5201TIP3   OH215608   0.577   3.755   2.208 -0.2004 -0.0794 -0.2955
 5201TIP3    H115609   0.668   3.782   2.219  0.0520 -1.6295  2.0445
 5201TIP3    H215610   0.577   3.704   2.126  0.8490  0.5644 -0.7189
 5202TIP3   OH215611   2.649   2.953   1.070 -0.3795  0.3533  0.1862
 5202TIP3    H115612   2.727   2.898   1.065 -0.2238  0.5388  0.5592
 5202TIP3    H215613   2.579   2.899   1.032 -0.0170  0.2902 -0.4009
 5203TIP3   OH215614   4.690   5.808   3.683 -0.2649  0.2738  0.7227
 5203TIP3    H115615   4.735   5.730   3.715 -1.0064 -0.3922  0.1860
 5203TIP3    H215616   4.698   5.871   3.755  0.2573 -0.3201  1.2055
 5204TIP3   OH215617   0.179   5.552   3.018 -0.5023  0.4898 -0.0310
 5204TIP3    H115618   0.223   5.494   3.080 -0.6275 -0.5724 -0.9249
 5204TIP3    H215619   0.092   5.565   3.056 -0.6776 -0.3863 -0.1324
 5205TIP3   OH215620   0.872   3.584   0.778 -0.3086 -0.3207  0.0201
 5205TIP3    H115621   0.912   3.548   0.699 -0.2952  1.0495 -0.6354
 5205TIP3    H215622   0.864   3.510   0.837 -0.3679 -1.3946 -1.2857
 5206TIP3   OH215623   2.959   3.300   4.049 -0.2982  0.3436 -0.2464
 5206TIP3    H115624   3.008   3.283   4.129 -1.9029  1.9133  1.1664
 5206TIP3    H215625   2.882   3.243   4.055 -0.1215  0.0080 -0.9993
 5207TIP3   OH215626   4.166   4.296   0.385 -0.2495  0.1611 -0.1245
 5207TIP3    H115627   4.190   4.304   0.478  0.6716 -1.2591 -0.2076
 5207TIP3    H215628   4.102   4.225   0.383 -2.4503  2.0230 -0.2786
 5208TIP3   OH215629   1.133   3.186   0.581  0.2718 -0.4032  0.3377
 5208TIP3    H115630   1.182   3.105   0.566  0.3739 -0.4262  0.7782
 5208TIP3    H215631   1.186   3.235   0.645 -0.9658 -1.0760  1.9504
 5209TIP3   OH215632   3.857   4.865   3.503  0.3501 -0.1749 -0.2628
 5209TIP3    H115633   3.841   4.836   3.413  0.6821  0.2433 -0.4587
 5209TIP3    H215634   3.774   4.852   3.548 -0.1136  0.5887 -0.8936
 5210TIP3   OH215635   3.471   1.700   0.354  0.0561  0.0036 -0.0613
 5210TIP3    H115636   3.476   1.747   0.271 -1.6251  0.0743 -0.1592
 5210TIP3    H215637   3.493   1.610   0.333 -0.6885 -0.0433 -0.6595
 5211TIP3   OH215638   4.568   0.095   3.252  0.7038 -0.0301 -0.5793
 5211TIP3    H115639   4.613   0.135   3.327  0.8766 -0.6383 -0.3577
 5211TIP3    H215640   4.589   0.002   3.257  0.9594 -0.0402 -1.5520
 5212TIP3   OH215641   3.041   1.664   4.278  0.1136 -0.1007  0.5389
 5212TIP3    H115642   3.000   1.743   4.314  0.5603  0.6520 -0.5696
 5212TIP3    H215643   2.986   1.639   4.204  1.3660  0.6478 -0.6730
 5213TIP3   OH215644   5.278   0.030   4.215 -0.7799 -0.1251 -0.2964
 5213TIP3    H115645   5.367   0.056   4.238  0.3002 -2.0432 -1.9443
 5213TIP3    H215646   5.257   0.081   4.137 -0.7835 -0.2529 -0.3803
 5214TIP3   OH215647   4.898   0.360   4.447  0.1698  0.1501  0.3940
 5214TIP3    H115648   4.844   0.298   4.496  0.8230  0.0024  0.9391
 5214TIP3    H215649   4.902   0.437   4.503 -1.4860  1.1197 -0.7252
 5215TIP3   OH215650   6.206   5.468   2.733 -0.2188  0.2703 -0.7920
 5215TIP3    H115651   6.267   5.508   2.672  1.8129 -2.5954 -0.8508
 5215TIP3    H215652   6.262   5.416   2.792 -2.4444 -0.5303  0.7425
 5216TIP3   OH215653   1.492   1.167   0.086 -0.2970 -0.3942 -0.4121
 5216TIP3    H115654   1.472   1.259   0.105 -0.5556 -0.5275 -0.0369
 5216TIP3    H215655   1.408   1.130   0.057 -0.3949 -0.7270  0.2840
 5217TIP3   OH215656   2.819   4.406   5.151  0.1742  0.2126  0.2549
 5217TIP3    H115657   2.806   4.492   5.111  0.5561  1.7982  3.2187
 5217TIP3    H215658   2.910   4.384   5.130 -0.0415  0.3051 -0.8477
 5218TIP3   OH215659   0.478   5.001   0.547 -0.1968  1.1551  0.2643
 5218TIP3    H115660   0.398   5.052   0.534 -0.8777  0.2488  0.8022
 5218TIP3    H215661   0.463   4.953   0.628 -0.2237 -1.0668 -0.9889
 5219TIP3   OH215662   6.040   0.618   3.971 -0.4474  0.5418  0.4217
 5219TIP3    H115663   6.089   0.537   3.990 -0.9380  0.4885  1.5544
 5219TIP3    H215664   6.003   0.603   3.884  1.7053  0.6794 -0.5799
 5220TIP3   OH215665   0.156   3.163   3.961  0.3854 -0.2021 -0.0808
 5220TIP3    H115666   0.139   3.104   3.887  1.4351 -0.1077 -0.4078
 5220TIP3    H215667   0.245   3.195   3.946 -0.3411  1.9217 -0.2353
 5221TIP3   OH215668   0.368   1.854   1.308 -0.5569  0.3847 -0.0253
 5221TIP3    H115669   0.298   1.791   1.293 -0.0517  0.3373 -2.5755
 5221TIP3    H215670   0.448   1.802   1.315 -0.6405  0.4741  2.4042
 5222TIP3   OH215671   3.400   0.693   4.279  0.2816 -0.6494 -0.4478
 5222TIP3    H115672   3.329   0.732   4.229  0.2711 -0.9899 -0.7047
 5222TIP3    H215673   3.362   0.671   4.364 -0.4075 -2.4265 -1.1719
 5223TIP3   OH215674   0.034   3.347   2.809 -0.0164  0.6345  0.5247
 5223TIP3    H115675   0.039   3.327   2.903 -0.2303 -0.4537  0.3225
 5223TIP3    H215676   0.073   3.271   2.766 -2.1611 -0.0518 -0.3620
 5224TIP3   OH215677   1.694   5.045   1.745  0.4297 -0.4816  0.3723
 5224TIP3    H115678   1.602   5.068   1.757 -0.4095 -2.1481 -2.0243
 5224TIP3    H215679   1.716   4.991   1.821 -0.5889 -0.0907  0.9513
 5225TIP3   OH215680   1.475   4.509   3.458  0.0205  0.0516 -0.3655
 5225TIP3    H115681   1.491   4.432   3.512  0.5966  0.4934  0.1000
 5225TIP3    H215682   1.438   4.474   3.377  0.8984 -0.7754 -0.4236
 5226TIP3   OH215683   5.746   3.263   3.104  0.1379  0.0942  0.0355
 5226TIP3    H115684   5.694   3.205   3.161  1.4007 -0.2838  0.8417
 5226TIP3    H215685   5.680   3.312   3.055 -1.0211  0.4262  1.8218
 5227TIP3   OH215686   5.548   3.015   3.057 -0.2670  0.0645  0.2299
 5227TIP3    H115687   5.596   2.961   2.996 -0.7246 -0.4760  0.3372
 5227TIP3    H215688   5.456   3.002   3.034 -0.4946 -0.6962  1.4567
 5228TIP3   OH215689   0.501   1.192   2.148  0.2625  0.4661 -0.2860
 5228TIP3    H115690   0.462   1.222   2.066  1.1764  1.2058 -0.4766
 5228TIP3    H215691   0.567   1.128   2.121 -1.8061 -1.9659  0.1342
 5229TIP3   OH215692   0.599   3.995   0.101 -0.1705  0.2093  0.4067
 5229TIP3    H115693   0.560   3.983   0.015  1.4734 -0.4113 -0.2825
 5229TIP3    H215694   0.533   3.962   0.162 -0.1703 -2.1875 -0.7962
 5230TIP3   OH215695   2.559   1.457   0.199  0.2553 -0.0202  0.0501
 5230TIP3    H115696   2.477   1.492   0.164  0.3889 -1.6911 -2.1043
 5230TIP3    H215697   2.614   1.441   0.122  2.2473  0.0722  1.3537
 5231TIP3   OH215698   1.206   5.633   1.527 -0.3827 -0.2321 -0.2853
 5231TIP3    H115699   1.271   5.647   1.596  0.0645 -2.6488 -0.0974
 5231TIP3    H215700   1.245   5.674   1.450  1.4399 -1.5965 -0.1789
 5232TIP3   OH215701   2.630   2.723   3.058  0.3176  0.0395 -0.2285
 5232TIP3    H115702   2.549   2.773   3.055 -0.8982 -1.8005  0.5987
 5232TIP3    H215703   2.633   2.686   3.146  0.9625 -1.6401 -0.9134
 5233TIP3   OH215704   2.225   3.490   4.991 -0.5860  0.5738  0.4409
 5233TIP3    H115705   2.172   3.496   5.070  2.6030 -1.8620  3.0409
 5233TIP3    H215706   2.289   3.561   4.998 -0.4842  0.5487 -0.1221
 5234TIP3   OH215707   1.237   3.291   3.817 -0.1183 -0.1373  0.8446
 5234TIP3    H115708   1.313   3.238   3.844 -0.0204 -0.0656  0.7116
 5234TIP3    H215709   1.195   3.238   3.749 -0.2771 -0.2490  1.0315
 5235TIP3   OH215710   4.490   4.394   3.283 -0.1263 -0.3069  0.2324
 5235TIP3    H115711   4.586   4.398   3.276 -0.1865 -0.0010 -0.6518
 5235TIP3    H215712   4.473   4.332   3.354  0.7216 -1.1349 -0.2572
 5236TIP3   OH215713   0.580   2.246   1.990  0.3280 -0.3049  0.2316
 5236TIP3    H115714   0.547   2.277   1.906  0.6373  1.5778  0.7408
 5236TIP3    H215715   0.655   2.303   2.008 -1.0114  0.8053  2.7461
 5237TIP3   OH215716   2.374   3.936   3.168 -0.1246  0.3378 -0.1104
 5237TIP3    H115717   2.441   3.900   3.227 -0.0257  3.3723  1.8513
 5237TIP3    H215718   2.419   3.946   3.084  1.0787 -0.0494  0.4651
 5238TIP3   OH215719   3.874   4.301   1.176  0.4183 -0.1676  0.1153
 5238TIP3    H115720   3.864   4.279   1.269 -1.9716 -0.1465 -0.0698
 5238TIP3    H215721   3.855   4.219   1.130 -0.4738  0.2985 -0.3750
 5239TIP3   OH215722   3.123   3.404   2.047 -0.4608  0.2637  0.4277
 5239TIP3    H115723   3.057   3.383   2.113 -0.6967  0.0048  0.1108
 5239TIP3    H215724   3.199   3.431   2.098 -0.8382  0.6541  0.7950
 5240TIP3   OH215725   0.899   5.209   3.573  0.0176 -0.0161  0.6420
 5240TIP3    H115726   0.957   5.136   3.552 -0.7395 -0.9981  1.8250
 5240TIP3    H215727   0.922   5.234   3.662 -0.0168  0.9325  0.3972
 5241TIP3   OH215728   0.474   2.341   2.512 -0.9221 -0.0136 -0.2965
 5241TIP3    H115729   0.384   2.312   2.529 -0.3074 -1.5745  0.4699
 5241TIP3    H215730   0.497   2.302   2.428 -0.4675 -0.8510  0.2090
 5242TIP3   OH215731   2.285   4.065   2.759 -0.2400 -0.1688  0.2984
 5242TIP3    H115732   2.309   4.158   2.753  0.3402 -0.2789  0.8725
 5242TIP3    H215733   2.190   4.066   2.774 -0.0114  0.3782  1.8157
 5243TIP3   OH215734   3.011   4.155   2.891  0.4270  0.5728 -0.8719
 5243TIP3    H115735   2.946   4.212   2.850  0.3872  1.8566  0.8714
 5243TIP3    H215736   3.083   4.214   2.915  1.2388 -0.4404 -0.7462
 5244TIP3   OH215737   0.708   2.392   0.588 -0.2544  0.3885 -0.6809
 5244TIP3    H115738   0.706   2.390   0.492  1.1848 -1.4506 -0.7193
 5244TIP3    H215739   0.699   2.300   0.614  0.9837  0.6734  0.8758
 5245TIP3   OH215740   0.835   1.819   0.205 -0.1739  0.1385 -0.4850
 5245TIP3    H115741   0.872   1.817   0.117 -0.2285 -2.0020 -0.5089
 5245TIP3    H215742   0.803   1.730   0.220 -2.2352  1.0298  0.8517
 5246TIP3   OH215743   5.146   4.661   2.283  0.1179 -0.2544  0.4593
 5246TIP3    H115744   5.137   4.737   2.226 -0.9056 -0.6218  0.1029
 5246TIP3    H215745   5.132   4.586   2.225 -0.8834 -0.6319  1.1615
 5247TIP3   OH215746   2.657   0.594   2.964 -0.1674 -0.2028 -0.3537
 5247TIP3    H115747   2.638   0.637   3.048  2.6459  0.7472 -0.0995
 5247TIP3    H215748   2.718   0.523   2.987  0.0917 -0.3724 -1.5194
 5248TIP3   OH215749   0.185   1.458   3.776  0.3979 -0.0416 -0.3471
 5248TIP3    H115750   0.163   1.551   3.776  1.0705  0.1313  0.3604
 5248TIP3    H215751   0.206   1.439   3.684 -0.9674  0.1857 -0.7216
 5249TIP3   OH215752   3.676   1.402   0.104  0.2421  0.1964  0.5702
 5249TIP3    H115753   3.612   1.354   0.053  0.6881  1.4571 -1.2562
 5249TIP3    H215754   3.760   1.386   0.061  0.5368  1.8152  0.4513
 5250TIP3   OH215755   0.039   3.246   1.798 -0.5080  0.3080  0.0785
 5250TIP3    H115756   0.124   3.205   1.782  0.2592  1.1541  1.7417
 5250TIP3    H215757   0.008   3.273   1.712  1.4953  1.0996 -0.4362
 5251TIP3   OH215758   1.981   1.108   3.058 -0.0670  0.1751  0.3097
 5251TIP3    H115759   1.910   1.149   3.107 -0.9787 -0.9349 -0.0408
 5251TIP3    H215760   1.937   1.054   2.992  1.0847 -1.0837  0.5332
 5252TIP3   OH215761   4.548   0.784   3.965 -0.4457 -0.0539  0.2766
 5252TIP3    H115762   4.521   0.760   3.876  0.1237  2.4938 -0.6704
 5252TIP3    H215763   4.632   0.828   3.953  0.0110 -0.3437  2.1862
 5253TIP3   OH215764   0.139   3.883   2.397 -0.0327 -0.1314  0.3777
 5253TIP3    H115765   0.128   3.978   2.410 -0.9718 -0.4731  2.4903
 5253TIP3    H215766   0.063   3.844   2.440 -1.1190 -1.8094 -2.7620
 5254TIP3   OH215767   0.333   5.315   3.944  0.3908  0.1379  0.4015
 5254TIP3    H115768   0.273   5.315   3.869  0.1605 -0.3808  0.5745
 5254TIP3    H215769   0.323   5.227   3.982  2.5310 -0.5980 -0.5652
 5255TIP3   OH215770   2.502   2.764   0.903 -0.5015 -0.0242  0.2195
 5255TIP3    H115771   2.515   2.733   0.813  1.1996  0.0776  0.4018
 5255TIP3    H215772   2.408   2.756   0.917 -0.8450  0.1750 -1.6497
 5256TIP3   OH215773   2.265   5.273   2.375 -0.3603 -0.5444 -0.4660
 5256TIP3    H115774   2.273   5.322   2.293 -0.0772  0.1829 -0.0125
 5256TIP3    H215775   2.230   5.336   2.438  0.1506 -0.8764  0.1651
 5257TIP3   OH215776   1.694   2.944   3.959 -0.2947  0.0582  0.0583
 5257TIP3    H115777   1.647   2.902   3.887 -0.2020 -2.5588  1.3929
 5257TIP3    H215778   1.699   2.876   4.027  2.2083  1.4266  1.3905
 5258TIP3   OH215779   1.739   2.510   1.346  0.3645 -0.6217  0.6465
 5258TIP3    H115780   1.778   2.525   1.260 -0.7200  0.1959  0.2742
 5258TIP3    H215781   1.814   2.497   1.404  1.1734  0.3416 -0.1482
 5259TIP3   OH215782   4.257   4.813   4.750  0.0289  0.2022  0.0583
 5259TIP3    H115783   4.341   4.834   4.709 -0.7907  4.1241 -0.0185
 5259TIP3    H215784   4.259   4.860   4.834 -1.7179 -0.4316  0.4948
 5260TIP3   OH215785   4.686   3.931   2.028  0.2245 -0.8879 -0.4107
 5260TIP3    H115786   4.716   4.018   2.002 -2.4784  0.2654  0.0060
 5260TIP3    H215787   4.759   3.873   2.008  1.3160  1.1361 -2.7376
 5261TIP3   OH215788   0.418   3.766   1.026 -0.6345 -0.4217 -0.2613
 5261TIP3    H115789   0.461   3.789   1.108 -0.1288 -0.2952 -0.5628
 5261TIP3    H215790   0.462   3.819   0.959 -1.9256  0.4992 -0.4345
 5262TIP3   OH215791   0.954   1.528   2.766  0.0165  0.8534 -0.0415
 5262TIP3    H115792   1.043   1.558   2.783  0.5588  0.2338 -1.5765
 5262TIP3    H215793   0.946   1.445   2.812  0.3250  0.7821 -0.1179
 5263TIP3   OH215794   1.407   2.846   3.312  0.2097 -0.2814 -0.1279
 5263TIP3    H115795   1.414   2.904   3.388 -0.4175  0.2850 -0.4909
 5263TIP3    H215796   1.331   2.878   3.264 -0.7850 -2.0341  0.1816
 5264TIP3   OH215797   1.071   0.633   1.355 -0.1729  0.0902 -0.4855
 5264TIP3    H115798   1.033   0.651   1.270 -0.4814  0.2874 -0.3081
 5264TIP3    H215799   1.108   0.545   1.347  1.1341  0.6710 -1.2896
 5265TIP3   OH215800   1.514   1.897   0.887  0.3291 -0.1550 -0.4181
 5265TIP3    H115801   1.527   1.974   0.942 -0.7822  2.2606 -3.2458
 5265TIP3    H215802   1.432   1.914   0.840  0.8931 -2.2549 -2.3588
 5266TIP3   OH215803   3.711   0.866   0.197  0.6099  0.5106  0.4610
 5266TIP3    H115804   3.661   0.790   0.225 -0.6494  1.1214 -0.0272
 5266TIP3    H215805   3.802   0.842   0.210  0.1749 -0.4256  1.9424
 5267TIP3   OH215806   1.303   5.890   1.092  0.2647  0.5254 -0.1670
 5267TIP3    H115807   1.227   5.933   1.053  1.0573  0.8096 -1.4558
 5267TIP3    H215808   1.330   5.948   1.163 -0.1647  0.8976 -0.3019
 5268TIP3   OH215809   4.215   1.947   3.990 -0.2210 -0.3309 -0.0693
 5268TIP3    H115810   4.187   1.870   4.040 -1.9780 -0.6111 -1.4118
 5268TIP3    H215811   4.291   1.916   3.940  0.7952 -0.3818  1.4391
 5269TIP3   OH215812   5.589   3.838   4.815 -0.3655  0.3731 -0.5576
 5269TIP3    H115813   5.508   3.873   4.778 -0.5705  0.2159 -0.2623
 5269TIP3    H215814   5.628   3.912   4.863 -0.2824  0.4769 -0.7874
 5270TIP3   OH215815   0.685   0.663   0.675 -0.3598 -0.8719  0.4091
 5270TIP3    H115816   0.730   0.679   0.757 -1.4242 -0.2872  0.9064
 5270TIP3    H215817   0.627   0.738   0.664 -0.9265 -1.3995 -0.3919
 5271TIP3   OH215818   5.147   0.390   3.613  0.1623  0.1526 -0.6536
 5271TIP3    H115819   5.211   0.389   3.542  1.1096  1.7413  0.1264
 5271TIP3    H215820   5.107   0.303   3.610  3.4480 -1.5523 -0.2307
 5272TIP3   OH215821   5.024   4.766   2.990  0.0899 -0.6841  0.3680
 5272TIP3    H115822   4.971   4.726   2.922 -0.7161  0.7075  0.1402
 5272TIP3    H215823   4.971   4.761   3.069 -0.6957  1.2242  0.0187
 5273TIP3   OH215824   2.598   0.083   1.147  0.9034  0.1281  0.5911
 5273TIP3    H115825   2.620   0.175   1.134 -0.7105  0.3030 -1.3127
 5273TIP3    H215826   2.680   0.036   1.131  1.3427  1.1226 -0.1907
 5274TIP3   OH215827   4.624   2.399   4.407 -0.2299 -0.0360 -0.4282
 5274TIP3    H115828   4.558   2.434   4.347  0.6079  0.4696 -1.0652
 5274TIP3    H215829   4.602   2.306   4.414 -1.5131  0.2861  0.0369
 5275TIP3   OH215830   2.462   2.789   4.045  0.2358 -0.3471  0.3940
 5275TIP3    H115831   2.521   2.808   4.118 -1.1185  1.6918  1.0275
 5275TIP3    H215832   2.394   2.733   4.082 -0.4545  0.6925  0.7405
 5276TIP3   OH215833   2.855   2.578   0.138  0.3059  0.3068  0.2321
 5276TIP3    H115834   2.883   2.530   0.216 -1.9042  0.7945  1.4139
 5276TIP3    H215835   2.916   2.653   0.134  0.6203  0.1401  1.3585
 5277TIP3   OH215836   5.390   1.357   4.187 -0.0199 -0.2579  0.6021
 5277TIP3    H115837   5.329   1.284   4.203  0.0538 -0.0112  2.1546
 5277TIP3    H215838   5.477   1.317   4.196  0.0274 -0.0752  0.9289
 5278TIP3   OH215839   3.329   2.039   2.712  0.4672 -0.3674 -0.0892
 5278TIP3    H115840   3.299   2.014   2.800  1.7945 -2.2720 -0.1124
 5278TIP3    H215841   3.356   2.130   2.721 -1.3366  0.1164  0.9353
 5279TIP3   OH215842   5.120   2.821   2.583  0.0043 -0.3267  0.7057
 5279TIP3    H115843   5.151   2.741   2.540 -1.2322 -0.1562 -0.5549
 5279TIP3    H215844   5.060   2.861   2.520  0.5881  1.6130  1.2915
 5280TIP3   OH215845   4.226   2.821   1.852  0.3677 -0.6489  0.4620
 5280TIP3    H115846   4.306   2.780   1.819  0.9390 -0.1627  1.2096
 5280TIP3    H215847   4.157   2.791   1.792  1.4648  0.7395 -1.6279
 5281TIP3   OH215848   2.683   5.164   0.703  0.4495  0.0924  0.5159
 5281TIP3    H115849   2.693   5.120   0.787  1.8287  0.1617  0.4125
 5281TIP3    H215850   2.747   5.235   0.706 -0.9045  1.3738  0.2075
 5282TIP3   OH215851   1.548   0.036   1.877 -0.3110  0.2490 -0.0375
 5282TIP3    H115852   1.493  -0.040   1.857 -0.5506  0.9118 -2.1557
 5282TIP3    H215853   1.492   0.112   1.860  0.8683  0.9228 -1.1425
 5283TIP3   OH215854   3.951   4.875   0.447  0.4968 -0.1947  0.2541
 5283TIP3    H115855   3.971   4.785   0.473  5.0905  0.2457 -1.0012
 5283TIP3    H215856   3.921   4.917   0.527  0.4583 -2.2738  1.3920
 5284TIP3   OH215857   5.842   5.709   2.445  0.0115  0.2004  0.1323
 5284TIP3    H115858   5.883   5.777   2.391  0.3565 -0.0881  0.0237
 5284TIP3    H215859   5.765   5.682   2.395  0.7552 -0.6112 -0.5962
 5285TIP3   OH215860   2.675   0.177   0.595 -0.1301 -0.0665  0.0958
 5285TIP3    H115861   2.600   0.197   0.651  0.0177  2.1699 -0.4211
 5285TIP3    H215862   2.642   0.112   0.533 -1.7677  1.1775 -0.3789
 5286TIP3   OH215863   0.095   0.068   2.359 -0.4098 -0.2901 -0.0731
 5286TIP3    H115864   0.097   0.097   2.267  0.4821 -0.3469 -0.0789
 5286TIP3    H215865   0.083   0.149   2.409 -0.3355 -0.1958 -0.2075
 5287TIP3   OH215866   2.621   2.027   3.139  0.2858  0.3285 -0.4806
 5287TIP3    H115867   2.590   1.988   3.058  0.4866 -0.4754 -0.1839
 5287TIP3    H215868   2.565   1.989   3.207  1.8103 -1.0863  0.0572
 5288TIP3   OH215869   1.952   5.387   1.888 -0.1123  0.1966 -0.0265
 5288TIP3    H115870   2.043   5.358   1.883  0.1792  0.7820  1.3077
 5288TIP3    H215871   1.906   5.315   1.931 -0.2204  0.0152 -0.4476
 5289TIP3   OH215872   3.451   3.694   4.149  0.4770 -0.2613  0.1949
 5289TIP3    H115873   3.518   3.626   4.142 -0.1580 -0.7504 -2.0055
 5289TIP3    H215874   3.398   3.683   4.070  0.4329  2.8966 -0.3355
 5290TIP3   OH215875   3.415   4.085   2.571 -0.5935 -0.2799  0.1905
 5290TIP3    H115876   3.443   4.116   2.657 -0.8230  0.2223  0.0812
 5290TIP3    H215877   3.410   3.990   2.581  0.3829 -0.3196  0.4432
 5291TIP3   OH215878   6.174   4.509   1.089  0.1160 -0.7745  0.4783
 5291TIP3    H115879   6.200   4.465   1.008  2.0151  1.5941 -0.3252
 5291TIP3    H215880   6.226   4.466   1.157 -0.7121 -2.0803  0.3268
 5292TIP3   OH215881   1.337   3.921   0.262 -0.1868  0.2201 -0.4824
 5292TIP3    H115882   1.309   4.008   0.235  1.4976  1.9140  2.5982
 5292TIP3    H215883   1.289   3.905   0.343  0.9729 -0.8301  0.0296
 5293TIP3   OH215884   5.659   0.580   0.131 -0.2596 -0.0317  0.8160
 5293TIP3    H115885   5.616   0.659   0.097 -0.9739 -1.2973 -1.4451
 5293TIP3    H215886   5.707   0.610   0.208 -2.4063  2.1296  1.4431
 5294TIP3   OH215887   6.185   1.850   4.321  0.0241 -0.0941  0.0500
 5294TIP3    H115888   6.201   1.901   4.242 -0.0954 -1.0508 -0.6073
 5294TIP3    H215889   6.137   1.909   4.379  1.0149  0.9643 -0.1669
 5295TIP3   OH215890   0.190   1.005   2.436  0.0740  0.0877  0.2926
 5295TIP3    H115891   0.219   1.018   2.345 -0.7165 -1.3926 -0.2094
 5295TIP3    H215892   0.099   1.033   2.436  0.9159  3.2308  1.4900
 5296TIP3   OH215893   5.064   5.157   4.442  0.1619  0.5967 -0.2905
 5296TIP3    H115894   5.125   5.103   4.393 -2.2028 -2.0174 -0.6173
 5296TIP3    H215895   5.071   5.127   4.532  1.2167  2.1848  0.1959
 5297TIP3   OH215896   2.782   1.218   1.012  0.6546  0.1400  0.2349
 5297TIP3    H115897   2.835   1.182   0.941 -0.6893 -1.1514 -0.1666
 5297TIP3    H215898   2.729   1.144   1.043 -1.3035  1.4637  0.2336
 5298TIP3   OH215899   3.055   5.931   5.157  0.3062  0.2607  0.1601
 5298TIP3    H115900   3.092   5.872   5.092  2.0972 -0.9124  2.1282
 5298TIP3    H215901   3.096   6.015   5.139  0.5994  0.0065 -0.3768
 5299TIP3   OH215902   5.484   3.077   4.064  0.2575 -0.0539 -0.5236
 5299TIP3    H115903   5.477   3.096   3.970 -1.5575  1.4401 -0.1684
 5299TIP3    H215904   5.434   3.148   4.106 -1.3404 -2.1523  1.3907
 5300TIP3   OH215905   5.849   3.693   0.838 -0.2413 -0.0660  0.4693
 5300TIP3    H115906   5.756   3.680   0.820 -0.1728  0.7203 -0.5470
 5300TIP3    H215907   5.892   3.679   0.753  0.7010 -1.4956  1.1488
 5301TIP3   OH215908   3.719   4.126   4.297 -0.0872  0.4095 -0.0934
 5301TIP3    H115909   3.686   4.037   4.281 -0.1252  0.1462  1.2740
 5301TIP3    H215910   3.678   4.151   4.380 -1.9457  2.6450 -1.5612
 5302TIP3   OH215911   2.136   1.705   1.229  0.4829  0.0054 -0.1176
 5302TIP3    H115912   2.119   1.751   1.311  0.5986  0.2956 -0.2578
 5302TIP3    H215913   2.050   1.697   1.188  0.3641 -0.4978  0.2189
 5303TIP3   OH215914   5.831   5.426   0.152 -0.2023 -0.8505 -0.4575
 5303TIP3    H115915   5.916   5.384   0.167  0.3807 -0.3315 -2.1350
 5303TIP3    H215916   5.847   5.491   0.084 -1.5248  0.7010  0.6257
 5304TIP3   OH215917   3.249   2.312   0.852 -0.2225 -0.4896 -0.1317
 5304TIP3    H115918   3.279   2.355   0.772 -0.7162 -1.0830 -0.6509
 5304TIP3    H215919   3.243   2.383   0.917  1.5578 -0.2366 -0.1912
 5305TIP3   OH215920   1.038   4.079   2.880  0.4033 -0.3506  0.0633
 5305TIP3    H115921   0.990   3.996   2.875  0.2526 -0.2593 -0.0041
 5305TIP3    H215922   1.032   4.115   2.791 -1.5460  0.8665  0.6192
 5306TIP3   OH215923   1.848   3.566   1.827  0.3381 -0.1225 -0.3375
 5306TIP3    H115924   1.874   3.556   1.735  3.7433  0.0459  0.5064
 5306TIP3    H215925   1.900   3.639   1.859  1.2013 -1.8176  2.3926
 5307TIP3   OH215926   4.667   1.623   0.460  0.1339  0.2865  0.0628
 5307TIP3    H115927   4.634   1.690   0.401 -0.0543 -0.3950 -0.6278
 5307TIP3    H215928   4.714   1.671   0.529  0.6307  1.0759 -0.8129
 5308TIP3   OH215929   1.603   3.233   0.727 -0.2886  0.3679 -0.1856
 5308TIP3    H115930   1.698   3.241   0.720 -0.3271 -0.4563 -2.5459
 5308TIP3    H215931   1.588   3.139   0.742 -0.7442  0.5348  0.4692
 5309TIP3   OH215932   3.559   5.142   1.112  0.2794 -0.5597  0.3060
 5309TIP3    H115933   3.483   5.086   1.125  2.1102 -2.8897  1.7491
 5309TIP3    H215934   3.590   5.160   1.201  1.3789  0.4102 -0.2562
 5310TIP3   OH215935   3.885   0.454   0.618  0.3949  0.2661 -0.0997
 5310TIP3    H115936   3.907   0.528   0.561  0.1295  0.1314 -0.3780
 5310TIP3    H215937   3.815   0.488   0.675  0.4905  0.3258 -0.0182
 5311TIP3   OH215938   0.701   5.969   4.339 -0.6482  0.2124  0.0179
 5311TIP3    H115939   0.664   5.889   4.376 -0.9042 -0.2103 -1.1169
 5311TIP3    H215940   0.625   6.017   4.306 -0.5791  1.2888  1.3189
 5312TIP3   OH215941   4.129   0.901   2.909 -0.3269 -0.3413 -0.1793
 5312TIP3    H115942   4.161   0.812   2.927 -1.2582 -1.1138 -1.9820
 5312TIP3    H215943   4.208   0.950   2.883  0.0912 -0.8650  0.0856
 5313TIP3   OH215944   5.266   4.662   5.019  0.0315  0.1451 -0.2728
 5313TIP3    H115945   5.231   4.605   4.951  0.2486 -2.0259  1.3083
 5313TIP3    H215946   5.189   4.696   5.064 -0.1027 -0.7040  0.1544
 5314TIP3   OH215947   3.066   0.129   5.050  0.4781  0.0943  0.5685
 5314TIP3    H115948   3.133   0.078   5.005  0.4455  1.6002 -1.3069
 5314TIP3    H215949   2.983   0.098   5.014  0.1262 -1.4544  2.5624
 5315TIP3   OH215950   0.700   3.042   0.127 -0.4731 -0.3288  0.2517
 5315TIP3    H115951   0.762   2.979   0.091 -0.6994 -0.3067 -0.1856
 5315TIP3    H215952   0.644   3.065   0.053  0.4455  1.4308  0.0615
 5316TIP3   OH215953   0.860   1.059   4.765 -0.0375 -0.1079 -0.1036
 5316TIP3    H115954   0.888   1.150   4.763  0.2534 -0.1579  1.2177
 5316TIP3    H215955   0.764   1.063   4.767 -0.0368  0.1478 -0.4549
 5317TIP3   OH215956   0.355   5.195   2.614 -0.1814 -0.3640 -0.3006
 5317TIP3    H115957   0.346   5.156   2.701 -0.9717 -1.0682 -0.6762
 5317TIP3    H215958   0.269   5.183   2.574  0.4350 -0.8996 -1.5212
 5318TIP3   OH215959   3.939   5.761   0.372 -0.2886 -0.1053  0.4238
 5318TIP3    H115960   3.867   5.817   0.343  0.1140  0.3996  0.3845
 5318TIP3    H215961   3.896   5.689   0.419 -0.8566 -0.1901 -0.2121
 5319TIP3   OH215962   4.091   4.148   1.533  0.3577  0.4417  0.5331
 5319TIP3    H115963   4.147   4.207   1.483  1.5784 -1.5818 -0.6187
 5319TIP3    H215964   4.147   4.117   1.604  0.0756 -0.1102  0.5165
 5320TIP3   OH215965   5.892   1.620   1.624 -0.6642 -0.0844 -0.1747
 5320TIP3    H115966   5.917   1.712   1.631  0.2408 -0.3552  0.3213
 5320TIP3    H215967   5.833   1.605   1.698 -1.1504  0.1963 -0.5018
 5321TIP3   OH215968   5.206   0.612   0.958  0.2242 -0.0969  0.3626
 5321TIP3    H115969   5.230   0.523   0.985  1.7922  0.1179 -0.2148
 5321TIP3    H215970   5.161   0.600   0.875  0.8085 -0.3268  0.0754
 5322TIP3   OH215971   3.539   5.654   2.236  0.4028 -0.1475 -0.3114
 5322TIP3    H115972   3.615   5.632   2.290  0.7242  0.8219 -0.3442
 5322TIP3    H215973   3.481   5.578   2.244  0.7511 -0.3223  0.8357
 5323TIP3   OH215974   2.808   2.178   4.435  0.0579  0.6099 -0.2382
 5323TIP3    H115975   2.843   2.183   4.346  0.0733  2.3858 -0.1624
 5323TIP3    H215976   2.879   2.138   4.486  0.9494  1.6885 -0.5952
 5324TIP3   OH215977   0.331   5.240   0.865 -0.0510 -0.2531  0.1575
 5324TIP3    H115978   0.370   5.228   0.952  2.1782  0.8206 -0.6174
 5324TIP3    H215979   0.238   5.256   0.883  0.1354 -1.1159  2.2522
 5325TIP3   OH215980   1.507   2.669   1.437 -0.0456  0.2414 -0.3200
 5325TIP3    H115981   1.502   2.763   1.451 -1.7830  0.2871 -1.0313
 5325TIP3    H215982   1.591   2.656   1.393  1.0000  1.2235  1.2976
 5326TIP3   OH215983   4.119   4.332   4.151  0.1652 -0.5602  0.1678
 5326TIP3    H115984   4.152   4.393   4.084  2.2011 -0.3451  1.3118
 5326TIP3    H215985   4.085   4.258   4.101  0.4143  0.1767 -1.1405
 5327TIP3   OH215986   6.007   0.358   4.883  0.2253 -0.4926 -0.2447
 5327TIP3    H115987   6.004   0.453   4.874 -1.3492 -0.5583 -0.7629
 5327TIP3    H215988   6.020   0.344   4.977  2.9973  0.1922 -0.4485
 5328TIP3   OH215989   5.436   2.802   4.829  0.1006 -0.1194 -0.4000
 5328TIP3    H115990   5.353   2.849   4.839 -0.6365 -1.0320 -1.8283
 5328TIP3    H215991   5.500   2.854   4.878 -1.1540  1.0309  0.0631
 5329TIP3   OH215992   5.558   4.232   4.808 -0.7668  0.4701  0.1696
 5329TIP3    H115993   5.559   4.318   4.849 -0.0579  0.3191  0.4900
 5329TIP3    H215994   5.466   4.215   4.790 -0.7968  2.0421 -1.5116
 5330TIP3   OH215995   4.307   1.220   2.411  0.2737 -0.1148  0.0169
 5330TIP3    H115996   4.369   1.239   2.341 -1.1461 -1.0691 -1.5837
 5330TIP3    H215997   4.228   1.268   2.385 -0.2662 -0.4463  1.0129
 5331TIP3   OH215998   5.910   5.693   3.885 -0.3493 -0.6408 -0.3000
 5331TIP3    H115999   5.905   5.780   3.922 -2.4897 -1.0974  0.6346
 5331TIP3    H216000   5.935   5.707   3.794 -0.5998  0.9319 -0.1507
 5332TIP3   OH216001   1.870   0.781   0.020  0.0255 -0.6260  0.4205
 5332TIP3    H116002   1.910   0.695   0.010 -0.1138 -0.7010  0.5069
 5332TIP3    H216003   1.861   0.793   0.115  0.3307 -0.3840  0.4209
 5333TIP3   OH216004   0.458   4.466   4.346  0.7103  0.2918 -0.7509
 5333TIP3    H116005   0.510   4.487   4.424 -0.6176  2.2082 -0.3203
 5333TIP3    H216006   0.427   4.550   4.314 -0.1519 -0.6066 -2.4124
 5334TIP3   OH216007   4.564   3.589   3.364 -0.0829 -0.0145 -0.6041
 5334TIP3    H116008   4.576   3.676   3.325  0.4617 -0.1312 -0.7157
 5334TIP3    H216009   4.518   3.605   3.446 -0.5262  0.3180 -0.9144
 5335TIP3   OH216010   1.130   3.694   0.859 -0.2103 -0.1578  0.3317
 5335TIP3    H116011   1.040   3.669   0.840 -0.1838 -0.5765  0.7160
 5335TIP3    H216012   1.132   3.705   0.954  0.0836  0.0876  0.2974
 5336TIP3   OH216013   3.599   3.473   4.278  0.2917 -0.1022  0.2236
 5336TIP3    H116014   3.574   3.393   4.230  2.1321 -0.8901  0.4992
 5336TIP3    H216015   3.557   3.463   4.363 -2.8862  1.2408 -1.0184
 5337TIP3   OH216016   1.683   3.072   1.679  0.6301 -0.1527 -0.4708
 5337TIP3    H116017   1.693   3.149   1.735 -0.1373 -0.0722 -0.4428
 5337TIP3    H216018   1.754   3.081   1.614  2.1124 -0.7246  0.9962
 5338TIP3   OH216019   6.115   4.661   2.536 -0.4525  0.5781 -0.0610
 5338TIP3    H116020   6.190   4.717   2.515 -0.1377 -0.2088 -1.1536
 5338TIP3    H216021   6.038   4.713   2.513 -0.1670  0.6164 -0.9844
 5339TIP3   OH216022   5.187   5.912   1.046  0.0950  0.2217  0.2822
 5339TIP3    H116023   5.099   5.929   1.013  0.1730 -0.6063 -0.3664
 5339TIP3    H216024   5.186   5.949   1.134 -1.0389 -0.1314  0.4412
 5340TIP3   OH216025   0.674   3.581   3.731 -0.0007  0.0925  0.1015
 5340TIP3    H116026   0.647   3.508   3.787 -0.2145  0.3443  0.3313
 5340TIP3    H216027   0.716   3.642   3.790 -1.0697  0.7945  0.1688
 5341TIP3   OH216028   3.444   5.163   3.216 -0.0383 -1.1735 -0.3363
 5341TIP3    H116029   3.380   5.218   3.171  1.1817 -0.0499 -0.7680
 5341TIP3    H216030   3.458   5.208   3.300  1.9934  0.0203 -1.2486
 5342TIP3   OH216031   1.491   4.965   1.170  0.1999 -0.0130  0.1578
 5342TIP3    H116032   1.414   5.016   1.197  0.4322  0.9947 -0.9828
 5342TIP3    H216033   1.512   4.911   1.246  0.9674  2.8175  2.1482
 5343TIP3   OH216034   4.069   1.757   5.174 -0.2665  0.5735  0.4045
 5343TIP3    H116035   3.993   1.723   5.128 -1.8750  1.9352  1.9252
 5343TIP3    H216036   4.079   1.847   5.142  0.0488  0.7500  0.9841
 5344TIP3   OH216037   6.054   1.861   1.525 -0.3137 -0.2341  0.5178
 5344TIP3    H116038   5.960   1.880   1.524 -0.3362 -0.2908 -1.1374
 5344TIP3    H216039   6.094   1.943   1.555 -0.7612  0.6266 -1.1233
 5345TIP3   OH216040   4.078   4.324   2.610  0.2725 -0.6517  0.4061
 5345TIP3    H116041   4.108   4.408   2.576  0.2524  0.1451  2.2333
 5345TIP3    H216042   4.017   4.292   2.543 -0.2585  1.1264 -0.0318
 5346TIP3   OH216043   2.992   3.501   3.656 -0.4925 -0.0341 -0.2151
 5346TIP3    H116044   3.064   3.554   3.623  0.8918 -0.7164  1.5409
 5346TIP3    H216045   2.925   3.564   3.682 -0.2857  0.6382 -1.2588
 5347TIP3   OH216046   0.624   0.550   5.144  0.2844 -0.5382  0.2314
 5347TIP3    H116047   0.689   0.619   5.152  1.3323 -1.3944 -0.6788
 5347TIP3    H216048   0.572   0.557   5.224  0.9343  0.7201  0.5637
 5348TIP3   OH216049   3.123   5.498   1.988  0.6354 -0.3160 -0.0687
 5348TIP3    H116050   3.123   5.578   2.040  2.7696  1.1870 -2.1490
 5348TIP3    H216051   3.208   5.497   1.945 -0.6852 -1.7675 -2.9724
 5349TIP3   OH216052   2.546   5.943   0.768 -0.8219 -0.4369  0.8573
 5349TIP3    H116053   2.626   5.995   0.763 -0.5723 -0.8493  0.4932
 5349TIP3    H216054   2.494   5.986   0.835 -0.3280 -0.1189  1.0431
 5350TIP3   OH216055   0.366   5.493   2.842  0.0616 -0.1949 -0.2311
 5350TIP3    H116056   0.309   5.538   2.904  0.5276  0.4828 -0.2834
 5350TIP3    H216057   0.342   5.528   2.756 -1.1524 -1.7241 -0.5710
 5351TIP3   OH216058   0.240   3.047   1.332 -0.0160  0.1077 -0.0246
 5351TIP3    H116059   0.212   2.971   1.282  0.0072 -0.9555  1.5018
 5351TIP3    H216060   0.324   3.022   1.370  0.2994  1.1390  0.0043
 5352TIP3   OH216061   1.481   2.852   5.159  0.3918 -0.4757 -0.2708
 5352TIP3    H116062   1.540   2.905   5.213 -2.5936  0.4068  2.4150
 5352TIP3    H216063   1.539   2.793   5.112  3.5407  1.7319  0.4914
 5353TIP3   OH216064   5.974   3.293   0.646  0.0670 -0.0840  0.3148
 5353TIP3    H116065   6.069   3.279   0.642  0.0656  0.1244 -1.2562
 5353TIP3    H216066   5.937   3.207   0.630 -0.0600 -0.4285  2.1934
 5354TIP3   OH216067   2.974   4.524   4.232  0.3134  0.2557 -0.2493
 5354TIP3    H116068   2.929   4.461   4.176 -0.6251  0.7393 -0.0658
 5354TIP3    H216069   3.010   4.589   4.171 -0.0065  0.3408 -0.3498
 5355TIP3   OH216070   5.626   2.567   2.902 -0.5287 -0.4657 -0.4058
 5355TIP3    H116071   5.619   2.587   2.809 -0.3044 -0.5188 -0.4341
 5355TIP3    H216072   5.633   2.653   2.944 -0.5021 -0.4469 -0.4483
 5356TIP3   OH216073   0.056   4.900   2.987  0.0221  0.6011  0.3221
 5356TIP3    H116074   0.017   4.942   3.063  2.0358 -0.0348  1.8093
 5356TIP3    H216075   0.106   4.826   3.023  2.2616  1.1455 -1.3995
 5357TIP3   OH216076   3.589   4.842   4.285 -0.2611 -0.8624  0.1753
 5357TIP3    H116077   3.539   4.912   4.243 -0.2003 -0.5055  0.6962
 5357TIP3    H216078   3.664   4.829   4.228 -0.1703 -0.3698  0.1789
 5358TIP3   OH216079   2.697   5.811   5.138 -0.2772 -0.2150 -0.0408
 5358TIP3    H116080   2.753   5.756   5.082 -1.2867  1.2793 -2.7327
 5358TIP3    H216081   2.698   5.896   5.094 -1.7903  0.8477  1.8746
 5359TIP3   OH216082   0.509   4.640   1.505  0.4353 -0.2438 -0.1287
 5359TIP3    H116083   0.425   4.686   1.503 -1.6307 -3.5434  1.9580
 5359TIP3    H216084   0.574   4.709   1.519 -2.0700  2.2636 -0.1170
 5360TIP3   OH216085   4.332   1.484   4.719 -0.3443 -0.5851  0.7289
 5360TIP3    H116086   4.259   1.543   4.739 -0.6193 -0.8513  0.5251
 5360TIP3    H216087   4.290   1.407   4.680  0.1331 -0.3030 -0.3845
 5361TIP3   OH216088   5.156   2.098   4.240 -0.1501 -0.3467  0.3213
 5361TIP3    H116089   5.234   2.045   4.253  0.1336  0.1553  0.7488
 5361TIP3    H216090   5.180   2.162   4.173  0.2093  0.5523  1.2779
 5362TIP3   OH216091   0.662   2.056   2.634 -0.0917  0.3582 -0.2675
 5362TIP3    H116092   0.743   2.050   2.685  0.2699 -1.0180 -0.9444
 5362TIP3    H216093   0.688   2.030   2.546 -1.0572  1.0129 -0.7588
 5363TIP3   OH216094   1.312   4.255   1.227  0.0969  0.1513 -0.6312
 5363TIP3    H116095   1.393   4.263   1.277  0.4947 -2.2753 -0.7637
 5363TIP3    H216096   1.327   4.309   1.149  1.5526 -0.1236 -0.5738
 5364TIP3   OH216097   3.747   4.912   4.767 -0.2174 -0.0140 -0.0488
 5364TIP3    H116098   3.693   4.835   4.752  1.6105 -1.0684 -1.7356
 5364TIP3    H216099   3.836   4.884   4.744  0.3762  2.8419 -1.7385
 5365TIP3   OH216100   6.271   4.337   3.548  0.0713  0.0256  0.0424
 5365TIP3    H116101   6.202   4.286   3.591  0.3435 -0.7616 -0.4374
 5365TIP3    H216102   6.317   4.273   3.494  0.3534  0.8102 -0.6553
 5366TIP3   OH216103   1.901   3.563   1.172 -0.1013 -0.2255 -0.4000
 5366TIP3    H116104   1.975   3.535   1.118  0.9587  0.8714  0.4293
 5366TIP3    H216105   1.938   3.628   1.232 -1.5118 -0.4605  0.7866
 5367TIP3   OH216106   0.168   5.465   4.968  0.2505 -0.0463  0.4575
 5367TIP3    H116107   0.095   5.474   4.907  1.1594 -1.1230 -0.8511
 5367TIP3    H216108   0.128   5.472   5.055 -0.9391  2.7739 -0.1778
 5368TIP3   OH216109   3.228   4.588   1.552 -0.2666 -0.1120 -0.0307
 5368TIP3    H116110   3.267   4.546   1.628 -0.5152 -1.2925 -0.5373
 5368TIP3    H216111   3.237   4.682   1.569  4.5893 -0.1228 -0.9797
 5369TIP3   OH216112   0.190   3.452   0.422  0.3986 -0.2237 -0.6575
 5369TIP3    H116113   0.237   3.535   0.424  0.1438 -0.0681 -0.9505
 5369TIP3    H216114   0.199   3.416   0.510  0.1495  0.3151 -0.4107
 5370TIP3   OH216115   3.483   5.845   3.067  0.0281 -0.1959 -0.2575
 5370TIP3    H116116   3.443   5.819   2.984 -0.9056 -0.8569  0.3782
 5370TIP3    H216117   3.519   5.932   3.050  0.3990 -0.5674 -1.5242
 5371TIP3   OH216118   1.025   4.103   1.062 -0.2253  0.6006 -0.1488
 5371TIP3    H116119   1.044   4.144   0.977  0.1580  0.8894  0.0732
 5371TIP3    H216120   0.934   4.126   1.080 -1.1954 -1.6016 -1.6857
 5372TIP3   OH216121   3.204   1.494   0.536 -0.0913  0.0385  0.0847
 5372TIP3    H116122   3.242   1.414   0.500 -0.9097  0.4471 -1.8073
 5372TIP3    H216123   3.279   1.552   0.552  0.2681  0.2362 -2.0555
 5373TIP3   OH216124   5.749   0.433   4.460 -0.8926  0.8771 -0.3701
 5373TIP3    H116125   5.757   0.345   4.424  0.8675  0.7065  0.3202
 5373TIP3    H216126   5.831   0.476   4.436 -1.3586  2.0456  0.0570
 5374TIP3   OH216127   5.999   2.789   3.417  0.5937 -0.1850  0.0791
 5374TIP3    H116128   6.031   2.735   3.489  1.5968 -1.8143 -1.4981
 5374TIP3    H216129   5.962   2.726   3.354 -2.6054  1.3410  0.1995
 5375TIP3   OH216130   3.302   2.242   3.733  0.5142  0.5227  0.1682
 5375TIP3    H116131   3.264   2.194   3.807  0.9334  1.0398  0.7232
 5375TIP3    H216132   3.246   2.219   3.659  1.2524 -1.5812  0.1926
 5376TIP3   OH216133   6.143   4.340   4.317  0.2454  0.0954  0.1058
 5376TIP3    H116134   6.091   4.297   4.385  0.5875  0.4852  0.6168
 5376TIP3    H216135   6.230   4.301   4.325  0.1303 -0.3020 -0.5167
 5377TIP3   OH216136   1.197   4.620   3.382 -0.1818 -0.0621  0.3133
 5377TIP3    H116137   1.150   4.537   3.374 -0.2030  0.0257 -0.5775
 5377TIP3    H216138   1.282   4.596   3.419  0.0948 -0.5923 -0.6415
 5378TIP3   OH216139   5.128   3.973   2.217 -0.1928 -0.7526  0.1211
 5378TIP3    H116140   5.126   3.999   2.309  1.0823  0.0334 -0.0493
 5378TIP3    H216141   5.135   3.877   2.219 -1.1168 -0.8174  0.8082
 5379TIP3   OH216142   1.159   5.202   1.139 -0.0350 -0.4471  0.6717
 5379TIP3    H116143   1.199   5.280   1.175 -1.0623  1.1495 -1.4401
 5379TIP3    H216144   1.221   5.170   1.074 -0.6709  0.0861 -0.2204
 5380TIP3   OH216145   3.372   5.945   2.572  0.2313 -0.1669 -0.4309
 5380TIP3    H116146   3.444   5.994   2.613  0.9040 -0.5704 -1.0953
 5380TIP3    H216147   3.395   5.943   2.479 -0.4239 -0.6840 -0.5865
 5381TIP3   OH216148   3.464   5.210   3.745 -0.0495  0.1116 -0.1438
 5381TIP3    H116149   3.492   5.149   3.813 -1.9423  0.1136  0.6823
 5381TIP3    H216150   3.486   5.296   3.779 -0.1230  0.0582  0.0379
 5382TIP3   OH216151   4.771   1.149   3.880  0.1317 -0.0954 -0.3408
 5382TIP3    H116152   4.752   1.110   3.965  0.1917  0.1669 -0.2075
 5382TIP3    H216153   4.833   1.219   3.898  0.0535  0.0403 -0.5864
 5383TIP3   OH216154   5.668   2.696   0.252 -0.5499  0.0811 -0.3142
 5383TIP3    H116155   5.592   2.638   0.244 -0.3423 -0.4016  1.0144
 5383TIP3    H216156   5.660   2.734   0.339  1.1460 -0.5974  0.1683
 5384TIP3   OH216157   6.366   3.457   4.279 -0.6725 -0.1569  0.1556
 5384TIP3    H116158   6.290   3.405   4.254 -0.0406 -0.0082 -2.2743
 5384TIP3    H216159   6.334   3.547   4.281 -0.5503 -0.0813 -0.9879
 5385TIP3   OH216160   5.722   1.886   1.322  0.1507  0.1103  0.0313
 5385TIP3    H116161   5.771   1.959   1.285  1.0696 -1.5971 -2.3740
 5385TIP3    H216162   5.741   1.813   1.264 -1.7290 -1.7543  1.6146
 5386TIP3   OH216163   5.969   4.197   4.902  0.0079 -0.4459  0.3492
 5386TIP3    H116164   6.014   4.276   4.874 -0.9188  0.3565  1.0577
 5386TIP3    H216165   6.013   4.126   4.856 -0.2880  0.6329 -1.6803
 5387TIP3   OH216166   4.012   5.569   4.435  0.3474 -0.8394 -0.5092
 5387TIP3    H116167   3.940   5.577   4.498 -0.9955 -0.3908 -2.0535
 5387TIP3    H216168   4.017   5.475   4.416 -2.3117 -0.5860 -3.0840
 5388TIP3   OH216169   1.738   1.436   0.613  0.3284 -0.0967 -0.2033
 5388TIP3    H116170   1.760   1.385   0.535  1.5633 -0.8348  0.5954
 5388TIP3    H216171   1.818   1.485   0.633 -0.2676  0.7966  0.0866
 5389TIP3   OH216172   0.935   2.552   0.595  0.0952  0.3664 -0.1342
 5389TIP3    H116173   0.946   2.604   0.516 -0.1242  0.5058 -0.0748
 5389TIP3    H216174   0.851   2.507   0.583 -1.4802  2.7046  1.2915
 5390TIP3   OH216175   3.932   2.581   0.604 -0.1446  0.3082 -0.1179
 5390TIP3    H116176   3.845   2.605   0.634 -0.2475  0.1507 -0.2869
 5390TIP3    H216177   3.981   2.562   0.684 -0.8343 -1.5132 -0.0909
 5391TIP3   OH216178   0.441   1.388   1.934  0.4228 -0.1440 -0.0363
 5391TIP3    H116179   0.348   1.383   1.910  0.2205  0.9348  0.4734
 5391TIP3    H216180   0.444   1.453   2.004  1.4179 -1.0147  0.7489
 5392TIP3   OH216181   5.107   3.897   3.161 -0.2366  0.1788  0.2165
 5392TIP3    H116182   5.035   3.833   3.154 -0.5521  0.5368  0.1569
 5392TIP3    H216183   5.148   3.879   3.245  0.1165 -0.5639 -0.1055
 5393TIP3   OH216184   4.676   3.880   0.890  0.3679 -0.3305  0.4557
 5393TIP3    H116185   4.637   3.962   0.921  0.0093  0.3454 -1.6196
 5393TIP3    H216186   4.770   3.898   0.887  0.3753 -0.2969  0.8038
 5394TIP3   OH216187   4.491   3.487   2.062 -0.2439 -0.8569 -1.1215
 5394TIP3    H116188   4.583   3.504   2.081 -0.5527  0.7912 -0.9791
 5394TIP3    H216189   4.478   3.396   2.087  0.7457 -0.4158  1.2501
 5395TIP3   OH216190   4.005   4.194   3.342  0.2116 -0.2341  0.8236
 5395TIP3    H116191   3.949   4.117   3.353 -0.5823 -0.2093 -2.0696
 5395TIP3    H216192   4.076   4.163   3.285 -0.3733  1.2207 -0.7669
 5396TIP3   OH216193   5.748   2.673   1.461  0.7214  0.2815  0.1900
 5396TIP3    H116194   5.831   2.700   1.422  0.8622  0.7855  0.8350
 5396TIP3    H216195   5.751   2.705   1.551  0.3936 -0.8632  0.6292
 5397TIP3   OH216196   3.993   1.105   1.077 -0.2775  0.3486  0.1686
 5397TIP3    H116197   3.939   1.052   1.136  1.3895 -1.3727  0.2271
 5397TIP3    H216198   4.041   1.164   1.135  0.3189 -0.3764  0.4193
 5398TIP3   OH216199   0.849   1.464   3.671 -0.1968 -0.0184 -0.4776
 5398TIP3    H116200   0.841   1.489   3.763  2.3614  0.5559 -0.3463
 5398TIP3    H216201   0.860   1.369   3.673 -1.0347 -0.1202 -0.2869
 5399TIP3   OH216202   5.417   1.943   1.491  0.1194  0.5058  0.2254
 5399TIP3    H116203   5.425   2.038   1.503 -1.4407  0.5297  1.4904
 5399TIP3    H216204   5.479   1.906   1.554  0.4975  0.6690 -0.0429
 5400TIP3   OH216205   2.224   0.327   3.525 -0.2281 -0.0791 -0.5110
 5400TIP3    H116206   2.317   0.317   3.507 -0.5156 -0.8757 -1.6874
 5400TIP3    H216207   2.192   0.237   3.534 -0.9625  0.1698 -0.5463
 5401TIP3   OH216208   1.647   5.819   1.858 -1.2379 -0.2634 -0.6755
 5401TIP3    H116209   1.696   5.807   1.776 -1.3106  0.6201 -0.8512
 5401TIP3    H216210   1.571   5.872   1.834  0.2194  2.5677  0.4329
 5402TIP3   OH216211   5.133   4.724   2.589  0.1162  0.5256  0.2617
 5402TIP3    H116212   5.170   4.664   2.525 -0.0448 -0.6700  1.2709
 5402TIP3    H216213   5.042   4.697   2.598  0.2183  0.4792  1.2350
 5403TIP3   OH216214   3.147   4.583   5.193  0.7546  0.5043 -0.5867
 5403TIP3    H116215   3.121   4.575   5.102  0.6799  0.4214 -0.5581
 5403TIP3    H216216   3.162   4.493   5.222  1.4199  0.5737 -0.7039
 5404TIP3   OH216217   5.910   0.787   3.350 -0.1200 -0.7050  0.5712
 5404TIP3    H116218   5.977   0.821   3.292  0.4062 -1.3702  0.7753
 5404TIP3    H216219   5.829   0.792   3.299  0.0029  0.4676  0.4624
 5405TIP3   OH216220   2.456   3.918   2.603  0.0543 -0.1509 -0.4506
 5405TIP3    H116221   2.401   3.840   2.599 -0.2457 -0.0798  1.5967
 5405TIP3    H216222   2.405   3.982   2.652  0.7614  0.9703 -1.1119
 5406TIP3   OH216223   1.323   5.765   0.590 -0.2789 -0.0005  0.1721
 5406TIP3    H116224   1.292   5.844   0.633  0.6599 -0.0626  0.9804
 5406TIP3    H216225   1.331   5.789   0.498  0.4523  0.9911  0.4843
 5407TIP3   OH216226   2.072   4.295   4.308 -0.4318  0.5674  0.4026
 5407TIP3    H116227   2.145   4.271   4.250 -0.6319  0.8224  0.0418
 5407TIP3    H216228   2.015   4.349   4.254 -1.4484 -0.5117  0.3447
 5408TIP3   OH216229   0.457   2.778   1.128 -0.1806 -0.1941 -0.2457
 5408TIP3    H116230   0.501   2.693   1.138  0.2443  0.1704  1.2290
 5408TIP3    H216231   0.524   2.843   1.149 -0.7614  0.4715 -0.4095
 5409TIP3   OH216232   2.962   2.596   2.135  0.2100 -0.1935  0.2890
 5409TIP3    H116233   2.909   2.581   2.058  0.4711 -0.2201  0.1125
 5409TIP3    H216234   3.013   2.674   2.115  1.4037 -1.0580 -0.1918
 5410TIP3   OH216235   1.793   1.097   1.006 -0.2919  0.2115 -0.3754
 5410TIP3    H116236   1.855   1.099   0.933 -2.4027 -0.4959 -2.3054
 5410TIP3    H216237   1.739   1.176   0.994 -0.7691  0.0065  0.3401
 5411TIP3   OH216238   2.792   0.812   2.058 -0.0358  0.2504 -0.3307
 5411TIP3    H116239   2.720   0.764   2.099 -0.6185  0.7565 -0.7399
 5411TIP3    H216240   2.833   0.859   2.131 -0.3288  0.2179 -0.1413
 5412TIP3   OH216241   1.449   2.126   1.206  0.3765  0.9409  0.0673
 5412TIP3    H116242   1.517   2.095   1.147 -1.5466 -0.1621 -1.7475
 5412TIP3    H216243   1.416   2.206   1.164  1.9181  2.7241  2.0705
 5413TIP3   OH216244   1.649   2.326   3.039  0.6685 -0.4420  0.0621
 5413TIP3    H116245   1.598   2.283   3.107  0.5473  0.8437  0.8042
 5413TIP3    H216246   1.738   2.332   3.075  0.7063 -0.1474 -0.0771
 5414TIP3   OH216247   2.579   4.887   0.642 -0.3974 -0.3368 -0.0338
 5414TIP3    H116248   2.586   4.920   0.552  0.6242  1.3008  0.5892
 5414TIP3    H216249   2.630   4.950   0.694 -1.7083 -0.7343  1.8168
 5415TIP3   OH216250   5.382   3.969   4.698 -0.3870 -0.2422  0.5737
 5415TIP3    H116251   5.294   3.987   4.732  0.6174  2.7829  1.8902
 5415TIP3    H216252   5.389   4.025   4.621  0.5534 -0.1015  0.7542
 5416TIP3   OH216253   1.201   5.851   1.793 -0.1462 -0.2243 -0.3996
 5416TIP3    H116254   1.222   5.787   1.861 -1.4606 -0.6598 -0.3740
 5416TIP3    H216255   1.283   5.900   1.780  0.0927  0.0183  1.6471
 5417TIP3   OH216256   3.543   1.733   4.214  0.0483 -0.1574  0.5336
 5417TIP3    H116257   3.577   1.792   4.282  0.9445  0.2427 -0.2404
 5417TIP3    H216258   3.620   1.708   4.164 -0.2265 -2.3623  1.0916
 5418TIP3   OH216259   5.820   2.250   4.812  0.1200 -0.0356  0.7908
 5418TIP3    H116260   5.806   2.290   4.898  3.2210  0.3809  1.2469
 5418TIP3    H216261   5.881   2.310   4.768  0.9337 -1.7315 -0.5005
 5419TIP3   OH216262   4.918   2.364   3.040 -0.4807 -0.8345 -0.6858
 5419TIP3    H116263   4.995   2.341   3.092 -1.2787 -1.3244  0.3272
 5419TIP3    H216264   4.949   2.431   2.979  0.6244 -0.6371  0.0565
 5420TIP3   OH216265   1.696   2.996   1.167 -0.0618  0.1846 -0.7219
 5420TIP3    H116266   1.741   2.955   1.093  1.4289  1.0836 -0.3680
 5420TIP3    H216267   1.629   3.051   1.128  0.3099  0.1805 -1.3700
 5421TIP3   OH216268   2.545   1.295   0.742 -0.1069  0.0437 -0.2150
 5421TIP3    H116269   2.559   1.202   0.755  0.8588  0.0661 -1.0594
 5421TIP3    H216270   2.553   1.309   0.648  0.3678  1.0775 -0.0396
 5422TIP3   OH216271   5.930   5.461   1.246 -0.4909 -0.0676  0.2891
 5422TIP3    H116272   5.984   5.392   1.209  0.8750  1.2172 -0.2069
 5422TIP3    H216273   5.848   5.458   1.196 -0.2407 -0.9723 -0.0738
 5423TIP3   OH216274   5.567   4.104   0.542 -0.1333  0.2361  0.1201
 5423TIP3    H116275   5.547   4.049   0.618  1.3894  1.7099  1.6911
 5423TIP3    H216276   5.587   4.190   0.579 -0.0562  1.2257 -2.0395
 5424TIP3   OH216277   1.775   2.960   2.906 -0.4629 -0.4859  0.0123
 5424TIP3    H116278   1.849   2.967   2.966 -0.7383 -1.4085  0.4807
 5424TIP3    H216279   1.785   2.875   2.864  0.1233  0.4421 -1.8363
 5425TIP3   OH216280   2.077   5.921   2.861  0.1247 -0.0889 -0.5307
 5425TIP3    H116281   2.149   5.858   2.849  0.5027  0.8246 -5.0571
 5425TIP3    H216282   1.998   5.867   2.856  0.4731 -0.6175 -0.4717
 5426TIP3   OH216283   4.812   3.923   0.097 -0.6151  0.1110  0.0841
 5426TIP3    H116284   4.770   3.842   0.127 -0.3434 -0.1795 -0.3127
 5426TIP3    H216285   4.833   3.906   0.005  2.4960 -0.6532  0.8416
 5427TIP3   OH216286   6.218   3.669   5.132 -0.5962 -0.0372  0.6725
 5427TIP3    H116287   6.248   3.585   5.098  0.2292  0.5515 -0.1042
 5427TIP3    H216288   6.189   3.717   5.054  0.7439  1.0986  0.8213
 5428TIP3   OH216289   1.334   2.246   3.445 -0.2104 -0.2424 -0.2737
 5428TIP3    H116290   1.340   2.152   3.461  0.0249 -0.2886 -0.6302
 5428TIP3    H216291   1.387   2.285   3.515  0.4968 -0.4266 -0.6913
 5429TIP3   OH216292   2.966   3.984   4.076  0.0824 -0.1068 -0.2091
 5429TIP3    H116293   2.978   3.993   3.982  2.7107 -0.7213  0.0016
 5429TIP3    H216294   2.871   3.972   4.087 -0.2251 -0.6422 -2.8019
 5430TIP3   OH216295   0.971   3.194   5.068 -0.0219  0.2988  0.4744
 5430TIP3    H116296   1.034   3.260   5.043 -0.0596  0.2667  0.2905
 5430TIP3    H216297   0.977   3.189   5.163  0.6306 -0.0845  0.4169
 5431TIP3   OH216298   3.432   1.512   2.627  0.5157  0.1471  0.0546
 5431TIP3    H116299   3.439   1.600   2.589 -0.1322 -0.2165 -0.9543
 5431TIP3    H216300   3.340   1.505   2.653  0.9275  0.3467  1.6418
 5432TIP3   OH216301   4.479   1.331   3.137  0.1440  0.3101 -0.1625
 5432TIP3    H116302   4.513   1.334   3.047 -0.8097  0.8891 -0.5308
 5432TIP3    H216303   4.502   1.417   3.173  1.0073 -0.1253  0.3459
 5433TIP3   OH216304   0.459   0.981   3.484  0.1766  0.5589  0.2576
 5433TIP3    H116305   0.470   0.922   3.409  1.4232  0.3867  0.5401
 5433TIP3    H216306   0.486   0.928   3.560 -2.8952  0.0802  1.1425
 5434TIP3   OH216307   2.715   2.597   1.139 -0.3148 -0.2220 -0.4387
 5434TIP3    H116308   2.778   2.669   1.134  0.6155 -0.9769  0.0581
 5434TIP3    H216309   2.656   2.621   1.210  0.8145 -0.5480  0.6547
 5435TIP3   OH216310   2.174   5.113   4.866 -0.3075 -0.1346  0.1335
 5435TIP3    H116311   2.193   5.077   4.779  0.2500  1.0781 -0.2682
 5435TIP3    H216312   2.252   5.094   4.917 -0.1495  0.2005  0.0188
 5436TIP3   OH216313   4.941   0.381   0.981  0.0811 -0.4223 -0.3803
 5436TIP3    H116314   4.909   0.471   0.987 -1.3695 -0.8909 -0.7718
 5436TIP3    H216315   5.027   0.383   1.024 -0.8992  0.6901  1.6755
 5437TIP3   OH216316   2.272   2.444   0.731 -0.5661 -0.6503  0.3914
 5437TIP3    H116317   2.225   2.499   0.795 -0.5512 -0.0730 -0.0843
 5437TIP3    H216318   2.211   2.436   0.658 -0.7108 -1.5817  0.6032
 5438TIP3   OH216319   3.813   4.680   0.702  0.0166  0.1587  0.2213
 5438TIP3    H116320   3.786   4.590   0.682  2.5170 -0.5034 -0.5535
 5438TIP3    H216321   3.732   4.725   0.722 -1.4649 -1.9646 -0.5919
 5439TIP3   OH216322   6.094   4.824   3.873 -0.0375  0.7625 -0.1752
 5439TIP3    H116323   6.030   4.856   3.809 -1.6978  1.1841  1.6225
 5439TIP3    H216324   6.045   4.817   3.955  1.5650 -1.5145  0.6718
 5440TIP3   OH216325   1.653   4.259   1.189 -0.4535  0.0312  0.0710
 5440TIP3    H116326   1.702   4.178   1.175 -1.3213 -0.3713 -0.7456
 5440TIP3    H216327   1.635   4.260   1.283 -0.5850 -0.8141  0.0602
 5441TIP3   OH216328   1.155   1.192   2.761  0.3607  0.0389  0.2370
 5441TIP3    H116329   1.069   1.187   2.720  0.4412  0.9025 -0.0659
 5441TIP3    H216330   1.213   1.144   2.702  0.2023 -0.0079  0.1190
 5442TIP3   OH216331   1.325   4.505   3.881 -0.1668 -0.4308 -0.2823
 5442TIP3    H116332   1.349   4.444   3.952 -0.8223 -0.9719 -0.5199
 5442TIP3    H216333   1.409   4.529   3.841  0.5474  1.8329  2.1969
 5443TIP3   OH216334   4.214   2.490   4.394 -0.0383 -0.5149 -0.3435
 5443TIP3    H116335   4.155   2.416   4.383 -0.0216 -0.6108  0.1645
 5443TIP3    H216336   4.163   2.567   4.370 -1.0660 -0.3644  2.0314
 5444TIP3   OH216337   4.679   4.383   4.468 -0.2278  0.1714  0.1340
 5444TIP3    H116338   4.611   4.388   4.535  0.3677 -0.5380  0.7971
 5444TIP3    H216339   4.714   4.294   4.475 -1.1602 -0.4746 -2.1107
 5445TIP3   OH216340   5.846   4.607   0.044  0.0315 -0.1441  0.1178
 5445TIP3    H116341   5.849   4.702   0.035 -1.5194 -0.0926 -0.0667
 5445TIP3    H216342   5.824   4.575  -0.043  1.2375 -0.7453  0.0065
 5446TIP3   OH216343   4.036   2.454   1.266 -0.2566  0.2497  0.3129
 5446TIP3    H116344   4.108   2.497   1.220 -0.5799  1.3582  0.8170
 5446TIP3    H216345   4.079   2.389   1.322  0.2479  0.0075 -0.3436
 5447TIP3   OH216346   0.242   3.237   0.242 -0.2700  0.3430 -0.2157
 5447TIP3    H116347   0.162   3.246   0.191 -0.9905  1.3397  1.0359
 5447TIP3    H216348   0.252   3.321   0.287  0.4042 -0.4300  1.1584
 5448TIP3   OH216349   1.883   4.774   0.801  0.4441 -0.9423 -0.1624
 5448TIP3    H116350   1.965   4.735   0.772  1.1170 -0.0519  0.5111
 5448TIP3    H216351   1.890   4.866   0.776  0.4814 -0.4366  1.5977
 5449TIP3   OH216352   3.581   3.127   2.464 -0.4547 -0.8956  0.0863
 5449TIP3    H116353   3.613   3.050   2.416 -2.5416 -1.7683  0.0159
 5449TIP3    H216354   3.646   3.195   2.445 -0.7422 -1.4065 -3.3382
 5450TIP3   OH216355   2.084   1.290   2.216 -0.0233  0.0087  0.7051
 5450TIP3    H116356   2.136   1.212   2.197  0.5753  0.7830 -1.0214
 5450TIP3    H216357   2.144   1.348   2.261  0.6518  0.8821 -1.2424
 5451TIP3   OH216358   0.342   4.230   3.303 -0.3925 -0.3547  0.3228
 5451TIP3    H116359   0.404   4.238   3.230  3.1643  2.2776  3.2171
 5451TIP3    H216360   0.383   4.167   3.363 -0.8547  0.8350  1.9813
 5452TIP3   OH216361   0.027   5.439   0.316 -0.0801  0.1002  0.9582
 5452TIP3    H116362   0.047   5.367   0.256  0.4364 -0.3482  1.6372
 5452TIP3    H216363   0.009   5.514   0.260 -0.8970 -0.6262  0.2302
 5453TIP3   OH216364   4.472   1.484   2.005 -0.1141  0.0357 -0.4476
 5453TIP3    H116365   4.417   1.557   1.974 -0.5324  0.7355  1.7734
 5453TIP3    H216366   4.557   1.500   1.965 -0.6600  0.7500 -1.3802
 5454TIP3   OH216367   5.582   4.600   0.955  0.7439  0.0481 -0.4502
 5454TIP3    H116368   5.552   4.606   0.864 -0.0012 -1.1577 -0.3131
 5454TIP3    H216369   5.537   4.672   0.999  0.6147  0.2612 -0.9193
 5455TIP3   OH216370   2.357   2.474   1.903 -0.2262  0.3166  0.3080
 5455TIP3    H116371   2.320   2.393   1.937 -0.5095 -0.2612 -1.3368
 5455TIP3    H216372   2.396   2.516   1.981 -1.0536 -0.8288  1.3815
 5456TIP3   OH216373   0.625   5.020   1.452  0.3406  0.3446 -0.1254
 5456TIP3    H116374   0.574   5.024   1.372 -0.0775 -2.0050 -0.0531
 5456TIP3    H216375   0.699   4.963   1.431  0.3346 -0.1438  1.0669
 5457TIP3   OH216376   3.954   5.034   4.030  0.7772  0.5004  0.4952
 5457TIP3    H116377   3.956   5.075   4.117 -1.2618  0.6478  0.5106
 5457TIP3    H216378   3.945   5.107   3.969 -2.4457  0.2335  0.4972
 5458TIP3   OH216379   1.441   2.831   0.175 -0.5113 -0.1754  0.1765
 5458TIP3    H116380   1.415   2.739   0.166  0.2904 -0.2506 -2.3625
 5458TIP3    H216381   1.358   2.878   0.182 -0.9513 -1.0314  0.9303
 5459TIP3   OH216382   5.240   3.325   2.863 -0.5128  0.1218 -0.5058
 5459TIP3    H116383   5.200   3.411   2.879  0.0561  0.4704 -0.9513
 5459TIP3    H216384   5.280   3.332   2.777 -1.2823 -0.9056 -0.9701
 5460TIP3   OH216385   1.256   2.558   1.348 -0.6276 -0.1837  0.6027
 5460TIP3    H116386   1.349   2.574   1.367 -0.3880 -1.2068  0.3166
 5460TIP3    H216387   1.231   2.632   1.291  0.3038 -0.4747 -0.2238
 5461TIP3   OH216388   1.138   2.501   4.221 -0.3234  0.2182 -0.7661
 5461TIP3    H116389   1.121   2.549   4.141 -0.9629 -0.9556 -1.3599
 5461TIP3    H216390   1.070   2.433   4.224 -0.5619  0.4672  0.9599
 5462TIP3   OH216391   0.603   0.214   1.865 -0.0957 -0.3395 -0.3547
 5462TIP3    H116392   0.598   0.307   1.888 -2.4800 -0.7150  0.9320
 5462TIP3    H216393   0.594   0.212   1.770 -0.7055  0.6983 -0.3314
 5463TIP3   OH216394   0.428   3.040   0.884 -0.8136 -0.6407 -0.3669
 5463TIP3    H116395   0.456   3.111   0.826 -2.2265 -0.7454 -1.2450
 5463TIP3    H216396   0.476   2.963   0.852  0.0933 -0.2534  0.0500
 5464TIP3   OH216397   1.334   3.970   1.442  0.0095  0.5181 -0.3529
 5464TIP3    H116398   1.338   3.913   1.365  1.1181 -0.1429  0.1592
 5464TIP3    H216399   1.245   4.006   1.441 -0.1273  0.1910 -1.6955
 5465TIP3   OH216400   1.718   1.878   4.818  0.1890 -0.2490 -0.0931
 5465TIP3    H116401   1.643   1.819   4.818 -0.7499  0.7906 -2.9910
 5465TIP3    H216402   1.770   1.851   4.742  1.5938  0.4668  0.5737
 5466TIP3   OH216403   2.365   2.085   0.054 -0.1676 -0.8742 -0.0804
 5466TIP3    H116404   2.337   2.102   0.144  2.8351  1.0379  0.6108
 5466TIP3    H216405   2.393   1.993   0.055 -0.1927 -0.8814  0.9325
 5467TIP3   OH216406   4.487   1.613   3.186 -0.0500 -0.3005  0.2660
 5467TIP3    H116407   4.400   1.584   3.214  0.1886 -0.6028  0.7060
 5467TIP3    H216408   4.474   1.702   3.154 -0.0063  0.8314  3.1487
 5468TIP3   OH216409   5.831   3.237   1.029 -0.0485  0.5707  0.8239
 5468TIP3    H116410   5.793   3.275   0.950 -2.9056  0.2872  1.9591
 5468TIP3    H216411   5.925   3.250   1.018 -0.4493  2.0247 -1.8382
 5469TIP3   OH216412   0.569   2.674   1.415 -0.3588  0.2589  0.0407
 5469TIP3    H116413   0.571   2.592   1.365 -0.3385  0.5142 -0.3801
 5469TIP3    H216414   0.538   2.648   1.502  0.9948 -0.4320  0.3476
 5470TIP3   OH216415   0.133   4.303   4.340 -0.6448 -0.1562 -0.4311
 5470TIP3    H116416   0.157   4.269   4.254  1.2197 -0.1970  0.0770
 5470TIP3    H216417   0.098   4.391   4.323  1.4556  0.6005 -1.0926
 5471TIP3   OH216418   5.959   2.846   1.394 -0.5125 -0.3276  0.0505
 5471TIP3    H116419   5.955   2.835   1.299 -2.2906 -1.7519  0.2370
 5471TIP3    H216420   5.900   2.919   1.412 -0.0317  0.0655  0.0671
 5472TIP3   OH216421   6.128   5.010   3.344 -0.1786 -0.5599 -0.1718
 5472TIP3    H116422   6.168   4.949   3.406  0.0764  0.4824  0.7249
 5472TIP3    H216423   6.036   4.984   3.340 -0.4671  0.0447  1.5533
 5473TIP3   OH216424   2.607   3.101   4.309 -0.0205 -0.2705  0.0598
 5473TIP3    H116425   2.521   3.121   4.346  0.2891  0.5634  0.3486
 5473TIP3    H216426   2.669   3.140   4.370  0.5089  1.0733 -1.2797
 5474TIP3   OH216427   5.473   4.069   3.977  0.3418  0.8180 -0.7950
 5474TIP3    H116428   5.567   4.089   3.973  0.5876 -0.4472 -2.0922
 5474TIP3    H216429   5.464   4.014   4.055  0.1504  3.2121  1.0053
 5475TIP3   OH216430   4.060   2.802   3.213  0.2189  0.9245 -0.6068
 5475TIP3    H116431   4.130   2.860   3.182  0.5029  0.7272 -0.3355
 5475TIP3    H216432   4.083   2.783   3.304 -0.5812  1.4460 -0.2867
 5476TIP3   OH216433   0.875   4.870   4.552  0.4405 -0.6161  0.1260
 5476TIP3    H116434   0.872   4.877   4.456  1.5176 -0.4533  0.0988
 5476TIP3    H216435   0.861   4.777   4.569  2.2805 -1.0040 -0.3085
 5477TIP3   OH216436   2.373   5.454   4.523 -0.2949 -0.6824 -0.3444
 5477TIP3    H116437   2.373   5.500   4.439 -0.9327  0.7656  0.4124
 5477TIP3    H216438   2.283   5.420   4.531 -0.1419 -1.1036 -0.3928
 5478TIP3   OH216439   0.214   2.268   2.459  0.3714  0.3547 -0.0536
 5478TIP3    H116440   0.169   2.237   2.381  2.1364 -0.1039 -0.9481
 5478TIP3    H216441   0.174   2.219   2.531 -0.2110 -0.4004 -0.8685
 5479TIP3   OH216442   6.156   2.266   3.366 -0.9423  0.3145  0.8064
 5479TIP3    H116443   6.164   2.233   3.276 -2.1798  1.6723  0.1593
 5479TIP3    H216444   6.069   2.238   3.394  0.0014 -1.4642  2.2274
 5480TIP3   OH216445   1.642   3.628   0.847 -0.0563 -0.2486  0.2879
 5480TIP3    H116446   1.623   3.605   0.938 -0.8460  0.5803  0.3503
 5480TIP3    H216447   1.721   3.578   0.826 -0.1396 -0.8328  1.2680
 5481TIP3   OH216448   3.232   1.357   1.314 -0.1731  0.3095 -0.6973
 5481TIP3    H116449   3.186   1.307   1.246 -1.0059  0.5934 -0.3416
 5481TIP3    H216450   3.204   1.317   1.396  0.1892  0.5134 -0.4727
 5482TIP3   OH216451   6.095   1.184   4.666  0.0202  0.0797  0.5598
 5482TIP3    H116452   6.045   1.110   4.632  0.5006 -1.1977  2.5307
 5482TIP3    H216453   6.039   1.223   4.733  1.2723 -0.8972  2.2516
 5483TIP3   OH216454   5.134   2.414   1.252  0.5648  0.1956 -0.3092
 5483TIP3    H116455   5.170   2.325   1.243  2.7199  1.0454 -0.7183
 5483TIP3    H216456   5.196   2.459   1.309 -0.7003  1.3624  0.1964
 5484TIP3   OH216457   4.049   3.436   1.445  0.1036 -0.0131 -1.0866
 5484TIP3    H116458   3.958   3.414   1.424 -0.6768  1.6090  0.4285
 5484TIP3    H216459   4.064   3.395   1.530  0.4482  0.6289 -0.8405
 5485TIP3   OH216460   2.052   5.217   0.738  0.2011 -0.2282 -0.3558
 5485TIP3    H116461   2.130   5.171   0.706 -0.7475 -0.9053 -1.7963
 5485TIP3    H216462   2.057   5.304   0.697  0.2348 -0.2450 -0.3877
 5486TIP3   OH216463   1.543   3.591   2.431  0.7923  0.0318 -0.0714
 5486TIP3    H116464   1.627   3.634   2.413  0.5684  0.2424 -0.6448
 5486TIP3    H216465   1.508   3.570   2.344  0.3438 -0.2375  0.1719
 5487TIP3   OH216466   3.084   1.653   0.285  0.3674 -0.1647  0.1364
 5487TIP3    H116467   3.157   1.590   0.279  1.1154  0.6557  0.4276
 5487TIP3    H216468   3.123   1.731   0.323 -0.4599  0.6346 -0.6151
 5488TIP3   OH216469   3.995   5.408   1.413  0.1402 -0.2541  0.1374
 5488TIP3    H116470   3.983   5.460   1.492  0.2451  0.7113 -0.4600
 5488TIP3    H216471   3.906   5.395   1.379  0.2373  2.0832 -1.2678
 5489TIP3   OH216472   0.451   3.434   0.322 -0.0311 -0.3244  0.5578
 5489TIP3    H116473   0.461   3.484   0.241  0.5209  0.1340  0.8972
 5489TIP3    H216474   0.433   3.345   0.293  2.2688 -0.6372 -0.1204
 5490TIP3   OH216475   2.658   3.292   4.696  0.9763 -0.3846 -0.2866
 5490TIP3    H116476   2.638   3.268   4.787  2.5916 -0.2679  0.1337
 5490TIP3    H216477   2.584   3.345   4.669 -2.8360 -5.4439 -1.2565
 5491TIP3   OH216478   4.047   3.949   4.227 -0.6773  0.0125 -0.2916
 5491TIP3    H116479   4.015   4.012   4.163  0.1715 -0.0998 -0.8341
 5491TIP3    H216480   4.018   3.864   4.194  0.1079 -0.0827 -0.7452
 5492TIP3   OH216481   0.919   0.324   1.067  0.0444 -0.3712 -0.8184
 5492TIP3    H116482   0.852   0.392   1.061  0.0145 -0.1772  1.0430
 5492TIP3    H216483   0.952   0.330   1.157  1.4837 -1.4816 -1.2240
 5493TIP3   OH216484   3.097   3.123   0.882  0.0914  0.3736  1.3394
 5493TIP3    H116485   3.013   3.140   0.924  0.2235  1.3240  1.2431
 5493TIP3    H216486   3.159   3.113   0.955  0.1931  1.3400  1.4040
 5494TIP3   OH216487   0.676   4.926   4.872  0.3616 -0.0433 -0.3657
 5494TIP3    H116488   0.604   4.917   4.809 -0.4200  2.0988  0.1416
 5494TIP3    H216489   0.738   4.986   4.829 -0.5071  2.0012  1.0830
 5495TIP3   OH216490   5.399   2.501   1.748 -0.3946 -0.3130 -0.1898
 5495TIP3    H116491   5.487   2.498   1.785 -0.3451 -2.0447 -0.3736
 5495TIP3    H216492   5.344   2.460   1.815 -1.0140  0.4736 -0.2110
 5496TIP3   OH216493   5.850   5.415   2.859 -0.3947 -0.0162 -0.0626
 5496TIP3    H116494   5.829   5.485   2.797  1.7194 -1.2006 -2.3306
 5496TIP3    H216495   5.789   5.344   2.837 -1.1860  0.3658  0.8463
 5497TIP3   OH216496   4.738   0.826   0.022 -0.3275  0.1459 -0.3030
 5497TIP3    H116497   4.732   0.848   0.115  1.1518 -1.8271  0.3164
 5497TIP3    H216498   4.705   0.904  -0.023 -0.1711  1.5254  1.8369
 5498TIP3   OH216499   1.367   0.652   0.330 -0.0355 -0.0817  0.3337
 5498TIP3    H116500   1.308   0.587   0.293 -0.1623  0.4588 -0.4278
 5498TIP3    H216501   1.398   0.612   0.412  0.8123 -1.6143 -0.6957
 5499TIP3   OH216502   2.506   2.853   3.508  0.2078 -0.1075 -0.2779
 5499TIP3    H116503   2.581   2.910   3.494  0.6637 -0.2835  1.3040
 5499TIP3    H216504   2.512   2.826   3.599 -0.8995 -1.4036 -0.5477
 5500TIP3   OH216505   3.847   4.625   2.704 -0.0836 -0.4811  0.3338
 5500TIP3    H116506   3.917   4.608   2.767 -1.8960 -0.7748  2.3882
 5500TIP3    H216507   3.811   4.709   2.730  0.6427  0.5737 -1.8732
 5501TIP3   OH216508   3.139   0.976   3.913 -0.0802 -0.2758 -0.0742
 5501TIP3    H116509   3.161   0.931   3.995 -2.6424  0.0404  0.8701
 5501TIP3    H216510   3.100   1.058   3.941 -1.2492 -0.2720 -1.6026
 5502TIP3   OH216511   1.859   1.387   0.944 -0.0894  0.5615 -0.3291
 5502TIP3    H116512   1.929   1.406   0.882 -0.9141  1.1031 -1.1218
 5502TIP3    H216513   1.904   1.358   1.023  0.9925 -0.0043 -1.1250
 5503TIP3   OH216514   3.831   1.969   4.892  0.6134  0.2010  0.4374
 5503TIP3    H116515   3.809   2.017   4.972  3.0597 -0.9900  1.9781
 5503TIP3    H216516   3.864   1.885   4.924 -0.9731 -1.4953 -2.0204
 5504TIP3   OH216517   4.497   4.482   1.433 -0.0438  0.4740 -0.0169
 5504TIP3    H116518   4.411   4.442   1.422  0.7055 -1.1340 -0.2398
 5504TIP3    H216519   4.559   4.414   1.408  1.3159  1.4865  0.4752
 5505TIP3   OH216520   1.500   0.477   1.475  0.6736  0.1490  0.0370
 5505TIP3    H116521   1.490   0.402   1.534  1.5364  0.0233  0.0447
 5505TIP3    H216522   1.566   0.448   1.411 -0.0954  0.3563 -0.8785
 5506TIP3   OH216523   0.870   1.259   2.806 -0.1497  0.0018 -0.3256
 5506TIP3    H116524   0.811   1.229   2.876 -0.5527 -0.5076 -0.8690
 5506TIP3    H216525   0.812   1.273   2.731  0.4074 -0.3438 -0.8232
 5507TIP3   OH216526   0.968   0.212   2.953 -0.0667  0.1067  0.2654
 5507TIP3    H116527   1.026   0.139   2.975 -3.2955 -1.7557  3.6007
 5507TIP3    H216528   1.016   0.290   2.980  1.9069 -1.0668  0.3270
 5508TIP3   OH216529   3.623   2.580   5.080  0.1258 -0.2913  0.2851
 5508TIP3    H116530   3.572   2.657   5.105  0.6825  0.2148 -0.0914
 5508TIP3    H216531   3.681   2.612   5.010 -0.8476 -1.4616 -1.1193
 5509TIP3   OH216532   4.125   1.286   1.250  0.3325  0.7043 -0.3854
 5509TIP3    H116533   4.076   1.351   1.299  1.2905  0.4780  0.9100
 5509TIP3    H216534   4.162   1.228   1.316  0.9178 -0.1511 -1.4184
 5510TIP3   OH216535   1.859   5.661   5.101  0.6374 -0.4424  0.0002
 5510TIP3    H116536   1.904   5.737   5.138 -1.1742 -0.1722  1.8410
 5510TIP3    H216537   1.811   5.623   5.174 -2.9340 -0.0773 -1.8826
 5511TIP3   OH216538   2.535   5.157   0.462  0.3736  0.3604  0.5646
 5511TIP3    H116539   2.594   5.161   0.538  1.3042  2.1923 -0.1886
 5511TIP3    H216540   2.590   5.123   0.391  0.2494  1.0457  0.1254
 5512TIP3   OH216541   3.820   4.311   4.713 -0.0856 -0.4031 -0.2826
 5512TIP3    H116542   3.801   4.397   4.676 -0.6923 -0.4266 -0.0365
 5512TIP3    H216543   3.752   4.254   4.678 -1.2299 -0.2342  1.5521
 5513TIP3   OH216544   5.443   3.312   0.225 -0.4717  0.0750  0.2048
 5513TIP3    H116545   5.427   3.262   0.145 -0.8758  0.1978  0.2096
 5513TIP3    H216546   5.537   3.300   0.242 -0.7011 -1.2980  0.6194
 5514TIP3   OH216547   2.485   2.165   2.328 -0.3701  0.2962 -0.2234
 5514TIP3    H116548   2.412   2.217   2.362 -0.3872  1.0984 -1.4192
 5514TIP3    H216549   2.535   2.227   2.274 -0.1872 -0.8392 -1.3898
 5515TIP3   OH216550   0.128   3.682   1.309  0.2830  0.0128 -0.4296
 5515TIP3    H116551   0.134   3.730   1.226 -0.7314 -0.3844 -0.7551
 5515TIP3    H216552   0.163   3.595   1.288 -0.5328 -0.2828 -0.6259
 5516TIP3   OH216553   5.510   1.999   4.093  0.3386 -0.2959 -0.6557
 5516TIP3    H116554   5.458   1.960   4.163 -0.0137 -0.0472 -0.7794
 5516TIP3    H216555   5.526   2.089   4.121 -1.0312  0.2534 -1.5441
 5517TIP3   OH216556   5.742   4.303  -0.017  0.6943  0.3676  0.7104
 5517TIP3    H116557   5.746   4.360   0.060  1.1527 -1.4007  2.0577
 5517TIP3    H216558   5.680   4.235   0.006 -0.1669  0.5003 -1.0350
 5518TIP3   OH216559   2.881   1.352   0.230  0.2843  0.3474  0.5787
 5518TIP3    H116560   2.907   1.414   0.298  0.6077  0.1448  0.6415
 5518TIP3    H216561   2.825   1.289   0.275  1.4626 -0.4729  0.9248
 5519TIP3   OH216562   0.087   5.137   0.244  0.3020  0.5534 -0.1236
 5519TIP3    H116563   0.090   5.088   0.162 -0.2674  0.8584 -0.3407
 5519TIP3    H216564   0.008   5.105   0.288  1.7180 -1.1393  1.3148
 5520TIP3   OH216565   5.830   4.407   2.773  0.0670  0.0212 -0.4495
 5520TIP3    H116566   5.791   4.481   2.727 -0.3385  0.0940  0.0006
 5520TIP3    H216567   5.863   4.445   2.855 -0.3309 -0.3323 -0.1242
 5521TIP3   OH216568   4.024   1.041   3.383  0.6291 -0.6905 -0.2732
 5521TIP3    H116569   4.021   1.121   3.435  0.6143 -1.2418  0.5884
 5521TIP3    H216570   4.062   0.975   3.442  1.1231 -1.1964 -1.1347
 5522TIP3   OH216571   3.939   1.119   2.110 -0.2172  0.2587 -0.1215
 5522TIP3    H116572   3.988   1.047   2.150 -0.1202 -0.4149 -1.3887
 5522TIP3    H216573   3.868   1.076   2.063  0.1084  0.9383 -1.2744
 5523TIP3   OH216574   6.217   0.661   2.997 -0.2073  0.4991 -0.2481
 5523TIP3    H116575   6.222   0.653   2.902 -1.7571  1.4497 -0.4362
 5523TIP3    H216576   6.155   0.593   3.024  0.0305  0.4018  0.0665
 5524TIP3   OH216577   5.256   1.671   0.761  0.3035  0.1949 -0.1516
 5524TIP3    H116578   5.197   1.675   0.686  1.8041 -0.9483 -1.4711
 5524TIP3    H216579   5.344   1.665   0.722  1.0804 -1.0795  1.6731
 5525TIP3   OH216580   0.400   3.445   3.536 -0.3317  0.6449  0.5399
 5525TIP3    H116581   0.324   3.439   3.593  0.2870 -1.0682  1.2702
 5525TIP3    H216582   0.424   3.354   3.520  1.6238  1.1455  0.4200
 5526TIP3   OH216583   0.253   2.365   0.393  0.8198  0.2279  0.2010
 5526TIP3    H116584   0.279   2.381   0.303 -0.2624  0.7295 -0.0450
 5526TIP3    H216585   0.174   2.310   0.386  0.8246  0.1281  0.8433
 5527TIP3   OH216586   3.763   5.649   2.680 -0.1386 -0.4337  0.2432
 5527TIP3    H116587   3.669   5.631   2.672  0.2790 -1.8948 -2.5410
 5527TIP3    H216588   3.768   5.723   2.741 -3.2719  1.3651 -1.4364
 5528TIP3   OH216589   4.708   3.716   5.173 -0.3322 -0.3543  0.0704
 5528TIP3    H116590   4.764   3.649   5.133  1.5381  0.6584  0.8610
 5528TIP3    H216591   4.669   3.672   5.249  1.3320 -0.4619  0.9215
 5529TIP3   OH216592   5.056   0.677   2.427  0.0257  0.0249  0.2411
 5529TIP3    H116593   4.983   0.710   2.479 -0.5429 -0.0338 -0.4970
 5529TIP3    H216594   5.027   0.688   2.336  0.8252 -0.2540 -0.0565
 5530TIP3   OH216595   4.004   2.597   3.036 -0.7302  0.0946  0.1842
 5530TIP3    H116596   4.028   2.669   3.095 -0.5594 -0.3777  0.6935
 5530TIP3    H216597   3.909   2.593   3.040 -0.6845 -0.3442  0.9199
 5531TIP3   OH216598   0.346   3.490   2.963 -0.2348 -0.2096 -0.5767
 5531TIP3    H116599   0.308   3.523   2.881 -0.2883 -1.2149 -0.9663
 5531TIP3    H216600   0.284   3.424   2.993  0.2199 -0.4571 -0.1746
 5532TIP3   OH216601   1.158   2.754   1.182 -0.5153  0.0735  0.5346
 5532TIP3    H116602   1.112   2.837   1.174  0.2866  0.5030  0.2546
 5532TIP3    H216603   1.117   2.697   1.116 -1.0732  0.2324  0.7369
 5533TIP3   OH216604   4.946   3.777   1.176 -0.2210  0.1746  0.7137
 5533TIP3    H116605   4.953   3.766   1.081  0.8668  0.7442  0.7059
 5533TIP3    H216606   4.888   3.853   1.187  0.5610  0.8300  0.4498
 5534TIP3   OH216607   1.106   2.318   1.302  0.0236  1.0337 -0.4315
 5534TIP3    H116608   1.145   2.302   1.388  1.0720 -1.3201 -1.2590
 5534TIP3    H216609   1.159   2.388   1.264  0.8197  0.7213  0.0813
 5535TIP3   OH216610   5.821   4.453   1.963  0.1419  0.0961 -0.4318
 5535TIP3    H116611   5.873   4.519   2.009  0.7288 -0.6199 -0.0592
 5535TIP3    H216612   5.730   4.476   1.983  0.3696  0.2600  0.4439
 5536TIP3   OH216613   2.470   3.608   4.883 -0.3330 -0.0607 -0.1715
 5536TIP3    H116614   2.466   3.513   4.875  2.5783 -0.2439 -0.6086
 5536TIP3    H216615   2.480   3.640   4.794 -0.4538  0.5884  0.0424
 5537TIP3   OH216616   5.484   2.802   1.445  0.3362  0.0112 -0.6335
 5537TIP3    H116617   5.433   2.766   1.518  0.4285  2.5385  0.7969
 5537TIP3    H216618   5.542   2.731   1.419 -1.3656 -1.7450  0.1485
 5538TIP3   OH216619   1.493   4.362   0.059 -0.3256  0.3448  0.0953
 5538TIP3    H116620   1.429   4.420   0.017 -2.6440 -2.3935 -0.4927
 5538TIP3    H216621   1.476   4.372   0.153 -1.8028 -0.4212 -0.0507
 5539TIP3   OH216622   4.364   2.147   5.031 -0.4346 -0.1199  0.5251
 5539TIP3    H116623   4.434   2.197   4.990 -0.3286 -1.0124 -0.4398
 5539TIP3    H216624   4.405   2.103   5.105 -0.2035  0.1416  0.5522
 5540TIP3   OH216625   1.795   2.904   0.933 -0.3096 -0.1581 -0.7730
 5540TIP3    H116626   1.810   2.827   0.879 -0.4405  0.1059 -1.1926
 5540TIP3    H216627   1.784   2.975   0.870 -1.2789  0.0098 -0.4276
 5541TIP3   OH216628   3.990   5.466   3.192  0.0221  0.3422  0.1853
 5541TIP3    H116629   3.937   5.387   3.191 -0.7089  0.8255  0.1416
 5541TIP3    H216630   3.952   5.522   3.124 -1.3959  1.9685  2.1900
 5542TIP3   OH216631   5.168   0.106   2.211  0.1132 -0.0765 -0.1143
 5542TIP3    H116632   5.089   0.067   2.248  0.2402 -0.5795 -0.3617
 5542TIP3    H216633   5.168   0.077   2.120  0.8500 -0.5039  0.0191
 5543TIP3   OH216634   1.993   2.929   3.638  0.1942  0.1201  0.0197
 5543TIP3    H116635   1.938   2.981   3.696 -0.9088 -0.5329 -0.4112
 5543TIP3    H216636   2.051   2.881   3.696 -1.4327 -1.1409  0.6653
 5544TIP3   OH216637   4.388   4.499   2.697 -0.2582 -0.3335  0.0227
 5544TIP3    H116638   4.366   4.457   2.614  0.9507  0.8683 -0.9646
 5544TIP3    H216639   4.385   4.593   2.677  0.9342 -0.0449  1.0927
 5545TIP3   OH216640   6.305   5.329   3.156  0.4520 -0.2989  0.2718
 5545TIP3    H116641   6.210   5.320   3.170  0.5025 -0.9940  0.2428
 5545TIP3    H216642   6.315   5.321   3.061  0.5401 -0.2554  0.2780
 5546TIP3   OH216643   4.398   5.516   0.578 -0.2074 -0.0232  1.0421
 5546TIP3    H116644   4.448   5.437   0.600 -2.6926 -2.0888 -0.1613
 5546TIP3    H216645   4.464   5.584   0.566  2.3829 -2.6384 -0.8972
 5547TIP3   OH216646   6.101   4.995   1.263  0.2093 -0.1555 -0.1167
 5547TIP3    H116647   6.105   4.960   1.352  0.9240  0.1097 -0.0370
 5547TIP3    H216648   6.144   4.929   1.209  0.2390 -0.0797 -0.1862
 5548TIP3   OH216649   1.234   4.436   1.014 -0.6043 -0.0316 -0.4239
 5548TIP3    H116650   1.226   4.513   0.958 -0.3848  0.0212 -0.3850
 5548TIP3    H216651   1.160   4.381   0.990 -1.4881  0.7386  0.4142
 5549TIP3   OH216652   4.894   1.648   2.884  0.8241  0.0455 -0.7152
 5549TIP3    H116653   4.903   1.583   2.953  2.1380  1.3305  0.3990
 5549TIP3    H216654   4.806   1.684   2.895  0.7727 -0.2468 -0.1430
 5550TIP3   OH216655   2.086   3.787   5.155 -0.5655  0.3068 -0.3739
 5550TIP3    H116656   2.179   3.766   5.146 -0.1857  2.4096 -2.1284
 5550TIP3    H216657   2.044   3.743   5.081 -0.7227  0.7454 -0.5427
 5551TIP3   OH216658   5.471   1.968   1.876  0.2444  0.6213 -0.2886
 5551TIP3    H116659   5.525   2.044   1.855  0.7637 -0.1402 -1.9113
 5551TIP3    H216660   5.465   1.920   1.793  0.0031 -1.1583  0.7152
 5552TIP3   OH216661   1.422   4.716   2.758  0.1491  0.6022  0.1592
 5552TIP3    H116662   1.441   4.799   2.801 -0.6381  0.6391  0.4567
 5552TIP3    H216663   1.404   4.739   2.667  0.3361  0.7019  0.1464
 5553TIP3   OH216664   3.084   2.163   2.105  0.4057  0.1406 -0.1906
 5553TIP3    H116665   3.043   2.194   2.024 -0.3304 -1.0411 -0.2903
 5553TIP3    H216666   3.178   2.173   2.090  0.2421  1.0163 -0.7290
 5554TIP3   OH216667   3.708   3.845   4.407 -0.3325  0.5088  0.1744
 5554TIP3    H116668   3.640   3.779   4.423 -0.4187  0.0248 -1.9189
 5554TIP3    H216669   3.698   3.867   4.315  1.9280  0.9135 -0.0156
 5555TIP3   OH216670   2.123   5.002   3.821 -0.5858  0.0429 -0.4974
 5555TIP3    H116671   2.166   4.977   3.903  1.1848  1.7002 -0.8351
 5555TIP3    H216672   2.165   4.946   3.755 -2.2257 -1.5064 -0.2933
 5556TIP3   OH216673   3.183   4.125   0.894  0.3402 -0.2058  0.4167
 5556TIP3    H116674   3.089   4.126   0.874  0.6100  1.0596 -1.0090
 5556TIP3    H216675   3.189   4.087   0.982 -1.6232  0.8782  1.0789
 5557TIP3   OH216676   1.331   1.135   1.303  0.0460 -0.7093 -0.0370
 5557TIP3    H116677   1.397   1.188   1.349 -1.1184  0.3489  0.4652
 5557TIP3    H216678   1.248   1.159   1.344 -0.5329 -3.0002  0.2432
 5558TIP3   OH216679   0.600   0.326   3.836 -0.6505 -0.5751 -0.1302
 5558TIP3    H116680   0.524   0.304   3.890 -0.7279  0.4385  0.2070
 5558TIP3    H216681   0.566   0.331   3.747 -1.0832  0.2309  0.0640
 5559TIP3   OH216682   5.224   4.251   2.661 -0.7701  0.4744  0.0325
 5559TIP3    H116683   5.157   4.276   2.724 -2.2928 -1.6659 -0.6032
 5559TIP3    H216684   5.305   4.288   2.695 -1.5253 -0.4824  3.2168
 5560TIP3   OH216685   0.756   4.320   4.128  0.0472  0.1950  0.0035
 5560TIP3    H116686   0.774   4.387   4.063 -1.0696  1.2605  0.7569
 5560TIP3    H216687   0.661   4.315   4.133  0.0926 -1.3928  0.0427
 5561TIP3   OH216688   1.755   1.616   0.201 -0.1762  0.4371 -0.0798
 5561TIP3    H116689   1.786   1.551   0.264 -0.6252 -0.4923 -0.8085
 5561TIP3    H216690   1.775   1.579   0.116  0.3828  1.6702 -0.5127
 5562TIP3   OH216691   2.872   5.084   3.477  0.1130  0.2909  0.3703
 5562TIP3    H116692   2.884   5.120   3.565  1.0604  1.0790 -0.0583
 5562TIP3    H216693   2.786   5.118   3.450  0.1228  0.6109  0.7225
 5563TIP3   OH216694   0.601   5.622   4.089 -0.1225  0.1867 -0.4558
 5563TIP3    H116695   0.586   5.673   4.169 -0.1096 -1.2992  0.5319
 5563TIP3    H216696   0.694   5.634   4.070  0.3172 -0.9017  0.8384
 5564TIP3   OH216697   2.475   0.484   2.311 -0.2921 -0.2861  0.1853
 5564TIP3    H116698   2.536   0.531   2.254 -0.6437 -0.3648 -0.2498
 5564TIP3    H216699   2.461   0.543   2.385  1.7203 -0.9719  1.2069
 5565TIP3   OH216700   5.717   2.816   4.074 -0.3825 -0.5799  0.3824
 5565TIP3    H116701   5.627   2.787   4.090 -1.4670  1.8745 -0.7008
 5565TIP3    H216702   5.718   2.907   4.102  2.0159 -0.7246  0.9881
 5566TIP3   OH216703   2.249   0.244   3.250 -0.0413 -0.3422  0.1525
 5566TIP3    H116704   2.178   0.180   3.251 -0.9458  0.6215 -0.5102
 5566TIP3    H216705   2.205   0.328   3.259  0.8579  0.3975 -1.8372
 5567TIP3   OH216706   1.408   5.654   0.969 -0.1588  0.1779  0.1958
 5567TIP3    H116707   1.367   5.624   0.888  2.8969 -0.7328 -1.1579
 5567TIP3    H216708   1.377   5.744   0.980 -2.9836 -0.6466 -0.2735
 5568TIP3   OH216709   0.784   2.798   3.259 -0.4679 -0.0428  0.0424
 5568TIP3    H116710   0.764   2.886   3.291 -0.2553 -0.0530  0.2077
 5568TIP3    H216711   0.710   2.775   3.203 -0.7374  0.0646  0.3519
 5569TIP3   OH216712   2.867   2.534   1.546 -0.0332  0.6519 -0.4785
 5569TIP3    H116713   2.827   2.467   1.491  1.2309 -0.1914 -0.4063
 5569TIP3    H216714   2.885   2.490   1.629  0.9404  1.0310 -0.4732
 5570TIP3   OH216715   4.055   5.048   1.641  0.2501  0.0623 -0.3812
 5570TIP3    H116716   4.030   4.964   1.678 -1.4515  1.3301  1.5199
 5570TIP3    H216717   4.151   5.047   1.643  0.2798 -0.6368  2.5901
 5571TIP3   OH216718   5.264   3.578   3.524  0.0144 -0.2153 -0.1814
 5571TIP3    H116719   5.285   3.586   3.617 -0.9901  1.3100 -0.0537
 5571TIP3    H216720   5.193   3.513   3.522 -0.0702 -0.1374  0.1334
 5572TIP3   OH216721   2.670   1.379   3.882  0.0792  0.4296 -0.4559
 5572TIP3    H116722   2.619   1.423   3.950 -1.9625 -0.0185 -1.6181
 5572TIP3    H216723   2.727   1.319   3.930 -1.5377 -0.0999  0.8644
 5573TIP3   OH216724   5.615   2.313   0.173 -0.2944 -0.5761 -0.5910
 5573TIP3    H116725   5.566   2.383   0.217  0.7400 -0.5014  0.4937
 5573TIP3    H216726   5.548   2.264   0.126 -1.4220 -0.4364  0.7882
 5574TIP3   OH216727   1.820   2.693   3.257 -0.0933  0.7141  0.4456
 5574TIP3    H116728   1.825   2.758   3.187  2.9968 -0.7081 -0.8625
 5574TIP3    H216729   1.867   2.734   3.330 -1.4545  1.3682  0.9768
 5575TIP3   OH216730   4.903   3.465   4.136  0.6170  0.2632 -0.0451
 5575TIP3    H116731   4.820   3.429   4.106  0.9169  0.4793 -1.1754
 5575TIP3    H216732   4.968   3.432   4.074  1.1288  1.4372 -0.1669
 5576TIP3   OH216733   5.398   1.114   3.887 -0.0391 -0.1711 -0.2756
 5576TIP3    H116734   5.423   1.075   3.803 -1.0617  1.7682 -1.5753
 5576TIP3    H216735   5.481   1.135   3.930  0.5470  0.4510 -1.6581
 5577TIP3   OH216736   0.487   5.870   3.982  0.7226 -0.1914 -0.4847
 5577TIP3    H116737   0.430   5.840   4.053  0.7395 -1.3884 -0.9552
 5577TIP3    H216738   0.429   5.883   3.907  1.0509 -1.5394 -1.0026
 5578TIP3   OH216739   5.169   1.325   1.088 -0.1361  0.1148 -0.0929
 5578TIP3    H116740   5.090   1.286   1.124 -0.3064 -1.1842 -1.7805
 5578TIP3    H216741   5.138   1.388   1.023  0.1334 -2.2844 -2.7005
 5579TIP3   OH216742   5.622   2.796   0.509 -0.1670  0.3742  0.2555
 5579TIP3    H116743   5.526   2.788   0.507 -0.1646  0.0087  1.3901
 5579TIP3    H216744   5.643   2.811   0.601  0.8420  0.9183 -0.0520
 5580TIP3   OH216745   4.815   5.209   2.843  1.5153  0.6125 -0.1804
 5580TIP3    H116746   4.864   5.133   2.810  2.2582  1.1398 -0.3358
 5580TIP3    H216747   4.782   5.181   2.928  0.8170 -0.2696 -0.7279
 5581TIP3   OH216748   6.255   5.331   2.323 -0.5189  0.6366  0.1532
 5581TIP3    H116749   6.233   5.331   2.230  0.6882  2.8267 -0.2027
 5581TIP3    H216750   6.210   5.407   2.359 -0.3988  0.2279  1.2092
 5582TIP3   OH216751   3.157   4.683   2.574  0.9094  0.1534 -0.2417
 5582TIP3    H116752   3.113   4.671   2.658  1.8166  0.1509  0.2484
 5582TIP3    H216753   3.220   4.611   2.569 -0.1281 -0.7167 -1.6079
 5583TIP3   OH216754   0.204   5.442   0.528  0.4445  0.0825  0.4426
 5583TIP3    H116755   0.164   5.429   0.614 -2.1400 -0.3318 -0.7444
 5583TIP3    H216756   0.134   5.427   0.466  2.9989 -3.2588 -1.9990
 5584TIP3   OH216757   2.964   5.017   2.855 -0.1048 -0.3438  0.2810
 5584TIP3    H116758   3.017   5.091   2.822 -0.1878 -0.3447  0.1433
 5584TIP3    H216759   2.915   5.054   2.928 -0.1991 -0.2438  0.1672
 5585TIP3   OH216760   3.416   3.489   0.660  0.5017  0.0385  0.8125
 5585TIP3    H116761   3.427   3.474   0.754 -0.5066  0.0054  0.9455
 5585TIP3    H216762   3.365   3.414   0.630  1.2936 -0.2256  0.1293
 5586TIP3   OH216763   0.088   0.805   2.611 -0.6020  0.1046  0.4822
 5586TIP3    H116764   0.144   0.837   2.540 -0.7748  0.1227  0.3536
 5586TIP3    H216765   0.117   0.715   2.626 -2.6181 -1.0145 -1.7421
 5587TIP3   OH216766   1.984   5.648   1.922 -0.2332 -0.0729 -0.0599
 5587TIP3    H116767   1.931   5.693   1.856  0.5252  0.4380 -0.3211
 5587TIP3    H216768   1.975   5.555   1.900  1.1377  0.1515 -1.7718
 5588TIP3   OH216769   4.290   4.508   4.569  0.0968 -1.0395 -0.7432
 5588TIP3    H116770   4.331   4.588   4.602  0.1055 -1.6819  0.8768
 5588TIP3    H216771   4.201   4.534   4.546  0.4305 -0.3368 -1.2954
 5589TIP3   OH216772   6.020   1.302   0.462  0.4999  0.0045  0.2828
 5589TIP3    H116773   5.927   1.295   0.481  0.4974 -0.4849  0.1100
 5589TIP3    H216774   6.036   1.236   0.395  0.2838  2.3636 -2.3080
 5590TIP3   OH216775   4.057   3.701   3.065 -0.0754  0.3876  0.1711
 5590TIP3    H116776   3.984   3.647   3.094 -0.7357 -0.3162 -2.5497
 5590TIP3    H216777   4.061   3.688   2.971  2.9522  1.2165  0.0785
 5591TIP3   OH216778   1.411   5.647   2.534  0.2745 -0.1217  0.0007
 5591TIP3    H116779   1.389   5.590   2.608  1.0369  0.2357  0.5173
 5591TIP3    H216780   1.328   5.664   2.491 -0.4996  1.1871  1.8888
 5592TIP3   OH216781   4.130   3.670   2.073 -0.3808 -0.1340 -0.1033
 5592TIP3    H116782   4.084   3.754   2.078 -0.0355  0.0987 -0.7015
 5592TIP3    H216783   4.174   3.672   1.988 -0.2581 -0.8651 -0.0641
 5593TIP3   OH216784   1.659   4.103   5.036  0.2655  0.2180  0.3892
 5593TIP3    H116785   1.691   4.167   4.972 -2.2521  0.7793 -0.4239
 5593TIP3    H216786   1.667   4.019   4.992 -0.6772  0.5154 -0.4120
 5594TIP3   OH216787   3.520   1.112   2.369  0.3531  0.3227  0.0484
 5594TIP3    H116788   3.463   1.072   2.435  1.4121  0.6506  1.2006
 5594TIP3    H216789   3.476   1.194   2.347 -0.3159 -0.0694 -0.1110
 5595TIP3   OH216790   2.558   1.789   2.652  0.3553  0.2583  0.5045
 5595TIP3    H116791   2.513   1.712   2.618  3.1092 -1.3616  0.2320
 5595TIP3    H216792   2.499   1.862   2.633 -2.1856 -1.6996  0.4243
 5596TIP3   OH216793   4.849   0.699   1.253  0.3136  0.0197  0.1479
 5596TIP3    H116794   4.849   0.611   1.290  1.8707 -0.7472 -1.5386
 5596TIP3    H216795   4.889   0.689   1.167 -0.9669  2.1235 -0.7725
 5597TIP3   OH216796   0.564   1.082   0.218 -0.2023 -0.1578 -0.0336
 5597TIP3    H116797   0.598   0.994   0.200  0.7874  0.4194 -1.0756
 5597TIP3    H216798   0.570   1.091   0.313  0.1362 -1.0406  0.0382
 5598TIP3   OH216799   1.286   3.157   1.066 -0.2394 -1.2982 -0.2568
 5598TIP3    H116800   1.202   3.121   1.095 -0.3107  0.8738  2.6560
 5598TIP3    H216801   1.350   3.089   1.088 -0.9850 -2.1532 -0.6474
 5599TIP3   OH216802   2.013   4.953   2.171 -0.3576  0.1327  0.3842
 5599TIP3    H116803   1.989   5.022   2.232 -2.2317  0.5795 -0.7854
 5599TIP3    H216804   1.930   4.917   2.140  0.5381 -0.8946 -0.9749
 5600TIP3   OH216805   6.041   3.874   3.026  0.2414  0.3855 -0.0012
 5600TIP3    H116806   6.062   3.799   3.082 -0.9359 -0.3578 -0.5197
 5600TIP3    H216807   5.959   3.908   3.062  0.1595  0.7133 -0.4959
 5601TIP3   OH216808   2.521   4.269   3.076 -0.2309 -0.4785 -0.1447
 5601TIP3    H116809   2.523   4.177   3.050 -0.7048 -0.5534  0.0830
 5601TIP3    H216810   2.442   4.304   3.036  0.0963 -0.0987 -0.4607
 5602TIP3   OH216811   5.321   5.471   3.866  0.6475 -0.4133 -0.3549
 5602TIP3    H116812   5.354   5.530   3.798  1.6179  0.1564  0.5890
 5602TIP3    H216813   5.309   5.387   3.821  0.3971  0.1789 -1.4270
 5603TIP3   OH216814   2.459   0.154   0.768 -0.2235 -0.1392 -0.0970
 5603TIP3    H116815   2.399   0.127   0.699 -0.5926 -3.1655  1.2483
 5603TIP3    H216816   2.480   0.073   0.814  2.4265  1.2953  1.4528
 5604TIP3   OH216817   4.427   5.522   3.631  0.3400  0.7825 -0.5320
 5604TIP3    H116818   4.338   5.554   3.636  1.4210  4.0745  0.1281
 5604TIP3    H216819   4.442   5.503   3.538 -0.1409  3.2140 -1.1485
 5605TIP3   OH216820   6.043   4.357   1.835  0.4530  0.2051 -0.3500
 5605TIP3    H116821   5.950   4.373   1.848  0.6141  2.2096 -1.2895
 5605TIP3    H216822   6.081   4.365   1.922 -0.3120 -1.3211  0.1514
 5606TIP3   OH216823   5.757   5.670   1.330  0.0418  0.6831  0.5916
 5606TIP3    H116824   5.816   5.600   1.302  0.9514  1.5368  0.3113
 5606TIP3    H216825   5.683   5.664   1.271 -0.0121 -0.2021  0.7365
 5607TIP3   OH216826   2.449   2.049   0.848 -0.0928  0.2546 -0.8623
 5607TIP3    H116827   2.415   2.027   0.761  1.2859 -1.3982 -1.0394
 5607TIP3    H216828   2.434   1.969   0.900  3.7905 -0.8193 -1.0943
 5608TIP3   OH216829   2.855   4.002   1.219 -0.1110 -0.3610  0.2511
 5608TIP3    H116830   2.856   3.972   1.310 -1.3862 -0.6708  0.1803
 5608TIP3    H216831   2.819   3.928   1.170 -1.2920  0.4933 -0.2196
 5609TIP3   OH216832   3.523   2.272   1.091  0.2814 -0.3907 -0.3063
 5609TIP3    H116833   3.603   2.220   1.089  1.2321  1.0098 -0.8106
 5609TIP3    H216834   3.489   2.261   1.180  1.4377 -0.4498  0.1505
 5610TIP3   OH216835   5.778   1.895   1.599  0.1585  0.0962  0.3575
 5610TIP3    H116836   5.707   1.846   1.642  0.8013 -2.1301 -0.9181
 5610TIP3    H216837   5.763   1.879   1.505  0.5975  2.1913 -0.1133
 5611TIP3   OH216838   2.390   5.910   0.091  0.0226 -0.4601 -0.2408
 5611TIP3    H116839   2.482   5.912   0.119 -0.4618 -0.9419  1.4604
 5611TIP3    H216840   2.343   5.961   0.157 -1.2728 -2.2518  0.2873
 5612TIP3   OH216841   1.349   5.736   1.314 -0.5398 -0.2031 -0.3909
 5612TIP3    H116842   1.439   5.720   1.287 -0.7321 -1.0743 -0.5510
 5612TIP3    H216843   1.301   5.749   1.232 -0.6414 -0.2195 -0.3347
 5613TIP3   OH216844   3.109   1.298   2.728 -0.6100 -0.2388  0.2474
 5613TIP3    H116845   3.114   1.324   2.820  1.2691 -2.0626  0.7219
 5613TIP3    H216846   3.044   1.228   2.727 -0.4743 -0.3644  0.2258
 5614TIP3   OH216847   0.545  -0.021   1.612  0.1438 -0.0246  0.1017
 5614TIP3    H116848   0.550   0.075   1.610  1.9514 -0.1064 -0.6505
 5614TIP3    H216849   0.479  -0.042   1.546  1.1851  0.6524 -1.2025
 5615TIP3   OH216850   3.601   0.982   1.186  0.3901  0.1255  0.3003
 5615TIP3    H116851   3.629   0.978   1.095  0.6722 -0.2961  0.3995
 5615TIP3    H216852   3.642   1.061   1.220  0.2249  0.3222  0.0442
 5616TIP3   OH216853   0.551   2.523   3.160 -0.1496  0.1278 -0.2130
 5616TIP3    H116854   0.600   2.543   3.080  0.4968  0.0713  0.1626
 5616TIP3    H216855   0.501   2.444   3.138  1.6871 -1.2084  0.0899
 5617TIP3   OH216856   4.985   2.330   3.505  0.0678 -0.1103 -0.5865
 5617TIP3    H116857   4.963   2.324   3.598  1.2785  2.3876 -0.0687
 5617TIP3    H216858   4.955   2.247   3.468 -1.0354 -0.8989  1.8928
 5618TIP3   OH216859   5.617   5.395   4.876 -0.0958 -0.5346  0.3525
 5618TIP3    H116860   5.562   5.416   4.951  0.3485 -0.6429  0.7092
 5618TIP3    H216861   5.556   5.357   4.812 -0.6330  0.3550  0.3051
 5619TIP3   OH216862   2.466   5.031   1.572 -0.0446  0.3099 -0.2880
 5619TIP3    H116863   2.430   4.959   1.520  0.7355 -1.2965  1.3051
 5619TIP3    H216864   2.469   4.998   1.661  0.1570  2.4199  0.5598
 5620TIP3   OH216865   3.643   3.506   1.757 -0.5476 -0.5478  0.4940
 5620TIP3    H116866   3.730   3.542   1.770 -0.2986 -1.1596  0.5853
 5620TIP3    H216867   3.601   3.564   1.694 -0.8983  1.0643  2.1340
 5621TIP3   OH216868   0.896   3.339   1.253  0.4691  0.0046 -0.0478
 5621TIP3    H116869   0.937   3.253   1.246  3.7305  1.4977 -1.0570
 5621TIP3    H216870   0.903   3.377   1.165  0.0610  1.6921  0.5946
 5622TIP3   OH216871   2.799   3.662   1.396 -0.3893  0.1099 -0.2190
 5622TIP3    H116872   2.850   3.660   1.477  0.1963  0.9734 -0.5510
 5622TIP3    H216873   2.861   3.635   1.328 -0.0648  2.1235 -0.7674
 5623TIP3   OH216874   0.407   5.702   0.650  0.0962  0.4446  0.2813
 5623TIP3    H116875   0.481   5.740   0.698  0.4151 -0.8911  0.9079
 5623TIP3    H216876   0.447   5.639   0.590 -0.5213 -0.1666  0.5009
 5624TIP3   OH216877   2.520   0.777   1.143 -0.3117 -0.7052  0.2163
 5624TIP3    H116878   2.475   0.725   1.077 -0.0304  0.7885 -1.2339
 5624TIP3    H216879   2.455   0.791   1.212 -0.4784 -2.6429  0.5138
 5625TIP3   OH216880   3.237   2.989   1.761  0.1246 -0.2824 -0.8984
 5625TIP3    H116881   3.321   3.033   1.776  0.1560 -0.4959 -0.3968
 5625TIP3    H216882   3.256   2.897   1.778 -0.0814 -0.4044 -1.3424
 5626TIP3   OH216883   4.106   5.089   2.028  0.0968  0.1796 -0.1991
 5626TIP3    H116884   4.046   5.119   2.097  0.8194 -0.9071  0.9632
 5626TIP3    H216885   4.085   4.997   2.017  1.4653 -0.1919  0.1526
 5627TIP3   OH216886   2.318   5.727   1.625  0.0267 -0.1035 -0.2303
 5627TIP3    H116887   2.333   5.782   1.702 -0.2749 -0.2212 -0.0862
 5627TIP3    H216888   2.250   5.774   1.576 -0.2211 -0.3358 -0.1146
 5628TIP3   OH216889   1.033   2.034   0.568  0.6087  0.1930  0.4049
 5628TIP3    H116890   1.083   2.112   0.545 -0.3824  0.9857  0.8345
 5628TIP3    H216891   1.099   1.969   0.594  1.4243  1.0700  0.5613
 5629TIP3   OH216892   1.861   5.765   2.824 -0.1472  0.1850 -0.1116
 5629TIP3    H116893   1.834   5.712   2.898  1.3818 -0.2724  0.1467
 5629TIP3    H216894   1.784   5.817   2.802 -1.3207 -1.3126  0.3520
 5630TIP3   OH216895   4.284   3.942   2.021 -0.3992 -0.6956 -0.2912
 5630TIP3    H116896   4.192   3.936   2.047 -0.1708 -2.8897  0.1708
 5630TIP3    H216897   4.324   3.996   2.090 -1.2387 -0.0626 -0.2747
 5631TIP3   OH216898   0.343   2.137   4.335  0.1643  0.0897 -0.4530
 5631TIP3    H116899   0.385   2.149   4.420  2.6596  1.5129 -1.7709
 5631TIP3    H216900   0.370   2.213   4.284 -0.7626 -1.0164 -2.7182
 5632TIP3   OH216901   1.534   2.628   2.165  0.3377 -0.2155 -0.6183
 5632TIP3    H116902   1.553   2.722   2.175  0.6098 -0.1078 -1.8599
 5632TIP3    H216903   1.444   2.625   2.132  0.9781 -0.2320 -2.5177
 5633TIP3   OH216904   4.519   4.696   2.113 -0.3260  0.0267 -0.5603
 5633TIP3    H116905   4.453   4.740   2.058  0.4766  0.5933 -1.0962
 5633TIP3    H216906   4.602   4.739   2.089  0.1722 -0.3639  0.4274
 5634TIP3   OH216907   1.878   5.040   1.065  0.0046 -0.1515 -0.0053
 5634TIP3    H116908   1.818   5.114   1.051 -0.5167 -0.4364  0.6351
 5634TIP3    H216909   1.958   5.080   1.098 -0.1948  0.1503  0.1200
 5635TIP3   OH216910   1.280   2.457   0.499 -0.1602  0.6285 -0.1512
 5635TIP3    H116911   1.369   2.472   0.467 -0.2284  0.5131 -0.3943
 5635TIP3    H216912   1.228   2.440   0.421 -0.1086 -0.7665  0.0850
 5636TIP3   OH216913   0.253   3.343   0.658  0.5446 -0.2218 -0.2938
 5636TIP3    H116914   0.239   3.263   0.608 -2.1659 -0.1456  0.1812
 5636TIP3    H216915   0.198   3.333   0.736  2.4634  0.8614  1.3151
 5637TIP3   OH216916   1.916   2.583   2.118 -0.4312  0.2867  0.3863
 5637TIP3    H116917   2.010   2.594   2.130 -0.2299 -0.9877  0.1465
 5637TIP3    H216918   1.880   2.671   2.128  0.7713  0.7808  0.5565
 5638TIP3   OH216919   1.926   5.900   4.396  0.6543  0.5098  0.7594
 5638TIP3    H116920   1.893   5.964   4.333 -0.7691  0.2713  1.2369
 5638TIP3    H216921   1.848   5.870   4.443  1.3856 -1.0556  1.0272
 5639TIP3   OH216922   5.155   3.758   1.412  0.2670  0.7624  0.8426
 5639TIP3    H116923   5.098   3.767   1.335  0.3060  0.6805  0.8044
 5639TIP3    H216924   5.130   3.832   1.468 -1.5575 -0.5672  1.9129
 5640TIP3   OH216925   4.022   1.259   2.700  0.0145 -0.2133  0.1363
 5640TIP3    H116926   4.018   1.258   2.604  0.8221  0.3673  0.0864
 5640TIP3    H216927   3.969   1.184   2.727 -1.9455  0.7901 -0.6762
 5641TIP3   OH216928   3.636   5.725   1.482 -0.1246 -0.4514  0.1108
 5641TIP3    H116929   3.540   5.727   1.481 -0.1555  0.5502  1.7146
 5641TIP3    H216930   3.658   5.666   1.554  0.4753 -0.8729 -0.4076
 5642TIP3   OH216931   5.420   2.477   0.280 -0.3489 -0.5851 -0.0039
 5642TIP3    H116932   5.339   2.450   0.237 -0.1900 -1.1027  0.0213
 5642TIP3    H216933   5.402   2.468   0.373 -0.4162 -0.2561  0.0155
 5643TIP3   OH216934   5.078   3.611   3.943  0.0963  0.4466  0.6433
 5643TIP3    H116935   5.169   3.608   3.913  0.3824 -0.4029  1.5566
 5643TIP3    H216936   5.033   3.544   3.891 -0.0002  0.8461  0.2126
 5644TIP3   OH216937   5.178   2.558   0.636  0.3271 -0.4517  0.2427
 5644TIP3    H116938   5.131   2.584   0.715  0.6596 -0.1127  0.3279
 5644TIP3    H216939   5.205   2.640   0.595 -1.7062 -0.5091 -1.3781
 5645TIP3   OH216940   1.338   6.005   1.379  0.4791  0.2580 -0.1847
 5645TIP3    H116941   1.304   5.928   1.424 -0.4784  0.0336 -1.2326
 5645TIP3    H216942   1.420   6.024   1.423 -0.4187  0.0957  1.6713
 5646TIP3   OH216943   4.583   1.542   4.631 -0.3078  0.1454  0.1202
 5646TIP3    H116944   4.547   1.557   4.544 -0.9434  0.7901  0.4834
 5646TIP3    H216945   4.507   1.533   4.688  0.1033  0.1187  0.6814
 5647TIP3   OH216946   5.449   2.219   1.559  0.0770  0.3470  0.0467
 5647TIP3    H116947   5.513   2.290   1.560  2.0721 -1.3737  0.7826
 5647TIP3    H216948   5.408   2.222   1.645  2.2525 -1.0930  1.2355
 5648TIP3   OH216949   1.730   1.511   1.135  0.5688 -0.3399 -0.3883
 5648TIP3    H116950   1.662   1.573   1.110  0.1220 -0.4477  0.5091
 5648TIP3    H216951   1.752   1.464   1.055  0.0626  0.1621 -0.8219
 5649TIP3   OH216952   5.166   4.939   4.652 -0.7309  0.3353  0.3189
 5649TIP3    H116953   5.200   4.866   4.602 -0.5921  1.4096 -1.2121
 5649TIP3    H216954   5.096   4.901   4.706 -1.4804 -0.7225 -1.3232
 5650TIP3   OH216955   5.754   2.529   2.110  0.1193  0.0566  0.4837
 5650TIP3    H116956   5.798   2.490   2.186  1.3121  1.6281  0.6457
 5650TIP3    H216957   5.823   2.578   2.065 -0.6247 -0.5870 -1.4722
 5651TIP3   OH216958   5.244   3.601   3.253  0.4069 -0.3313  0.4045
 5651TIP3    H116959   5.151   3.584   3.239 -0.5722  3.7208  0.6148
 5651TIP3    H216960   5.253   3.608   3.348  1.2536 -1.8203  0.4676
 5652TIP3   OH216961   5.169   5.020   3.026 -0.1757 -0.0418 -0.4901
 5652TIP3    H116962   5.189   5.002   2.934 -1.2964 -0.5765 -0.6386
 5652TIP3    H216963   5.120   4.944   3.055  1.0174 -0.3384  0.8501
 5653TIP3   OH216964   1.520   1.703   4.688 -0.4971 -0.0395 -0.2816
 5653TIP3    H116965   1.498   1.677   4.598 -1.2688  0.3116 -0.1997
 5653TIP3    H216966   1.460   1.654   4.743 -0.0226 -0.2541  0.0499
 5654TIP3   OH216967   4.492   0.218   4.315 -1.1136 -0.1579  0.3926
 5654TIP3    H116968   4.425   0.212   4.247 -0.7649 -0.1422  0.0351
 5654TIP3    H216969   4.445   0.207   4.397 -1.8200  1.6074  0.2730
 5655TIP3   OH216970   3.149   4.263   4.029  0.0082 -0.1671 -0.1372
 5655TIP3    H116971   3.148   4.172   4.059  0.1648 -0.1912 -0.2048
 5655TIP3    H216972   3.179   4.313   4.105 -2.5152  0.1399  0.7390
 5656TIP3   OH216973   0.921   3.069   4.276 -0.0289 -0.3830  0.0012
 5656TIP3    H116974   0.828   3.073   4.253  0.4590  1.1482 -1.9694
 5656TIP3    H216975   0.966   3.110   4.202  2.1466 -0.1192  1.3784
 5657TIP3   OH216976   2.103   2.652   3.035  0.1905  0.0819  0.2187
 5657TIP3    H116977   2.151   2.642   3.118  0.3865 -0.3684  0.0519
 5657TIP3    H216978   2.169   2.685   2.973  0.2054 -0.2290  0.0698
 5658TIP3   OH216979   6.284   3.054   4.229 -0.0590 -0.2197  0.1997
 5658TIP3    H116980   6.284   2.984   4.164 -0.4431 -0.0419  0.0090
 5658TIP3    H216981   6.192   3.079   4.239 -0.0108 -0.2958  0.8650
 5659TIP3   OH216982   0.336   4.216   2.967  0.5900  0.4079 -0.1852
 5659TIP3    H116983   0.291   4.145   3.013  3.1083  0.6045  2.9396
 5659TIP3    H216984   0.402   4.173   2.914  0.0176  0.3289 -0.8478
 5660TIP3   OH216985   4.288   0.420   0.959 -0.0374  0.1273 -0.2038
 5660TIP3    H116986   4.258   0.504   0.925  1.0885  1.1682  1.2060
 5660TIP3    H216987   4.381   0.417   0.938 -0.2001 -1.1315 -0.8726
 5661TIP3   OH216988   1.286   3.051   5.143 -0.8893 -0.1804  0.4624
 5661TIP3    H116989   1.366   2.998   5.146 -0.8113 -0.1809 -1.0121
 5661TIP3    H216990   1.216   2.991   5.166 -0.7038 -0.7367 -0.3891
 5662TIP3   OH216991   4.933   0.108   1.044 -0.3466  0.2397  0.5727
 5662TIP3    H116992   4.986   0.114   1.124 -2.8644  0.3598  2.3702
 5662TIP3    H216993   4.918   0.199   1.019  1.4436  0.1927 -0.8243
 5663TIP3   OH216994   4.600   0.768   1.489 -0.3290 -0.4351  0.0268
 5663TIP3    H116995   4.636   0.817   1.415  0.2997 -0.8112  0.0833
 5663TIP3    H216996   4.674   0.720   1.526 -0.7706 -0.7817  0.4900
 5664TIP3   OH216997   0.767   3.233   3.707 -0.0450  0.2551 -0.2146
 5664TIP3    H116998   0.810   3.313   3.736  0.3580 -0.5034  1.3778
 5664TIP3    H216999   0.838   3.170   3.696 -0.3317  0.1603 -1.6965
 5665TIP3   OH217000   1.396   1.416   0.163 -0.4320  0.3512 -0.2662
 5665TIP3    H117001   1.332   1.469   0.211 -1.5508 -0.4068 -0.8804
 5665TIP3    H217002   1.425   1.472   0.091 -3.4258 -0.5578 -2.3981
 5666TIP3   OH217003   3.040   3.267   3.097  0.0912  0.1788  0.0797
 5666TIP3    H117004   2.971   3.320   3.137 -1.0715 -1.0825 -0.1645
 5666TIP3    H217005   2.999   3.228   3.020  1.2455 -0.1865 -0.3723
 5667TIP3   OH217006   5.708   2.610   3.277  0.2557  0.1647  0.4600
 5667TIP3    H117007   5.747   2.600   3.363  2.7348  0.2204 -0.5569
 5667TIP3    H217008   5.683   2.703   3.273 -0.5870 -0.0141  1.3707
 5668TIP3   OH217009   5.165   1.066   0.789  0.1916  0.1075 -0.2106
 5668TIP3    H117010   5.220   1.097   0.861 -0.3905  0.2445  0.1790
 5668TIP3    H217011   5.197   0.977   0.771  0.0394 -0.1005  0.5289
 5669TIP3   OH217012   5.093   5.064   1.529 -0.6072 -0.1789 -0.5832
 5669TIP3    H117013   5.066   5.094   1.442 -1.4260  0.4552 -0.1318
 5669TIP3    H217014   5.189   5.068   1.527 -0.6362  0.5186 -1.2282
 5670TIP3   OH217015   6.054   3.959   0.851 -0.5982 -0.0211 -0.1387
 5670TIP3    H117016   5.992   3.956   0.923  0.2159 -0.7413  0.5522
 5670TIP3    H217017   6.101   3.876   0.855  1.5652  1.1361  0.4165
 5671TIP3   OH217018   6.306   4.345   2.275 -0.0750 -0.0180  0.8061
 5671TIP3    H117019   6.306   4.348   2.371 -1.1356  0.2436  0.8113
 5671TIP3    H217020   6.323   4.435   2.248 -0.4373  0.0361  0.7548
 5672TIP3   OH217021   6.160   1.326   3.966  0.2740 -0.3619 -0.1001
 5672TIP3    H117022   6.172   1.374   3.884  0.4226 -0.4789 -0.1464
 5672TIP3    H217023   6.169   1.394   4.034  0.3990 -0.3086 -0.1697
 5673TIP3   OH217024   0.350   2.188   3.364  0.1958  0.8856  0.4774
 5673TIP3    H117025   0.362   2.235   3.281  0.5438 -1.4395 -0.8853
 5673TIP3    H217026   0.265   2.145   3.355  0.9782 -0.7616  0.5477
 5674TIP3   OH217027   3.425   1.760   1.178 -0.7588  0.5798 -0.6737
 5674TIP3    H117028   3.419   1.753   1.274  0.9226 -0.5952 -0.6108
 5674TIP3    H217029   3.518   1.758   1.160 -1.0827 -0.3753 -2.4290
 5675TIP3   OH217030   3.840   2.558   4.866 -0.2579  0.2388  0.4361
 5675TIP3    H117031   3.870   2.627   4.807 -0.9615  0.1303 -0.0577
 5675TIP3    H217032   3.920   2.518   4.899  0.1467  0.2046 -0.5588
 5676TIP3   OH217033   3.961   3.104   0.859  0.1770  0.9273 -0.2418
 5676TIP3    H117034   3.996   3.110   0.948  2.5436 -0.6117 -0.9812
 5676TIP3    H217035   4.023   3.048   0.812 -2.2956 -0.3944 -2.2379
 5677TIP3   OH217036   3.002   3.699   0.604 -0.3142  0.1633 -0.0882
 5677TIP3    H117037   3.069   3.663   0.546 -1.0581 -1.3844 -0.0463
 5677TIP3    H217038   3.050   3.731   0.680  0.4596 -0.0898 -0.4678
 5678TIP3   OH217039   1.454   4.128   2.106 -0.4006  0.0685 -0.0938
 5678TIP3    H117040   1.361   4.126   2.085 -0.0674 -1.4752 -1.6237
 5678TIP3    H217041   1.483   4.038   2.095  1.1706  0.3889  0.9936
 5679TIP3   OH217042   4.431   2.339   4.789  0.3115  0.0971 -0.2773
 5679TIP3    H117043   4.501   2.322   4.852 -2.0873 -2.1134  1.9946
 5679TIP3    H217044   4.443   2.273   4.721  0.5397 -0.1751  0.0230
 5680TIP3   OH217045   6.136   4.946   2.644 -0.0741  0.0904  0.1015
 5680TIP3    H117046   6.226   4.939   2.675  0.8199 -2.4148 -2.6536
 5680TIP3    H217047   6.130   5.033   2.605  0.6272  0.8430  1.5857
 5681TIP3   OH217048   3.247   5.294   3.103 -0.6582 -0.0694  0.0556
 5681TIP3    H117049   3.177   5.239   3.139 -0.8522 -0.0321 -0.2560
 5681TIP3    H217050   3.254   5.267   3.012  0.9697 -1.3377  0.5148
 5682TIP3   OH217051   2.814   5.644   4.895  0.1642 -0.7139 -0.4151
 5682TIP3    H117052   2.741   5.690   4.854 -0.2474 -0.1808  0.8505
 5682TIP3    H217053   2.842   5.579   4.830 -1.3191 -0.8241 -0.9777
 5683TIP3   OH217054   3.196   0.711   3.608 -0.8216  0.3441 -0.1428
 5683TIP3    H117055   3.267   0.667   3.561 -1.3705 -0.1772 -0.4998
 5683TIP3    H217056   3.190   0.665   3.691 -0.4595  0.6713  0.0689
 5684TIP3   OH217057   4.602   3.214   4.902  0.6843 -0.1156 -0.4763
 5684TIP3    H117058   4.694   3.192   4.912  0.4532 -0.8966  0.0930
 5684TIP3    H217059   4.601   3.301   4.863  1.6748  0.3400  0.4659
 5685TIP3   OH217060   5.460   0.147   0.941  0.5258 -1.1164 -0.0464
 5685TIP3    H117061   5.511   0.148   0.860 -1.5163 -1.0690 -1.3899
 5685TIP3    H217062   5.409   0.228   0.938  0.5363 -1.0316  1.3979
 5686TIP3   OH217063   5.060   5.428   3.700 -0.1442 -0.3686  0.0716
 5686TIP3    H117064   5.136   5.414   3.644  0.6251  1.0868  0.6980
 5686TIP3    H217065   5.093   5.418   3.789 -0.1896  2.0901  0.4438
 5687TIP3   OH217066   3.765   2.552   2.850  0.6662  0.3269  0.3538
 5687TIP3    H117067   3.801   2.467   2.878  1.0380  0.5340  0.5087
 5687TIP3    H217068   3.735   2.593   2.931  0.0702  0.1530  0.2243
 5688TIP3   OH217069   2.679   1.040   4.983 -0.2846 -0.2835 -0.0058
 5688TIP3    H117070   2.734   0.980   4.932 -1.4130  0.9274 -2.8460
 5688TIP3    H217071   2.594   0.997   4.986 -0.4554  0.0621  0.0682
 5689TIP3   OH217072   5.329   1.243   0.369  0.2696  0.2093 -0.0508
 5689TIP3    H117073   5.365   1.251   0.280  0.5215  0.5119  0.0771
 5689TIP3    H217074   5.357   1.156   0.398  0.7629  0.3734 -0.0169
 5690TIP3   OH217075   4.285   2.132   1.179  0.0655  0.3892 -0.6024
 5690TIP3    H117076   4.359   2.072   1.169 -0.1346  0.2778 -1.4782
 5690TIP3    H217077   4.322   2.219   1.160  0.1621  0.4394 -0.1878
 5691TIP3   OH217078   3.271   2.384   3.018 -0.2884  0.2566  0.3986
 5691TIP3    H117079   3.309   2.439   3.087  0.4522  0.4462 -0.1488
 5691TIP3    H217080   3.337   2.317   3.001 -0.8130 -0.2865  0.4374
 5692TIP3   OH217081   0.716   0.917   1.812 -0.4542 -0.0820  1.0387
 5692TIP3    H117082   0.790   0.904   1.753 -0.4663 -1.6902  1.3274
 5692TIP3    H217083   0.731   1.003   1.851 -0.0518  0.6808 -0.7147
 5693TIP3   OH217084   3.151   1.756   3.890  0.0167 -0.1908  0.6328
 5693TIP3    H117085   3.058   1.770   3.874 -0.0998 -0.0976  1.3400
 5693TIP3    H217086   3.174   1.682   3.835 -0.7886 -1.0622  1.4365
 5694TIP3   OH217087   2.809   1.676   1.131  0.1056  0.3853  0.8048
 5694TIP3    H117088   2.735   1.653   1.075  1.0263 -0.5310 -0.0906
 5694TIP3    H217089   2.815   1.605   1.195 -0.9079  1.4028  2.0679
 5695TIP3   OH217090   5.697   3.650   3.130  0.7820 -0.6078  0.1113
 5695TIP3    H117091   5.608   3.636   3.097 -0.1723  0.7740  1.9628
 5695TIP3    H217092   5.718   3.740   3.105 -0.0874  0.5978  3.3202
 5696TIP3   OH217093   1.049   1.234   3.857 -0.0610  0.5276 -0.5341
 5696TIP3    H117094   0.958   1.257   3.878  0.1612  0.8285  0.1242
 5696TIP3    H217095   1.042   1.177   3.780 -1.0693 -2.0748  1.3058
 5697TIP3   OH217096   0.732   3.394   4.439 -0.1700 -0.0460 -0.1859
 5697TIP3    H117097   0.676   3.466   4.467 -1.6637 -0.1645 -2.5596
 5697TIP3    H217098   0.705   3.319   4.493 -1.6332  0.1571 -0.6136
 5698TIP3   OH217099   2.317   1.434   0.855 -0.7823  0.7079  0.0455
 5698TIP3    H117100   2.398   1.440   0.805 -1.1562  2.1720 -0.4192
 5698TIP3    H217101   2.343   1.449   0.945 -0.5873  1.6305 -0.1562
 5699TIP3   OH217102   4.834   0.284   2.234  0.2762  0.1447  0.3622
 5699TIP3    H117103   4.913   0.237   2.208  0.8214  0.9674  0.5220
 5699TIP3    H217104   4.763   0.234   2.194  0.9538  0.1530 -0.9080
 5700TIP3   OH217105   5.831   5.597   1.853  0.3087  0.1923  0.9909
 5700TIP3    H117106   5.795   5.592   1.765 -0.3223 -0.5148  1.2701
 5700TIP3    H217107   5.904   5.659   1.847  1.3831 -1.1342 -0.4025
 5701TIP3   OH217108   4.956   4.565   3.974 -0.2926 -0.4492 -0.0251
 5701TIP3    H117109   4.938   4.503   4.043 -0.9156 -0.2060  0.0370
 5701TIP3    H217110   4.977   4.511   3.897  0.7310 -0.7166  0.4245
 5702TIP3   OH217111   5.098   0.312   4.949 -0.2499  0.1197  0.4625
 5702TIP3    H117112   5.175   0.307   5.006  0.6554 -2.9346 -0.8171
 5702TIP3    H217113   5.132   0.344   4.865 -0.7818  0.7183  0.4692
 5703TIP3   OH217114   2.696   0.672   4.646 -0.0750  0.2651  0.2021
 5703TIP3    H117115   2.784   0.693   4.616  0.0255 -1.1659 -0.5813
 5703TIP3    H217116   2.684   0.579   4.624 -1.4035  0.1642  1.1994
 5704TIP3   OH217117   5.176   1.649   2.189 -0.5993  0.3581 -0.4300
 5704TIP3    H117118   5.229   1.697   2.124 -1.2774  1.4738 -0.1957
 5704TIP3    H217119   5.178   1.705   2.267 -0.4709 -0.5705  0.2419
 5705TIP3   OH217120   2.383   0.305   4.487  0.3134  0.2159 -0.2993
 5705TIP3    H117121   2.430   0.334   4.409 -0.1983 -2.5742 -1.7757
 5705TIP3    H217122   2.319   0.242   4.454 -0.9352  0.0511  2.2368
 5706TIP3   OH217123   3.051   2.588   3.769  0.4366 -0.4349 -0.6450
 5706TIP3    H117124   3.121   2.636   3.725 -1.7626  2.8675 -0.8612
 5706TIP3    H217125   3.086   2.570   3.856  0.7541  3.7010  0.2907
 5707TIP3   OH217126   1.513   1.164   4.531  0.1417  0.4751 -0.3995
 5707TIP3    H117127   1.474   1.213   4.603 -1.2467 -0.3158 -0.5899
 5707TIP3    H217128   1.461   1.084   4.524  1.5486 -0.4469 -0.9398
 5708TIP3   OH217129   1.319   5.112   1.355  0.2873 -0.0699  0.4738
 5708TIP3    H117130   1.365   5.063   1.422 -0.5576 -0.9023  0.4727
 5708TIP3    H217131   1.340   5.204   1.372  0.0130 -0.2615  1.9353
 5709TIP3   OH217132   1.421   4.878   1.449 -0.2031 -0.2248  0.0484
 5709TIP3    H117133   1.348   4.886   1.511 -1.3565 -1.3066 -1.1202
 5709TIP3    H217134   1.421   4.786   1.423  0.6254  0.0801 -1.1258
 5710TIP3   OH217135   4.897   1.548   5.131 -0.5803 -0.0444  0.3385
 5710TIP3    H117136   4.921   1.470   5.181 -0.7924 -1.2779 -1.4024
 5710TIP3    H217137   4.969   1.559   5.069  0.1541  2.0261  1.4642
 5711TIP3   OH217138   5.717   5.175   2.780  0.5704 -0.5576 -0.0339
 5711TIP3    H117139   5.724   5.182   2.684  1.7831  0.1649  0.0881
 5711TIP3    H217140   5.625   5.153   2.795  0.4309 -1.0407 -1.3849
 5712TIP3   OH217141   4.696   0.923   5.028 -0.0700 -0.0724  0.1254
 5712TIP3    H117142   4.741   0.839   5.019  1.1556  0.6523 -0.9695
 5712TIP3    H217143   4.611   0.901   5.066  0.5114 -1.7093  0.5811
 5713TIP3   OH217144   0.922   2.701   1.421 -0.3396  0.1544  0.5702
 5713TIP3    H117145   0.831   2.697   1.392 -0.7872 -1.1567  2.0520
 5713TIP3    H217146   0.973   2.697   1.340 -1.5832 -0.1527 -0.2237
 5714TIP3   OH217147   0.237   0.518   4.707  0.1877  0.6914 -0.2103
 5714TIP3    H117148   0.208   0.604   4.676 -0.7553 -0.3251 -2.3235
 5714TIP3    H217149   0.189   0.455   4.653  0.5223 -1.1978  1.5731
 5715TIP3   OH217150   5.942   5.147   5.089 -0.2275 -0.3532  0.1955
 5715TIP3    H117151   5.849   5.140   5.068  0.0561 -0.0102 -1.2365
 5715TIP3    H217152   5.963   5.240   5.079  0.5448 -0.6166 -0.7362
 5716TIP3   OH217153   1.444   4.318   4.015  0.3619  0.1915  0.0893
 5716TIP3    H117154   1.533   4.340   3.986  0.2197 -0.1541 -0.6169
 5716TIP3    H217155   1.453   4.232   4.056  0.5643  0.6826  1.1222
 5717TIP3   OH217156   2.485   5.714   3.030 -0.2274  0.4346 -0.2833
 5717TIP3    H117157   2.540   5.732   2.953 -0.0217 -0.1804 -0.2827
 5717TIP3    H217158   2.427   5.644   3.003  1.0816 -1.0877  0.6728
 5718TIP3   OH217159   3.461   3.459   4.531 -0.2223  0.3012  0.2378
 5718TIP3    H117160   3.367   3.466   4.516 -0.5549  2.3913  2.6508
 5718TIP3    H217161   3.470   3.386   4.592 -0.4198  0.6457  0.6924
 5719TIP3   OH217162   1.629   4.101   0.011 -0.0846  0.1286 -0.2231
 5719TIP3    H117163   1.605   4.193   0.026  0.4720  0.6402 -2.1470
 5719TIP3    H217164   1.622   4.060   0.097 -1.9643  1.5799  0.3812
 5720TIP3   OH217165   4.873   4.335   4.165  0.2693 -0.0701  0.2805
 5720TIP3    H117166   4.813   4.408   4.183 -0.0918 -0.7780  2.1410
 5720TIP3    H217167   4.823   4.257   4.188  0.3911 -1.0173 -2.4115
 5721TIP3   OH217168   4.435   5.838   3.602  0.4271  0.1360 -0.7278
 5721TIP3    H117169   4.525   5.829   3.634  0.6777 -0.8345 -1.6683
 5721TIP3    H217170   4.403   5.748   3.593 -1.2443  0.4629  1.2043
 5722TIP3   OH217171   1.166   0.730   1.710 -0.2271 -0.0622  0.5728
 5722TIP3    H117172   1.131   0.642   1.725 -1.2417 -0.0391 -1.4050
 5722TIP3    H217173   1.250   0.715   1.667 -1.1289 -0.1139 -1.2666
 5723TIP3   OH217174   0.216   4.358   0.619  0.1030 -0.1631  0.1701
 5723TIP3    H117175   0.277   4.346   0.546  0.2979  0.0736  0.2903
 5723TIP3    H217176   0.270   4.396   0.689 -0.2513  0.3336  0.1742
 5724TIP3   OH217177   6.049   5.239   2.662 -0.0104  0.1656  1.1409
 5724TIP3    H117178   6.105   5.317   2.671  0.5266  0.1993 -1.6538
 5724TIP3    H217179   5.960   5.274   2.658  0.1961  0.6140  0.3336
 5725TIP3   OH217180   2.106   1.709   4.519 -0.4304  0.0511  0.1381
 5725TIP3    H117181   2.126   1.670   4.434  1.7332 -0.3010  0.7489
 5725TIP3    H217182   2.192   1.727   4.558 -1.3710  0.7980  1.9893
 5726TIP3   OH217183   1.014   1.006   3.201  0.1416 -0.1583 -0.4446
 5726TIP3    H117184   1.071   1.077   3.171  1.9395 -1.2014  0.3504
 5726TIP3    H217185   1.017   1.011   3.296 -0.8688 -0.4461 -0.3811
 5727TIP3   OH217186   2.541   1.191   2.407 -0.0478  0.9352 -0.0983
 5727TIP3    H117187   2.511   1.204   2.317 -0.4198  0.6673 -0.0154
 5727TIP3    H217188   2.475   1.134   2.446  1.0829 -0.5133 -0.2048
 5728TIP3   OH217189   2.410   5.275   3.289  0.3196 -0.1360 -0.6008
 5728TIP3    H117190   2.350   5.298   3.217  0.6185 -1.5359 -1.3290
 5728TIP3    H217191   2.385   5.186   3.313 -0.0650  0.4705  1.3698
 5729TIP3   OH217192   1.793   4.234   3.098  0.0025  0.3748 -0.9290
 5729TIP3    H117193   1.815   4.239   3.005  1.8910  0.5022 -0.5171
 5729TIP3    H217194   1.839   4.308   3.138  1.8171 -1.4174  0.5243
 5730TIP3   OH217195   1.981   5.017   1.844 -0.0726  0.0041  0.0234
 5730TIP3    H117196   1.942   5.045   1.761  0.1917 -0.7455 -0.3573
 5730TIP3    H217197   2.050   4.955   1.820  0.7824  0.6462  0.7409
 5731TIP3   OH217198   1.578   4.194   3.243 -0.0925  0.1379 -0.0435
 5731TIP3    H117199   1.666   4.185   3.205 -0.1074  0.4312 -0.1509
 5731TIP3    H217200   1.568   4.288   3.258  0.0267 -0.0021  0.9733
 5732TIP3   OH217201   0.859   3.378   3.358 -0.2901  0.2044 -0.4330
 5732TIP3    H117202   0.853   3.457   3.411 -1.7752 -0.5016  0.5187
 5732TIP3    H217203   0.869   3.410   3.268 -0.3212  1.4454 -0.0126
 5733TIP3   OH217204   0.456   3.255   2.081 -0.6697 -0.4784  0.1515
 5733TIP3    H117205   0.539   3.280   2.039 -0.3143 -1.5243  0.1845
 5733TIP3    H217206   0.415   3.338   2.105  0.8477  0.0479  1.0565
 5734TIP3   OH217207   4.950   2.456   1.529  0.0760 -0.5215 -0.3462
 5734TIP3    H117208   4.994   2.537   1.555  0.0883 -0.4172 -0.6822
 5734TIP3    H217209   5.015   2.387   1.544 -0.4168 -0.6585  1.2952
 5735TIP3   OH217210   3.747   5.680   3.253  0.7304 -0.2529 -0.1069
 5735TIP3    H117211   3.659   5.643   3.246  0.7181 -0.2463  0.0069
 5735TIP3    H217212   3.761   5.691   3.348 -0.2906  2.4162 -0.1824
 5736TIP3   OH217213   0.999   1.186   5.092 -0.2562 -0.3614 -0.3440
 5736TIP3    H117214   0.982   1.156   5.181  1.1589  2.2059  0.9349
 5736TIP3    H217215   0.913   1.191   5.051 -1.3548  1.1483  1.9165
 5737TIP3   OH217216   4.152   4.608   2.552  0.1842 -0.5194  0.5319
 5737TIP3    H117217   4.121   4.681   2.605 -3.8544 -0.6776 -1.2693
 5737TIP3    H217218   4.213   4.647   2.489 -1.2322  1.1632  0.1559
 5738TIP3   OH217219   2.856   2.045   1.714 -0.7819  0.0196  0.0446
 5738TIP3    H117220   2.939   2.088   1.690 -0.8646 -0.5277 -1.3367
 5738TIP3    H217221   2.821   2.014   1.630 -2.1789 -0.1347  0.6672
 5739TIP3   OH217222   3.347   4.433   0.927 -0.9486  0.1896 -0.4033
 5739TIP3    H117223   3.264   4.395   0.955 -1.7756  2.7318  0.7986
 5739TIP3    H217224   3.410   4.403   0.993 -1.7479  1.4549  0.9898
 5740TIP3   OH217225   0.533   5.121   0.075 -0.1133 -0.3926  0.7481
 5740TIP3    H117226   0.544   5.149   0.166  1.8775  0.1530  0.3939
 5740TIP3    H217227   0.523   5.203   0.026 -1.1294 -0.6819  0.4543
 5741TIP3   OH217228   0.267   1.015   4.808  0.2548  0.0796 -0.4014
 5741TIP3    H117229   0.207   1.059   4.868  0.1524 -0.5107 -0.0577
 5741TIP3    H217230   0.316   0.954   4.863 -0.1753 -0.8132 -0.9789
 5742TIP3   OH217231   5.543   0.929   0.684 -0.0606  1.2597 -0.2147
 5742TIP3    H117232   5.517   1.014   0.649 -1.5471  1.0704  0.3577
 5742TIP3    H217233   5.461   0.887   0.709  0.6313 -0.4136 -0.6220
 5743TIP3   OH217234   2.840   5.295   2.279  0.4294  0.7799 -0.5445
 5743TIP3    H117235   2.846   5.233   2.351 -0.3038 -0.7097 -1.7055
 5743TIP3    H217236   2.749   5.290   2.250  0.1082  3.0821 -0.1351
 5744TIP3   OH217237   4.353   4.676   2.377 -0.6584  0.1879  0.5080
 5744TIP3    H117238   4.314   4.747   2.326 -1.0222 -0.5935 -0.3538
 5744TIP3    H217239   4.367   4.606   2.312 -1.1149 -0.8328  1.4763
 5745TIP3   OH217240   3.257   1.005   4.676  0.0029  1.4772  0.1837
 5745TIP3    H117241   3.266   0.945   4.751  1.7968  0.7594 -0.5654
 5745TIP3    H217242   3.185   1.063   4.702 -1.8527 -0.9497  0.9545
 5746TIP3   OH217243   5.936   5.719   3.606 -0.4561 -0.3737  0.7928
 5746TIP3    H117244   5.997   5.736   3.534 -0.3354 -2.3218  0.3861
 5746TIP3    H217245   5.850   5.715   3.564 -0.5475 -0.1921  0.9631
 5747TIP3   OH217246   1.716   4.654   1.876 -0.1525 -0.2982 -0.1497
 5747TIP3    H117247   1.636   4.646   1.824 -0.3021 -0.8774  0.1523
 5747TIP3    H217248   1.785   4.624   1.818 -0.4546 -1.9784  0.3010
 5748TIP3   OH217249   3.396   0.680   3.153 -0.6933 -0.0117 -0.1275
 5748TIP3    H117250   3.471   0.693   3.210 -0.0043 -3.4051 -0.1028
 5748TIP3    H217251   3.371   0.769   3.127  4.7389  1.3219 -2.0887
 5749TIP3   OH217252   1.558   2.421   0.470 -0.3070 -0.6093  0.3806
 5749TIP3    H117253   1.586   2.378   0.389  1.1337  1.9507 -0.5954
 5749TIP3    H217254   1.627   2.401   0.532  1.1549  1.3192 -0.5006
 5750TIP3   OH217255   1.430   4.364   1.963  0.3361  0.0608  0.3998
 5750TIP3    H117256   1.483   4.428   2.010 -0.9266  0.4532  1.3523
 5750TIP3    H217257   1.469   4.279   1.986  1.0797  0.3924  0.3709
 5751TIP3   OH217258   5.413   5.030   3.709 -0.7176  0.2604  0.6012
 5751TIP3    H117259   5.319   5.017   3.699 -0.9089  1.7840  0.1367
 5751TIP3    H217260   5.427   5.036   3.803 -1.1729  0.5649  0.6516
 5752TIP3   OH217261   1.506   0.700   1.885  0.4404 -0.5215 -0.0299
 5752TIP3    H117262   1.492   0.612   1.851 -0.3808 -0.2306 -0.4677
 5752TIP3    H217263   1.530   0.687   1.977  1.7372 -1.2670 -0.4438
 5753TIP3   OH217264   4.861   3.429   2.825  0.0232  0.0263 -0.2885
 5753TIP3    H117265   4.896   3.471   2.747  0.3047 -0.4721 -0.4310
 5753TIP3    H217266   4.824   3.501   2.876  1.6955  0.6478  0.1169
 5754TIP3   OH217267   5.952   0.293   2.804 -0.4742 -0.2211 -0.5217
 5754TIP3    H117268   5.956   0.376   2.757 -1.1232 -1.0308 -2.0653
 5754TIP3    H217269   5.885   0.307   2.871  0.4890  0.9608  0.2430
 5755TIP3   OH217270   5.560   1.791   2.500 -0.2204  0.2213  0.6158
 5755TIP3    H117271   5.583   1.847   2.574 -0.2245  1.9778 -0.6462
 5755TIP3    H217272   5.557   1.850   2.425 -0.3809 -1.4639 -0.7783
 5756TIP3   OH217273   3.651   4.887   2.327  0.4062  0.0231  0.0044
 5756TIP3    H117274   3.610   4.926   2.404  1.8015  1.1735  0.1942
 5756TIP3    H217275   3.724   4.835   2.363  0.3412 -0.4055 -0.4681
 5757TIP3   OH217276   4.445   1.252   2.661 -0.0505 -0.1326  0.1208
 5757TIP3    H117277   4.511   1.290   2.603 -1.5538  1.5097 -0.6244
 5757TIP3    H217278   4.375   1.224   2.602 -1.0178  0.3174  1.0245
 5758TIP3   OH217279   6.175   2.353   0.493  0.3135  0.6309  0.5058
 5758TIP3    H117280   6.261   2.313   0.480  0.7690  1.3449  1.2140
 5758TIP3    H217281   6.114   2.280   0.489  0.9263  0.1452 -0.2664
 5759TIP3   OH217282   1.208   5.457   4.925  0.0524 -0.0053  1.0358
 5759TIP3    H117283   1.236   5.524   4.863 -1.6101  0.8451  1.1538
 5759TIP3    H217284   1.254   5.478   5.006  1.4113 -0.4859  0.4120
 5760TIP3   OH217285   1.888   4.826   3.871  0.0490 -0.1116  0.3313
 5760TIP3    H117286   1.884   4.820   3.967  1.3395 -1.7091  0.3227
 5760TIP3    H217287   1.945   4.901   3.854 -0.5508  0.4636  0.7909
 5761TIP3   OH217288   4.744   3.871   4.731  0.7098  0.4494 -0.4516
 5761TIP3    H117289   4.701   3.859   4.647 -0.9218  0.1653  0.3716
 5761TIP3    H217290   4.769   3.963   4.732  1.4105  0.2852 -1.5266
 5762TIP3   OH217291   2.688   5.574   4.637  0.0505  0.0695  0.5004
 5762TIP3    H117292   2.639   5.597   4.715 -0.7543 -0.3941  0.1404
 5762TIP3    H217293   2.693   5.655   4.586  0.1373  0.2463  0.7909
 5763TIP3   OH217294   4.813   3.884   3.236  0.1708 -0.1021 -0.5023
 5763TIP3    H117295   4.828   3.800   3.192 -0.9036 -0.2539 -0.6189
 5763TIP3    H217296   4.815   3.864   3.329 -2.2479 -0.7310 -0.5097
 5764TIP3   OH217297   5.845   1.157   4.219 -0.6783 -0.1187 -0.1354
 5764TIP3    H117298   5.835   1.080   4.276  0.2523 -0.8360 -0.9255
 5764TIP3    H217299   5.939   1.166   4.207 -0.7880  1.0451 -0.2160
 5765TIP3   OH217300   5.052   3.947   5.010 -0.2988  0.6072  0.3611
 5765TIP3    H117301   5.129   3.939   5.066 -0.5412 -0.1262  0.6066
 5765TIP3    H217302   5.066   3.882   4.941 -1.4975 -0.8110  1.3865
 5766TIP3   OH217303   3.037   4.562   2.797 -0.0743 -0.5228 -0.4037
 5766TIP3    H117304   3.059   4.582   2.888 -1.7572 -0.7328  0.0844
 5766TIP3    H217305   3.082   4.479   2.779  0.3683 -0.4186  0.1870
 5767TIP3   OH217306   6.123   0.147   3.306 -0.1494 -0.4400 -0.3590
 5767TIP3    H117307   6.177   0.108   3.376  1.4871  0.0262 -1.3128
 5767TIP3    H217308   6.185   0.170   3.238 -1.3575  1.6956 -0.8266
 5768TIP3   OH217309   3.724   1.998   4.194 -0.1329 -0.2714 -0.4835
 5768TIP3    H117310   3.630   2.014   4.202 -0.2376 -1.2682  0.6544
 5768TIP3    H217311   3.732   1.937   4.122 -0.6149 -1.9213  0.8006
 5769TIP3   OH217312   5.118   0.662   3.275 -0.4176  0.0785 -0.3707
 5769TIP3    H117313   5.036   0.659   3.324  0.1913 -1.1289  0.6387
 5769TIP3    H217314   5.094   0.634   3.186 -1.1780  0.1972 -0.2071
 5770TIP3   OH217315   2.132   3.420   3.509 -0.4176 -0.1829  0.1159
 5770TIP3    H117316   2.124   3.485   3.579 -2.4177 -0.4836  0.2331
 5770TIP3    H217317   2.086   3.460   3.435 -0.8863 -1.0824 -0.0896
 5771TIP3   OH217318   0.059   1.004   0.958  0.1675  0.6004 -0.1973
 5771TIP3    H117319   0.089   0.960   0.879 -1.2750  1.1037 -1.0485
 5771TIP3    H217320   0.121   0.977   1.026  0.3260 -1.3338 -1.0709
 5772TIP3   OH217321   1.910   4.818   3.150 -0.5476 -0.7025 -0.4566
 5772TIP3    H117322   1.943   4.770   3.227  0.4815  0.5780 -0.0500
 5772TIP3    H217323   1.856   4.888   3.187  1.1049  0.8146 -0.7393
 5773TIP3   OH217324   5.016   5.387   0.177  0.3086 -0.5713  0.5101
 5773TIP3    H117325   4.925   5.358   0.184  0.8512 -2.9194 -0.9098
 5773TIP3    H217326   5.056   5.359   0.259 -0.1323  0.0740  0.9553
 5774TIP3   OH217327   4.741   5.418   3.549  0.1234 -0.2370 -0.6041
 5774TIP3    H117328   4.769   5.492   3.602 -0.4102  0.2349 -0.9733
 5774TIP3    H217329   4.724   5.348   3.612 -1.0035  0.4688 -0.0928
 5775TIP3   OH217330   2.610   4.082   1.489 -0.0409 -0.3010  0.3185
 5775TIP3    H117331   2.671   4.152   1.514 -1.4250  0.7372  0.9259
 5775TIP3    H217332   2.665   4.004   1.480  1.4814  0.7533  0.0872
 5776TIP3   OH217333   4.037   3.233   4.393 -0.1413 -0.1766 -0.4572
 5776TIP3    H117334   3.965   3.296   4.388 -0.8736 -0.7957  1.3433
 5776TIP3    H217335   4.114   3.282   4.366 -0.8906  1.1434 -0.3074
 5777TIP3   OH217336   0.050   2.806   2.496 -0.8025 -0.0499 -1.2638
 5777TIP3    H117337   0.108   2.874   2.531 -1.2323  0.2136 -1.0490
 5777TIP3    H217338   0.095   2.724   2.516 -0.8316  0.1165 -0.4551
 5778TIP3   OH217339   0.658   0.260   0.862  0.3116  0.1921 -0.2549
 5778TIP3    H117340   0.660   0.351   0.893  0.2887 -0.3464  1.4226
 5778TIP3    H217341   0.569   0.230   0.881 -0.2194  0.2970 -2.3579
 5779TIP3   OH217342   1.259   1.395   3.791  0.0289 -0.5047  0.2711
 5779TIP3    H117343   1.291   1.454   3.859 -0.3307 -0.2914  0.2617
 5779TIP3    H217344   1.180   1.356   3.828  0.4559 -1.2475  0.4096
 5780TIP3   OH217345   4.770   4.162   0.661 -0.0271  0.4487  0.2159
 5780TIP3    H117346   4.855   4.139   0.624 -0.4094 -0.4130 -0.1725
 5780TIP3    H217347   4.773   4.129   0.751  0.5193  1.6083  0.6442
 5781TIP3   OH217348   3.841   0.892   1.689 -0.2801  1.5095  0.0449
 5781TIP3    H117349   3.896   0.871   1.764 -1.3782  1.0498  0.7317
 5781TIP3    H217350   3.822   0.985   1.698 -0.7985  1.3529  0.6028
 5782TIP3   OH217351   0.996   4.559   4.708 -0.0279  0.2774  0.5969
 5782TIP3    H117352   1.051   4.614   4.764 -0.4019 -0.5844  1.8687
 5782TIP3    H217353   0.909   4.564   4.749 -0.6005  0.5780 -0.6239
 5783TIP3   OH217354   1.043   2.183   2.155 -0.0003  0.4523 -0.2336
 5783TIP3    H117355   1.028   2.198   2.249 -0.6355  1.5463 -0.4918
 5783TIP3    H217356   1.064   2.090   2.149  1.0037  0.5636  1.1113
 5784TIP3   OH217357   2.181   5.267   3.755  0.2934  0.5077  0.5380
 5784TIP3    H117358   2.157   5.201   3.820  0.8489  0.8664  1.1164
 5784TIP3    H217359   2.253   5.227   3.706  0.7625  0.7591  1.0182
 5785TIP3   OH217360   3.606   3.647   4.730  0.1025  0.6021 -0.0858
 5785TIP3    H117361   3.567   3.613   4.650  1.5905  0.8300 -0.9582
 5785TIP3    H217362   3.536   3.644   4.795  0.1130 -4.7546  0.1724
 5786TIP3   OH217363   2.872   2.818   1.147 -0.3564  0.0182 -0.4645
 5786TIP3    H117364   2.941   2.769   1.103 -0.2674 -2.2190  1.9293
 5786TIP3    H217365   2.916   2.862   1.220 -0.9203  1.4536 -0.9600
 5787TIP3   OH217366   4.237   0.645   3.650  0.1271  0.2734  0.3870
 5787TIP3    H117367   4.326   0.676   3.668  0.3125 -0.4789  0.7957
 5787TIP3    H217368   4.236   0.555   3.682 -0.6626  0.1408  0.0083
 5788TIP3   OH217369   4.883   2.191   0.568  0.2178 -0.0779 -0.3549
 5788TIP3    H117370   4.953   2.257   0.570 -0.2705  0.4355  0.6432
 5788TIP3    H217371   4.868   2.170   0.660 -0.7278 -0.4083 -0.5781
 5789TIP3   OH217372   0.795   3.860   4.591  0.2570 -0.5990  0.1094
 5789TIP3    H117373   0.789   3.911   4.672 -1.2723 -0.1563 -0.2486
 5789TIP3    H217374   0.858   3.909   4.537  1.4177 -0.9885  1.0622
 5790TIP3   OH217375   3.921   0.804   3.156 -0.0663  0.5345 -0.1354
 5790TIP3    H117376   3.945   0.874   3.216 -2.9945  0.8099  0.8993
 5790TIP3    H217377   3.943   0.724   3.204  1.8884  0.6678 -0.7065
 5791TIP3   OH217378   2.259   1.841   3.201  0.6808  0.6517  0.0252
 5791TIP3    H117379   2.261   1.920   3.147  0.3700  0.3077 -0.4972
 5791TIP3    H217380   2.342   1.843   3.249  0.8589  1.0827 -0.2921
 5792TIP3   OH217381   1.952   3.937   0.068 -0.3072  0.0723 -0.0260
 5792TIP3    H117382   2.008   3.920   0.144  0.2135  1.7596  0.0145
 5792TIP3    H217383   2.003   3.907  -0.007 -0.2270 -0.2825  0.1655
 5793TIP3   OH217384   6.032   3.916   3.993 -0.1873  0.0834 -0.0422
 5793TIP3    H117385   6.059   4.008   3.986 -0.9869  0.5743  2.4193
 5793TIP3    H217386   6.114   3.867   3.990  0.8098  1.2783  3.4032
 5794TIP3   OH217387   1.470   1.738   1.429  0.1194  0.3709  0.1990
 5794TIP3    H117388   1.486   1.717   1.521 -0.4556  0.2643  0.2762
 5794TIP3    H217389   1.391   1.690   1.406  1.8161 -1.9741 -1.1785
 5795TIP3   OH217390   1.552   2.223   1.889 -0.6125 -0.0194  0.8108
 5795TIP3    H117391   1.555   2.226   1.985  1.2510  0.4335  0.7756
 5795TIP3    H217392   1.553   2.314   1.861  1.3227 -0.1154  0.3805
 5796TIP3   OH217393   5.493   0.107   4.932  0.5370 -0.1115  0.0166
 5796TIP3    H117394   5.425   0.164   4.966 -0.2729 -0.7134 -0.5549
 5796TIP3    H217395   5.497   0.128   4.839 -0.6996 -1.8666 -0.4793
 5797TIP3   OH217396   0.840   5.214   4.095  0.1658 -0.8114  0.4167
 5797TIP3    H117397   0.748   5.240   4.088 -0.1382 -1.9131  0.1741
 5797TIP3    H217398   0.879   5.281   4.151 -0.2116  1.1009 -1.4763
 5798TIP3   OH217399   5.233   3.594   1.797 -0.2809  0.6864  0.0525
 5798TIP3    H117400   5.256   3.599   1.704  1.3218  0.1672  0.3893
 5798TIP3    H217401   5.181   3.514   1.804  0.0205  0.4526 -0.3218
 5799TIP3   OH217402   5.134   1.204   1.720 -0.8759  0.4019  0.0626
 5799TIP3    H117403   5.133   1.111   1.696 -0.4787  0.4615 -0.1902
 5799TIP3    H217404   5.202   1.212   1.786  1.1731  0.9960 -1.9871
 5800TIP3   OH217405   5.160   2.234   4.957 -0.1117  0.1257  0.1776
 5800TIP3    H117406   5.249   2.210   4.932 -0.6052 -0.1167 -1.5228
 5800TIP3    H217407   5.157   2.329   4.947 -0.4780 -0.0218 -1.4928
 5801TIP3   OH217408   0.192   1.613   1.377 -0.3200  0.7005  0.0477
 5801TIP3    H117409   0.171   1.534   1.328  0.1516  0.3824  0.3542
 5801TIP3    H217410   0.106   1.649   1.402 -0.5478 -0.5195  1.1872
 5802TIP3   OH217411   0.260   4.786   2.246  0.4977 -0.0692  0.1181
 5802TIP3    H117412   0.256   4.775   2.341  1.4716  1.2478  0.3538
 5802TIP3    H217413   0.255   4.697   2.211  0.5536 -0.6103  1.4259
 5803TIP3   OH217414   5.229   1.902   4.561  0.4258  0.9038  0.4552
 5803TIP3    H117415   5.259   1.992   4.575  0.5573  0.8505  0.5171
 5803TIP3    H217416   5.259   1.881   4.473 -1.4744  1.6760 -0.4347
 5804TIP3   OH217417   4.540   3.159   0.384 -0.1764  0.8906  0.0815
 5804TIP3    H117418   4.541   3.168   0.479 -3.0161  0.9076  0.1980
 5804TIP3    H217419   4.592   3.081   0.366 -1.2756 -0.3166  1.8738
 5805TIP3   OH217420   5.101   4.118   2.467 -0.4751 -0.3272  0.0837
 5805TIP3    H117421   5.165   4.141   2.533  0.5003 -2.8089  0.1282
 5805TIP3    H217422   5.022   4.096   2.517 -1.3751  2.5166  0.0419
 5806TIP3   OH217423   1.218   3.223   4.928  0.3502 -0.3171  0.2670
 5806TIP3    H117424   1.269   3.175   4.863 -1.1389 -0.4206 -0.8910
 5806TIP3    H217425   1.230   3.174   5.009  3.7303  0.8370  0.6078
 5807TIP3   OH217426   1.178   5.019   0.265  0.6531  0.2819 -0.4865
 5807TIP3    H117427   1.204   5.110   0.276  0.3517  0.2550  0.5397
 5807TIP3    H217428   1.104   5.008   0.324  1.7250 -1.0606  0.6622
 5808TIP3   OH217429   0.172   1.970   0.491 -0.0913 -0.0892  0.1929
 5808TIP3    H117430   0.128   1.920   0.560 -0.4682 -0.6459 -0.4339
 5808TIP3    H217431   0.233   2.027   0.537  1.0775 -1.8264  0.8937
 5809TIP3   OH217432   2.599   2.924   0.636  0.0363 -0.3281 -0.2314
 5809TIP3    H117433   2.529   2.860   0.629  0.4715 -1.0689  1.6418
 5809TIP3    H217434   2.671   2.888   0.584 -0.7241  0.1468 -1.6608
 5810TIP3   OH217435   1.643   3.634   4.678  0.4450  0.0887  0.6186
 5810TIP3    H117436   1.724   3.620   4.629 -0.2014  1.0155 -0.7800
 5810TIP3    H217437   1.670   3.636   4.769  2.2074  1.7400  0.1125
 5811TIP3   OH217438   3.430   4.680   5.017 -0.6093 -0.3937  0.1300
 5811TIP3    H117439   3.378   4.704   5.094  0.4586  1.4138  0.3276
 5811TIP3    H217440   3.510   4.644   5.053  0.9048  2.5604  0.0277
 5812TIP3   OH217441   2.508   3.635   4.600  0.1120  0.2177 -0.4926
 5812TIP3    H117442   2.456   3.677   4.532 -0.5599  0.0663 -0.0758
 5812TIP3    H217443   2.598   3.663   4.581 -0.1501  0.7280 -1.0318
 5813TIP3   OH217444   5.731   2.000   3.106  0.1177 -0.1782 -0.3186
 5813TIP3    H117445   5.741   1.906   3.094 -0.1651 -0.1681 -0.6492
 5813TIP3    H217446   5.757   2.038   3.022  0.0767  0.0281 -0.2393
 5814TIP3   OH217447   2.427   0.695   4.785  0.2762 -0.6610  0.4750
 5814TIP3    H117448   2.505   0.665   4.739  0.1432 -1.0821  0.5266
 5814TIP3    H217449   2.355   0.643   4.749  0.0809 -0.5649  0.7231
 5815TIP3   OH217450   3.545   2.889   0.574  0.8385  0.4845  0.1970
 5815TIP3    H117451   3.604   2.964   0.568  0.0094  1.1496  0.1824
 5815TIP3    H217452   3.600   2.818   0.608  1.7639  0.9432 -0.3110
 5816TIP3   OH217453   4.145   4.298   1.891  0.0246 -0.0740 -0.2792
 5816TIP3    H117454   4.161   4.392   1.892  0.0340 -0.0756 -0.2806
 5816TIP3    H217455   4.063   4.287   1.940 -0.6304  0.0548 -1.3102
 5817TIP3   OH217456   5.432   0.445   3.900  0.1522  0.2593  0.3670
 5817TIP3    H117457   5.378   0.413   3.972  0.5484  0.3263  0.6970
 5817TIP3    H217458   5.382   0.519   3.865  0.1616  0.5038  0.8562
 5818TIP3   OH217459   4.960   3.322   3.060 -0.0191  0.3359  0.0016
 5818TIP3    H117460   4.937   3.407   3.097  2.6375  1.2936 -0.3226
 5818TIP3    H217461   4.962   3.337   2.965  2.6315  0.6131  0.0332
 5819TIP3   OH217462   4.816   0.526   1.989 -0.1991  0.3930  0.2580
 5819TIP3    H117463   4.778   0.525   1.901  0.0178 -0.4141  0.1638
 5819TIP3    H217464   4.907   0.498   1.977 -0.8859 -2.5057  1.0172
 5820TIP3   OH217465   6.337   1.224   4.552  0.4799 -0.2675  0.8050
 5820TIP3    H117466   6.321   1.244   4.459  3.0107 -0.4635  0.2386
 5820TIP3    H217467   6.256   1.185   4.583 -0.9728  1.2317 -0.8967
 5821TIP3   OH217468   0.830   1.947   4.598  0.5271  0.4864  0.6241
 5821TIP3    H117469   0.887   1.934   4.522 -0.3864 -0.5784  0.0806
 5821TIP3    H217470   0.766   1.875   4.592 -0.5374  1.3269  1.5007
 5822TIP3   OH217471   4.881   2.820   2.990 -0.1119 -0.2151  0.5101
 5822TIP3    H117472   4.798   2.795   3.032 -0.3515 -0.3005 -0.0056
 5822TIP3    H217473   4.855   2.881   2.921  0.4315  1.2009  1.5216
 5823TIP3   OH217474   0.151   4.695   3.689 -0.0192  0.2085 -0.1902
 5823TIP3    H117475   0.082   4.629   3.679  0.6958 -0.3742 -1.3966
 5823TIP3    H217476   0.106   4.770   3.730 -0.8656 -0.9623  1.1227
 5824TIP3   OH217477   4.379   5.886   2.792  0.0389  0.7343 -0.4531
 5824TIP3    H117478   4.445   5.817   2.781  0.0163  0.4710  0.9447
 5824TIP3    H217479   4.421   5.965   2.758  0.7809  0.4163 -0.2920
 5825TIP3   OH217480   1.977   3.691   4.637  0.0271 -0.3182 -0.0347
 5825TIP3    H117481   2.028   3.754   4.586  0.1417 -0.1193  0.3242
 5825TIP3    H217482   2.043   3.629   4.670 -0.2936 -1.8645 -2.1056
 5826TIP3   OH217483   1.662   0.421   1.263  0.4935 -0.3345 -0.0806
 5826TIP3    H117484   1.614   0.339   1.256 -1.0144  0.5045 -0.1418
 5826TIP3    H217485   1.682   0.445   1.172  1.5119 -0.9326 -0.0285
 5827TIP3   OH217486   1.999   0.547   4.155  0.2624 -0.2149 -0.4696
 5827TIP3    H117487   1.957   0.631   4.136  0.2238 -0.1769 -0.2198
 5827TIP3    H217488   1.951   0.484   4.102  0.7934  0.0263 -1.2685
 5828TIP3   OH217489   2.937   5.946   1.299  0.2208 -0.2928 -0.8694
 5828TIP3    H117490   2.866   5.902   1.346 -0.8617  1.7226 -0.5145
 5828TIP3    H217491   2.982   5.875   1.253 -3.0448 -1.4798 -2.5514
 5829TIP3   OH217492   3.928   3.681   2.525  0.9858 -0.0319  0.2847
 5829TIP3    H117493   3.994   3.735   2.482  1.3149  1.1125  2.0915
 5829TIP3    H217494   3.889   3.630   2.455  1.6802  1.5022 -1.2963
 5830TIP3   OH217495   5.832   3.000   3.348  0.0022  0.2784  0.2080
 5830TIP3    H117496   5.875   3.085   3.362  0.3661  0.0641  0.4117
 5830TIP3    H217497   5.895   2.936   3.380 -0.8437 -0.0026  1.4131
 5831TIP3   OH217498   5.668   2.141   1.784  0.3004 -0.1785 -0.0701
 5831TIP3    H117499   5.696   2.227   1.816 -0.3590  1.0262 -2.4819
 5831TIP3    H217500   5.721   2.126   1.705 -0.4996 -1.3838 -0.4138
 5832TIP3   OH217501   6.316   4.338   1.250  0.6899 -0.6589 -0.4222
 5832TIP3    H117502   6.341   4.283   1.175  2.4499 -0.7597  0.1900
 5832TIP3    H217503   6.391   4.332   1.309  0.1675  1.0140  0.4521
 5833TIP3   OH217504   3.636   3.469   0.298  0.2514  0.2205  0.5955
 5833TIP3    H117505   3.565   3.404   0.296  0.0824  0.4140  0.0336
 5833TIP3    H217506   3.662   3.473   0.390  0.1168 -0.4846  0.6746
 5834TIP3   OH217507   5.389   3.849   0.069 -0.1234 -0.2294  0.4913
 5834TIP3    H117508   5.378   3.775   0.129  0.4025 -0.2417  0.5786
 5834TIP3    H217509   5.466   3.896   0.103  0.3434 -0.3850 -0.3148
 5835TIP3   OH217510   5.040   0.881   4.693 -0.2558 -0.0733  0.4437
 5835TIP3    H117511   4.954   0.841   4.681 -1.1103  1.9145 -0.5633
 5835TIP3    H217512   5.022   0.963   4.741  1.1963 -0.0489  1.0083
 5836TIP3   OH217513   3.150   2.800   2.476 -0.3107  0.5269  0.5105
 5836TIP3    H117514   3.148   2.834   2.565 -0.1437  2.2798 -0.1174
 5836TIP3    H217515   3.242   2.806   2.450 -0.2055 -0.8378  0.5225
 5837TIP3   OH217516   1.759   4.977   0.396 -0.2066  0.2239 -0.5262
 5837TIP3    H117517   1.847   5.011   0.412 -0.3133  0.1288  0.3151
 5837TIP3    H217518   1.743   4.916   0.469 -1.2873  0.8696 -0.2004
 5838TIP3   OH217519   3.646   2.801   1.363 -0.5381  0.2963 -0.3135
 5838TIP3    H117520   3.649   2.764   1.451  1.8481 -1.0715 -0.8868
 5838TIP3    H217521   3.676   2.891   1.373  1.1347 -0.2800  0.1239
 5839TIP3   OH217522   0.181   5.814   2.891 -0.0897  0.1643  0.2858
 5839TIP3    H117523   0.164   5.727   2.929 -2.5346  0.6043  0.3391
 5839TIP3    H217524   0.094   5.850   2.875  0.8715  2.7045  0.4480
 5840TIP3   OH217525   4.246   4.448   3.920 -0.0211  0.2851  0.0576
 5840TIP3    H117526   4.190   4.514   3.879  1.0410  1.0300 -0.2550
 5840TIP3    H217527   4.280   4.396   3.847 -0.7613 -0.5491  0.2927
 5841TIP3   OH217528   2.575   0.207   4.969  0.2733  1.1186 -0.6326
 5841TIP3    H117529   2.531   0.238   4.890 -1.7364  0.3168  0.1099
 5841TIP3    H217530   2.569   0.281   5.030 -1.7648  0.4340  0.0816
 5842TIP3   OH217531   3.084   5.635   4.989  0.2114 -0.1735 -0.3680
 5842TIP3    H117532   2.996   5.633   4.950  0.7370 -1.8563 -1.5613
 5842TIP3    H217533   3.122   5.717   4.957 -1.9024  2.2377  2.6428
 5843TIP3   OH217534   6.165   0.862   4.911 -0.4333  0.3639  0.9726
 5843TIP3    H117535   6.142   0.793   4.973 -0.9586  0.6055  1.0478
 5843TIP3    H217536   6.134   0.943   4.951 -1.7902  0.4136 -0.0680
 5844TIP3   OH217537   1.748   3.113   2.687 -0.0411  0.0671  0.1185
 5844TIP3    H117538   1.819   3.053   2.663 -2.8166 -2.7408 -1.9484
 5844TIP3    H217539   1.725   3.089   2.776 -0.1566 -1.0161 -0.1805
 5845TIP3   OH217540   1.915   1.193   1.474 -0.5425 -0.0636 -0.5648
 5845TIP3    H117541   2.007   1.220   1.473 -0.6771  0.6279  1.3823
 5845TIP3    H217542   1.900   1.157   1.387  1.5466 -0.1276 -0.9615
 5846TIP3   OH217543   1.908   2.534   1.120 -0.0162  0.5695 -1.2401
 5846TIP3    H117544   1.937   2.618   1.156 -0.9253  1.6546 -2.8805
 5846TIP3    H217545   1.959   2.469   1.168  0.1798  1.9931  0.6232
 5847TIP3   OH217546   5.389   5.980   3.042  0.2708 -0.4483  0.4542
 5847TIP3    H117547   5.421   5.901   2.998 -1.3427  0.2242 -2.1294
 5847TIP3    H217548   5.364   5.950   3.129  0.3649 -2.6524 -0.2097
 5848TIP3   OH217549   0.500   0.454   4.569  0.1306 -0.7354 -0.0701
 5848TIP3    H117550   0.483   0.548   4.570 -0.3787 -0.7748  2.6213
 5848TIP3    H217551   0.589   0.445   4.603 -0.5314 -1.2591  1.6378
 5849TIP3   OH217552   5.755   0.935   2.832 -0.5043  0.2018 -0.1700
 5849TIP3    H117553   5.700   0.998   2.786 -1.4891 -1.0178 -0.7051
 5849TIP3    H217554   5.702   0.907   2.907 -0.0697  0.0288  0.0756
 5850TIP3   OH217555   3.758   5.388   3.392 -0.3828  0.0442  0.2322
 5850TIP3    H117556   3.787   5.324   3.326 -0.5592 -0.0201  0.2176
 5850TIP3    H217557   3.831   5.450   3.398  0.7766 -1.4085  1.9073
 5851TIP3   OH217558   4.690   4.796   1.706 -0.1426 -0.0078  0.3052
 5851TIP3    H117559   4.676   4.739   1.630  2.2875  0.2650 -0.4148
 5851TIP3    H217560   4.717   4.880   1.669 -0.1820  0.5314  1.4478
 5852TIP3   OH217561   5.533   0.352   5.118 -0.0227 -0.2093 -0.2719
 5852TIP3    H117562   5.503   0.410   5.189 -0.9245 -0.1895 -0.6695
 5852TIP3    H217563   5.540   0.410   5.042 -1.5569 -0.7264 -0.8374
 5853TIP3   OH217564   6.229   3.164   0.588  0.4465  0.4200  0.1997
 5853TIP3    H117565   6.307   3.143   0.537  0.5496  1.3058 -0.0249
 5853TIP3    H217566   6.192   3.079   0.612  1.1604 -0.0044 -0.1792
 5854TIP3   OH217567   1.391   5.169   0.969 -0.0550  0.6268  1.0849
 5854TIP3    H117568   1.485   5.176   0.987  0.0009  0.7705  0.7520
 5854TIP3    H217569   1.385   5.107   0.896 -0.3234 -0.4704  2.0033
 5855TIP3   OH217570   3.726   4.307   2.588  0.2514 -0.2482  0.0192
 5855TIP3    H117571   3.688   4.364   2.655 -0.9990  0.3797 -1.1674
 5855TIP3    H217572   3.725   4.219   2.627 -1.9748 -0.1685  0.2734
 5856TIP3   OH217573   2.831   2.277   0.882  0.2320 -0.6528  0.2022
 5856TIP3    H117574   2.774   2.285   0.958  0.4049 -1.1420  0.3861
 5856TIP3    H217575   2.872   2.363   0.874  1.9234 -1.2277  2.0235
 5857TIP3   OH217576   0.094   0.910   1.772  0.2548 -0.5535 -0.1230
 5857TIP3    H117577   0.043   0.831   1.755  0.9541 -0.5743 -2.4024
 5857TIP3    H217578   0.028   0.975   1.799 -0.6746 -1.2210 -0.7202
 5858TIP3   OH217579   3.115   2.944   1.272 -0.7352 -0.2674  0.4344
 5858TIP3    H117580   3.121   2.888   1.350 -1.0233  0.1859  0.7813
 5858TIP3    H217581   3.071   3.023   1.302  1.1030  0.8413  0.3386
 5859TIP3   OH217582   3.940   2.992   3.914  0.4390  0.1079  0.1777
 5859TIP3    H117583   3.859   2.960   3.875  1.5790 -0.0087 -2.2604
 5859TIP3    H217584   3.948   2.943   3.995 -1.9882  0.2597  0.6007
 5860TIP3   OH217585   0.416   3.525   0.896  0.1761 -0.0310  0.0728
 5860TIP3    H117586   0.420   3.554   0.805  1.0390  1.2898  0.4987
 5860TIP3    H217587   0.394   3.604   0.946  1.3737 -0.3475  1.1692
 5861TIP3   OH217588   0.152   5.033   1.090  0.2599 -0.0247 -0.3382
 5861TIP3    H117589   0.133   4.942   1.112  0.9530 -0.1166 -0.0998
 5861TIP3    H217590   0.237   5.051   1.130 -0.7252  1.3237  1.2942
 5862TIP3   OH217591   3.380   4.486   2.573 -0.1247 -0.2223  0.0958
 5862TIP3    H117592   3.419   4.465   2.658  1.3698 -0.8028 -0.7011
 5862TIP3    H217593   3.450   4.529   2.524 -1.3296  1.2595 -0.4437
 5863TIP3   OH217594   4.146   0.528   2.910  0.5606 -0.2817 -0.1818
 5863TIP3    H117595   4.057   0.514   2.878  0.2868  1.4423 -0.2506
 5863TIP3    H217596   4.149   0.481   2.994 -0.4607 -0.2078 -0.0938
 5864TIP3   OH217597   0.084   0.243   1.082  0.0646 -0.2400  1.0213
 5864TIP3    H117598  -0.009   0.264   1.088  0.4883  1.6806  1.3793
 5864TIP3    H217599   0.126   0.325   1.053  1.5891 -1.1897  0.3943
 5865TIP3   OH217600   3.420   5.342   0.969 -0.1381 -0.0815 -0.5547
 5865TIP3    H117601   3.479   5.275   1.004  0.6053  0.5378 -0.6028
 5865TIP3    H217602   3.354   5.354   1.038  0.8159  0.4981  0.2957
 5866TIP3   OH217603   5.847   0.881   5.037  0.1761  0.2482 -0.2697
 5866TIP3    H117604   5.838   0.960   5.090 -1.7863  0.1635 -0.4034
 5866TIP3    H217605   5.893   0.819   5.093 -0.2723  0.7579  0.6921
 5867TIP3   OH217606   6.263   5.688   2.047 -0.1410  0.0076 -0.6304
 5867TIP3    H117607   6.266   5.614   1.986 -2.1962 -0.8113  0.1561
 5867TIP3    H217608   6.313   5.658   2.123 -1.2369 -0.7424 -0.1837
 5868TIP3   OH217609   0.655   0.560   2.686  0.5290 -0.0647 -0.2931
 5868TIP3    H117610   0.639   0.622   2.757 -1.8954 -0.1959 -0.6560
 5868TIP3    H217611   0.621   0.477   2.718  1.7675 -0.7380 -0.6568
 5869TIP3   OH217612   2.217   2.439   1.543  0.1839 -0.7748 -0.1360
 5869TIP3    H117613   2.225   2.491   1.623  0.4080 -1.9445  0.6278
 5869TIP3    H217614   2.306   2.433   1.510  0.3210 -1.5020  0.3365
 5870TIP3   OH217615   4.657   4.149   5.127 -0.2808 -0.4705 -0.8125
 5870TIP3    H117616   4.721   4.099   5.076  0.8671 -1.8310  1.7905
 5870TIP3    H217617   4.588   4.086   5.148 -1.2424  0.3329 -1.4236
 5871TIP3   OH217618   3.173   4.854   2.351  0.6759 -0.2788  0.4303
 5871TIP3    H117619   3.170   4.805   2.433  0.9816 -1.1528 -0.0595
 5871TIP3    H217620   3.094   4.825   2.304  2.1765 -2.4130 -0.9869
 5872TIP3   OH217621   1.144   5.823   4.389  0.3027  0.2244 -0.1612
 5872TIP3    H117622   1.098   5.857   4.466 -1.2559 -0.8324 -0.5694
 5872TIP3    H217623   1.148   5.898   4.329 -0.8892  0.3672 -0.0921
 5873TIP3   OH217624   5.196   5.988   1.311  0.3064  0.0662  0.7422
 5873TIP3    H117625   5.201   5.900   1.348 -1.3730 -0.0643  0.7219
 5873TIP3    H217626   5.156   6.041   1.380  0.8662  0.7301  0.5774
 5874TIP3   OH217627   3.495   4.129   4.900 -0.6280 -0.2626  0.3420
 5874TIP3    H117628   3.455   4.053   4.942  2.2510 -1.6587  0.8120
 5874TIP3    H217629   3.541   4.093   4.824 -2.4256  1.6583 -1.7982
 5875TIP3   OH217630   5.632   5.384   1.543  0.6482 -0.3399  0.1350
 5875TIP3    H117631   5.688   5.462   1.543  0.6060 -0.2956 -1.0895
 5875TIP3    H217632   5.689   5.315   1.509 -0.4916  0.0823 -2.8821
 5876TIP3   OH217633   6.027   3.726   0.371  0.2676  0.2958  0.5478
 5876TIP3    H117634   6.116   3.692   0.361  2.3386  4.7574  1.1105
 5876TIP3    H217635   5.992   3.729   0.282  0.3656 -2.0378  0.3753
 5877TIP3   OH217636   1.840   4.188   2.196 -0.4940  0.9472 -0.2044
 5877TIP3    H117637   1.795   4.204   2.279 -0.1349  1.1787 -0.0555
 5877TIP3    H217638   1.882   4.271   2.175 -1.4743  1.2287 -1.1702
 5878TIP3   OH217639   2.412   5.153   0.087 -0.8064 -0.6471  0.2694
 5878TIP3    H117640   2.354   5.078   0.098  0.7846 -1.9969 -0.1391
 5878TIP3    H217641   2.426   5.158  -0.008 -1.7171  0.8443  0.1869
 5879TIP3   OH217642   3.352   0.662   1.710 -0.0536  0.1579  0.1744
 5879TIP3    H117643   3.335   0.665   1.615  1.2883  1.4937 -0.0717
 5879TIP3    H217644   3.448   0.669   1.717 -0.1506  0.2720  1.6354
 5880TIP3   OH217645   0.575   5.965   1.564 -0.0179  0.6651 -0.2880
 5880TIP3    H117646   0.609   5.905   1.497 -1.4065  0.2086 -0.6029
 5880TIP3    H217647   0.630   5.949   1.641  2.3353  1.9490 -1.5717
 5881TIP3   OH217648   5.317   0.678   3.808 -0.1271 -0.1504  0.0377
 5881TIP3    H117649   5.275   0.709   3.888 -3.7420 -2.0847 -0.9125
 5881TIP3    H217650   5.256   0.700   3.738  0.7671 -2.4739 -1.6080
 5882TIP3   OH217651   0.081   1.863   0.249 -0.0183  0.1968  0.2930
 5882TIP3    H117652   0.124   1.779   0.234  2.2703  1.7743 -3.3204
 5882TIP3    H217653   0.118   1.894   0.331  2.2150 -0.6191 -0.3237
 5883TIP3   OH217654   1.796   3.394   4.003  0.0242  0.0283  0.9459
 5883TIP3    H117655   1.815   3.333   4.074  1.5012 -0.6704  0.0050
 5883TIP3    H217656   1.794   3.480   4.045  0.0768 -0.4483  1.9539
 5884TIP3   OH217657   5.768   5.739   2.120 -0.9426 -0.1588 -0.3019
 5884TIP3    H117658   5.722   5.693   2.050  1.0775 -1.8310 -0.6351
 5884TIP3    H217659   5.858   5.747   2.088 -0.4014  0.7115  1.3293
 5885TIP3   OH217660   2.838   3.069   2.191 -0.2317  0.1013 -0.3017
 5885TIP3    H117661   2.895   3.051   2.265  0.7951 -0.5522 -1.2196
 5885TIP3    H217662   2.788   2.989   2.179 -1.4771  0.7212  0.5881
 5886TIP3   OH217663   2.223   5.577   0.888  0.2424 -0.1198  0.0993
 5886TIP3    H117664   2.298   5.545   0.839  0.6610  2.4145 -1.0632
 5886TIP3    H217665   2.260   5.631   0.958 -0.4704  0.1811  0.2631
 5887TIP3   OH217666   1.219   0.193   0.234 -0.2606  0.8004  0.6279
 5887TIP3    H117667   1.156   0.255   0.272 -0.5201  1.4492 -0.7919
 5887TIP3    H217668   1.227   0.221   0.143  1.4693  0.2088  0.5777
 5888TIP3   OH217669   4.891   1.375   3.842 -0.5443 -0.1740 -0.0150
 5888TIP3    H117670   4.850   1.392   3.758 -0.8191 -1.6595 -0.2025
 5888TIP3    H217671   4.983   1.360   3.822 -0.0816  1.9999  0.2730
 5889TIP3   OH217672   0.415   1.593   1.571  0.1988 -0.0834  0.6278
 5889TIP3    H117673   0.353   1.575   1.500 -0.3486  0.4472  0.9581
 5889TIP3    H217674   0.360   1.608   1.648  0.6537  1.6133  0.6686
 5890TIP3   OH217675   3.083   0.524   2.209 -0.1000  0.3513  0.2749
 5890TIP3    H117676   3.172   0.552   2.228  0.5245 -1.2771 -0.1465
 5890TIP3    H217677   3.063   0.564   2.124  0.0206  1.1235  0.5985
 5891TIP3   OH217678   1.932   1.148   0.752 -0.1723 -0.0339  1.4889
 5891TIP3    H117679   1.996   1.219   0.758 -0.6735  0.5286  0.4984
 5891TIP3    H217680   1.886   1.164   0.670 -0.2832 -1.5449  1.2307
 5892TIP3   OH217681   2.576   3.063   1.508  0.0767 -0.1421 -0.0987
 5892TIP3    H117682   2.647   3.009   1.543  1.0189 -1.2649 -3.3732
 5892TIP3    H217683   2.534   3.100   1.585  1.7559 -2.5660  2.1582
 5893TIP3   OH217684   4.860   5.451   1.241  0.7432  0.1252  0.1084
 5893TIP3    H117685   4.787   5.488   1.192 -0.8495 -2.0626  0.7143
 5893TIP3    H217686   4.842   5.472   1.332  1.4198  0.4061  0.1889
 5894TIP3   OH217687   2.682   1.818   1.915  0.1045  0.1034  1.2459
 5894TIP3    H117688   2.737   1.761   1.862 -0.9984 -1.4157  1.6731
 5894TIP3    H217689   2.618   1.853   1.854 -0.8523 -1.2451  1.4383
 5895TIP3   OH217690   0.126   0.498   0.318 -0.2888  0.3018  0.2362
 5895TIP3    H117691   0.129   0.576   0.372 -0.0537 -0.5200  1.4607
 5895TIP3    H217692   0.072   0.436   0.367 -2.1009  0.3018 -1.5997
 5896TIP3   OH217693   2.902   4.698   0.819 -0.3945 -0.0308 -0.2898
 5896TIP3    H117694   2.870   4.639   0.751  0.9387  0.8133 -1.7096
 5896TIP3    H217695   2.953   4.641   0.878  0.3005 -0.4456 -1.2558
 5897TIP3   OH217696   2.214   3.245   2.871  0.1275 -0.2352 -0.0546
 5897TIP3    H117697   2.146   3.232   2.805  0.5647  1.3003 -0.8581
 5897TIP3    H217698   2.242   3.156   2.895 -0.2928 -0.8366 -1.6642
 5898TIP3   OH217699   0.516   4.797   5.085 -0.1070 -0.2679  0.2039
 5898TIP3    H117700   0.453   4.830   5.149  0.7859 -1.4572  1.7516
 5898TIP3    H217701   0.552   4.876   5.044 -3.1174  0.4494 -1.3457
 5899TIP3   OH217702   4.518   3.143   3.875 -0.0506 -0.1552  0.0351
 5899TIP3    H117703   4.435   3.167   3.916 -1.1814 -0.9458 -1.6610
 5899TIP3    H217704   4.526   3.049   3.891  2.0453  0.3543  2.6860
 5900TIP3   OH217705   2.644   5.874   4.137 -0.0424  0.5709  0.0477
 5900TIP3    H117706   2.684   5.790   4.161  0.3888  0.5173 -0.8403
 5900TIP3    H217707   2.663   5.931   4.212  0.5853  0.1753  0.2018
 5901TIP3   OH217708   4.828   2.240   2.360 -0.2047 -0.0471  0.5724
 5901TIP3    H117709   4.813   2.243   2.265 -2.6098 -0.8062  0.8520
 5901TIP3    H217710   4.879   2.160   2.373 -0.0137 -0.0364 -0.0626
 5902TIP3   OH217711   2.033   2.759   3.421 -0.3072  0.3426 -0.4533
 5902TIP3    H117712   2.097   2.826   3.395 -0.8437  1.3850  0.7789
 5902TIP3    H217713   1.981   2.801   3.490 -0.2726 -1.5347  0.8114
 5903TIP3   OH217714   0.239   3.450   1.199  0.3115  0.6130 -0.1092
 5903TIP3    H117715   0.283   3.407   1.273 -0.8118  1.5014  1.1323
 5903TIP3    H217716   0.274   3.406   1.122  1.1777 -0.6917  0.9682
 5904TIP3   OH217717   1.851   1.849   0.302  0.6095  0.0335 -0.1182
 5904TIP3    H117718   1.788   1.780   0.323  0.6903  0.0155  0.0636
 5904TIP3    H217719   1.928   1.802   0.271  0.3360  0.0722 -0.8862
 5905TIP3   OH217720   1.943   4.550   2.936 -0.2939  0.3130  0.7875
 5905TIP3    H117721   1.965   4.476   2.879  0.7020  0.4493  0.9734
 5905TIP3    H217722   1.933   4.510   3.023 -4.0044 -0.2523  0.2368
 5906TIP3   OH217723   2.317   2.427   2.847  0.1108  0.2227  0.3277
 5906TIP3    H117724   2.298   2.503   2.793  0.5000 -1.3201 -2.1297
 5906TIP3    H217725   2.231   2.385   2.859  0.2799 -0.5197 -0.8911
 5907TIP3   OH217726   2.525   1.719   0.892 -0.1867 -0.2353  0.0944
 5907TIP3    H117727   2.564   1.634   0.913 -0.0347 -0.1024  0.3439
 5907TIP3    H217728   2.522   1.766   0.975 -2.3574 -0.8317  0.4192
 5908TIP3   OH217729   3.365   0.770   3.877 -0.1167  0.2092 -0.1983
 5908TIP3    H117730   3.435   0.830   3.902 -0.1872 -0.3566  1.5007
 5908TIP3    H217731   3.301   0.824   3.831 -0.2061  1.4750  1.3381
 5909TIP3   OH217732   2.132   2.180   3.359  0.1167  0.2693  0.6091
 5909TIP3    H117733   2.053   2.125   3.363 -0.4537  0.9323 -0.7871
 5909TIP3    H217734   2.203   2.122   3.387 -0.6176 -0.8765  0.1895
 5910TIP3   OH217735   4.787   3.914   0.533 -0.2214  0.2344  0.5672
 5910TIP3    H117736   4.875   3.951   0.527  0.0069 -0.5534 -2.1354
 5910TIP3    H217737   4.731   3.988   0.558  0.9541  1.1822  0.4540
 5911TIP3   OH217738   2.787   4.948   0.827  0.4945  0.4328  0.2542
 5911TIP3    H117739   2.731   4.961   0.903 -0.0102  1.0986 -0.2213
 5911TIP3    H217740   2.823   4.860   0.839  0.1004  0.3698  1.0505
 5912TIP3   OH217741   5.994   2.640   3.172 -0.3679 -0.1527 -0.3455
 5912TIP3    H117742   6.078   2.596   3.158 -0.6508 -0.6575 -0.4750
 5912TIP3    H217743   6.009   2.729   3.142 -0.4859 -0.7695 -2.3742
 5913TIP3   OH217744   4.941   5.632   0.246 -0.2534 -0.1263  0.6613
 5913TIP3    H117745   4.955   5.549   0.200  3.2127 -0.1149  1.4058
 5913TIP3    H217746   4.911   5.606   0.333 -0.9176 -0.4807  0.3303
 5914TIP3   OH217747   5.327   4.289   1.690  0.6410 -0.4215 -0.1679
 5914TIP3    H117748   5.264   4.285   1.618  0.9816  0.8994 -0.5596
 5914TIP3    H217749   5.340   4.197   1.715 -0.6439 -0.7825 -0.7598
 5915TIP3   OH217750   4.909   0.092   0.707 -0.3265  0.0471 -0.4649
 5915TIP3    H117751   4.953   0.007   0.703 -1.0966 -0.4924  1.3287
 5915TIP3    H217752   4.979   0.156   0.698  0.2854 -0.7498 -1.7251
 5916TIP3   OH217753   2.994   2.046   4.573  0.2704  0.2561 -0.3632
 5916TIP3    H117754   3.008   2.055   4.667 -0.3022 -1.4128 -0.0861
 5916TIP3    H217755   3.081   2.056   4.535  1.5427 -4.0093  0.8261
 5917TIP3   OH217756   6.233   5.881   4.506  0.1342 -0.0409 -0.1633
 5917TIP3    H117757   6.326   5.877   4.528 -0.0809 -1.3581  0.6434
 5917TIP3    H217758   6.195   5.942   4.569  0.1370 -1.0709  0.8890
 5918TIP3   OH217759   4.110   0.845   1.814  0.2867  0.3075  0.5601
 5918TIP3    H117760   4.139   0.803   1.734 -2.5315  0.6898 -0.7636
 5918TIP3    H217761   4.092   0.773   1.874  0.1466 -0.1214  0.0112
 5919TIP3   OH217762   5.059   3.026   0.320 -0.0854 -0.2019  0.0923
 5919TIP3    H117763   5.149   3.048   0.344  0.0802 -2.2238  1.5275
 5919TIP3    H217764   5.012   3.109   0.326  1.4699  0.7025  0.3073
 5920TIP3   OH217765   0.433   2.320   3.589  0.0926  0.1104  0.3468
 5920TIP3    H117766   0.425   2.252   3.522 -0.5249 -0.4692  0.9912
 5920TIP3    H217767   0.368   2.386   3.565  0.4557  0.3151 -0.0877
 5921TIP3   OH217768   0.749   3.697   2.515  0.6200 -1.0778 -0.1300
 5921TIP3    H117769   0.698   3.628   2.472 -0.4461  0.2460 -1.0465
 5921TIP3    H217770   0.816   3.720   2.450  1.4572 -1.7614  0.4759
 5922TIP3   OH217771   3.220   2.475   2.601 -0.2540 -0.3375 -0.3709
 5922TIP3    H117772   3.293   2.426   2.641 -0.4893 -1.6629 -1.4902
 5922TIP3    H217773   3.230   2.460   2.507 -2.2745 -0.9979 -0.5251
 5923TIP3   OH217774   2.695   3.911   4.116 -0.8040 -0.1562  0.0503
 5923TIP3    H117775   2.665   3.975   4.051  0.4177  1.2502  0.8324
 5923TIP3    H217776   2.670   3.826   4.078  1.2440  0.4365 -3.0703
 5924TIP3   OH217777   2.408   2.051   3.748 -0.1954  0.1612 -0.2429
 5924TIP3    H117778   2.382   2.077   3.660  1.9565  0.4822 -0.8426
 5924TIP3    H217779   2.385   2.126   3.803 -1.1710  0.1212 -0.5883
 5925TIP3   OH217780   0.356   0.821   3.909 -0.1686 -0.2810  0.1065
 5925TIP3    H117781   0.330   0.731   3.928  0.8350 -0.4933  0.5476
 5925TIP3    H217782   0.335   0.834   3.817 -1.0681 -0.6939  0.2424
 5926TIP3   OH217783   5.705   0.373   4.015  0.3448 -0.3501  0.7196
 5926TIP3    H117784   5.612   0.388   3.999  0.0356 -1.7042  1.0468
 5926TIP3    H217785   5.733   0.447   4.068 -0.8570 -0.4936  1.6057
 5927TIP3   OH217786   5.652   3.340   2.497 -0.1658  0.2630  0.4400
 5927TIP3    H117787   5.601   3.421   2.506  0.3422  0.5701  0.6529
 5927TIP3    H217788   5.739   3.364   2.529 -0.2070 -0.5721  1.2177
 5928TIP3   OH217789   5.334   5.809   4.064  0.9992  0.2098 -0.4747
 5928TIP3    H117790   5.325   5.741   4.131  1.9772  1.0388  0.5184
 5928TIP3    H217791   5.243   5.835   4.046  0.7510  1.0861  1.7093
 5929TIP3   OH217792   5.147   3.439   4.539  0.1255 -0.6717 -0.5371
 5929TIP3    H117793   5.150   3.424   4.633 -0.3450 -0.7699 -0.5326
 5929TIP3    H217794   5.154   3.351   4.501  1.8521 -0.5160 -0.6465
 5930TIP3   OH217795   2.545   1.674   2.160  0.1175 -0.3447  0.5860
 5930TIP3    H117796   2.632   1.708   2.178 -0.2072  1.5639 -1.0247
 5930TIP3    H217797   2.559   1.600   2.101  0.6328  0.3947 -0.2346
 5931TIP3   OH217798   6.254   2.898   3.977 -0.1545  0.2351 -0.1448
 5931TIP3    H117799   6.276   2.805   3.990 -0.0035  0.3828  0.7210
 5931TIP3    H217800   6.325   2.933   3.925  0.0398 -0.0284 -0.0569
 5932TIP3   OH217801   1.377   1.616   3.919  0.7181  0.4204  0.9341
 5932TIP3    H117802   1.468   1.600   3.897  0.6851  0.1572  0.9927
 5932TIP3    H217803   1.359   1.703   3.883  1.7046  1.5865  3.0542
 5933TIP3   OH217804   5.562   0.528   4.271 -0.0858  0.0377 -0.1742
 5933TIP3    H117805   5.607   0.491   4.347 -0.3484 -0.8838 -0.4546
 5933TIP3    H217806   5.625   0.590   4.233  0.9543 -1.2201 -0.5560
 5934TIP3   OH217807   4.734   3.281   1.935 -0.1735  0.3813 -0.3112
 5934TIP3    H117808   4.729   3.358   1.991 -0.6381  0.0392  0.1233
 5934TIP3    H217809   4.705   3.312   1.849  0.5967  0.9186 -0.3873
 5935TIP3   OH217810   4.622   5.289   3.136 -0.3887 -0.5282 -0.5594
 5935TIP3    H117811   4.580   5.309   3.053 -1.0511  0.3948 -0.0240
 5935TIP3    H217812   4.665   5.371   3.162  1.7798 -1.4305 -1.0828
 5936TIP3   OH217813   2.355   0.513   0.673 -0.9247 -0.0190 -0.0006
 5936TIP3    H117814   2.437   0.522   0.723 -1.7839 -1.1266  1.7011
 5936TIP3    H217815   2.373   0.556   0.590  2.0899 -1.8830 -0.4799
 5937TIP3   OH217816   0.605   0.910   1.289 -0.4443 -0.3170 -0.6216
 5937TIP3    H117817   0.698   0.919   1.309 -1.0076  0.2685  2.0231
 5937TIP3    H217818   0.590   0.972   1.217  1.4064 -1.3596 -2.0091
 5938TIP3   OH217819   3.872   1.513   2.520  0.2020 -0.3798  0.6812
 5938TIP3    H117820   3.819   1.455   2.574 -0.0020 -0.9906 -0.1503
 5938TIP3    H217821   3.857   1.482   2.430  3.3612 -1.7724  0.5207
 5939TIP3   OH217822   5.224   3.189   1.621  0.1146 -0.6849  0.2074
 5939TIP3    H117823   5.277   3.136   1.562 -1.6450 -0.9733 -1.2345
 5939TIP3    H217824   5.209   3.271   1.573 -0.7795 -0.6529  0.5109
 5940TIP3   OH217825   4.297   1.938   2.681 -0.2351  0.3158 -0.6062
 5940TIP3    H117826   4.256   1.996   2.617 -0.5456 -0.1591 -0.8508
 5940TIP3    H217827   4.248   1.953   2.762  0.8508  1.7056 -0.1725
 5941TIP3   OH217828   3.533   2.463   1.812 -0.3979 -0.0163  0.0824
 5941TIP3    H117829   3.489   2.419   1.739 -0.3769 -0.6607  0.4433
 5941TIP3    H217830   3.474   2.449   1.887  1.0435 -2.1935  0.9247
 5942TIP3   OH217831   2.363   0.285   1.769 -0.0706 -0.6554 -0.0764
 5942TIP3    H117832   2.382   0.228   1.694  2.1226  0.0824 -0.1528
 5942TIP3    H217833   2.398   0.370   1.743 -0.7256  0.0112  1.1706
 5943TIP3   OH217834   2.476   0.744   2.449 -0.3311  0.1781 -0.8157
 5943TIP3    H117835   2.553   0.751   2.505 -0.7816  2.5811 -0.4087
 5943TIP3    H217836   2.412   0.697   2.502 -0.9805  2.9889  1.0939
 5944TIP3   OH217837   2.154   5.698   4.402  0.2347  0.1034 -0.0334
 5944TIP3    H117838   2.143   5.689   4.497  0.4087 -1.4362 -0.1270
 5944TIP3    H217839   2.077   5.655   4.364  1.5246 -1.9146 -0.5727
 5945TIP3   OH217840   5.860   3.468   5.118 -0.0283 -0.3088 -0.4092
 5945TIP3    H117841   5.860   3.461   5.213 -0.1531  0.1553 -0.3751
 5945TIP3    H217842   5.909   3.392   5.088  1.7041  0.5753  0.0977
 5946TIP3   OH217843   2.725   4.190   0.681 -0.3034  0.6325  0.2244
 5946TIP3    H117844   2.767   4.244   0.747  0.0132  2.0827 -1.0985
 5946TIP3    H217845   2.794   4.173   0.617 -0.3268 -1.6098  0.7270
 5947TIP3   OH217846   2.635   0.540   0.797  0.3098 -0.6257 -0.1042
 5947TIP3    H117847   2.624   0.624   0.840 -0.9539  0.3546 -2.1653
 5947TIP3    H217848   2.667   0.481   0.866 -1.0354  0.9461  1.9862
 5948TIP3   OH217849   0.089   0.087   4.814  0.0435  0.1894  0.0633
 5948TIP3    H117850   0.062   0.140   4.889 -2.0081  0.2065 -0.6415
 5948TIP3    H217851   0.035   0.008   4.820 -0.1848  0.2112 -1.4093
 5949TIP3   OH217852   4.505   5.586   2.474  0.2133  0.1239  0.2215
 5949TIP3    H117853   4.591   5.546   2.459  1.4365  2.3823  0.8240
 5949TIP3    H217854   4.520   5.680   2.465 -2.7383  0.5206 -2.1182
 5950TIP3   OH217855   0.236   3.423   4.451  0.0816  0.5592  0.5334
 5950TIP3    H117856   0.169   3.454   4.390  0.1749 -1.8826 -0.9347
 5950TIP3    H217857   0.209   3.334   4.474  2.2080 -0.0678  0.8088
 5951TIP3   OH217858   3.036   4.895   3.329  0.2783 -0.0671 -0.0519
 5951TIP3    H117859   3.005   4.949   3.401 -0.9532 -1.5954  0.6241
 5951TIP3    H217860   2.961   4.839   3.307  0.7636  0.0327 -2.2283
 5952TIP3   OH217861   3.103   0.257   2.132  0.4006  0.1050  0.0353
 5952TIP3    H117862   3.072   0.223   2.216  0.3649 -0.0691 -0.0490
 5952TIP3    H217863   3.096   0.352   2.141 -0.0610  0.0687  0.0540
 5953TIP3   OH217864   6.290   1.118   2.396 -0.4255 -0.0322 -0.0427
 5953TIP3    H117865   6.220   1.176   2.423 -0.0573 -0.2970  1.5799
 5953TIP3    H217866   6.249   1.058   2.333 -2.1583 -1.2693  2.1179
 5954TIP3   OH217867   3.057   0.021   4.487 -0.6748  0.1998 -0.2445
 5954TIP3    H117868   2.976   0.016   4.437 -1.0630 -1.6074  0.4888
 5954TIP3    H217869   3.035  -0.017   4.572  0.9099 -0.2010  0.0152
 5955TIP3   OH217870   2.599   2.580   4.827 -0.3484  0.2703  0.3995
 5955TIP3    H117871   2.541   2.532   4.769 -0.2997 -0.7142  1.1277
 5955TIP3    H217872   2.659   2.513   4.861 -0.1519  0.8792  1.2904
 5956TIP3   OH217873   4.507   5.423   2.934  0.3583 -0.2821 -0.2638
 5956TIP3    H117874   4.424   5.386   2.905  0.0741  0.2786 -0.1890
 5956TIP3    H217875   4.520   5.500   2.877  1.2450 -0.8409 -0.8383
 5957TIP3   OH217876   6.089   1.626   2.924  0.0967  0.2397 -0.4004
 5957TIP3    H117877   5.997   1.597   2.921 -0.7345  2.7257 -1.5461
 5957TIP3    H217878   6.126   1.594   2.842  0.1130 -0.2851 -0.1941
 5958TIP3   OH217879   3.096   2.330   1.883  0.1968  0.4105  0.5434
 5958TIP3    H117880   3.097   2.282   1.800 -0.5062  0.5883  0.4274
 5958TIP3    H217881   3.013   2.378   1.881  0.5288  1.0009  1.0147
 5959TIP3   OH217882   5.058   0.467   1.911 -0.1865 -0.3042  0.2998
 5959TIP3    H117883   5.124   0.504   1.853 -0.7101 -1.8484 -1.3780
 5959TIP3    H217884   5.108   0.435   1.987  0.8237 -0.3102 -0.3516
 5960TIP3   OH217885   6.124   2.340   2.188 -0.4174  0.0857 -0.2157
 5960TIP3    H117886   6.042   2.367   2.230 -0.1264 -0.2414  0.5911
 5960TIP3    H217887   6.189   2.343   2.259  0.1353 -0.2778 -0.6994
 5961TIP3   OH217888   1.700   2.175   4.273  0.1485 -0.7913 -0.1162
 5961TIP3    H117889   1.636   2.106   4.291  0.8499 -1.4721 -0.1876
 5961TIP3    H217890   1.785   2.134   4.292  0.6693 -0.4160 -1.5406
 5962TIP3   OH217891   0.987   5.447   3.449 -0.1829  0.3627 -0.3741
 5962TIP3    H117892   0.942   5.383   3.394 -0.2966  1.2448 -1.3321
 5962TIP3    H217893   0.959   5.425   3.538  0.0149 -1.0930 -0.6335
 5963TIP3   OH217894   2.320   5.738   4.703  0.5280  0.8130 -0.1489
 5963TIP3    H117895   2.359   5.725   4.617  1.4732 -1.3212  0.5336
 5963TIP3    H217896   2.238   5.689   4.701 -0.5622  2.5759 -0.5044
 5964TIP3   OH217897   0.389   4.097   2.205  1.1312  0.7096  0.5876
 5964TIP3    H117898   0.348   4.167   2.155  0.1375  1.3606  2.2493
 5964TIP3    H217899   0.351   4.104   2.293 -0.1397 -2.8531  0.4631
 5965TIP3   OH217900   2.101   3.931   0.672 -0.1828 -0.6051 -0.0777
 5965TIP3    H117901   2.050   3.850   0.679 -0.4795 -0.2814  1.8139
 5965TIP3    H217902   2.070   3.972   0.591  0.2595 -2.5411 -1.3063
 5966TIP3   OH217903   3.039   0.400   5.078  0.3382 -0.3437 -0.7179
 5966TIP3    H117904   3.055   0.426   5.169  2.2628 -0.9873 -0.8112
 5966TIP3    H217905   3.046   0.304   5.079  0.4578 -0.3544 -1.5416
 5967TIP3   OH217906   0.756   4.100   0.890  0.3009 -0.3463  0.0518
 5967TIP3    H117907   0.769   4.008   0.916 -0.3647 -0.2520  0.7460
 5967TIP3    H217908   0.758   4.148   0.972  1.2265  0.3409 -0.3647
 5968TIP3   OH217909   3.155   2.432   5.009 -0.6688  0.2462  0.2863
 5968TIP3    H117910   3.168   2.526   5.001  0.9463  0.0085 -0.2631
 5968TIP3    H217911   3.194   2.395   4.930  0.4779 -1.0017  1.3624
 5969TIP3   OH217912   2.258   3.140   0.943  0.3409  0.0035  0.0703
 5969TIP3    H117913   2.221   3.220   0.905  0.1007 -0.1769 -0.0747
 5969TIP3    H217914   2.328   3.115   0.882  1.7978  1.2284  1.1557
 5970TIP3   OH217915   3.737   2.479   1.193 -0.1471  0.1700  0.4618
 5970TIP3    H117916   3.816   2.482   1.248 -1.2065 -1.0544  2.1534
 5970TIP3    H217917   3.675   2.427   1.244 -1.1628 -1.1584 -1.9934
 5971TIP3   OH217918   0.898   0.133   5.022  0.5204 -0.0627  0.0006
 5971TIP3    H117919   0.828   0.180   5.067  0.9702 -0.2964  0.9775
 5971TIP3    H217920   0.977   0.184   5.040  0.8244 -0.5528  0.1007
 5972TIP3   OH217921   5.277   5.559   4.157  0.1162  0.0973 -0.3519
 5972TIP3    H117922   5.370   5.540   4.161 -0.5048 -3.5511  0.3720
 5972TIP3    H217923   5.248   5.523   4.073 -0.4883  2.6872 -1.3775
 5973TIP3   OH217924   5.319   3.668   3.781  0.1800 -0.5776 -0.3097
 5973TIP3    H117925   5.397   3.626   3.817 -0.3571 -2.3133 -1.0331
 5973TIP3    H217926   5.341   3.761   3.777  2.2847 -1.0376 -0.6741
 5974TIP3   OH217927   0.049   1.645   3.384  0.0859 -0.3656 -0.3908
 5974TIP3    H117928  -0.020   1.692   3.431 -0.0125 -1.9477  1.1727
 5974TIP3    H217929   0.037   1.668   3.292 -1.2247  0.9995  0.0977
 5975TIP3   OH217930   5.166   5.526   0.454  0.3204  0.0502  0.4325
 5975TIP3    H117931   5.169   5.436   0.486  1.2287 -0.1665 -0.2431
 5975TIP3    H217932   5.094   5.566   0.504 -1.1075 -1.4465 -0.3297
 5976TIP3   OH217933   4.631   2.796   2.357 -0.3187  0.0581 -0.0947
 5976TIP3    H117934   4.543   2.819   2.328 -0.9225 -0.8336  0.9577
 5976TIP3    H217935   4.618   2.752   2.441  1.0983 -0.4732 -0.1257
 5977TIP3   OH217936   3.117   2.541   2.356 -0.0139 -0.3497 -0.1692
 5977TIP3    H117937   3.133   2.619   2.410  0.2434 -0.5949  0.1144
 5977TIP3    H217938   3.040   2.563   2.304  0.1694  0.1660 -0.2267
 5978TIP3   OH217939   0.086   0.143   1.359 -0.5014  0.0400  0.3667
 5978TIP3    H117940   0.056   0.129   1.269 -0.9830 -0.6591  0.6259
 5978TIP3    H217941   0.111   0.236   1.362 -2.7354  0.7120  0.1453
 5979TIP3   OH217942   4.974   1.970   1.224  0.1530 -0.1847 -0.5305
 5979TIP3    H117943   4.907   1.947   1.288  1.5850 -3.1727  0.0360
 5979TIP3    H217944   5.053   1.984   1.276  0.2380  2.7577 -1.2458
 5980TIP3   OH217945   5.712   5.852   0.478  0.5554 -0.0177  0.4292
 5980TIP3    H117946   5.685   5.772   0.433 -0.9509  0.5640  0.2641
 5980TIP3    H217947   5.668   5.923   0.431 -0.2358  0.6880  2.1436
 5981TIP3   OH217948   3.772   4.370   2.869  0.1531 -0.1685 -0.0593
 5981TIP3    H117949   3.835   4.416   2.812  1.1105  0.3458  1.3668
 5981TIP3    H217950   3.827   4.326   2.934 -0.9423 -0.0557  0.9715
 5982TIP3   OH217951   5.620   2.401   4.649  0.0663  0.8846 -0.3358
 5982TIP3    H117952   5.700   2.450   4.668 -0.8924  1.3371  3.1114
 5982TIP3    H217953   5.645   2.309   4.658  0.6748  0.8837 -1.6927
 5983TIP3   OH217954   0.580   5.304   1.505 -0.0499 -0.0574 -0.3833
 5983TIP3    H117955   0.613   5.214   1.498 -1.0338 -0.6361  1.5571
 5983TIP3    H217956   0.657   5.359   1.499  0.7102 -1.1062 -0.5073
 5984TIP3   OH217957   0.242   0.164   4.215 -0.2879  0.0245 -0.5162
 5984TIP3    H117958   0.249   0.074   4.182  1.1675 -0.0182 -0.1437
 5984TIP3    H217959   0.153   0.190   4.192 -0.6838 -1.4432 -0.8033
 5985TIP3   OH217960   1.453   2.683   2.909 -0.0706  0.0733 -0.1846
 5985TIP3    H117961   1.380   2.631   2.944 -0.0390  0.2073  0.0914
 5985TIP3    H217962   1.492   2.723   2.987  0.7212 -0.5376 -0.2639
 5986TIP3   OH217963   3.306   1.952   3.610  0.2856  0.1389  0.1228
 5986TIP3    H117964   3.353   1.883   3.657  1.4708 -0.4102 -1.7806
 5986TIP3    H217965   3.370   1.989   3.550 -1.4487 -0.1146 -2.0457
 5987TIP3   OH217966   4.094   1.968   1.508 -0.1459 -0.1750  0.4353
 5987TIP3    H117967   4.188   1.981   1.499  0.0808 -1.1509  1.2701
 5987TIP3    H217968   4.058   2.056   1.514  0.5679  0.2604 -1.1048
 5988TIP3   OH217969   0.229   0.584   3.923 -0.3399  0.1632 -0.8330
 5988TIP3    H117970   0.159   0.542   3.973  0.4094 -1.5725 -1.1644
 5988TIP3    H217971   0.189   0.600   3.837 -0.3702 -0.7920 -1.0130
 5989TIP3   OH217972   6.089   3.174   4.834 -0.1030  0.2582  0.1666
 5989TIP3    H117973   6.002   3.199   4.805 -0.0005 -1.3572 -1.7523
 5989TIP3    H217974   6.147   3.200   4.762  1.0277  1.2949  1.4030
 5990TIP3   OH217975   4.047   3.531   4.554  0.1468  0.5228 -0.1822
 5990TIP3    H117976   4.120   3.472   4.574 -1.5323 -1.7199 -0.3298
 5990TIP3    H217977   3.977   3.503   4.612 -0.6959  2.4812 -0.2002
 5991TIP3   OH217978   1.327   4.639   4.832 -0.9984  0.2908 -0.2680
 5991TIP3    H117979   1.236   4.654   4.804 -0.6260 -1.5741 -2.8629
 5991TIP3    H217980   1.380   4.681   4.765 -0.0157 -1.2241 -0.4977
 5992TIP3   OH217981   1.473   5.076   0.596 -0.4881  0.1301 -0.0345
 5992TIP3    H117982   1.536   5.144   0.573  1.2179 -0.7058  1.9331
 5992TIP3    H217983   1.388   5.118   0.583  0.3780  1.3841 -2.5073
 5993TIP3   OH217984   4.839   0.059   4.798 -0.1698  0.2091  0.1463
 5993TIP3    H117985   4.791  -0.021   4.777 -2.0134  0.9863  1.1532
 5993TIP3    H217986   4.806   0.123   4.734  0.4909  0.4397  0.0329
 5994TIP3   OH217987   4.327   3.276   2.137 -0.3500  0.0568  0.4369
 5994TIP3    H117988   4.324   3.197   2.084  0.6784  0.6023 -0.4741
 5994TIP3    H217989   4.246   3.322   2.116  0.7109  1.0026 -1.9070
 5995TIP3   OH217990   4.578   3.533   3.692 -0.1482  0.0845 -0.4103
 5995TIP3    H117991   4.551   3.625   3.693 -0.9569 -0.1471  0.3497
 5995TIP3    H217992   4.654   3.531   3.633 -1.3955  0.8869 -2.1356
 5996TIP3   OH217993   2.030   0.708   2.491  0.5589 -0.2145 -0.7416
 5996TIP3    H117994   2.110   0.661   2.518  1.5853  0.6189 -2.1757
 5996TIP3    H217995   2.042   0.796   2.527 -0.9946 -0.7574  1.2735
 5997TIP3   OH217996   0.083   3.789   4.664 -0.1966  0.6317  0.3937
 5997TIP3    H117997   0.140   3.846   4.612  2.0620 -0.9660  0.9744
 5997TIP3    H217998   0.133   3.708   4.675 -2.4494 -0.7390  1.2974
 5998TIP3   OH217999   4.687   5.804   3.039  0.1868 -0.0785 -0.3644
 5998TIP3    H118000   4.656   5.762   2.959  2.1052 -0.4933 -0.9390
 5998TIP3    H218001   4.650   5.892   3.037 -2.6478 -1.1625  0.0854
 5999TIP3   OH218002   3.703   2.773   2.068 -0.8295 -0.3585 -0.2639
 5999TIP3    H118003   3.793   2.741   2.060 -0.2176  0.8240  1.2538
 5999TIP3    H218004   3.666   2.721   2.139 -1.2104 -0.5348 -0.5892
 6000TIP3   OH218005   5.455   1.333   0.982  0.0826  0.4081 -0.0871
 6000TIP3    H118006   5.504   1.415   0.995 -1.1990  1.3220 -0.7725
 6000TIP3    H218007   5.365   1.355   1.006 -0.3953 -0.6337 -0.8588
 6001TIP3   OH218008   1.308   1.727   2.353 -0.1159  0.0195 -0.4148
 6001TIP3    H118009   1.304   1.803   2.295  0.9167 -0.8389 -1.6661
 6001TIP3    H218010   1.220   1.689   2.348 -0.1411  0.1524 -1.1688
 6002TIP3   OH218011   6.037   2.606   1.183 -0.1738  0.0173  0.1164
 6002TIP3    H118012   5.971   2.674   1.165  1.1470  0.7720 -2.4357
 6002TIP3    H218013   6.025   2.543   1.112  0.8327 -0.6253  0.5040
 6003TIP3   OH218014   3.294   4.871   1.565  0.2452  0.0642  0.2030
 6003TIP3    H118015   3.279   4.939   1.632  1.1795 -1.5706  2.1614
 6003TIP3    H218016   3.251   4.906   1.487  1.7995  3.5510  0.6787
 6004TIP3   OH218017   4.505   1.741   1.626 -0.0646 -0.4610 -0.1723
 6004TIP3    H118018   4.511   1.771   1.536  0.7086  0.7496  0.2590
 6004TIP3    H218019   4.411   1.734   1.643 -0.2136 -0.6508 -1.0503
 6005TIP3   OH218020   1.861   4.379   2.501 -0.3058  0.4357 -0.0497
 6005TIP3    H118021   1.865   4.470   2.473 -0.9284  0.2784 -0.6580
 6005TIP3    H218022   1.927   4.373   2.570 -1.6851  1.8590  1.4805
 6006TIP3   OH218023   1.097   3.148   3.354 -0.0066 -0.0384 -0.1296
 6006TIP3    H118024   1.135   3.218   3.301  0.8546  1.1612  1.9542
 6006TIP3    H218025   1.007   3.174   3.369  0.0577  0.1691 -0.1087
 6007TIP3   OH218026   3.059   3.723   4.163  0.5421  0.5444 -0.1942
 6007TIP3    H118027   3.054   3.817   4.143  0.6307  0.4654 -0.5929
 6007TIP3    H218028   3.122   3.689   4.100 -0.7047 -0.0814 -1.1368
 6008TIP3   OH218029   4.101   1.149   1.779 -0.0403  0.3243  0.3953
 6008TIP3    H118030   4.008   1.168   1.789 -0.6247  0.1261 -3.2236
 6008TIP3    H218031   4.107   1.054   1.788 -0.0011  0.4370  1.6207
 6009TIP3   OH218032   0.855   1.854   0.774  0.1048  0.1038  1.1709
 6009TIP3    H118033   0.810   1.812   0.700  2.1810  0.1781 -0.2355
 6009TIP3    H218034   0.917   1.915   0.732  2.8906 -1.3881  2.8351
 6010TIP3   OH218035   5.715   3.139   4.735 -0.2220 -0.1352 -0.5242
 6010TIP3    H118036   5.759   3.224   4.735 -3.0792  1.5294  1.0398
 6010TIP3    H218037   5.689   3.126   4.827 -1.6673 -1.6539 -1.1004
 6011TIP3   OH218038   4.490   4.592   5.079 -0.3822  0.5230 -0.5423
 6011TIP3    H118039   4.530   4.512   5.046  0.5913  0.9263 -0.4016
 6011TIP3    H218040   4.397   4.582   5.063 -0.1200 -0.0419 -1.7947
 6012TIP3   OH218041   2.208   0.826   0.371 -0.6923 -0.1325 -0.5984
 6012TIP3    H118042   2.184   0.896   0.309 -1.0102  0.0914 -0.2270
 6012TIP3    H218043   2.272   0.867   0.429 -0.2967 -0.3814 -0.8549
 6013TIP3   OH218044   3.017   0.692   1.480  0.2277  0.4052 -0.1906
 6013TIP3    H118045   3.026   0.651   1.567  1.7474  2.8000  0.8634
 6013TIP3    H218046   3.093   0.750   1.472 -1.0269  1.8992 -2.2118
 6014TIP3   OH218047   4.871   3.095   4.213  0.2153  0.4363 -0.1035
 6014TIP3    H118048   4.856   3.003   4.235 -0.9267  0.7325  0.4610
 6014TIP3    H218049   4.804   3.142   4.263  2.4940  1.8421  1.8779
 6015TIP3   OH218050   4.258   2.470   0.033 -0.7875 -0.7122 -0.0590
 6015TIP3    H118051   4.187   2.408   0.049 -1.2468  0.1397  1.5415
 6015TIP3    H218052   4.338   2.422   0.057 -1.1332 -0.7419  1.1294
 6016TIP3   OH218053   2.492   4.788   5.096  0.0458  0.1693 -0.0898
 6016TIP3    H118054   2.576   4.782   5.140  1.2204 -1.7791 -2.3876
 6016TIP3    H218055   2.504   4.742   5.014 -2.9571  0.8381 -1.0437
 6017TIP3   OH218056   3.040   5.588   3.702  0.3503  0.0815 -0.7838
 6017TIP3    H118057   2.957   5.594   3.751  0.0747 -1.5009 -1.0184
 6017TIP3    H218058   3.106   5.618   3.765  0.0206 -2.0236  0.6738
 6018TIP3   OH218059   1.806   1.064   2.602  0.4720  0.0428 -0.0234
 6018TIP3    H118060   1.889   1.064   2.554 -0.3793  0.7831 -1.5716
 6018TIP3    H218061   1.788   1.156   2.619 -0.3716 -0.0537 -0.3302
 6019TIP3   OH218062   0.605   4.048   2.930 -0.0395 -0.2163  0.1421
 6019TIP3    H118063   0.561   4.102   2.863 -0.2526  0.5258  0.8688
 6019TIP3    H218064   0.550   3.970   2.937 -1.2429  0.6838  1.0123
 6020TIP3   OH218065   3.687   0.983   0.896  0.0083  0.5388 -0.1698
 6020TIP3    H118066   3.732   1.067   0.887 -0.4815  0.6520 -2.0741
 6020TIP3    H218067   3.756   0.917   0.887  0.1627  0.7262 -0.3445
 6021TIP3   OH218068   3.728   0.175   4.289  0.1793  0.0594 -0.0705
 6021TIP3    H118069   3.643   0.217   4.300  0.5305  0.2438  2.3987
 6021TIP3    H218070   3.771   0.227   4.221 -0.8335  1.3580  0.2327
 6022TIP3   OH218071   3.010   1.368   2.000 -0.6679  0.1567 -0.0076
 6022TIP3    H118072   3.032   1.386   2.091 -2.1320  0.0984  0.3694
 6022TIP3    H218073   3.071   1.299   1.974 -0.7656 -0.3933  1.1748
 6023TIP3   OH218074   4.693   5.766   3.409 -0.2412  0.4811 -0.4891
 6023TIP3    H118075   4.740   5.838   3.367  2.1593 -0.3417  0.5873
 6023TIP3    H218076   4.676   5.797   3.497 -0.6210  0.3098 -0.5010
 6024TIP3   OH218077   5.224   2.963   4.831 -0.3763 -0.0593 -0.1106
 6024TIP3    H118078   5.195   2.934   4.745 -1.5487  1.0654 -0.1123
 6024TIP3    H218079   5.265   3.048   4.816 -2.4321  1.1296  0.6724
 6025TIP3   OH218080   3.659   4.533   3.095 -0.2702  0.0761 -0.1651
 6025TIP3    H118081   3.707   4.475   3.155  0.0176  0.5228  0.0342
 6025TIP3    H218082   3.713   4.535   3.016 -0.0465  0.4356 -0.0054
 6026TIP3   OH218083   3.416   0.169   3.105  0.1630 -0.3607 -0.2569
 6026TIP3    H118084   3.335   0.158   3.055 -0.6977  0.6837  0.8413
 6026TIP3    H218085   3.415   0.096   3.168 -0.6928  0.4662  0.7206
 6027TIP3   OH218086   1.008   5.292   2.293 -0.1307  0.5041  0.5013
 6027TIP3    H118087   1.072   5.282   2.364 -1.6835 -1.7377  1.7066
 6027TIP3    H218088   0.983   5.202   2.270 -1.7908  1.2729 -0.9112
 6028TIP3   OH218089   3.492   0.538   2.744  0.4464 -0.0558  0.8038
 6028TIP3    H118090   3.518   0.629   2.756 -0.6606  0.2095  1.2228
 6028TIP3    H218091   3.463   0.509   2.830  1.1279 -0.9220  0.7538
 6029TIP3   OH218092   6.320   4.069   2.557  0.0718  0.4588  0.2314
 6029TIP3    H118093   6.238   4.099   2.597  0.2592 -0.0186  1.0115
 6029TIP3    H218094   6.383   4.069   2.630  0.2781 -0.9892  0.0879
 6030TIP3   OH218095   4.140   5.722   2.700  0.2573 -0.1745  0.0398
 6030TIP3    H118096   4.182   5.791   2.753  0.0575 -1.3413  1.7967
 6030TIP3    H218097   4.185   5.642   2.726  1.3507 -0.6554 -2.8725
 6031TIP3   OH218098   3.729   2.244   4.553 -0.6813 -0.3801  0.2788
 6031TIP3    H118099   3.772   2.181   4.611  0.8678 -0.6891 -1.1202
 6031TIP3    H218100   3.801   2.287   4.507 -1.8146 -1.1412 -2.4147
 6032TIP3   OH218101   1.556   3.975   4.006  0.3745  0.4507  0.1499
 6032TIP3    H118102   1.541   3.883   3.985 -0.0138  0.4820  0.2726
 6032TIP3    H218103   1.650   3.982   4.024  0.3599  0.0334  0.3778
 6033TIP3   OH218104   3.285   4.670   0.633  0.3776 -0.3512 -0.2509
 6033TIP3    H118105   3.271   4.731   0.705  0.0244 -1.8374  0.9917
 6033TIP3    H218106   3.375   4.639   0.645 -0.1615 -1.7121  0.4718
 6034TIP3   OH218107   0.963   0.949   2.830 -0.1732 -0.1406  0.1147
 6034TIP3    H118108   1.000   1.013   2.891 -1.0615  0.4825  0.0102
 6034TIP3    H218109   1.017   0.870   2.843  1.0888  0.6812  0.0724
 6035TIP3   OH218110   0.506   0.128   3.522 -0.2094  0.0253  0.3351
 6035TIP3    H118111   0.569   0.078   3.573  0.2904 -0.7858 -1.0351
 6035TIP3    H218112   0.518   0.098   3.432 -0.7813  1.6993 -0.3487
 6036TIP3   OH218113   0.281   4.422   3.510 -0.2386  0.1511  0.1448
 6036TIP3    H118114   0.309   4.361   3.442  0.8549  1.8799 -1.0380
 6036TIP3    H218115   0.358   4.432   3.566  0.4437  2.2280 -1.0725
 6037TIP3   OH218116   3.976   2.162   0.953  0.1479 -0.0575 -0.2350
 6037TIP3    H118117   3.983   2.156   0.858  1.1523 -2.0991 -0.0759
 6037TIP3    H218118   3.962   2.255   0.970  0.8691  0.4802 -2.3108
 6038TIP3   OH218119   6.009   4.468   0.215  0.3216 -0.2608 -0.2108
 6038TIP3    H118120   6.092   4.445   0.173  0.0768 -0.2232 -0.7203
 6038TIP3    H218121   5.960   4.516   0.148  0.9497  2.1173  0.9410
 6039TIP3   OH218122   0.395   3.261   3.865 -0.1394 -0.7814  0.4092
 6039TIP3    H118123   0.482   3.259   3.904  0.4934  1.7531 -0.6687
 6039TIP3    H218124   0.366   3.351   3.874 -2.1724 -1.2996 -0.3141
 6040TIP3   OH218125   1.329   3.855   3.632 -0.1525 -0.4331 -0.2720
 6040TIP3    H118126   1.349   3.773   3.589  2.5474 -1.7079  2.9704
 6040TIP3    H218127   1.397   3.916   3.603 -0.5148 -0.1512 -0.5516
 6041TIP3   OH218128   5.522   5.830   1.588 -0.2839  0.0138  0.2825
 6041TIP3    H118129   5.456   5.801   1.525  0.7490  0.3844 -0.9971
 6041TIP3    H218130   5.528   5.924   1.575  0.4260 -0.0053  0.4550
 6042TIP3   OH218131   4.260   2.701   2.905 -0.0972 -0.2312  0.1747
 6042TIP3    H118132   4.270   2.660   2.818 -0.2920  2.3086 -1.1326
 6042TIP3    H218133   4.182   2.659   2.941 -0.4242 -0.8608 -1.1805
 6043TIP3   OH218134   2.493   3.131   0.788 -0.1518  0.7466  0.0968
 6043TIP3    H118135   2.523   3.052   0.743 -0.7834  0.5082  0.0909
 6043TIP3    H218136   2.519   3.203   0.730 -0.1657  0.5008 -0.2141
 6044TIP3   OH218137   0.482   2.603   0.417  0.0721  0.3038  0.6844
 6044TIP3    H118138   0.501   2.522   0.368 -0.9543  0.2668  0.3142
 6044TIP3    H218139   0.422   2.575   0.486 -4.1381  1.3580 -2.1802
 6045TIP3   OH218140   5.387   0.178   4.662 -0.0752 -0.2279  0.1999
 6045TIP3    H118141   5.405   0.157   4.570  0.8529 -1.7680  0.6912
 6045TIP3    H218142   5.306   0.131   4.682  0.2593 -0.7285  0.4166
 6046TIP3   OH218143   1.159   2.207   4.062  0.0415  0.2376 -0.4430
 6046TIP3    H118144   1.096   2.218   3.990 -0.7250 -2.9638 -0.4177
 6046TIP3    H218145   1.106   2.209   4.141  0.4607  0.6234 -0.1626
 6047TIP3   OH218146   5.797   1.631   3.067  0.2399  0.6937 -0.4874
 6047TIP3    H118147   5.806   1.538   3.046 -2.1063  0.0777  0.8865
 6047TIP3    H218148   5.780   1.674   2.983 -0.9244 -0.4764 -0.8720
 6048TIP3   OH218149   5.062   3.820   3.545  0.0545  0.2222 -0.5423
 6048TIP3    H118150   5.079   3.861   3.629  1.0584 -2.0378  0.4439
 6048TIP3    H218151   5.097   3.731   3.554 -3.8005 -1.6491 -1.7629
 6049TIP3   OH218152   4.044   5.278   4.166  0.4583 -0.3172 -0.1816
 6049TIP3    H118153   4.072   5.330   4.091 -0.6263  0.0217 -0.3648
 6049TIP3    H218154   4.125   5.236   4.197  1.3806  1.4717 -0.0215
 6050TIP3   OH218155   2.697   0.498   1.669  0.0397 -0.1340  0.3563
 6050TIP3    H118156   2.677   0.566   1.733  0.3455  1.5718 -1.2425
 6050TIP3    H218157   2.711   0.419   1.720  0.4567  1.1833  2.3839
 6051TIP3   OH218158   2.794   3.226   2.533  0.3569 -0.8624  0.0277
 6051TIP3    H118159   2.774   3.135   2.554 -0.6097 -0.5891  0.3698
 6051TIP3    H218160   2.725   3.252   2.472 -0.4979  0.1790  1.3823
 6052TIP3   OH218161   5.363   4.798   0.994 -0.0144  0.3707  0.0963
 6052TIP3    H118162   5.396   4.887   0.983  2.5526 -0.7963 -3.6924
 6052TIP3    H218163   5.269   4.804   0.978  0.4728  2.1597 -2.8212
 6053TIP3   OH218164   6.276   4.552   3.735  0.2214 -0.4135  0.1037
 6053TIP3    H118165   6.185   4.575   3.714 -0.3615 -1.1732  1.6351
 6053TIP3    H218166   6.294   4.477   3.679 -0.5342 -1.0253  0.6553
 6054TIP3   OH218167   3.740   3.027   1.745 -0.3401  0.2789  0.0468
 6054TIP3    H118168   3.762   3.111   1.785 -1.1321  1.3296 -1.5970
 6054TIP3    H218169   3.663   2.997   1.793 -0.9425  1.2389 -0.2884
 6055TIP3   OH218170   1.053   0.380   0.351  0.0366  0.1042  0.5470
 6055TIP3    H118171   1.086   0.370   0.441 -0.9028 -3.1854  0.6473
 6055TIP3    H218172   0.981   0.442   0.360  1.1827  1.3527  1.6794
 6056TIP3   OH218173   5.672   5.617   0.900  0.4999  0.5319 -0.0090
 6056TIP3    H118174   5.646   5.698   0.858 -0.7422 -0.4625 -1.2386
 6056TIP3    H218175   5.631   5.620   0.987  1.3336  1.6556  0.3641
 6057TIP3   OH218176   1.268   0.884   4.104 -0.3030  0.2238  0.1082
 6057TIP3    H118177   1.301   0.860   4.190 -1.4339 -0.0343  0.4868
 6057TIP3    H218178   1.346   0.887   4.048  0.1799 -2.1386  0.5349
 6058TIP3   OH218179   4.273   0.375   4.580 -0.5667  0.6598 -0.2461
 6058TIP3    H118180   4.369   0.377   4.574 -0.5226 -1.1404 -0.9333
 6058TIP3    H218181   4.244   0.445   4.522  0.3400 -0.0121 -1.5814
 6059TIP3   OH218182   5.108   2.034   2.908  0.1276 -0.2747  0.2636
 6059TIP3    H118183   5.185   2.027   2.852 -0.6980  1.4418 -1.2006
 6059TIP3    H218184   5.129   1.980   2.985  1.4972 -2.3583 -1.4532
 6060TIP3   OH218185   2.103   0.593   0.804  0.1326  0.0524  0.5627
 6060TIP3    H118186   2.079   0.651   0.731 -0.2825 -1.4063 -0.5029
 6060TIP3    H218187   2.177   0.543   0.771 -0.5150 -1.1297  0.8674
 6061TIP3   OH218188   0.021   2.689   1.098  0.2273 -0.2817 -0.1530
 6061TIP3    H118189   0.033   2.657   1.187 -0.9864  2.6341  1.1521
 6061TIP3    H218190   0.084   2.761   1.089 -0.1585 -0.0686 -1.4002
 6062TIP3   OH218191   4.664   3.090   4.430 -0.1269  0.0437  0.2548
 6062TIP3    H118192   4.576   3.125   4.415 -1.1116 -2.2618  0.2154
 6062TIP3    H218193   4.667   3.009   4.378  1.9052 -0.1260  0.5421
 6063TIP3   OH218194   1.091  -0.021   4.750  0.0893 -0.1226  0.4978
 6063TIP3    H118195   1.128   0.063   4.778  1.0354 -0.2870 -0.2188
 6063TIP3    H218196   1.071  -0.008   4.657  1.3926 -1.0624  0.0595
 6064TIP3   OH218197   4.126   2.874   0.555 -0.3777  0.4365  0.6351
 6064TIP3    H118198   4.042   2.861   0.510 -0.2770  3.8611 -0.8105
 6064TIP3    H218199   4.170   2.789   0.548 -3.6396 -1.5500  1.5130
 6065TIP3   OH218200   1.388   0.892   0.183  0.6469 -0.1217  0.4064
 6065TIP3    H118201   1.456   0.936   0.233 -0.3433  0.9182  0.8935
 6065TIP3    H218202   1.398   0.800   0.204  1.1229  0.1521  1.4352
 6066TIP3   OH218203   0.589   5.342   4.067  0.1512 -0.3939 -0.2561
 6066TIP3    H118204   0.498   5.318   4.049 -0.0979 -0.3867  0.9158
 6066TIP3    H218205   0.586   5.435   4.089  0.2796 -0.6021  0.7175
 6067TIP3   OH218206   4.152   2.735   3.472  0.1408  0.3789 -0.2136
 6067TIP3    H118207   4.223   2.708   3.414  0.3919  1.5456 -0.4692
 6067TIP3    H218208   4.161   2.677   3.548  1.4329  0.5616 -0.1922
 6068TIP3   OH218209   3.435   1.729   1.463  0.2499 -0.3716  0.0138
 6068TIP3    H118210   3.501   1.783   1.507  0.2994 -1.6403  1.5672
 6068TIP3    H218211   3.358   1.786   1.457  0.5794  0.1709  0.8027
 6069TIP3   OH218212   4.807   4.459   1.185 -0.3705  0.3282  0.5421
 6069TIP3    H118213   4.766   4.396   1.244 -1.5797  0.0569 -0.5340
 6069TIP3    H218214   4.781   4.430   1.097  1.6323  0.5196 -0.1846
 6070TIP3   OH218215   5.402   1.038   0.989 -0.1225 -0.1397 -0.9149
 6070TIP3    H118216   5.447   0.956   0.969  1.8747  0.3946  1.0458
 6070TIP3    H218217   5.468   1.106   0.977  0.4727  0.5158  3.8959
 6071TIP3   OH218218   4.904   1.512   2.255 -0.3505 -0.1912  0.3705
 6071TIP3    H118219   4.919   1.497   2.349 -0.5502  1.0812  0.6320
 6071TIP3    H218220   4.989   1.500   2.215 -0.2958 -0.9163  0.6922
 6072TIP3   OH218221   0.687   1.961   3.878 -0.1354 -0.0166  0.0956
 6072TIP3    H118222   0.711   1.979   3.787  1.0532 -1.0078  0.1862
 6072TIP3    H218223   0.623   1.890   3.872  0.2178 -0.3337  0.0413
 6073TIP3   OH218224   3.753   3.213   2.154  0.1601  0.0573  0.2026
 6073TIP3    H118225   3.820   3.252   2.098 -0.4884 -0.7964 -1.2125
 6073TIP3    H218226   3.762   3.259   2.238  1.8500  0.6381 -0.2607
 6074TIP3   OH218227   4.103   0.726   1.508  0.2189 -0.0793 -0.0633
 6074TIP3    H118228   4.139   0.781   1.439  0.9509 -0.4824 -0.0118
 6074TIP3    H218229   4.174   0.717   1.571 -0.0987 -0.5654  0.2326
 6075TIP3   OH218230   6.233   3.776   1.155  0.0800  0.1642  0.0773
 6075TIP3    H118231   6.314   3.794   1.108 -0.6534  0.8971 -0.9832
 6075TIP3    H218232   6.214   3.858   1.202 -0.0942  0.0316  0.2403
 6076TIP3   OH218233   0.545   0.447   3.297 -0.2240 -0.1881  0.2692
 6076TIP3    H118234   0.478   0.399   3.248  0.1305 -0.3535 -0.0605
 6076TIP3    H218235   0.625   0.434   3.246 -0.0506  0.4452  0.3760
 6077TIP3   OH218236   0.010   5.695   0.550 -0.0756 -0.0380 -0.0538
 6077TIP3    H118237   0.009   5.784   0.513  1.4383  0.3702  0.8069
 6077TIP3    H218238  -0.003   5.638   0.474 -0.7612  0.8827 -0.6661
 6078TIP3   OH218239   1.294   1.978   3.519  0.4150  0.1942 -0.1820
 6078TIP3    H118240   1.207   1.985   3.559  0.7061  1.5269  0.2677
 6078TIP3    H218241   1.291   1.895   3.471 -1.5633  0.8301 -1.2995
 6079TIP3   OH218242   6.063   4.178   3.632  1.2084  0.9122  0.1228
 6079TIP3    H118243   5.982   4.208   3.590  1.0979  0.9501  0.3583
 6079TIP3    H218244   6.039   4.165   3.724  0.9550 -1.0673 -0.1957
 6080TIP3   OH218245   6.255   2.453   4.445  0.2362  0.5578 -0.1822
 6080TIP3    H118246   6.278   2.537   4.484  4.5622 -0.0042 -0.9803
 6080TIP3    H218247   6.302   2.389   4.497 -0.3906 -1.0269 -1.4874
 6081TIP3   OH218248   0.853   2.234   3.668 -0.0716 -0.3840 -0.7333
 6081TIP3    H118249   0.888   2.190   3.746 -0.8306 -2.0730 -1.2925
 6081TIP3    H218250   0.927   2.236   3.607  1.0044  2.3538  0.4846
 6082TIP3   OH218251   1.726   2.888   3.466  0.2514 -0.4360  0.2480
 6082TIP3    H118252   1.722   2.949   3.392 -0.8487  0.4101  0.9859
 6082TIP3    H218253   1.755   2.941   3.540  0.2909 -1.0464  0.6798
 6083TIP3   OH218254   0.048   0.165   3.859  0.5595  0.0296  0.0347
 6083TIP3    H118255   0.102   0.134   3.786 -1.5169  0.7233 -1.9203
 6083TIP3    H218256  -0.029   0.108   3.857 -0.6378  1.5749  0.0897
 6084TIP3   OH218257   0.160   0.194   0.384  0.3402  0.2619 -0.6197
 6084TIP3    H118258   0.200   0.187   0.297 -1.4995  1.6016 -1.6429
 6084TIP3    H218259   0.070   0.163   0.371  0.0191  0.5397  0.7955
 6085TIP3   OH218260   3.400   4.451   3.118 -0.5744 -0.2549 -0.4041
 6085TIP3    H118261   3.357   4.533   3.090  0.5052  0.2929 -0.5124
 6085TIP3    H218262   3.493   4.465   3.099  0.0774 -0.3299  2.3234
 6086TIP3   OH218263   4.958   1.958   4.584 -0.0205  0.1176 -0.0263
 6086TIP3    H118264   4.944   1.934   4.492  0.5808  0.6812 -0.2737
 6086TIP3    H218265   5.047   1.992   4.586 -0.2401  0.6630  0.6528
 6087TIP3   OH218266   5.935   5.955   3.320  0.0259 -1.0053 -0.5325
 6087TIP3    H118267   5.934   5.861   3.304 -1.0257 -0.8538 -1.4376
 6087TIP3    H218268   6.000   5.966   3.389  0.9772 -2.2683 -1.1700
 6088TIP3   OH218269   1.245   0.580   0.079 -0.4878  1.0760  0.3608
 6088TIP3    H118270   1.225   0.504   0.133  1.1718 -0.3484 -0.9221
 6088TIP3    H218271   1.195   0.567  -0.001  0.8419  0.5523 -0.4268
 6089TIP3   OH218272   5.826   5.026   2.967 -0.6547  0.2016  0.3468
 6089TIP3    H118273   5.790   5.044   2.879 -1.0875 -0.2246  0.4359
 6089TIP3    H218274   5.914   5.064   2.964 -1.1433  1.3904  0.1646
 6090TIP3   OH218275   4.367   4.771   0.225  0.0296  0.2509 -0.3653
 6090TIP3    H118276   4.393   4.679   0.227 -1.2310 -0.1005  0.7081
 6090TIP3    H218277   4.279   4.771   0.187  0.5922  1.1901 -1.7631
 6091TIP3   OH218278   5.564   1.512   5.063 -0.7373 -0.1162 -0.4967
 6091TIP3    H118279   5.585   1.580   5.000  0.7148 -0.1272 -0.0557
 6091TIP3    H218280   5.477   1.481   5.037  0.2104 -0.8571 -3.1434
 6092TIP3   OH218281   2.536   3.782   0.863  0.1031  0.9355 -0.4340
 6092TIP3    H118282   2.490   3.792   0.779 -0.6680  0.0772 -0.1262
 6092TIP3    H218283   2.470   3.805   0.929 -0.0300 -0.6601  0.0303
 6093TIP3   OH218284   2.132   1.087   0.226  0.2055  0.1863  0.2897
 6093TIP3    H118285   2.148   1.175   0.260  0.2171  0.1925  0.2681
 6093TIP3    H218286   2.041   1.089   0.196  0.1773  0.1640  0.3724
 6094TIP3   OH218287   1.609   0.665   3.276 -0.9673  0.3067 -0.0042
 6094TIP3    H118288   1.556   0.675   3.355  0.7559 -0.4046  1.2912
 6094TIP3    H218289   1.628   0.572   3.271  0.8541  0.6524  0.0439
 6095TIP3   OH218290   1.365   0.380   0.550 -0.1133  0.0062 -0.0669
 6095TIP3    H118291   1.409   0.437   0.613 -0.1710 -0.2523  0.2050
 6095TIP3    H218292   1.279   0.364   0.588 -0.7674  1.1776 -0.9786
 6096TIP3   OH218293   3.273   3.024   1.060  0.6387  0.0076 -0.6562
 6096TIP3    H118294   3.325   2.943   1.066 -0.0402 -0.6042 -2.3669
 6096TIP3    H218295   3.196   3.007   1.114  0.2155 -0.7637 -1.4620
 6097TIP3   OH218296   5.324   4.351   4.454 -0.1549 -0.1173 -0.0974
 6097TIP3    H118297   5.251   4.345   4.516  0.0895  1.8227  0.4472
 6097TIP3    H218298   5.285   4.390   4.376 -0.4811 -2.6276 -1.2925
 6098TIP3   OH218299   2.207   1.024   2.895 -0.2705 -0.2414  0.3298
 6098TIP3    H118300   2.117   1.033   2.926 -0.0660 -1.4472  1.3328
 6098TIP3    H218301   2.231   1.112   2.865 -1.3553  0.3821  1.2321
 6099TIP3   OH218302   2.937   4.248   2.367  0.1307 -0.2804  0.0350
 6099TIP3    H118303   2.958   4.342   2.370  1.8956 -0.5002 -2.2035
 6099TIP3    H218304   3.010   4.206   2.414 -0.2707 -0.5890  0.3915
 6100TIP3   OH218305   2.954   5.350   1.860  0.2086  0.1318  0.2773
 6100TIP3    H118306   3.021   5.408   1.894  0.3571  0.4768 -0.5828
 6100TIP3    H218307   2.968   5.349   1.765 -0.3412 -0.6156  0.1903
 6101TIP3   OH218308   5.831   1.414   4.021 -0.3130 -0.4451 -0.0902
 6101TIP3    H118309   5.833   1.414   4.117  0.3559 -0.3319 -0.0993
 6101TIP3    H218310   5.919   1.387   3.996  0.4892  2.4033 -0.6874
 6102TIP3   OH218311   0.251   2.788   2.279 -0.2935  0.1191 -0.1855
 6102TIP3    H118312   0.338   2.794   2.241 -0.2301 -1.1374 -0.2635
 6102TIP3    H218313   0.266   2.765   2.371 -0.5383  0.1285 -0.1414
 6103TIP3   OH218314   3.068   5.474   0.053 -0.0198  0.1536 -0.0380
 6103TIP3    H118315   3.007   5.408   0.019  1.5317 -1.3084 -0.0851
 6103TIP3    H218316   3.062   5.547  -0.009 -1.5291 -0.0426 -0.1611
 6104TIP3   OH218317   4.768   5.310   0.348  0.3186 -0.1277 -0.8080
 6104TIP3    H118318   4.682   5.301   0.307 -0.2342  0.1468  0.2455
 6104TIP3    H218319   4.798   5.220   0.361 -0.4666 -0.2749  0.1149
 6105TIP3   OH218320   3.384   4.988   2.800  0.8562 -0.1274 -0.3357
 6105TIP3    H118321   3.372   4.977   2.895  1.1784 -1.1833 -0.4030
 6105TIP3    H218322   3.311   5.043   2.773 -0.2575 -1.2626  0.2595
 6106TIP3   OH218323   5.447   3.028   3.765  0.3788 -0.1058  0.4912
 6106TIP3    H118324   5.356   3.018   3.738  0.6463 -0.4629 -0.2830
 6106TIP3    H218325   5.477   2.939   3.783  1.1915 -0.2279 -1.3047
 6107TIP3   OH218326   1.134   2.791   2.356  0.4953 -0.0063  0.4181
 6107TIP3    H118327   1.176   2.722   2.406 -0.4837 -1.1049 -0.2138
 6107TIP3    H218328   1.079   2.744   2.292  0.9639  1.3304 -1.0390
 6108TIP3   OH218329   4.353   1.444   0.563 -0.2002  0.4298 -0.3137
 6108TIP3    H118330   4.384   1.358   0.589 -1.5371 -0.4114 -1.3203
 6108TIP3    H218331   4.376   1.502   0.635  3.0191 -0.2073 -0.7150
 6109TIP3   OH218332   2.210   0.786   5.095 -0.8773  0.3340 -0.2049
 6109TIP3    H118333   2.246   0.828   5.174 -2.3807  0.6556  0.3451
 6109TIP3    H218334   2.212   0.855   5.029  2.5959 -0.5670 -1.2485
 6110TIP3   OH218335   5.520   3.613   2.783 -0.2292  0.5579  0.4068
 6110TIP3    H118336   5.465   3.670   2.836 -0.0143  0.7589  0.4166
 6110TIP3    H218337   5.526   3.532   2.833 -1.0031  0.3154  0.1258
 6111TIP3   OH218338   5.750   1.670   3.868  0.3252 -0.0950 -0.8190
 6111TIP3    H118339   5.732   1.721   3.947  1.4854  0.8682 -1.1377
 6111TIP3    H218340   5.710   1.721   3.797 -0.1061 -0.5911 -0.9351
 6112TIP3   OH218341   3.286   4.283   4.766  0.2653  0.0410 -0.2534
 6112TIP3    H118342   3.229   4.208   4.750  1.6773 -1.5169  1.5206
 6112TIP3    H218343   3.372   4.245   4.783  1.2112  2.1200 -0.0244
 6113TIP3   OH218344   2.711   1.299   4.920 -0.2449  0.0941 -0.2948
 6113TIP3    H118345   2.711   1.213   4.963 -0.4536 -0.8951 -2.1729
 6113TIP3    H218346   2.674   1.282   4.834  1.5442  1.7020 -1.4442
 6114TIP3   OH218347   1.541   3.884   2.308 -0.1066  0.5811 -0.0083
 6114TIP3    H118348   1.612   3.841   2.260  2.6872  0.6052  3.6834
 6114TIP3    H218349   1.562   3.978   2.304  0.7740  0.5132  1.9451
 6115TIP3   OH218350   0.503   3.569   1.310  0.2490 -0.1979 -0.1721
 6115TIP3    H118351   0.413   3.539   1.322  0.0722 -0.0004 -0.9319
 6115TIP3    H218352   0.551   3.531   1.384 -0.6326  0.4923  0.7722
 6116TIP3   OH218353   5.246   0.133   2.732 -0.1843 -0.1930 -0.2628
 6116TIP3    H118354   5.311   0.138   2.662 -0.1929 -0.3161 -0.2790
 6116TIP3    H218355   5.163   0.150   2.688 -0.1368  0.2153 -0.1999
 6117TIP3   OH218356   5.525   1.536   0.666  0.3178  0.2034  0.1060
 6117TIP3    H118357   5.517   1.538   0.571 -1.2049  0.1998  0.2155
 6117TIP3    H218358   5.513   1.444   0.690  0.7210  0.1995  0.3040
 6118TIP3   OH218359   5.291   4.267   3.765 -0.6698 -0.3929  0.5612
 6118TIP3    H118360   5.308   4.195   3.704 -0.2187 -0.0434  0.2680
 6118TIP3    H218361   5.352   4.252   3.838  0.0393  0.1525  0.1025
 6119TIP3   OH218362   4.357   4.588   1.128  0.5703 -0.0552 -0.1395
 6119TIP3    H118363   4.286   4.595   1.193  0.9593 -0.2545  0.3127
 6119TIP3    H218364   4.387   4.678   1.116  0.0712  0.0659 -0.5298
 6120TIP3   OH218365   4.097   0.710   4.854  0.3378 -0.5983  0.1339
 6120TIP3    H118366   4.101   0.652   4.778 -1.4703 -1.0112  0.3198
 6120TIP3    H218367   4.074   0.796   4.818  0.2329 -0.6240  0.1400
 6121TIP3   OH218368   0.955   5.147   0.042 -0.2197  0.8301 -0.3226
 6121TIP3    H118369   0.971   5.195  -0.039  0.2703 -0.0634 -0.7660
 6121TIP3    H218370   0.886   5.198   0.087 -0.6981  1.1780 -1.4161
 6122TIP3   OH218371   2.780   2.471   3.798  0.4689 -0.2038 -0.1381
 6122TIP3    H118372   2.871   2.501   3.792  0.6432 -0.7978 -0.6068
 6122TIP3    H218373   2.774   2.429   3.883  0.3270  0.7969  0.3614
 6123TIP3   OH218374   6.321   5.507   3.774 -0.1317  0.2052  0.4796
 6123TIP3    H118375   6.230   5.481   3.763  0.4358 -1.7779 -0.0247
 6123TIP3    H218376   6.318   5.584   3.831 -2.2032  1.3457 -1.0417
 6124TIP3   OH218377   4.775   0.991   4.109  0.2136  0.0467  0.0288
 6124TIP3    H118378   4.853   0.936   4.095  0.0089 -0.5020  0.9740
 6124TIP3    H218379   4.742   0.965   4.195 -1.1381  0.1334 -0.4388
 6125TIP3   OH218380   3.574   3.171   0.788 -0.7414  0.1696  0.1478
 6125TIP3    H118381   3.563   3.207   0.700  1.0776  0.8429  0.1483
 6125TIP3    H218382   3.640   3.103   0.778 -1.6693 -0.8416  0.7469
 6126TIP3   OH218383   0.963   0.064   0.336 -0.4962 -0.7904  0.0394
 6126TIP3    H118384   0.983   0.059   0.429 -0.6428  2.2654  0.3221
 6126TIP3    H218385   1.046   0.083   0.294 -0.9607  1.4731  0.0278
 6127TIP3   OH218386   2.428   1.782   3.599 -0.3370  0.2471  0.0028
 6127TIP3    H118387   2.427   1.696   3.642  1.1097  0.7347  1.1119
 6127TIP3    H218388   2.472   1.839   3.662 -2.0211  2.0205 -0.3460
 6128TIP3   OH218389   4.536   2.700   0.505  0.5393  0.6180  0.4076
 6128TIP3    H118390   4.619   2.652   0.501 -1.3421 -2.9021 -0.6818
 6128TIP3    H218391   4.500   2.694   0.417 -1.5490  0.6785  1.1864
 6129TIP3   OH218392   1.798   4.905   2.414 -0.0881  0.3136 -0.1494
 6129TIP3    H118393   1.855   4.982   2.422  0.2198  0.0031  0.7003
 6129TIP3    H218394   1.718   4.929   2.460 -0.1979  0.3182 -0.3413
 6130TIP3   OH218395   4.226   1.283   4.587  0.3884 -0.2150 -0.3695
 6130TIP3    H118396   4.233   1.298   4.492 -1.7481 -0.1404 -0.5603
 6130TIP3    H218397   4.237   1.188   4.596 -1.5044 -0.5527 -1.0036
 6131TIP3   OH218398   4.516   5.138   1.486 -0.5664 -0.2185 -0.0515
 6131TIP3    H118399   4.493   5.202   1.553 -0.2899 -1.2589  1.0901
 6131TIP3    H218400   4.606   5.114   1.506 -1.4047 -2.7447  1.1115
 6132TIP3   OH218401   5.433   0.607   3.031  0.0682 -0.5012 -0.0722
 6132TIP3    H118402   5.458   0.569   3.115  0.8300 -0.3085 -0.2053
 6132TIP3    H218403   5.351   0.563   3.008 -0.1731 -0.5201  0.7917
 6133TIP3   OH218404   3.622   3.197   3.876  0.0482 -0.1139  0.2074
 6133TIP3    H118405   3.694   3.135   3.880 -0.9373 -1.2360  1.2427
 6133TIP3    H218406   3.557   3.156   3.819 -1.4496 -1.0478  2.4237
 6134TIP3   OH218407   0.701   2.953   1.197  0.0134 -0.5623 -0.1407
 6134TIP3    H118408   0.724   2.871   1.154 -0.2306 -0.5885 -0.2211
 6134TIP3    H218409   0.785   2.997   1.211  0.1364 -0.7832 -0.1807
 6135TIP3   OH218410   0.396   5.937   2.380 -0.0904 -0.0397 -0.5841
 6135TIP3    H118411   0.378   5.909   2.290 -1.0450  1.5521 -0.9440
 6135TIP3    H218412   0.416   6.030   2.372 -0.4444  0.1829  0.8834
 6136TIP3   OH218413   4.643   5.742   1.306 -0.5958 -0.2166  0.1890
 6136TIP3    H118414   4.632   5.664   1.250  1.3024  0.0798 -0.6752
 6136TIP3    H218415   4.608   5.715   1.391 -0.8396 -1.6968 -0.3440
 6137TIP3   OH218416   0.208   1.071   4.527 -0.2975 -0.4147  0.5295
 6137TIP3    H118417   0.127   1.121   4.534  0.6516  0.9629  2.7883
 6137TIP3    H218418   0.234   1.055   4.618  2.6759  0.4243 -0.0793
 6138TIP3   OH218419   3.411   3.247   4.681  0.3369  0.2870  0.1537
 6138TIP3    H118420   3.320   3.274   4.683  0.2104  0.0660 -1.4027
 6138TIP3    H218421   3.409   3.158   4.647  0.9874 -0.6006  2.2567
 6139TIP3   OH218422   0.309   5.641   3.375  0.1195  0.0386 -0.4260
 6139TIP3    H118423   0.395   5.667   3.343  0.3967  0.3423  0.5318
 6139TIP3    H218424   0.286   5.564   3.322  1.2458 -0.4035 -0.2997
 6140TIP3   OH218425   2.216   0.849   2.694  0.5082 -0.2231 -0.2177
 6140TIP3    H118426   2.218   0.908   2.770 -0.7636 -0.6123  0.1315
 6140TIP3    H218427   2.214   0.761   2.733  3.6219 -0.6348 -0.7195
 6141TIP3   OH218428   5.416   2.583   4.676  0.7432  0.0010  0.3251
 6141TIP3    H118429   5.438   2.661   4.727 -0.1619  0.9294 -0.6496
 6141TIP3    H218430   5.486   2.521   4.695  1.3798  0.9791  1.2733
 6142TIP3   OH218431   2.002   2.761   1.208  0.2128  0.2774 -0.9214
 6142TIP3    H118432   1.992   2.768   1.303 -0.2507 -1.2864 -0.8284
 6142TIP3    H218433   2.088   2.801   1.190 -0.1541  1.5439 -0.0000
 6143TIP3   OH218434   1.474   0.998   2.521  0.3632  0.1137 -0.4897
 6143TIP3    H118435   1.475   1.056   2.597 -1.1309  0.1726 -0.4822
 6143TIP3    H218436   1.437   0.916   2.555  4.7635 -1.8691  0.1293
 6144TIP3   OH218437   4.875   3.812   2.817 -0.0183 -0.3543 -0.6305
 6144TIP3    H118438   4.908   3.747   2.880  2.4592 -0.2090 -1.6703
 6144TIP3    H218439   4.788   3.835   2.850 -0.1410 -2.6647  0.9099
 6145TIP3   OH218440   5.333   4.703   4.240 -0.4254  0.0390  0.2512
 6145TIP3    H118441   5.276   4.635   4.275  0.0436  0.7597  2.5578
 6145TIP3    H218442   5.422   4.670   4.252 -0.1922 -1.0513 -3.2690
 6146TIP3   OH218443   5.953   3.656   1.384 -0.4382 -0.5740 -1.0637
 6146TIP3    H118444   5.999   3.740   1.380 -0.1378 -0.7479 -1.2580
 6146TIP3    H218445   5.996   3.608   1.454 -0.8384 -0.4324 -0.7176
 6147TIP3   OH218446   0.052   1.008   2.783 -0.8545 -0.0757  0.3292
 6147TIP3    H118447   0.076   0.949   2.711 -0.2335  0.1994  0.2977
 6147TIP3    H218448   0.112   0.984   2.854 -1.2277 -0.1094  0.6344
 6148TIP3   OH218449   1.762   0.557   2.072 -0.3563 -0.4663 -0.3455
 6148TIP3    H118450   1.811   0.601   2.002  2.8179  1.3685  2.6783
 6148TIP3    H218451   1.721   0.628   2.121  2.0062 -0.9329  2.6471
 6149TIP3   OH218452   5.064   4.717   0.917 -0.0636  0.1446  0.6212
 6149TIP3    H118453   5.025   4.638   0.879 -1.6248  0.0323  2.3268
 6149TIP3    H218454   5.064   4.780   0.845 -0.3099 -0.9015 -0.3262
 6150TIP3   OH218455   4.863   5.570   3.066  0.2421  0.1995 -0.3692
 6150TIP3    H118456   4.925   5.594   3.134  0.0087 -0.6059  0.1460
 6150TIP3    H218457   4.796   5.637   3.069 -0.6142 -0.6667  1.3144
 6151TIP3   OH218458   1.202   5.024   3.535 -0.0307 -0.2119  0.3491
 6151TIP3    H118459   1.212   5.119   3.538 -0.4554 -0.1848  1.4801
 6151TIP3    H218460   1.265   4.991   3.600 -2.5535 -0.4149  2.8964
 6152TIP3   OH218461   1.633   4.515   2.799  0.0485 -0.1351 -0.1596
 6152TIP3    H118462   1.647   4.573   2.875 -0.2744 -0.3377  0.0580
 6152TIP3    H218463   1.604   4.574   2.729  0.5590  0.0844 -0.1933
 6153TIP3   OH218464   1.860   0.345   2.840  0.4886 -0.5204  0.5201
 6153TIP3    H118465   1.840   0.295   2.919  1.5605 -1.4797  0.2093
 6153TIP3    H218466   1.955   0.337   2.830  0.4387  0.0570 -0.5615
 6154TIP3   OH218467   6.237   0.696   0.277  0.7522 -0.2596 -0.0563
 6154TIP3    H118468   6.204   0.742   0.355  1.1334  0.3451 -0.2420
 6154TIP3    H218469   6.263   0.766   0.217  0.5007 -0.7252 -0.7155
 6155TIP3   OH218470   2.537   5.783   4.399  0.2380  0.6460 -0.2777
 6155TIP3    H118471   2.453   5.771   4.356  0.7198  2.4273 -1.8723
 6155TIP3    H218472   2.555   5.877   4.391  2.6077  0.2497 -0.4829
 6156TIP3   OH218473   5.996   0.239   3.831 -0.1637  0.3151 -0.2911
 6156TIP3    H118474   5.957   0.322   3.803  0.7535 -0.2076 -3.4511
 6156TIP3    H218475   5.962   0.175   3.769 -0.8877 -1.7756  2.1110
 6157TIP3   OH218476   5.943   2.115   3.992 -0.2187 -0.2575 -0.3568
 6157TIP3    H118477   5.999   2.041   4.016  0.3078 -0.1786 -1.2801
 6157TIP3    H218478   5.890   2.131   4.070  1.8557  0.4293  1.0142
 6158TIP3   OH218479   0.465   1.183   2.837 -0.0378 -0.2382 -0.5505
 6158TIP3    H118480   0.451   1.266   2.791  1.0127  0.3974  0.2448
 6158TIP3    H218481   0.379   1.162   2.873 -0.0639  1.1446  0.2658
 6159TIP3   OH218482   4.522   3.874   3.286  0.4393  0.4266 -0.5178
 6159TIP3    H118483   4.486   3.834   3.207 -0.9507  1.6147 -0.5285
 6159TIP3    H218484   4.588   3.936   3.254  1.7700 -0.9645 -0.5624
 6160TIP3   OH218485   2.939   2.536   4.764  0.1577 -0.6455 -0.4598
 6160TIP3    H118486   2.899   2.468   4.818  0.1121 -0.9434 -0.8634
 6160TIP3    H218487   2.893   2.531   4.680  0.0071  0.0283 -0.4218
 6161TIP3   OH218488   1.888   2.730   2.835  0.4687  0.1781 -0.1099
 6161TIP3    H118489   1.949   2.713   2.763  0.6800 -1.7718  0.4728
 6161TIP3    H218490   1.935   2.705   2.914 -0.0115  1.6245  0.6682
 6162TIP3   OH218491   0.641   2.838   4.758 -0.2411 -0.0396  0.2780
 6162TIP3    H118492   0.662   2.917   4.709 -1.7028  0.5188  0.5319
 6162TIP3    H218493   0.639   2.866   4.849  2.0446 -0.9868  0.6902
 6163TIP3   OH218494   3.542   5.312   2.504 -0.6371  0.5261 -0.1024
 6163TIP3    H118495   3.515   5.353   2.422  1.7951 -1.5825 -2.1565
 6163TIP3    H218496   3.502   5.225   2.502  1.3731 -0.4619 -0.3747
 6164TIP3   OH218497   5.626   5.927   1.308  0.5870  0.4047 -0.6077
 6164TIP3    H118498   5.685   5.874   1.362 -0.7991  0.0999  0.6710
 6164TIP3    H218499   5.601   5.869   1.236  0.5318 -0.0419 -0.2317
 6165TIP3   OH218500   6.081   4.361   2.096  0.2658 -0.3429 -0.3838
 6165TIP3    H118501   6.025   4.435   2.121 -1.7493 -1.3196 -1.7014
 6165TIP3    H218502   6.156   4.366   2.155 -0.2688  2.1693  0.1951
 6166TIP3   OH218503   4.110   3.044   2.551 -0.0819 -0.3658 -0.2213
 6166TIP3    H118504   4.186   2.989   2.533 -2.0574 -2.8339 -1.7284
 6166TIP3    H218505   4.073   3.006   2.631 -1.0039 -0.7418 -0.8134
 6167TIP3   OH218506   4.117   4.007   0.057  0.1237 -0.1320 -0.1135
 6167TIP3    H118507   4.078   3.942  -0.001 -0.6512 -0.7605  1.0811
 6167TIP3    H218508   4.062   4.085   0.047 -0.1994 -0.3442  0.0328
 6168TIP3   OH218509   3.799   1.436   1.513 -0.0610  0.2293 -1.3348
 6168TIP3    H118510   3.816   1.466   1.602  0.0729 -0.7918 -1.0057
 6168TIP3    H218511   3.875   1.466   1.463  0.6008 -0.4820 -0.7863
 6169TIP3   OH218512   3.937   5.552   2.147  0.3669  0.1784  0.4541
 6169TIP3    H118513   3.903   5.583   2.231  2.1314 -0.4409  1.4454
 6169TIP3    H218514   4.016   5.605   2.132  1.7688 -1.7226  0.7313
 6170TIP3   OH218515   3.107   4.309   3.161  0.5442 -0.0299  0.2851
 6170TIP3    H118516   3.071   4.312   3.249  0.7118  1.2559  0.3387
 6170TIP3    H218517   3.061   4.379   3.114 -0.0231 -1.1198 -0.8538
 6171TIP3   OH218518   0.085   0.831   5.141  0.7778  0.0705 -0.6142
 6171TIP3    H118519   0.138   0.910   5.139 -0.0675  0.6710  0.1875
 6171TIP3    H218520   0.148   0.760   5.152  1.5116  0.6534 -1.0097
 6172TIP3   OH218521   3.215   2.753   4.958  0.0716  0.2555 -0.1242
 6172TIP3    H118522   3.229   2.727   5.049  0.1045  1.5412  0.2530
 6172TIP3    H218523   3.197   2.847   4.962 -1.4288  0.0441 -1.3063
 6173TIP3   OH218524   2.259   3.725   2.568  0.4185  0.2504 -0.1447
 6173TIP3    H118525   2.260   3.701   2.475 -0.1274  0.2481 -0.1507
 6173TIP3    H218526   2.190   3.672   2.606  0.4862  0.4219  0.2209
 6174TIP3   OH218527   3.702   3.171   1.110  0.3423 -0.2775 -0.5344
 6174TIP3    H118528   3.642   3.209   1.044 -0.9337 -2.3778 -0.6864
 6174TIP3    H218529   3.647   3.160   1.188  1.3092  0.3006  0.2447
 6175TIP3   OH218530   0.922   0.539   4.370  0.2605  0.2566  0.1694
 6175TIP3    H118531   0.999   0.499   4.329 -0.5653  0.9077 -2.1972
 6175TIP3    H218532   0.849   0.512   4.314 -0.8999  1.5942  0.9729
 6176TIP3   OH218533   1.092   1.375   1.944 -0.0092 -0.1135 -0.2886
 6176TIP3    H118534   1.094   1.302   1.881 -0.2781  0.8214 -1.4182
 6176TIP3    H218535   1.002   1.405   1.943  0.3335  0.9389 -0.6782
 6177TIP3   OH218536   3.107   3.879   4.422 -0.1914 -0.2079  0.0365
 6177TIP3    H118537   3.180   3.935   4.396  1.3948 -2.5174 -0.8806
 6177TIP3    H218538   3.091   3.823   4.345 -0.2815 -2.3619  1.5203
 6178TIP3   OH218539   1.979   3.575   2.553  0.0984 -0.0753  0.4510
 6178TIP3    H118540   1.948   3.484   2.553  3.5212 -1.3840 -0.3006
 6178TIP3    H218541   1.948   3.611   2.637 -1.8670 -1.6878  0.4788
 6179TIP3   OH218542   1.678   4.804   0.169 -0.2502  0.7014  0.1641
 6179TIP3    H118543   1.753   4.794   0.111 -0.5463  1.5433 -0.3801
 6179TIP3    H218544   1.704   4.873   0.230 -0.2841  0.4416  0.4773
 6180TIP3   OH218545   4.819   1.774   4.735  0.0989  0.3319  0.1896
 6180TIP3    H118546   4.795   1.806   4.822 -0.6737  2.3950 -0.7296
 6180TIP3    H218547   4.870   1.845   4.696 -1.5089  0.4222 -1.8756
 6181TIP3   OH218548   2.958   0.304   4.730  0.2976  0.1628 -0.0887
 6181TIP3    H118549   2.896   0.294   4.657 -0.2752  0.5114  0.3439
 6181TIP3    H218550   2.949   0.223   4.780 -2.3601  1.5016  1.8924
 6182TIP3   OH218551   5.658   0.378   1.128  0.6508 -0.2737  0.0707
 6182TIP3    H118552   5.601   0.455   1.137  1.4523  0.3250  0.1294
 6182TIP3    H218553   5.686   0.379   1.036 -1.9539 -2.4084 -0.8673
 6183TIP3   OH218554   5.014   1.607   3.464 -0.3049 -0.0372  0.1873
 6183TIP3    H118555   4.943   1.564   3.512 -0.1631  0.2894  0.6934
 6183TIP3    H218556   4.971   1.647   3.388 -0.5660 -0.3540  0.1691
 6184TIP3   OH218557   3.425   0.905   3.536  0.1734  0.6871  0.4691
 6184TIP3    H118558   3.386   0.822   3.564  0.8505  1.0165  2.5667
 6184TIP3    H218559   3.385   0.971   3.594  1.2978  1.4893  0.3568
 6185TIP3   OH218560   3.945   5.257   3.844  0.2848  0.3481  0.4356
 6185TIP3    H118561   3.944   5.244   3.749 -0.6513 -0.0397  0.4862
 6185TIP3    H218562   3.881   5.326   3.859  0.4750  0.4508  0.7773
 6186TIP3   OH218563   5.488   3.900   2.247  0.5556 -0.4122  0.3487
 6186TIP3    H118564   5.395   3.885   2.267  0.3595  1.5821  1.2245
 6186TIP3    H218565   5.532   3.894   2.331  0.6368  2.1779  0.5687
 6187TIP3   OH218566   4.804   5.380   4.196 -0.3414  0.3587 -0.2652
 6187TIP3    H118567   4.856   5.421   4.265 -0.4487 -0.1362  0.1167
 6187TIP3    H218568   4.812   5.286   4.213 -1.2090  0.2709 -0.3203
 6188TIP3   OH218569   5.618   1.877   5.149 -0.0530 -0.3182  0.3326
 6188TIP3    H118570   5.681   1.831   5.205 -0.7980  0.0547  1.5064
 6188TIP3    H218571   5.535   1.871   5.196 -0.9491 -0.8696 -1.2186
 6189TIP3   OH218572   3.034   2.631   0.985  0.0438  0.6673 -0.1475
 6189TIP3    H118573   3.009   2.550   1.029  0.3553 -0.4662 -1.9324
 6189TIP3    H218574   3.127   2.642   1.005  0.1730  0.1888 -0.4799
 6190TIP3   OH218575   2.642   5.297   4.189 -0.3155  0.0061 -0.2041
 6190TIP3    H118576   2.682   5.210   4.178 -1.1419 -0.3661 -0.3357
 6190TIP3    H218577   2.600   5.314   4.105  0.8293  1.0596 -0.5819
 6191TIP3   OH218578   0.703   3.199   1.528  0.0016  0.0525 -0.5294
 6191TIP3    H118579   0.794   3.168   1.531 -0.3622 -1.0316 -0.1118
 6191TIP3    H218580   0.664   3.167   1.609 -0.8291  0.2966 -0.8180
 6192TIP3   OH218581   5.908   2.950   0.374 -0.4166  0.1749 -0.3754
 6192TIP3    H118582   5.978   3.011   0.349 -0.3221  0.3274  0.2408
 6192TIP3    H218583   5.899   2.891   0.300  0.8477 -0.2752 -0.1846
 6193TIP3   OH218584   1.725   1.086   0.366  0.1761  0.7935 -0.8835
 6193TIP3    H118585   1.755   1.089   0.275 -0.3905 -0.1489 -1.1136
 6193TIP3    H218586   1.800   1.117   0.417  0.5208  1.2703 -1.6617
 6194TIP3   OH218587   2.706   5.775   0.479  0.2805  0.3868 -0.3574
 6194TIP3    H118588   2.779   5.722   0.510 -0.6432 -1.9088 -1.7868
 6194TIP3    H218589   2.642   5.770   0.550 -0.5557 -2.1751 -1.1555
 6195TIP3   OH218590   2.967   2.442   1.137  0.0506 -0.3795  0.2613
 6195TIP3    H118591   3.010   2.407   1.215  0.5541 -1.1924 -0.3634
 6195TIP3    H218592   2.881   2.472   1.168  0.8205  0.7094  1.3990
 6196TIP3   OH218593   1.474   5.942   2.510 -0.1675  0.0071  0.0893
 6196TIP3    H118594   1.475   5.983   2.423  0.7452  1.1561  0.6174
 6196TIP3    H218595   1.462   5.848   2.492  0.0970  0.2125 -1.2771
 6197TIP3   OH218596   3.379   4.331   3.778 -0.0989 -0.0795  0.0022
 6197TIP3    H118597   3.419   4.405   3.732 -0.5811  0.4342  0.4055
 6197TIP3    H218598   3.300   4.311   3.728 -1.2515  1.2213  1.2064
 6198TIP3   OH218599   3.415   5.789   4.741 -0.0164  0.3382 -0.0931
 6198TIP3    H118600   3.404   5.694   4.748 -1.2689  0.4463 -0.2446
 6198TIP3    H218601   3.486   5.810   4.801 -1.4669 -0.3959  1.9981
 6199TIP3   OH218602   5.902   1.252   3.150  0.1275 -0.0743  0.3829
 6199TIP3    H118603   5.920   1.262   3.057  0.0912 -0.9061  0.2829
 6199TIP3    H218604   5.839   1.180   3.155 -0.6791  0.6554  0.9749
 6200TIP3   OH218605   2.209   0.921   3.808  0.4969  0.0459  0.2408
 6200TIP3    H118606   2.232   1.013   3.794  0.9189 -0.1348 -0.2683
 6200TIP3    H218607   2.115   0.923   3.824  0.6192  0.6405  0.9412
 6201TIP3   OH218608   4.641   3.255   3.411 -0.1496  0.4479  0.4565
 6201TIP3    H118609   4.702   3.181   3.418  0.5692  1.1509  2.1217
 6201TIP3    H218610   4.569   3.232   3.470 -0.4578  0.5974  0.1442
 6202TIP3   OH218611   3.289   2.197   3.288 -0.0455 -0.0017  0.1856
 6202TIP3    H118612   3.373   2.201   3.333  1.7785 -2.0887 -2.6706
 6202TIP3    H218613   3.280   2.284   3.248 -0.2376  0.8527  1.9898
 6203TIP3   OH218614   0.973   5.246   0.388 -0.3717 -0.0683 -0.1410
 6203TIP3    H118615   0.949   5.253   0.295  0.5915  0.3507 -0.3704
 6203TIP3    H218616   0.898   5.202   0.429 -0.7678 -0.3449 -1.1322
 6204TIP3   OH218617   0.269   4.852   4.353 -0.4760 -0.3352 -0.0084
 6204TIP3    H118618   0.346   4.852   4.410 -0.9716 -1.5791  0.6934
 6204TIP3    H218619   0.294   4.798   4.278 -0.3321  0.0727 -0.2553
 6205TIP3   OH218620   1.069   2.364   0.941 -0.2282  0.1080  0.1105
 6205TIP3    H118621   1.117   2.356   0.858  0.7087  0.3890  0.6154
 6205TIP3    H218622   1.037   2.454   0.941  0.6604  0.4333  0.5173
 6206TIP3   OH218623   0.734   5.460   4.545 -0.0067 -0.2996  0.7353
 6206TIP3    H118624   0.685   5.530   4.503  1.5040  0.4960  0.2473
 6206TIP3    H218625   0.699   5.380   4.506  2.6439  0.3962 -3.7987
 6207TIP3   OH218626   0.147   5.815   4.417  0.0538  0.0161 -0.3559
 6207TIP3    H118627   0.178   5.748   4.477 -2.1949 -1.1820 -0.4022
 6207TIP3    H218628   0.105   5.766   4.346 -1.5342  1.4144 -0.4621
 6208TIP3   OH218629   3.194   5.550   2.880 -0.1251 -0.5945 -0.3257
 6208TIP3    H118630   3.279   5.518   2.910 -0.2248 -0.8108 -0.2737
 6208TIP3    H218631   3.201   5.551   2.784  0.6338  1.2851 -0.2931
 6209TIP3   OH218632   3.795   2.522   1.607  0.2775 -0.5235  0.0987
 6209TIP3    H118633   3.763   2.612   1.603  1.3586 -0.1640 -1.2425
 6209TIP3    H218634   3.758   2.481   1.529 -2.2674 -2.0224  1.9442
 6210TIP3   OH218635   2.359   3.327   3.666 -0.2749  0.2358 -0.8203
 6210TIP3    H118636   2.313   3.268   3.605 -0.3432 -0.4765 -0.0934
 6210TIP3    H218637   2.406   3.388   3.609  1.2056 -1.5689 -1.6394
 6211TIP3   OH218638   1.677   1.375   2.948  0.3218  0.2000  0.0561
 6211TIP3    H118639   1.661   1.329   3.031  0.4701  0.8778  0.4726
 6211TIP3    H218640   1.641   1.462   2.962  0.2391  0.2851 -0.6461
 6212TIP3   OH218641   4.347   3.656   0.691 -0.1009 -0.5789  0.0196
 6212TIP3    H118642   4.316   3.722   0.628 -2.7145 -0.4622  1.3190
 6212TIP3    H218643   4.442   3.658   0.682 -0.0954  2.8794 -0.5067
 6213TIP3   OH218644   0.423   5.982   3.409 -0.3382 -0.4885 -0.4355
 6213TIP3    H118645   0.449   5.969   3.500  1.8789 -1.0024 -1.0871
 6213TIP3    H218646   0.333   5.949   3.405 -1.1022  1.0475  1.8840
 6214TIP3   OH218647   5.539   3.502   4.258 -0.4617 -0.5570 -0.0089
 6214TIP3    H118648   5.602   3.475   4.190 -2.9078 -1.7808 -1.9606
 6214TIP3    H218649   5.522   3.422   4.307  0.4705  0.0896  1.4323
 6215TIP3   OH218650   5.509   1.250   3.471 -0.0506 -0.1518 -0.6181
 6215TIP3    H118651   5.417   1.249   3.496  0.3316  1.0124  0.9681
 6215TIP3    H218652   5.509   1.281   3.380 -1.2042  0.1245 -0.5341
 6216TIP3   OH218653   2.099   1.713   0.293 -0.1360 -0.1570 -0.3394
 6216TIP3    H118654   2.165   1.755   0.348  0.4560 -1.4203 -0.0462
 6216TIP3    H218655   2.136   1.626   0.274 -2.2441 -1.4049  0.8707
 6217TIP3   OH218656   2.426   3.492   2.488 -0.0448 -0.6908  0.4049
 6217TIP3    H118657   2.382   3.550   2.550 -0.6910  1.2821 -1.7761
 6217TIP3    H218658   2.366   3.417   2.480 -1.4598  0.4413 -0.0826
 6218TIP3   OH218659   2.298   3.223   5.036  0.7474  0.5010 -0.7014
 6218TIP3    H118660   2.230   3.162   5.009  1.1168  0.0776 -0.6834
 6218TIP3    H218661   2.266   3.309   5.007  0.0536  0.3529 -0.3946
 6219TIP3   OH218662   5.728   1.255   0.281  0.0654 -0.3734  0.1054
 6219TIP3    H118663   5.709   1.282   0.371 -1.5283 -3.5132  0.8617
 6219TIP3    H218664   5.643   1.226   0.246  1.0739 -1.5679 -1.5093
 6220TIP3   OH218665   1.950   1.013   4.495  0.0933 -0.3629 -0.0180
 6220TIP3    H118666   1.953   0.966   4.579  0.3350  0.4629  0.4495
 6220TIP3    H218667   2.042   1.021   4.469 -0.0155 -1.1616 -0.6856
 6221TIP3   OH218668   0.730   4.859   0.508  0.2812 -0.6176  0.0971
 6221TIP3    H118669   0.654   4.913   0.528 -1.0945 -2.3340 -0.2911
 6221TIP3    H218670   0.734   4.856   0.412  2.3222  1.3946  0.0372
 6222TIP3   OH218671   4.143   2.866   3.763 -0.0566  0.7747 -0.0447
 6222TIP3    H118672   4.133   2.773   3.744  0.2663  0.7146  0.0928
 6222TIP3    H218673   4.053   2.898   3.770 -0.1803  0.6128 -0.7750
 6223TIP3   OH218674   1.816   5.452   0.177 -0.0489  0.3228 -0.0370
 6223TIP3    H118675   1.771   5.368   0.187 -0.4294  0.4959 -0.2780
 6223TIP3    H218676   1.790   5.502   0.254 -1.1882  0.8368 -0.7319
 6224TIP3   OH218677   1.660   2.785   0.302  0.0188 -0.4797 -0.0645
 6224TIP3    H118678   1.579   2.804   0.255 -0.8381  0.0912  1.5694
 6224TIP3    H218679   1.716   2.861   0.286 -0.0980 -0.4757 -0.4741
 6225TIP3   OH218680   5.964   3.979   2.465  0.5383 -0.2865  0.1140
 6225TIP3    H118681   6.033   3.988   2.531  1.9256 -0.8586 -1.1901
 6225TIP3    H218682   5.883   4.002   2.510  1.4177 -0.8588  2.0601
 6226TIP3   OH218683   5.662   3.635   1.405 -0.6904 -0.0539  0.1276
 6226TIP3    H118684   5.742   3.642   1.458 -0.7686  0.6000  0.1667
 6226TIP3    H218685   5.693   3.610   1.318 -0.6203 -1.9665  0.6580
 6227TIP3   OH218686   4.933   2.060   3.913 -0.2304  0.1228  0.2679
 6227TIP3    H118687   4.943   1.966   3.924  0.2506  0.3958  2.6149
 6227TIP3    H218688   5.021   2.095   3.926 -0.5802  0.9705  0.4332
 6228TIP3   OH218689   5.597   2.772   2.370  0.0043  0.0825  0.2162
 6228TIP3    H118690   5.554   2.844   2.324 -0.7027 -0.3171  0.2239
 6228TIP3    H218691   5.640   2.814   2.444  1.3553  0.7625 -0.9134
 6229TIP3   OH218692   6.205   1.086   2.973 -0.1387  0.5671 -0.3857
 6229TIP3    H118693   6.237   1.170   3.008  1.0756  0.3561 -0.9280
 6229TIP3    H218694   6.273   1.058   2.912 -1.3984  0.0694 -1.6069
 6230TIP3   OH218695   0.944   2.530   1.159  0.2598  0.1147  0.1356
 6230TIP3    H118696   1.003   2.455   1.154 -0.1863 -0.2366  0.0928
 6230TIP3    H218697   0.878   2.504   1.223  0.0647  0.4418  0.0677
 6231TIP3   OH218698   2.067   4.695   2.076  0.0979  0.2496  0.1069
 6231TIP3    H118699   2.079   4.788   2.097  0.2792  0.5181 -1.1212
 6231TIP3    H218700   2.144   4.652   2.114 -0.1123  0.5546  0.8982
 6232TIP3   OH218701   4.125   5.707   3.295  0.1092 -0.4498  0.2939
 6232TIP3    H118702   4.220   5.714   3.294  0.0397  1.0034  1.0963
 6232TIP3    H218703   4.106   5.629   3.244  1.7468 -1.0027  0.4865
 6233TIP3   OH218704   2.019   5.828   1.490 -0.0237 -0.2979 -0.0477
 6233TIP3    H118705   2.026   5.854   1.398 -0.3819  2.1310  0.5523
 6233TIP3    H218706   2.066   5.896   1.538 -1.3607 -0.5443  1.6997
 6234TIP3   OH218707   1.676   4.380   1.674 -0.0778  0.1414  0.2612
 6234TIP3    H118708   1.724   4.389   1.757 -0.5290  0.6431  0.4739
 6234TIP3    H218709   1.744   4.380   1.607  0.2113  0.9585  0.5462
 6235TIP3   OH218710   3.368   5.890   4.009  0.0473 -0.2306 -0.6390
 6235TIP3    H118711   3.354   5.821   4.074 -0.0640  0.5585  0.2044
 6235TIP3    H218712   3.456   5.923   4.028  0.4516 -0.7198 -1.6087
 6236TIP3   OH218713   0.015   3.278   3.093  0.1944  0.3186  0.6503
 6236TIP3    H118714  -0.002   3.314   3.181 -1.2477 -0.9108  0.9017
 6236TIP3    H218715   0.092   3.223   3.105 -1.7409 -2.3340  1.9536
 6237TIP3   OH218716   0.298   5.396   3.241  0.7634  0.4733  0.0887
 6237TIP3    H118717   0.278   5.308   3.210 -0.0926  1.2258 -1.6798
 6237TIP3    H218718   0.392   5.406   3.229  1.4601 -1.1848  3.1885
 6238TIP3   OH218719   2.108   3.083   3.963 -0.3320  0.6854 -0.7145
 6238TIP3    H118720   2.090   3.013   4.026 -1.1338  3.0716  1.9154
 6238TIP3    H218721   2.204   3.090   3.962 -0.2082 -0.8665 -1.5506
 6239TIP3   OH218722   4.770   1.228   2.686 -0.2210 -0.4734  0.2548
 6239TIP3    H118723   4.794   1.271   2.603  1.1510 -0.4594  0.6380
 6239TIP3    H218724   4.832   1.156   2.695 -1.0718 -1.1634  0.7391
 6240TIP3   OH218725   3.140   5.141   0.535 -0.3754  0.4593 -0.0114
 6240TIP3    H118726   3.106   5.228   0.513  0.2951  0.1019 -2.7682
 6240TIP3    H218727   3.230   5.157   0.563 -0.8672  0.8015  1.4802
 6241TIP3   OH218728   0.574   0.926   2.298  0.5830  0.4249 -0.1691
 6241TIP3    H118729   0.555   0.898   2.208 -0.5552 -1.0722  0.4820
 6241TIP3    H218730   0.653   0.877   2.322  1.1199  1.1287 -0.4684
 6242TIP3   OH218731   0.695   0.179   2.941  0.5092  0.1172 -0.4382
 6242TIP3    H118732   0.788   0.184   2.964 -0.1725  0.3827  2.6942
 6242TIP3    H218733   0.662   0.268   2.952 -0.1898 -0.0173 -1.3082
 6243TIP3   OH218734   1.359   3.759   1.281  0.0080  0.3120 -0.3505
 6243TIP3    H118735   1.355   3.709   1.199  0.2667  1.4182 -1.0603
 6243TIP3    H218736   1.311   3.705   1.344  0.5172 -0.9625 -1.0074
 6244TIP3   OH218737   0.360   5.563   0.043  0.6597 -0.5012 -0.2273
 6244TIP3    H118738   0.294   5.500   0.016 -0.0711 -0.6965  1.8707
 6244TIP3    H218739   0.338   5.585   0.133  2.1041  1.2096 -0.2258
 6245TIP3   OH218740   5.041   0.209   2.584  0.6254 -0.1768 -0.7681
 6245TIP3    H118741   4.947   0.188   2.585  0.6444 -0.2278  0.6030
 6245TIP3    H218742   5.044   0.303   2.600  0.7959 -0.0299 -1.5854
 6246TIP3   OH218743   4.305   1.111   2.861 -0.2059  0.2074 -0.2787
 6246TIP3    H118744   4.273   1.173   2.926  1.2941  1.2762 -0.4978
 6246TIP3    H218745   4.362   1.164   2.804 -1.2316 -0.7489 -2.2943
 6247TIP3   OH218746   4.871   2.906   0.147 -0.0497  0.6848  0.0888
 6247TIP3    H118747   4.912   2.861   0.074 -0.0128 -0.9213  1.0368
 6247TIP3    H218748   4.943   2.945   0.196  0.1327 -0.0027  0.3812
 6248TIP3   OH218749   3.980   3.829   4.905  0.3012  0.4583  0.7685
 6248TIP3    H118750   3.975   3.923   4.887 -0.6670  0.4328  0.8425
 6248TIP3    H218751   3.978   3.823   5.001 -1.7741  0.2996  0.7659
 6249TIP3   OH218752   2.843   2.685   4.126  0.5954  0.0762  0.2238
 6249TIP3    H118753   2.900   2.630   4.071 -0.0221  0.4297 -0.7902
 6249TIP3    H218754   2.879   2.774   4.116 -1.7134  0.8203 -2.6908
 6250TIP3   OH218755   1.620   2.497   1.889 -0.3504  0.7865 -0.2714
 6250TIP3    H118756   1.573   2.522   1.810 -1.6970 -0.9295 -0.0774
 6250TIP3    H218757   1.612   2.573   1.946  0.1841  1.8494 -1.5675
 6251TIP3   OH218758   2.292   4.878   3.643 -0.3552  0.2467 -0.6543
 6251TIP3    H118759   2.289   4.792   3.603  1.2057  0.1915 -0.7291
 6251TIP3    H218760   2.362   4.872   3.708 -0.8284  1.2054 -0.0257
 6252TIP3   OH218761   0.556   3.925   0.804 -0.2018 -0.0774  0.9191
 6252TIP3    H118762   0.643   3.960   0.822 -0.0296  0.6637 -1.1061
 6252TIP3    H218763   0.571   3.850   0.747 -0.9210  1.0355 -0.8099
 6253TIP3   OH218764   3.019   5.739   3.226  0.2302  0.3844 -0.2327
 6253TIP3    H118765   3.047   5.650   3.246 -1.1198 -0.3175 -1.2660
 6253TIP3    H218766   3.043   5.752   3.135 -0.1359  0.8442 -0.2699
 6254TIP3   OH218767   3.690   4.317   4.980 -0.6819 -0.4056  0.3471
 6254TIP3    H118768   3.741   4.337   4.901  0.2389  1.1886  1.2880
 6254TIP3    H218769   3.636   4.242   4.955 -0.4275  0.0459 -1.8027
 6255TIP3   OH218770   4.018   0.248   4.272 -0.0609 -0.4181  0.6107
 6255TIP3    H118771   4.052   0.337   4.266 -0.6632 -0.1689  0.7679
 6255TIP3    H218772   3.980   0.230   4.186 -1.0404 -0.0525  0.9499
 6256TIP3   OH218773   3.684   4.941   1.363  0.2238 -0.6245 -0.2643
 6256TIP3    H118774   3.628   4.990   1.424 -0.5932 -1.0115 -0.6841
 6256TIP3    H218775   3.773   4.970   1.384 -0.2107  0.8780 -0.3398
 6257TIP3   OH218776   6.251   2.261   0.097  0.7283 -0.1378 -0.0227
 6257TIP3    H118777   6.280   2.329   0.158  0.4563 -0.5527  0.5819
 6257TIP3    H218778   6.311   2.268   0.023 -1.1791  2.8303 -1.4678
 6258TIP3   OH218779   2.939   5.953   4.417  0.0416  0.1587 -0.0094
 6258TIP3    H118780   2.974   5.986   4.335 -0.5428  0.2457 -0.2293
 6258TIP3    H218781   2.984   6.004   4.485 -0.4240  1.0014 -0.3212
 6259TIP3   OH218782   2.844   3.754   2.409  0.5140 -0.2127 -0.1863
 6259TIP3    H118783   2.759   3.716   2.388  0.7606 -0.2070 -1.2751
 6259TIP3    H218784   2.900   3.679   2.428  0.9317 -0.4213 -2.0734
 6260TIP3   OH218785   0.175   5.868   0.189 -0.1475  0.3135 -0.5366
 6260TIP3    H118786   0.116   5.800   0.156 -0.0256  0.3415 -0.8096
 6260TIP3    H218787   0.255   5.820   0.212 -0.9695 -0.0867  1.8261
 6261TIP3   OH218788   4.798   1.755   2.311 -0.0892  0.4896  0.3632
 6261TIP3    H118789   4.734   1.747   2.381 -1.3667  0.7823 -0.7401
 6261TIP3    H218790   4.825   1.665   2.293  0.3976  0.4275  1.3430
 6262TIP3   OH218791   2.883   1.780   3.862 -0.7474 -0.9491 -0.0421
 6262TIP3    H118792   2.819   1.732   3.808 -1.2277 -0.1727 -0.1740
 6262TIP3    H218793   2.914   1.850   3.805  0.1409 -1.2465  0.0665
 6263TIP3   OH218794   3.827   0.240   3.038  0.1523 -0.8861  0.4420
 6263TIP3    H118795   3.822   0.251   3.133  0.9070  0.1834  0.3725
 6263TIP3    H218796   3.904   0.185   3.024  0.6750 -0.1476  0.3956
 6264TIP3   OH218797   4.520   2.868   3.311  0.3680  0.2561  0.7455
 6264TIP3    H118798   4.522   2.863   3.407 -0.4004  1.2085  0.8329
 6264TIP3    H218799   4.452   2.806   3.285  2.0061 -1.5633  0.6476
 6265TIP3   OH218800   2.072   5.567   1.430  0.2851  0.2114  0.0663
 6265TIP3    H118801   2.067   5.661   1.450  0.7838  0.2821 -0.1190
 6265TIP3    H218802   2.126   5.531   1.501  0.0574  0.0591  0.1609
 6266TIP3   OH218803   1.238   1.411   1.288 -0.1626 -0.1805  0.8165
 6266TIP3    H118804   1.324   1.408   1.246 -0.4732 -0.3341  0.1841
 6266TIP3    H218805   1.178   1.433   1.217 -0.5505  0.7178  1.4068
 6267TIP3   OH218806   2.837   5.800   0.201 -0.2116 -0.5212  0.2098
 6267TIP3    H118807   2.793   5.759   0.126  1.3463 -0.9515 -0.5266
 6267TIP3    H218808   2.927   5.768   0.195  0.3064  0.6434  1.4046
 6268TIP3   OH218809   3.984   4.816   4.684  0.4650 -0.2505  0.2750
 6268TIP3    H118810   3.970   4.814   4.589  0.8514  0.0317  0.2100
 6268TIP3    H218811   4.077   4.796   4.694  0.6670  0.7649  0.5367
 6269TIP3   OH218812   3.626   4.388   1.468  0.5372  0.0539 -0.8750
 6269TIP3    H118813   3.719   4.368   1.465  0.5718  0.0229  0.0688
 6269TIP3    H218814   3.619   4.478   1.437  0.5366 -0.8294 -3.7782
 6270TIP3   OH218815   4.500   1.433   0.320 -0.2429  0.3951 -0.6430
 6270TIP3    H118816   4.583   1.408   0.360 -0.5210 -1.7139 -1.2627
 6270TIP3    H218817   4.451   1.476   0.390  0.1836 -1.0974  0.6116
 6271TIP3   OH218818   1.908   0.688   1.881 -0.2356 -0.1567 -0.4045
 6271TIP3    H118819   1.891   0.632   1.805  2.0661  2.0723 -2.8054
 6271TIP3    H218820   1.990   0.654   1.918 -0.3048 -0.0462 -0.1454
 6272TIP3   OH218821   4.103   0.536   3.939 -0.3193  0.0437  0.2444
 6272TIP3    H118822   4.139   0.624   3.930  0.7387 -0.4022 -0.0901
 6272TIP3    H218823   4.030   0.533   3.876  0.9596  0.0277 -1.3145
 6273TIP3   OH218824   5.395   2.392   2.938  0.5152 -0.3251 -0.2379
 6273TIP3    H118825   5.430   2.306   2.958  0.3294 -0.1110  1.0716
 6273TIP3    H218826   5.472   2.449   2.934  0.6745 -0.6038 -1.4881
 6274TIP3   OH218827   0.449   4.049   5.015  0.5484 -0.0443  0.6766
 6274TIP3    H118828   0.438   4.013   4.927 -2.8825  0.8178  0.5901
 6274TIP3    H218829   0.378   4.113   5.023  0.4593 -0.4069  4.2007
 6275TIP3   OH218830   4.778   2.166   4.650 -0.3411  0.0619 -0.0535
 6275TIP3    H118831   4.844   2.104   4.620 -0.3556 -0.3856  0.8184
 6275TIP3    H218832   4.804   2.188   4.739 -1.4204 -0.1942  0.3388
 6276TIP3   OH218833   3.579   4.619   2.043 -0.7518 -0.1729  0.8928
 6276TIP3    H118834   3.535   4.535   2.032 -2.4331  0.8144 -0.4797
 6276TIP3    H218835   3.515   4.674   2.087 -0.3767  0.8987  0.1449
 6277TIP3   OH218836   4.046   0.905   4.288 -0.2133  0.1403  0.2403
 6277TIP3    H118837   3.988   0.901   4.213 -0.9090 -2.6603  0.8269
 6277TIP3    H218838   3.991   0.881   4.363  0.6826  1.9059  1.5635
 6278TIP3   OH218839   4.423   4.159   3.794  0.2219  0.4619  0.0630
 6278TIP3    H118840   4.340   4.111   3.788  1.2637 -1.3565 -0.3632
 6278TIP3    H218841   4.466   4.144   3.710  1.2105  0.9755  0.4634
 6279TIP3   OH218842   2.609   0.163   2.099 -0.2229  0.4203 -0.1459
 6279TIP3    H118843   2.620   0.195   2.188  0.4290  0.1929 -0.1423
 6279TIP3    H218844   2.609   0.068   2.107 -4.9882  0.2196  0.2227
 6280TIP3   OH218845   1.806   3.468   4.495 -0.2571 -0.0977 -0.3502
 6280TIP3    H118846   1.735   3.420   4.451  0.7021 -1.7082 -0.2014
 6280TIP3    H218847   1.792   3.450   4.588  1.6254 -2.3759 -0.4298
 6281TIP3   OH218848   6.300   0.241   3.111 -0.1144 -0.5949 -0.3532
 6281TIP3    H118849   6.317   0.290   3.192 -1.0484 -0.2929 -0.3203
 6281TIP3    H218850   6.349   0.289   3.044 -0.3522 -0.0863 -0.1753
 6282TIP3   OH218851   2.271   0.542   4.606  0.2592  0.7543  0.2675
 6282TIP3    H118852   2.340   0.481   4.579 -1.7393 -2.1471  1.1560
 6282TIP3    H218853   2.231   0.570   4.523 -1.7901 -3.0804 -0.3001
 6283TIP3   OH218854   2.352   2.546   3.511 -0.0802 -0.1556  0.6185
 6283TIP3    H118855   2.304   2.561   3.592 -1.2371  1.3023 -0.2819
 6283TIP3    H218856   2.444   2.554   3.535 -0.3118 -1.3629  2.0680
 6284TIP3   OH218857   3.086   0.370   2.595 -0.3872 -0.4024  0.4866
 6284TIP3    H118858   3.053   0.281   2.586  0.2843 -0.4904 -1.4606
 6284TIP3    H218859   3.023   0.424   2.549  0.2403 -0.1302 -0.0670
 6285TIP3   OH218860   0.905   2.183   1.815  0.0061  0.2206 -0.0922
 6285TIP3    H118861   0.830   2.150   1.764 -0.3507  1.2095 -0.2266
 6285TIP3    H218862   0.962   2.107   1.825  0.3480  0.0847 -2.4104
 6286TIP3   OH218863   1.926   0.411   3.453  0.4412 -0.1142 -0.1961
 6286TIP3    H118864   1.918   0.405   3.548 -1.1616 -0.9037 -0.3438
 6286TIP3    H218865   1.938   0.504   3.436 -1.9375  0.4438  0.6787
 6287TIP3   OH218866   2.005   0.518   0.076  0.5751 -0.1180 -0.0309
 6287TIP3    H118867   1.922   0.474   0.090  0.0110  1.2520  1.2431
 6287TIP3    H218868   2.070   0.464   0.122  0.5399 -1.5034 -1.5180
 6288TIP3   OH218869   5.771   3.651   4.716  0.2882 -0.1973 -0.0180
 6288TIP3    H118870   5.717   3.719   4.756 -0.2299 -0.8860  0.4898
 6288TIP3    H218871   5.853   3.654   4.765  0.4293  0.3429 -0.2825
 6289TIP3   OH218872   5.520   5.280   3.759 -0.0492 -0.2635  0.0555
 6289TIP3    H118873   5.493   5.206   3.704 -0.0653 -0.6081  0.5257
 6289TIP3    H218874   5.503   5.251   3.848 -2.1486  1.1173  0.1839
 6290TIP3   OH218875   5.243   4.172   1.284  0.0993 -0.4178 -0.6547
 6290TIP3    H118876   5.207   4.234   1.347  0.4442 -0.6007 -0.2687
 6290TIP3    H218877   5.183   4.175   1.209 -1.9464 -2.2436  0.7677
 6291TIP3   OH218878   0.700   0.283   0.195  0.3697 -0.5940 -0.0514
 6291TIP3    H118879   0.662   0.363   0.232  0.6181  0.2846 -1.5971
 6291TIP3    H218880   0.745   0.242   0.269  1.1733  1.2672  0.5657
 6292TIP3   OH218881   1.216   0.814   0.951  0.3645 -0.0203 -0.0385
 6292TIP3    H118882   1.234   0.900   0.989  1.2807 -0.4752  0.6005
 6292TIP3    H218883   1.294   0.762   0.971  0.3287 -0.6698 -1.4263
 6293TIP3   OH218884   3.663   1.875   1.509  0.0815 -0.5379  0.4030
 6293TIP3    H118885   3.721   1.848   1.580 -0.0124  1.5532  1.3659
 6293TIP3    H218886   3.719   1.922   1.448 -0.4885  1.2521  1.1998
 6294TIP3   OH218887   3.051   1.040   1.781 -0.2338  0.0968  0.2478
 6294TIP3    H118888   3.078   0.965   1.833  0.2380  0.0765 -0.0222
 6294TIP3    H218889   2.964   1.017   1.749  0.5193 -1.0183 -1.1138
 6295TIP3   OH218890   1.168   0.133   2.697 -0.2616 -0.3029 -0.1027
 6295TIP3    H118891   1.181   0.039   2.708  0.8662 -0.0135  1.2157
 6295TIP3    H218892   1.242   0.173   2.742 -0.0030  1.2082 -1.7746
 6296TIP3   OH218893   4.084   0.283   3.618  0.0948 -0.2345  0.1890
 6296TIP3    H118894   4.051   0.201   3.654  2.9379 -2.5554 -1.9647
 6296TIP3    H218895   4.158   0.306   3.675  0.5891 -0.3463 -0.3963
 6297TIP3   OH218896   1.823   5.305   4.239 -0.1953 -0.0241  0.5750
 6297TIP3    H118897   1.853   5.315   4.329 -1.2705  1.0291  0.8424
 6297TIP3    H218898   1.738   5.262   4.247  0.7965 -2.2681 -0.1188
 6298TIP3   OH218899   0.317   1.886   3.888  0.1387 -0.7356 -0.4954
 6298TIP3    H118900   0.388   1.846   3.838  0.0674 -1.5045 -0.0038
 6298TIP3    H218901   0.339   1.979   3.890  0.4872 -0.7877 -1.3781
 6299TIP3   OH218902   2.178   3.730   2.286  0.3813  0.0370 -0.2885
 6299TIP3    H118903   2.231   3.746   2.207 -0.3691  2.5003 -0.3550
 6299TIP3    H218904   2.112   3.799   2.285 -3.0638 -2.9768 -0.2920
 6300TIP3   OH218905   5.434   5.149   2.783 -0.0643 -0.3911 -0.4100
 6300TIP3    H118906   5.351   5.127   2.825  0.2821 -1.4725 -0.2729
 6300TIP3    H218907   5.413   5.224   2.726 -1.2081 -0.8777 -0.6533
 6301TIP3   OH218908   0.863   3.895   2.797 -0.1264  0.1791 -0.6230
 6301TIP3    H118909   0.778   3.922   2.832 -0.5256 -0.6150 -0.9845
 6301TIP3    H218910   0.849   3.808   2.761  1.4978 -1.3397  1.9952
 6302TIP3   OH218911   0.360   4.565   2.904 -0.2162 -0.1201 -0.4535
 6302TIP3    H118912   0.451   4.538   2.917 -0.4928 -0.1061  1.8638
 6302TIP3    H218913   0.366   4.659   2.884  0.2470  0.0202  0.3053
 6303TIP3   OH218914   0.486   4.226   1.456  0.1741  0.4066 -0.0037
 6303TIP3    H118915   0.555   4.186   1.404 -0.4698 -1.5931  0.5985
 6303TIP3    H218916   0.506   4.202   1.546 -0.4578  1.1270  0.3448
 6304TIP3   OH218917   4.212   2.377   1.523 -0.0174  0.0918 -0.2023
 6304TIP3    H118918   4.171   2.462   1.538  0.3897  0.1011  0.9595
 6304TIP3    H218919   4.299   2.385   1.562 -0.3556 -1.1960  0.8912
 6305TIP3   OH218920   5.075   3.384   1.429  0.3405  0.3938 -0.3928
 6305TIP3    H118921   5.139   3.442   1.470 -0.6697 -0.0523  2.0452
 6305TIP3    H218922   5.001   3.440   1.408 -0.0575  0.2888  0.6302
 6306TIP3   OH218923   1.648   0.855   0.483 -0.3740 -0.1902 -0.5722
 6306TIP3    H118924   1.675   0.936   0.439 -1.9391  1.1304  0.7540
 6306TIP3    H218925   1.653   0.875   0.576 -1.3755 -1.4196 -0.2219
 6307TIP3   OH218926   2.336   3.310   4.722  0.0362  0.0696 -0.1310
 6307TIP3    H118927   2.267   3.261   4.679  1.1545 -1.0102 -0.7801
 6307TIP3    H218928   2.394   3.242   4.759 -0.4968  0.9223  2.5299
 6308TIP3   OH218929   2.728   1.305   3.340 -0.0250  0.2378 -0.1978
 6308TIP3    H118930   2.709   1.237   3.276 -1.6443 -0.0029  0.4897
 6308TIP3    H218931   2.720   1.262   3.425  0.1109  1.0023  0.2171
 6309TIP3   OH218932   2.010   0.726   4.681  0.3350 -0.1993 -0.6647
 6309TIP3    H118933   2.097   0.766   4.688  1.0833 -1.7120 -0.9504
 6309TIP3    H218934   1.989   0.700   4.771  0.7580 -0.9981 -0.7940
 6310TIP3   OH218935   0.263   5.038   0.034 -0.1734  0.3815  0.2079
 6310TIP3    H118936   0.241   4.974   0.102 -0.8285 -0.5213 -0.8295
 6310TIP3    H218937   0.330   5.093   0.075  0.3127 -0.8706  1.1858
 6311TIP3   OH218938   4.891   2.983   2.742  0.2697 -0.0335  0.4523
 6311TIP3    H118939   4.929   3.042   2.676  1.0333  0.7231  1.5329
 6311TIP3    H218940   4.934   2.899   2.725  2.2030  0.6947  1.3598
 6312TIP3   OH218941   3.600   4.706   1.690 -0.0457 -0.3670 -0.2529
 6312TIP3    H118942   3.633   4.706   1.600 -1.2216 -2.6076 -0.7414
 6312TIP3    H218943   3.559   4.621   1.701 -1.2119  0.4005  1.9695
 6313TIP3   OH218944   5.256   0.538   2.321  0.0633 -0.3569  1.0648
 6313TIP3    H118945   5.307   0.518   2.399 -0.9011 -1.6535  1.3865
 6313TIP3    H218946   5.183   0.590   2.353  1.1009  1.4682  0.6082
 6314TIP3   OH218947   4.747   2.485   2.203  0.6373  0.3564  0.3127
 6314TIP3    H118948   4.808   2.430   2.155  0.1160  0.2954 -0.2932
 6314TIP3    H218949   4.800   2.525   2.272  1.4277  0.5822 -0.4151
 6315TIP3   OH218950   4.729   4.637   1.502 -0.2306 -0.0436 -0.2301
 6315TIP3    H118951   4.649   4.604   1.459  0.4404 -1.0288 -0.7754
 6315TIP3    H218952   4.792   4.645   1.431  0.6491 -0.8839  0.4255
 6316TIP3   OH218953   5.393   5.165   0.687 -0.4310 -0.4318 -0.1790
 6316TIP3    H118954   5.390   5.192   0.595 -0.5681  0.8863  0.1781
 6316TIP3    H218955   5.302   5.141   0.708 -0.7919  0.9864  0.0507
 6317TIP3   OH218956   1.640   0.698   1.588  0.1626  0.6046  0.9346
 6317TIP3    H118957   1.587   0.627   1.552 -0.6330  1.8509 -0.4814
 6317TIP3    H218958   1.598   0.720   1.671 -1.2357  1.2003  0.0924
 6318TIP3   OH218959   1.415   4.349   4.788 -0.1418  0.2142 -0.1562
 6318TIP3    H118960   1.485   4.378   4.846  1.3896 -0.2420 -1.7019
 6318TIP3    H218961   1.364   4.429   4.770 -0.2611  0.4789  1.2454
 6319TIP3   OH218962   4.413   2.822   0.184  0.3002  0.3058  0.2945
 6319TIP3    H118963   4.502   2.842   0.155  1.1733  0.5485  2.8641
 6319TIP3    H218964   4.374   2.907   0.203 -0.8514  0.2661 -1.5745
 6320TIP3   OH218965   4.715   0.067   4.364  0.5717 -0.6172 -0.0816
 6320TIP3    H118966   4.648   0.094   4.427  0.5275 -0.8216 -0.0396
 6320TIP3    H218967   4.724   0.141   4.304 -0.6715 -1.1105 -0.9100
 6321TIP3   OH218968   5.887   0.929   0.455  0.5159 -0.1658  0.3272
 6321TIP3    H118969   5.820   0.942   0.389  0.0843 -1.8768  0.3612
 6321TIP3    H218970   5.955   0.993   0.435  1.3396 -1.8493 -3.0488
 6322TIP3   OH218971   3.917   0.899   3.607  0.3959 -0.3926 -0.1946
 6322TIP3    H118972   3.900   0.958   3.680  0.3787 -0.9269  0.2406
 6322TIP3    H218973   3.832   0.859   3.589  0.8486 -2.0030  1.0391
 6323TIP3   OH218974   0.655   3.504   1.071 -0.2616  0.3712  0.8578
 6323TIP3    H118975   0.625   3.492   1.161 -0.1089 -3.2585  0.5733
 6323TIP3    H218976   0.575   3.499   1.018 -0.2889  1.9709  0.6865
 6324TIP3   OH218977   1.736   3.276   3.073  0.3064  0.2071  0.3633
 6324TIP3    H118978   1.641   3.271   3.066  0.1506  2.8340 -0.5442
 6324TIP3    H218979   1.755   3.369   3.085  2.8646  0.1907 -2.1873
 6325TIP3   OH218980   5.115   3.309   4.886  0.0215 -0.4958 -0.3056
 6325TIP3    H118981   5.175   3.280   4.817 -1.8403 -1.7060 -1.4937
 6325TIP3    H218982   5.067   3.382   4.847  1.2962  1.1102  0.9786
 6326TIP3   OH218983   5.698   4.137   0.904 -0.4562 -0.6089  0.2690
 6326TIP3    H118984   5.722   4.172   0.990 -1.4643  0.5832  0.1036
 6326TIP3    H218985   5.772   4.158   0.848 -0.2123 -0.4970  0.6329
 6327TIP3   OH218986   3.455   3.673   1.584 -0.1939 -0.1390  0.1243
 6327TIP3    H118987   3.435   3.753   1.631 -2.0179  0.2846 -1.2552
 6327TIP3    H218988   3.374   3.652   1.536  0.6460 -2.0867 -0.5666
 6328TIP3   OH218989   5.171   0.988   1.164 -0.0846 -0.3560 -0.4671
 6328TIP3    H118990   5.118   1.064   1.188  0.6249  0.0723 -0.2440
 6328TIP3    H218991   5.241   1.023   1.110  0.6856 -0.7388  0.2570
 6329TIP3   OH218992   2.070   3.259   1.384 -0.1834 -0.0397 -0.0796
 6329TIP3    H118993   2.030   3.339   1.349 -0.0953  0.1102  0.1631
 6329TIP3    H218994   2.153   3.251   1.338  0.0117  0.2531  0.2219
 6330TIP3   OH218995   2.689   5.683   1.254 -0.4782 -0.1861  0.2038
 6330TIP3    H118996   2.669   5.601   1.209  0.8335 -0.4131 -0.0017
 6330TIP3    H218997   2.681   5.750   1.187 -0.6572 -0.2597  0.1521
 6331TIP3   OH218998   2.853   1.633   4.084 -0.7858 -0.3535  0.1188
 6331TIP3    H118999   2.889   1.675   4.007  1.6358 -0.1300  1.2788
 6331TIP3    H219000   2.759   1.651   4.079 -0.3427  2.0796 -1.3041
 6332TIP3   OH219001   3.665   0.746   3.235 -0.2921  0.5381  0.0213
 6332TIP3    H119002   3.692   0.802   3.307 -0.7317 -2.4249  2.7407
 6332TIP3    H219003   3.746   0.712   3.198 -0.0686  2.0054 -0.9148
 6333TIP3   OH219004   5.104   1.685   1.888  0.9296  0.2489  0.8156
 6333TIP3    H119005   5.092   1.600   1.929 -1.4186 -0.2560 -0.7137
 6333TIP3    H219006   5.058   1.746   1.945  0.4656  0.0757  0.6314
 6334TIP3   OH219007   4.333   3.443   1.055  0.4048  0.0918 -0.3457
 6334TIP3    H119008   4.244   3.431   1.088 -0.3403  1.9611 -1.4940
 6334TIP3    H219009   4.389   3.420   1.129 -1.0746  0.2376  0.8756
 6335TIP3   OH219010   6.130   0.878   3.137  0.0062 -0.1053 -0.0812
 6335TIP3    H119011   6.158   0.945   3.074  1.8449  0.4789  1.2771
 6335TIP3    H219012   6.160   0.795   3.099 -0.3964  0.0490 -0.7564
 6336TIP3   OH219013   6.157   5.754   2.754 -0.5387  0.5822  0.1235
 6336TIP3    H119014   6.234   5.763   2.698  0.7851  0.4652  1.8574
 6336TIP3    H219015   6.126   5.665   2.738 -0.4766  0.7146 -0.7630
 6337TIP3   OH219016   4.877   1.512   1.091  0.0005 -1.0387 -0.5237
 6337TIP3    H119017   4.782   1.509   1.099  0.0270 -2.5730 -0.5212
 6337TIP3    H219018   4.909   1.517   1.181 -0.0865  1.5438 -0.5798
 6338TIP3   OH219019   1.700   4.506   0.295 -0.0107  0.6410 -0.5250
 6338TIP3    H119020   1.722   4.456   0.374  0.5801 -0.1311 -1.1666
 6338TIP3    H219021   1.619   4.551   0.318 -0.0089  0.1946  0.4264
 6339TIP3   OH219022   6.158   5.630   4.995  0.1715  0.4031  0.2436
 6339TIP3    H119023   6.216   5.676   5.055 -0.2205  0.0748  0.8849
 6339TIP3    H219024   6.076   5.618   5.044  0.2326 -0.8811  0.0622
 6340TIP3   OH219025   3.019   4.502   2.393 -0.1745  0.2586 -0.0589
 6340TIP3    H119026   3.084   4.552   2.442  0.6895 -0.8731 -0.0274
 6340TIP3    H219027   2.991   4.563   2.324  0.3036  1.0436  0.4162
 6341TIP3   OH219028   5.758   2.517   3.793 -0.0867 -0.4130 -0.0131
 6341TIP3    H119029   5.672   2.512   3.834 -1.2261  1.3691 -1.9548
 6341TIP3    H219030   5.799   2.432   3.810 -2.3913 -1.4626  0.6002
 6342TIP3   OH219031   4.323   5.071   0.017  0.0279  0.0183 -0.5978
 6342TIP3    H119032   4.262   5.023  -0.038  1.0647 -2.5657  0.2925
 6342TIP3    H219033   4.279   5.079   0.101  0.7497 -1.7242  0.0032
 6343TIP3   OH219034   2.137   2.406   2.447  0.0008  0.1057  0.0834
 6343TIP3    H119035   2.216   2.404   2.500  0.1064  0.6484 -0.0539
 6343TIP3    H219036   2.072   2.357   2.498  0.5583 -0.7779 -0.0313
 6344TIP3   OH219037   0.698   1.376   1.248  0.3411 -0.1868 -0.2235
 6344TIP3    H119038   0.753   1.396   1.324  1.9326 -0.5387 -1.2346
 6344TIP3    H219039   0.610   1.369   1.284  1.1583 -1.2182  1.7369
 6345TIP3   OH219040   4.343   4.174   4.923  0.0236  0.0066 -0.4433
 6345TIP3    H119041   4.300   4.131   4.849 -2.1550 -0.5808  1.0386
 6345TIP3    H219042   4.271   4.207   4.977  1.5183  0.7413  1.2262
 6346TIP3   OH219043   4.872   1.594   4.485 -0.2314 -0.3347  0.0288
 6346TIP3    H119044   4.926   1.542   4.426 -2.5009 -0.7724 -1.7951
 6346TIP3    H219045   4.862   1.679   4.441  1.2584  0.8104  1.7335
 6347TIP3   OH219046   6.251   3.853   0.593 -0.6316 -0.3394  0.2939
 6347TIP3    H119047   6.162   3.885   0.581 -1.0960 -2.1686 -1.6950
 6347TIP3    H219048   6.243   3.758   0.597  1.3040 -0.6265 -1.0924
 6348TIP3   OH219049   1.332   2.978   4.158  0.2833 -0.1486 -0.1374
 6348TIP3    H119050   1.301   3.008   4.243  0.5735  1.6137 -0.6280
 6348TIP3    H219051   1.301   2.887   4.153  0.8326 -0.5434  2.1107
 6349TIP3   OH219052   5.318   5.234   3.222 -0.2288  0.0783 -0.0657
 6349TIP3    H119053   5.266   5.282   3.157  2.5216  3.0029 -0.3004
 6349TIP3    H219054   5.321   5.144   3.188 -0.7831  0.9934 -2.7709
 6350TIP3   OH219055   3.220   5.041   1.764  0.4009  0.1763  0.8689
 6350TIP3    H119056   3.144   5.018   1.817  0.8783 -0.4860  1.2775
 6350TIP3    H219057   3.294   5.032   1.823  0.6538  3.0261  1.1472
 6351TIP3   OH219058   4.029   3.222   2.040  0.3327  0.2718  0.2585
 6351TIP3    H119059   4.108   3.177   2.009 -0.8700 -1.0779 -0.9736
 6351TIP3    H219060   4.017   3.189   2.130  0.5809 -0.3550  0.0700
 6352TIP3   OH219061   2.861   0.775   3.212 -0.7719  0.4562  0.0248
 6352TIP3    H119062   2.788   0.714   3.218  1.3550 -2.5865 -2.1220
 6352TIP3    H219063   2.924   0.743   3.276  0.6853 -0.1814 -1.6465
 6353TIP3   OH219064   3.828   4.270   1.945  0.4541 -0.0573 -0.2814
 6353TIP3    H119065   3.843   4.363   1.966 -0.3804  0.2224 -0.8714
 6353TIP3    H219066   3.768   4.239   2.013  0.3894 -0.0404 -0.3300
 6354TIP3   OH219067   3.379   2.991   2.335  0.3279  0.1374  0.2447
 6354TIP3    H119068   3.429   3.068   2.360 -1.3377  0.7725  1.8622
 6354TIP3    H219069   3.408   2.923   2.396 -0.1747  0.2780  0.6463
 6355TIP3   OH219070   2.752   3.321   1.277 -0.2687  0.5306  0.6103
 6355TIP3    H119071   2.723   3.290   1.191 -1.7862  1.1076  0.8886
 6355TIP3    H219072   2.672   3.347   1.322  0.1997 -1.8201  3.0792
 6356TIP3   OH219073   1.150   3.994   3.844 -0.5317 -0.2775  0.1121
 6356TIP3    H119074   1.200   4.068   3.809 -0.9675 -0.1031 -0.1508
 6356TIP3    H219075   1.179   3.919   3.792 -1.4108  0.0361 -0.8778
 6357TIP3   OH219076   3.821   5.913   3.156 -0.1381 -0.3761 -0.1292
 6357TIP3    H119077   3.818   5.834   3.209 -1.4749 -0.2962 -0.0510
 6357TIP3    H219078   3.756   5.971   3.195 -0.0952  0.2603 -0.9669
 6358TIP3   OH219079   0.903   0.222   2.677 -0.4760  0.0946 -0.1530
 6358TIP3    H119080   0.892   0.252   2.767 -1.1971  0.5766 -0.3832
 6358TIP3    H219081   0.995   0.200   2.670 -0.3004  0.5478  0.5579
 6359TIP3   OH219082   4.622   0.595   4.335 -0.3742 -0.2115 -0.6534
 6359TIP3    H119083   4.571   0.581   4.255  0.0154 -0.0209 -0.9395
 6359TIP3    H219084   4.673   0.673   4.317 -0.4685 -0.0215 -0.1172
 6360TIP3   OH219085   5.108   1.121   3.995 -0.2251  0.0023 -0.0637
 6360TIP3    H119086   5.086   1.030   4.012 -0.2991 -0.2554 -1.3868
 6360TIP3    H219087   5.032   1.171   4.026 -1.5892 -0.6607 -2.1412
 6361TIP3   OH219088   5.498   2.509   4.976 -0.3007  0.1080  0.0440
 6361TIP3    H119089   5.516   2.599   4.949 -3.8631  0.7638 -0.6558
 6361TIP3    H219090   5.503   2.511   5.072 -0.0047  0.9756  0.0136
 6362TIP3   OH219091   4.699   3.012   2.019 -0.1804 -0.1817  0.2968
 6362TIP3    H119092   4.640   3.014   1.944  0.3027 -0.1054 -0.0803
 6362TIP3    H219093   4.738   3.099   2.021  1.6107 -0.9243 -0.8075
 6363TIP3   OH219094   4.614   2.567   0.120  0.0712  0.3207 -0.3472
 6363TIP3    H119095   4.571   2.627   0.181 -1.5479  1.6227 -2.5926
 6363TIP3    H219096   4.561   2.487   0.123  0.2720  0.2128  0.2899
 6364TIP3   OH219097   3.813   0.679   2.545 -0.1234  0.2679 -0.2435
 6364TIP3    H119098   3.721   0.658   2.530 -0.7726  0.6968  2.5957
 6364TIP3    H219099   3.835   0.635   2.627  1.4953  2.0635  0.3757
 6365TIP3   OH219100   2.674   3.334   1.781 -0.2240 -0.6780 -0.3106
 6365TIP3    H119101   2.612   3.271   1.746 -2.4263  1.1131  0.1581
 6365TIP3    H219102   2.646   3.419   1.746 -0.7254  0.7922  3.1846
 6366TIP3   OH219103   4.249   5.137   2.677 -0.2102 -0.2067  0.0672
 6366TIP3    H119104   4.283   5.071   2.617 -0.0011  0.1934 -0.2600
 6366TIP3    H219105   4.286   5.220   2.645  0.7810 -0.1157  1.3992
 6367TIP3   OH219106   4.853   2.089   3.163 -0.0070  0.8396 -0.2745
 6367TIP3    H119107   4.885   2.133   3.084  1.0934 -0.8946 -0.8657
 6367TIP3    H219108   4.794   2.020   3.129  0.2439  0.2730  0.4302
 6368TIP3   OH219109   5.075   3.943   3.803  0.2270  0.0589 -0.1596
 6368TIP3    H119110   5.038   4.032   3.801 -0.7969 -0.3560 -0.3883
 6368TIP3    H219111   5.030   3.900   3.876 -0.4839 -0.7577 -1.0559
 6369TIP3   OH219112   6.075   5.227   4.756  0.3329 -0.6752 -0.4143
 6369TIP3    H119113   6.094   5.148   4.706  0.4699  0.0690 -1.5943
 6369TIP3    H219114   6.120   5.297   4.708 -1.2452  0.3781 -0.4273
 6370TIP3   OH219115   3.687   2.636   3.096  0.3396 -0.1705  0.1557
 6370TIP3    H119116   3.648   2.707   3.146  1.4920  0.7632 -0.2128
 6370TIP3    H219117   3.720   2.575   3.162  0.2548  0.1556  0.5010
 6371TIP3   OH219118   1.011   1.893   4.389 -0.6324 -0.3911 -0.3969
 6371TIP3    H119119   1.033   1.976   4.348  2.0677 -1.7604 -1.9613
 6371TIP3    H219120   0.961   1.846   4.322 -0.8358 -0.6323 -0.0818
 6372TIP3   OH219121   3.223   1.133   0.713  0.3562 -0.0552  0.3104
 6372TIP3    H119122   3.299   1.075   0.722  0.3872  0.2032  1.8950
 6372TIP3    H219123   3.237   1.201   0.779  0.2894  1.7484 -1.4260
 6373TIP3   OH219124   4.536   4.185   3.074  0.7150  0.5223 -0.6478
 6373TIP3    H119125   4.458   4.182   3.019  1.0688  1.2499 -1.2127
 6373TIP3    H219126   4.519   4.256   3.137  1.5342  1.7716 -1.7761
 6374TIP3   OH219127   2.885   1.066   2.778 -0.2591  0.0470 -0.4626
 6374TIP3    H119128   2.877   0.975   2.808 -3.0003  0.0283 -0.9988
 6374TIP3    H219129   2.905   1.115   2.857 -1.0965 -0.7557  0.2761
 6375TIP3   OH219130   1.142   5.053   4.839  0.0456 -0.0560 -0.0400
 6375TIP3    H119131   1.169   5.018   4.924 -0.3232 -0.5964 -0.1374
 6375TIP3    H219132   1.214   5.109   4.812  0.7296 -0.8618  0.0517
 6376TIP3   OH219133   5.328   5.529   3.092  0.3172 -0.1717 -0.6526
 6376TIP3    H119134   5.240   5.555   3.119  0.1245  0.7239 -2.0478
 6376TIP3    H219135   5.384   5.603   3.116  0.0949  0.7732 -2.8381
 6377TIP3   OH219136   2.445   2.395   1.398  0.5804  0.0826  0.8447
 6377TIP3    H119137   2.537   2.372   1.405  1.4230  3.1490  1.2741
 6377TIP3    H219138   2.435   2.430   1.310 -0.0474  0.2825  0.9898
 6378TIP3   OH219139   1.183   4.151   4.869 -0.3155 -0.8247 -0.2816
 6378TIP3    H119140   1.220   4.073   4.911 -1.9660 -0.7888  1.2946
 6378TIP3    H219141   1.255   4.214   4.870  0.6013 -1.8274 -0.2825
 6379TIP3   OH219142   3.597   5.455   4.612  0.3987 -0.1063  0.9582
 6379TIP3    H119143   3.529   5.506   4.654  1.3302  0.9356  1.2557
 6379TIP3    H219144   3.573   5.364   4.627 -2.3048  0.1216 -1.1489
 6380TIP3   OH219145   5.207   0.108   0.631  0.0705 -0.7308  0.5139
 6380TIP3    H119146   5.265   0.055   0.686  0.5150 -0.3830  0.3841
 6380TIP3    H219147   5.233   0.089   0.541 -1.9300 -2.7845  0.2825
 6381TIP3   OH219148   0.439   2.913   3.934  0.6552  0.2488 -0.3635
 6381TIP3    H119149   0.521   2.954   3.960  1.0442 -0.2993 -0.7138
 6381TIP3    H219150   0.375   2.946   3.997  1.3091  0.0173  0.4388
 6382TIP3   OH219151   5.084   2.913   2.124  0.5131 -0.6035 -0.9709
 6382TIP3    H119152   5.137   2.902   2.204  0.4486  0.3346 -0.7853
 6382TIP3    H219153   5.009   2.855   2.137  0.3777 -0.2851 -0.2275
 6383TIP3   OH219154   4.502   4.767   4.592 -1.0922  0.7036  0.4789
 6383TIP3    H119155   4.569   4.778   4.659  1.5197 -4.1463 -0.9202
 6383TIP3    H219156   4.550   4.766   4.509 -3.2015 -0.6679 -0.8216
 6384TIP3   OH219157   3.444   3.917   0.632 -0.2270 -0.6511 -0.4723
 6384TIP3    H119158   3.521   3.864   0.610 -0.0456 -1.0637  1.0528
 6384TIP3    H219159   3.433   3.975   0.557  0.4234 -1.8737 -1.5676
 6385TIP3   OH219160   3.468   2.732   2.428 -0.1314  0.1709  0.1689
 6385TIP3    H119161   3.486   2.669   2.498  0.3879  0.5705  0.3996
 6385TIP3    H219162   3.502   2.690   2.349 -0.5789 -0.2133  0.1764
 6386TIP3   OH219163   0.966   5.196   3.117  0.2821 -0.6908  0.3255
 6386TIP3    H119164   0.933   5.158   3.035  0.5254  0.1256 -0.1584
 6386TIP3    H219165   1.049   5.237   3.093  0.5567 -0.7903  1.0756
 6387TIP3   OH219166   1.855   3.976   3.602 -0.1106 -0.2383 -0.0625
 6387TIP3    H119167   1.764   3.996   3.584 -0.4386 -0.3253  1.3542
 6387TIP3    H219168   1.871   3.892   3.559 -0.1529  0.6343 -1.8508
 6388TIP3   OH219169   1.457   5.521   0.639 -0.0904 -0.1302 -0.0159
 6388TIP3    H119170   1.404   5.498   0.715 -0.3241 -0.3638 -0.2427
 6388TIP3    H219171   1.419   5.603   0.608  1.4473  1.2069  1.4474
 6389TIP3   OH219172   5.566   4.559   4.721 -0.3541  0.2424 -0.0949
 6389TIP3    H119173   5.653   4.560   4.761 -1.2293 -1.4541  2.0370
 6389TIP3    H219174   5.571   4.488   4.657 -1.0383 -2.3277  2.4835
 6390TIP3   OH219175   0.814   5.436   1.559  0.7540 -0.0661  0.0590
 6390TIP3    H119176   0.871   5.423   1.483  1.2030  0.4364  0.2970
 6390TIP3    H219177   0.868   5.409   1.633  0.9861  1.2049  0.3650
 6391TIP3   OH219178   2.163   4.451   4.780 -0.6041  0.0577 -0.1723
 6391TIP3    H119179   2.114   4.440   4.699  2.5420  2.5342 -2.7225
 6391TIP3    H219180   2.217   4.372   4.787 -1.3647 -0.4602 -0.0873
 6392TIP3   OH219181   4.210   2.640   2.651  0.1154  0.0034  0.2900
 6392TIP3    H119182   4.115   2.631   2.640  0.4970 -2.9116 -1.6248
 6392TIP3    H219183   4.246   2.630   2.563  2.2370  1.6770  0.8673
 6393TIP3   OH219184   2.267   0.239   2.338  0.2954 -0.1146  0.0868
 6393TIP3    H119185   2.311   0.165   2.379  0.0714 -0.6140 -0.5615
 6393TIP3    H219186   2.281   0.227   2.244  0.1632  0.6033 -0.0356
 6394TIP3   OH219187   4.897   4.608   2.569  0.4880 -0.4927  0.0345
 6394TIP3    H119188   4.870   4.573   2.484  0.8240  0.9289 -0.6829
 6394TIP3    H219189   4.821   4.595   2.626  0.0262 -0.8590 -0.6520
 6395TIP3   OH219190   4.870   1.668   0.669 -0.6803 -0.0076 -0.2668
 6395TIP3    H119191   4.942   1.663   0.606  1.0375 -2.6989  1.6716
 6395TIP3    H219192   4.908   1.636   0.751 -3.8613 -0.6771  1.0914
 6396TIP3   OH219193   6.304   1.066   4.012  0.1933  0.3047  0.2888
 6396TIP3    H119194   6.368   0.997   3.996  0.2506  0.4462 -0.1018
 6396TIP3    H219195   6.289   1.105   3.926 -1.6698 -0.8089  0.0423
 6397TIP3   OH219196   4.964   5.490   2.340  0.3042  0.4073  0.0955
 6397TIP3    H119197   5.001   5.577   2.352  0.7422  0.3715 -0.9444
 6397TIP3    H219198   4.995   5.462   2.254  1.7824 -1.5577  1.1782
 6398TIP3   OH219199   1.485   5.918   4.364  0.5926  0.0553  0.1212
 6398TIP3    H119200   1.414   5.912   4.299  2.1477  1.3132 -1.8347
 6398TIP3    H219201   1.507   6.011   4.366  3.1849 -0.4705 -0.5408
 6399TIP3   OH219202   4.881   1.200   3.385 -0.0833 -0.0180 -0.2265
 6399TIP3    H119203   4.805   1.147   3.409  1.6614 -2.3981  0.3932
 6399TIP3    H219204   4.940   1.138   3.342  2.1518  1.3835  0.6834
 6400TIP3   OH219205   3.183   4.002   4.784  0.4456  0.8213 -0.0649
 6400TIP3    H119206   3.237   3.961   4.716 -0.7090 -0.5456 -0.2157
 6400TIP3    H219207   3.230   3.985   4.865  0.3983 -0.1442 -0.2221
 6401TIP3   OH219208   6.264   4.438   0.095 -0.1931 -0.0916 -0.0559
 6401TIP3    H119209   6.324   4.483   0.155  1.3010 -2.8562  0.7645
 6401TIP3    H219210   6.293   4.463   0.008  1.1715 -0.0989  0.3632
 6402TIP3   OH219211   0.131   1.443   0.768  0.5757  0.3054  0.0976
 6402TIP3    H119212   0.050   1.401   0.797 -0.1319  0.7431 -1.1546
 6402TIP3    H219213   0.180   1.458   0.849 -0.3152 -0.5146  0.8246
 6403TIP3   OH219214   4.237   5.855   0.731  0.3346 -0.4129  0.1992
 6403TIP3    H119215   4.249   5.949   0.714 -0.2553 -0.0655  1.5716
 6403TIP3    H219216   4.233   5.816   0.644 -0.8644  1.0379 -0.4622
 6404TIP3   OH219217   0.278   2.177   2.149  0.1130 -0.0446 -0.0111
 6404TIP3    H119218   0.192   2.194   2.187  0.2183  0.1769  0.1326
 6404TIP3    H219219   0.311   2.264   2.125  0.8525  0.0165  1.1442
 6405TIP3   OH219220   2.711   2.960   4.928  0.2255  0.1069  0.3714
 6405TIP3    H119221   2.787   2.975   4.873  0.8054 -0.1709  1.0851
 6405TIP3    H219222   2.746   2.928   5.011 -0.6872 -0.5242  0.5401
 6406TIP3   OH219223   0.893   4.645   0.715 -0.3594 -0.0878 -0.2561
 6406TIP3    H119224   0.872   4.560   0.753 -1.1916  0.5379  0.7309
 6406TIP3    H219225   0.892   4.706   0.788  0.1547  0.8007 -0.9565
 6407TIP3   OH219226   3.500   2.597   0.416  0.3118  0.9903  0.4528
 6407TIP3    H119227   3.524   2.627   0.328  0.4157  0.7909  0.4131
 6407TIP3    H219228   3.584   2.579   0.459  0.2522  0.8353  0.5054
 6408TIP3   OH219229   4.822   2.261   0.847 -0.4990 -0.2218 -0.1966
 6408TIP3    H119230   4.868   2.307   0.917 -0.8965  1.0052 -0.7127
 6408TIP3    H219231   4.763   2.326   0.810 -0.0871 -0.7576 -1.8664
 6409TIP3   OH219232   1.888   0.416   3.716  0.2192 -0.0127  0.2219
 6409TIP3    H119233   1.946   0.358   3.765  0.5104  0.0392 -0.0586
 6409TIP3    H219234   1.819   0.439   3.779  0.6009  0.0762  0.6126
 6410TIP3   OH219235   0.920   5.443   0.970  0.2543  0.1496 -0.2483
 6410TIP3    H119236   0.907   5.530   0.932 -0.7381 -0.6144 -1.7752
 6410TIP3    H219237   0.835   5.421   1.009  0.7979  0.2553  1.0596
 6411TIP3   OH219238   5.902   0.936   4.362 -0.2376 -0.0334  0.1225
 6411TIP3    H119239   5.950   0.901   4.288  0.4112  0.7230  0.1664
 6411TIP3    H219240   5.922   0.877   4.434 -2.1931 -1.7435 -0.6430
 6412TIP3   OH219241   2.965   1.301   4.673 -0.0239  0.4388 -0.1741
 6412TIP3    H119242   2.898   1.367   4.689 -0.7463  0.3751 -2.5768
 6412TIP3    H219243   2.917   1.218   4.670  0.5763  0.0432  0.7789
 6413TIP3   OH219244   2.140   1.249   3.978  0.0812  0.4114 -0.4195
 6413TIP3    H119245   2.063   1.240   3.921 -0.2046 -0.6540  0.1122
 6413TIP3    H219246   2.213   1.221   3.923 -0.2694 -1.2213 -0.1090
 6414TIP3   OH219247   0.451   4.172   3.604 -0.5323  0.0662 -0.3152
 6414TIP3    H119248   0.394   4.101   3.573 -0.9088  0.6169 -0.9092
 6414TIP3    H219249   0.539   4.144   3.580 -0.6904 -0.1366 -0.6677
 6415TIP3   OH219250   0.621   5.705   2.011  0.3287  0.4880  0.3714
 6415TIP3    H119251   0.617   5.783   1.956 -0.6662 -0.1572 -0.5119
 6415TIP3    H219252   0.710   5.672   1.998  0.0586  0.2331 -1.0450
 6416TIP3   OH219253   3.824   2.195   2.449  0.1213 -0.2819  0.2436
 6416TIP3    H119254   3.905   2.244   2.462  0.4440 -0.7767  0.1296
 6416TIP3    H219255   3.797   2.170   2.537  1.0480 -1.6201  0.1830
 6417TIP3   OH219256   0.675   5.579   4.814 -0.1193  0.3157 -0.4999
 6417TIP3    H119257   0.753   5.633   4.818 -1.2141  1.9030  0.6827
 6417TIP3    H219258   0.688   5.523   4.737  1.6888  1.2509 -0.9192
 6418TIP3   OH219259   4.340   0.260   3.732  0.1776 -0.2466  0.5855
 6418TIP3    H119260   4.404   0.314   3.779  1.2243  0.1970 -1.2842
 6418TIP3    H219261   4.375   0.171   3.737  0.3580 -0.1790  0.5123
 6419TIP3   OH219262   5.428   4.772   1.590  0.3084 -0.2575 -0.5541
 6419TIP3    H119263   5.512   4.751   1.548 -0.0509 -0.1698 -1.3269
 6419TIP3    H219264   5.443   4.756   1.684  1.0853 -0.5603 -0.7268
 6420TIP3   OH219265   3.492   0.754   0.551  0.4295  0.1632 -0.0335
 6420TIP3    H119266   3.463   0.773   0.462 -0.9552 -0.1634  0.3364
 6420TIP3    H219267   3.502   0.841   0.591 -3.4721  0.3678  0.8788
 6421TIP3   OH219268   0.708   0.051   2.307  0.1592 -0.1710  0.2526
 6421TIP3    H119269   0.713   0.145   2.326  1.2849 -0.2292  0.3495
 6421TIP3    H219270   0.692   0.046   2.213 -0.5838  0.1201  0.3638
 6422TIP3   OH219271   5.041   1.025   1.980  0.1226 -0.0629 -0.4302
 6422TIP3    H119272   5.083   0.949   1.940  1.0217 -0.6714  1.5272
 6422TIP3    H219273   5.113   1.083   2.002 -0.4638  0.8481 -0.8863
 6423TIP3   OH219274   2.983   4.954   1.828  0.2417 -0.8638 -0.1003
 6423TIP3    H119275   2.918   4.985   1.890 -0.6768 -0.4224 -1.2443
 6423TIP3    H219276   2.977   4.858   1.832  0.0088 -0.8310  0.2874
 6424TIP3   OH219277   6.162   3.478   2.918  0.0259 -0.0140  0.1265
 6424TIP3    H119278   6.225   3.439   2.858 -0.0859 -0.7684  0.4864
 6424TIP3    H219279   6.084   3.422   2.910 -0.4026  0.5747  0.1044
 6425TIP3   OH219280   2.793   2.012   4.976 -0.1672 -0.2772 -0.0579
 6425TIP3    H119281   2.886   2.019   4.953 -0.1171  0.1794  0.2664
 6425TIP3    H219282   2.747   2.011   4.893  0.1452 -0.7720 -0.2292
 6426TIP3   OH219283   0.573   3.099   2.981  0.3905  0.0714 -0.0420
 6426TIP3    H119284   0.549   3.176   2.930 -1.2407 -1.0856 -1.1343
 6426TIP3    H219285   0.550   3.121   3.071 -1.4694  0.3581 -0.5492
 6427TIP3   OH219286   3.622   4.193   2.147 -0.0663 -0.2635 -0.0654
 6427TIP3    H119287   3.547   4.181   2.090 -0.2718 -0.3735  0.2279
 6427TIP3    H219288   3.588   4.242   2.223  0.8074  2.6728 -1.4014
 6428TIP3   OH219289   5.272   0.205   2.449  0.3248 -0.0784 -0.3341
 6428TIP3    H119290   5.185   0.201   2.488  0.3543  1.1172 -0.1047
 6428TIP3    H219291   5.259   0.178   2.358 -0.1820 -0.4302 -0.1623
 6429TIP3   OH219292   5.066   1.458   2.798 -0.2777 -0.5508 -0.0776
 6429TIP3    H119293   5.032   1.544   2.825  1.4603  0.2557 -0.3493
 6429TIP3    H219294   5.054   1.403   2.876 -0.1287  0.3207  0.5774
 6430TIP3   OH219295   4.709   4.569   4.822 -0.5312  0.2947  0.1374
 6430TIP3    H119296   4.756   4.489   4.797 -0.6357  0.4624 -0.6180
 6430TIP3    H219297   4.721   4.575   4.917 -0.4044 -0.5402  0.1818
 6431TIP3   OH219298   3.971   2.427   2.194 -0.3442  0.0056  0.0184
 6431TIP3    H119299   3.983   2.396   2.284 -3.1070 -1.8055 -0.1313
 6431TIP3    H219300   4.016   2.362   2.140 -0.5157 -0.1044  0.0066
 6432TIP3   OH219301   2.085   3.957   3.764 -0.1895  0.2996  0.1757
 6432TIP3    H119302   2.024   3.959   3.691  1.3650  1.4496 -1.1664
 6432TIP3    H219303   2.093   4.049   3.791  0.4398  0.0838  0.7464
 6433TIP3   OH219304   1.868   4.520   0.556  0.2005 -0.5814  0.1428
 6433TIP3    H119305   1.896   4.590   0.497  0.7063 -1.3923 -0.6038
 6433TIP3    H219306   1.885   4.555   0.644  0.8186  0.0785 -0.2242
 6434TIP3   OH219307   0.977   1.017   4.318  0.7983 -0.2278 -0.1687
 6434TIP3    H119308   1.052   1.067   4.289  1.5439 -0.2406  1.5706
 6434TIP3    H219309   1.014   0.949   4.375 -0.5887  1.0111  2.4329
 6435TIP3   OH219310   4.766   5.582   5.134 -0.2006 -0.5996  0.3449
 6435TIP3    H119311   4.801   5.616   5.052 -2.0201  0.4344 -0.0594
 6435TIP3    H219312   4.834   5.599   5.198  0.0068  1.4309 -0.3616
 6436TIP3   OH219313   3.810   1.790   2.569 -0.0058 -0.1971  0.3769
 6436TIP3    H119314   3.833   1.700   2.547  0.1126  0.0364 -0.4771
 6436TIP3    H219315   3.796   1.833   2.485 -0.9904  0.3454  0.8052
 6437TIP3   OH219316   3.026   0.873   0.650  0.5566  0.2585  0.3137
 6437TIP3    H119317   2.942   0.835   0.674  0.5935  1.0914  1.9593
 6437TIP3    H219318   3.091   0.810   0.682  0.5715  0.5511  0.8842
 6438TIP3   OH219319   4.955   3.928   1.973  0.4813 -0.5194 -0.3944
 6438TIP3    H119320   5.027   3.921   1.910  0.9528 -0.9865  0.1950
 6438TIP3    H219321   4.995   3.913   2.058 -0.5223 -2.1305 -0.1566
 6439TIP3   OH219322   0.339   1.025   1.895 -0.0194 -0.3490 -0.1518
 6439TIP3    H119323   0.288   1.103   1.917 -1.0014 -0.6646 -1.2397
 6439TIP3    H219324   0.275   0.954   1.895  1.0718 -1.4371  2.1157
 6440TIP3   OH219325   4.841   5.606   1.545 -0.2762 -0.5703 -0.3634
 6440TIP3    H119326   4.863   5.520   1.579  0.0483 -0.3165  0.0801
 6440TIP3    H219327   4.748   5.618   1.565  0.1187 -0.0418  1.3074
 6441TIP3   OH219328   6.187   4.923   1.755 -0.2959  0.4079  0.2331
 6441TIP3    H119329   6.106   4.907   1.707 -0.4811  1.1943  0.2669
 6441TIP3    H219330   6.256   4.888   1.699 -0.6542 -0.3170  0.2300
 6442TIP3   OH219331   1.660   3.750   1.294  0.0939  0.2722  0.0388
 6442TIP3    H119332   1.729   3.683   1.286  0.5999  0.8030 -0.0778
 6442TIP3    H219333   1.579   3.699   1.302  0.4814 -0.3602  0.0582
 6443TIP3   OH219334   0.567   5.089   2.458 -0.0554  0.1173  0.1656
 6443TIP3    H119335   0.607   5.152   2.399 -2.4776  0.4619 -1.2252
 6443TIP3    H219336   0.484   5.128   2.484  0.0254 -0.9248  2.2475
 6444TIP3   OH219337   0.216   4.543   0.039 -0.1325  0.3966 -0.6455
 6444TIP3    H119338   0.163   4.480  -0.010 -0.2985  0.2710 -0.3074
 6444TIP3    H219339   0.270   4.489   0.096  0.7956  0.4896 -1.3989
 6445TIP3   OH219340   3.866   1.330   4.547  0.1804 -0.0969  0.5348
 6445TIP3    H119341   3.928   1.304   4.479 -1.3877 -2.0426 -0.2391
 6445TIP3    H219342   3.826   1.248   4.576  0.0907  0.7720  3.1798
 6446TIP3   OH219343   3.379   3.296   5.175 -0.1808  0.0329  0.5499
 6446TIP3    H119344   3.298   3.306   5.125 -0.0300 -1.6871 -0.1244
 6446TIP3    H219345   3.448   3.313   5.112 -0.0015  0.0091  0.7389
 6447TIP3   OH219346   5.583   2.677   1.938  0.3552 -0.1562 -0.5800
 6447TIP3    H119347   5.490   2.690   1.957 -0.3437 -2.6614 -1.8197
 6447TIP3    H219348   5.619   2.637   2.018  0.8769  2.4444  0.5822
 6448TIP3   OH219349   1.649   3.861   4.856 -0.1368  0.1942 -0.0866
 6448TIP3    H119350   1.706   3.901   4.791  0.7885 -1.5891 -0.4367
 6448TIP3    H219351   1.572   3.833   4.807  0.6716 -1.3774 -0.4990
 6449TIP3   OH219352   4.243   3.834   0.506  0.1615 -0.3732  0.5512
 6449TIP3    H119353   4.185   3.854   0.433  1.7107  1.5044 -0.2295
 6449TIP3    H219354   4.316   3.894   0.497 -0.1388  0.8457  4.3534
 6450TIP3   OH219355   5.426   4.772   3.586  0.4610  0.5350  0.0218
 6450TIP3    H119356   5.385   4.738   3.666  0.4718  0.1328 -0.1402
 6450TIP3    H219357   5.422   4.867   3.596 -0.6267  0.5161 -0.0441
 6451TIP3   OH219358   6.112   3.179   2.633 -0.0052 -0.0946 -0.2565
 6451TIP3    H119359   6.134   3.086   2.635  0.4211 -0.0093 -0.7072
 6451TIP3    H219360   6.197   3.224   2.636 -0.1425  0.2541 -1.1695
 6452TIP3   OH219361   4.264   4.545   1.873  0.6082 -0.1206  0.1570
 6452TIP3    H119362   4.312   4.513   1.796  1.3320  0.3001  0.4261
 6452TIP3    H219363   4.286   4.638   1.878  2.0754 -0.5084  1.9295
 6453TIP3   OH219364   5.386   1.846   2.080  0.4507  0.0947 -0.2540
 6453TIP3    H119365   5.434   1.899   2.143  0.0209 -0.8763  0.9240
 6453TIP3    H219366   5.418   1.875   1.995  3.4852 -0.8457  0.4673
 6454TIP3   OH219367   0.682   2.226   4.125  0.3111  0.4907 -0.0854
 6454TIP3    H119368   0.770   2.255   4.103  0.6968 -0.9290 -0.4775
 6454TIP3    H219369   0.646   2.192   4.043  0.3343 -1.2387  0.5871
 6455TIP3   OH219370   1.257   2.987   2.893  0.1510  0.1771 -0.3873
 6455TIP3    H119371   1.196   3.051   2.931 -0.6438 -0.8121  0.0355
 6455TIP3    H219372   1.337   2.998   2.943  0.6219  2.0060 -1.4228
 6456TIP3   OH219373   3.146   2.440   4.451  0.6503  0.1274 -0.2353
 6456TIP3    H119374   3.151   2.526   4.409  0.1723  0.2517 -0.0416
 6456TIP3    H219375   3.065   2.402   4.417  1.0089 -0.3739 -0.5523
 6457TIP3   OH219376   0.251   0.348   4.961  0.2242 -0.0155  0.0054
 6457TIP3    H119377   0.169   0.380   5.000 -1.2140 -2.2973 -0.9034
 6457TIP3    H219378   0.288   0.289   5.026  0.0735 -0.5128 -0.3488
 6458TIP3   OH219379   4.770   3.530   2.049  0.2573  0.1245  0.3866
 6458TIP3    H119380   4.843   3.522   1.987  0.6198  1.3215  0.6341
 6458TIP3    H219381   4.789   3.609   2.099 -0.7824 -0.0160  1.0400
 6459TIP3   OH219382   2.397   1.796   0.071  0.2476 -0.0095 -0.1259
 6459TIP3    H119383   2.474   1.770   0.121  0.7659 -1.0562 -1.4041
 6459TIP3    H219384   2.392   1.733  -0.001 -2.4956 -0.6976  0.5524
 6460TIP3   OH219385   0.002   5.324   1.170  0.2355  0.2212  0.2277
 6460TIP3    H119386   0.045   5.374   1.102 -1.1030 -1.3544 -1.9007
 6460TIP3    H219387   0.073   5.280   1.216  1.1421  1.0220 -0.3706
 6461TIP3   OH219388   3.277   4.588   0.356  0.3154 -0.3026  1.4478
 6461TIP3    H119389   3.309   4.514   0.408  1.1519 -1.1686 -0.1859
 6461TIP3    H219390   3.321   4.578   0.271 -0.5740  1.3310  0.7417
 6462TIP3   OH219391   3.768   2.284   1.745 -0.6247  0.4300 -0.1349
 6462TIP3    H119392   3.724   2.348   1.689 -0.0378  0.6250 -0.3749
 6462TIP3    H219393   3.703   2.215   1.756 -0.9724  0.6800 -0.5449
 6463TIP3   OH219394   1.479   5.156   3.625 -0.7490 -0.0382  0.5270
 6463TIP3    H119395   1.513   5.073   3.593 -1.0983  0.3924 -1.0533
 6463TIP3    H219396   1.453   5.203   3.546  0.1291  1.8819  1.3032
 6464TIP3   OH219397   0.968   5.312   4.942  0.5359 -0.5584  0.2576
 6464TIP3    H119398   1.058   5.334   4.921  0.6625 -0.9143  0.4275
 6464TIP3    H219399   0.932   5.276   4.861  0.2508  0.4799 -0.1024
 6465TIP3   OH219400   0.477   4.697   0.381  0.1067 -0.0854 -0.3036
 6465TIP3    H119401   0.395   4.648   0.373 -0.2958  0.8215 -2.5967
 6465TIP3    H219402   0.449   4.787   0.398  0.6993 -0.0349  0.4323
 6466TIP3   OH219403   0.891   3.790   0.270 -0.4495 -0.0749  0.1737
 6466TIP3    H119404   0.875   3.796   0.176 -0.1681  1.0796  0.1901
 6466TIP3    H219405   0.941   3.709   0.280 -0.2769 -0.0895 -0.7057
 6467TIP3   OH219406   0.230   4.570   0.339 -0.1179 -0.2855 -0.1180
 6467TIP3    H119407   0.191   4.657   0.330 -0.1836  0.0546  2.7023
 6467TIP3    H219408   0.154   4.512   0.348 -0.1643 -1.0195 -3.6574
 6468TIP3   OH219409   4.776   5.921   4.803  0.3082  0.0420  0.0629
 6468TIP3    H119410   4.689   5.885   4.787 -0.9165  2.4474  0.8768
 6468TIP3    H219411   4.793   5.904   4.896  0.6627 -0.2698 -0.0537
 6469TIP3   OH219412   1.943   6.005   2.393 -0.3256  0.4180  0.3402
 6469TIP3    H119413   1.929   6.024   2.485 -0.4518  0.2038  0.3642
 6469TIP3    H219414   1.940   5.910   2.387 -0.0864  0.4218  0.1532
 6470TIP3   OH219415   1.477   1.553   2.159 -0.4190 -0.4374  0.5095
 6470TIP3    H119416   1.547   1.618   2.158 -0.2220 -0.6067  1.8501
 6470TIP3    H219417   1.416   1.584   2.226 -1.6280 -0.3162 -0.5998
 6471TIP3   OH219418   1.690   0.402   3.240  0.3938 -0.3912  0.4618
 6471TIP3    H119419   1.709   0.322   3.191 -0.6193 -1.2378  1.4094
 6471TIP3    H219420   1.726   0.386   3.327  0.4693  0.3200  0.5641
 6472TIP3   OH219421   0.479   4.530   3.969 -0.2873 -0.1599 -0.4197
 6472TIP3    H119422   0.475   4.436   3.953  0.8630 -0.3674  0.4035
 6472TIP3    H219423   0.572   4.549   3.982 -0.7158  0.6784  1.8100
 6473TIP3   OH219424   4.516   2.568   3.797  0.0304  0.6204 -0.0844
 6473TIP3    H119425   4.560   2.497   3.750  0.4722 -0.0975  1.3658
 6473TIP3    H219426   4.425   2.566   3.765 -0.6607 -2.2904  1.6961
 6474TIP3   OH219427   0.470   4.151   1.716  0.4167 -0.1772 -0.1115
 6474TIP3    H119428   0.432   4.180   1.799  1.4295 -0.9076  0.6394
 6474TIP3    H219429   0.494   4.059   1.731 -0.9143 -0.8507 -1.7677
 6475TIP3   OH219430   6.166   2.868   1.003  0.5464 -0.3916 -0.4233
 6475TIP3    H119431   6.216   2.790   1.029 -1.6213 -1.3913  1.1346
 6475TIP3    H219432   6.217   2.942   1.036  1.5072 -1.2868  0.1726
 6476TIP3   OH219433   4.059   0.221   0.657  0.3538  0.0479 -0.4175
 6476TIP3    H119434   4.056   0.201   0.751 -1.7665 -1.3533 -0.7177
 6476TIP3    H219435   4.017   0.307   0.650  1.4511  0.6383 -0.0118
 6477TIP3   OH219436   4.100   2.490   4.952 -0.0400  0.4238  0.6288
 6477TIP3    H119437   4.145   2.534   4.880 -1.5395  0.6898 -0.1890
 6477TIP3    H219438   4.115   2.397   4.937 -0.9088  0.4289 -0.4766
 6478TIP3   OH219439   3.003   3.410   1.384 -0.2322 -0.0927 -0.9748
 6478TIP3    H119440   3.014   3.328   1.431 -0.2398 -1.2962 -2.9469
 6478TIP3    H219441   2.913   3.407   1.352 -0.6504  1.3035 -0.0124
 6479TIP3   OH219442   4.321   2.428   0.816  0.6942 -0.2914 -0.2973
 6479TIP3    H119443   4.416   2.439   0.814  0.8242 -0.9318  1.5311
 6479TIP3    H219444   4.307   2.339   0.846 -0.4771  0.3496  1.1859
 6480TIP3   OH219445   2.058   5.861   3.840  0.4017  0.3597 -0.0152
 6480TIP3    H119446   2.082   5.770   3.825 -1.3832 -0.1066 -0.3187
 6480TIP3    H219447   2.060   5.872   3.935  1.3528  0.2378 -0.0125
 6481TIP3   OH219448   0.174   2.698   3.851 -0.3372 -0.2497 -0.6891
 6481TIP3    H119449   0.167   2.784   3.811 -0.7675 -0.0825 -0.2706
 6481TIP3    H219450   0.084   2.676   3.877 -0.2786 -0.9536 -1.0557
 6482TIP3   OH219451   1.719   0.779   4.322 -0.3184  0.3950 -0.3748
 6482TIP3    H119452   1.782   0.806   4.255 -0.3722 -1.7227 -1.3512
 6482TIP3    H219453   1.633   0.796   4.284 -0.3641 -1.5526 -1.2497
 6483TIP3   OH219454   2.590   3.218   1.042 -0.2909 -0.2511 -0.3227
 6483TIP3    H119455   2.540   3.195   0.963  0.8888  1.3677 -1.5951
 6483TIP3    H219456   2.601   3.134   1.088 -0.1210 -1.4396 -2.4053
 6484TIP3   OH219457   3.265   2.795   3.052  0.1272 -0.5473 -0.2119
 6484TIP3    H119458   3.198   2.756   2.995 -0.9742  0.5237  0.3075
 6484TIP3    H219459   3.282   2.880   3.013  1.5790 -0.9871 -0.6069
 6485TIP3   OH219460   3.953   4.132   0.385 -0.0194  0.0937 -0.1722
 6485TIP3    H119461   3.929   4.134   0.477 -0.7236  2.2889 -0.3298
 6485TIP3    H219462   3.885   4.184   0.341  1.1238  0.3945 -1.6886
 6486TIP3   OH219463   5.797   3.303   1.706  0.3312 -0.0135  0.0991
 6486TIP3    H119464   5.803   3.208   1.720  0.8344  0.0908  0.6326
 6486TIP3    H219465   5.714   3.328   1.746  0.4883 -0.1379  0.5058
 6487TIP3   OH219466   0.154   1.249   3.314  0.1482  0.5347 -0.3355
 6487TIP3    H119467   0.150   1.263   3.408 -1.9262 -0.2673 -0.2663
 6487TIP3    H219468   0.170   1.337   3.278 -0.9961  1.1864  0.6648
 6488TIP3   OH219469   5.494   1.684   1.394  0.3201 -0.2442  0.4451
 6488TIP3    H119470   5.478   1.764   1.443  0.0855 -0.3630  0.5633
 6488TIP3    H219471   5.407   1.655   1.366  0.0971 -1.8363  2.5611
 6489TIP3   OH219472   3.503   2.138   3.461 -0.2463 -0.4673  0.3349
 6489TIP3    H119473   3.568   2.179   3.405  0.6156 -1.6214  0.4535
 6489TIP3    H219474   3.535   2.151   3.550  0.2378 -1.6640  0.3590
 6490TIP3   OH219475   2.944   0.330   1.527  0.0847  0.0281  0.0684
 6490TIP3    H119476   3.004   0.375   1.586  0.8114 -0.8180 -0.0031
 6490TIP3    H219477   2.859   0.372   1.542  0.5727  0.8525  0.5902
 6491TIP3   OH219478   5.791   3.041   2.068  0.3513  0.3647 -0.3389
 6491TIP3    H119479   5.804   3.068   2.159  1.6401 -0.6468 -0.1889
 6491TIP3    H219480   5.880   3.033   2.032  0.0933 -2.7096 -0.6135
 6492TIP3   OH219481   4.052   2.504   0.828  0.1793 -0.0866  0.0141
 6492TIP3    H119482   4.048   2.571   0.896 -0.3899 -0.2798  0.1810
 6492TIP3    H219483   4.145   2.498   0.805  0.1163  1.5358 -0.8052
 6493TIP3   OH219484   3.600   2.899   3.157  0.6698  0.6116  0.4073
 6493TIP3    H119485   3.680   2.907   3.208  0.7910  0.4009  0.2515
 6493TIP3    H219486   3.623   2.929   3.069  1.2135 -1.5890 -0.2741
 6494TIP3   OH219487   2.422   2.320   3.381 -1.0417 -0.3246 -0.4976
 6494TIP3    H119488   2.381   2.314   3.295  0.1090  1.4654 -1.2213
 6494TIP3    H219489   2.366   2.380   3.431 -2.1180 -1.9256  0.3058
 6495TIP3   OH219490   3.808   1.828   2.288  0.2017 -0.2685 -0.7211
 6495TIP3    H119491   3.775   1.770   2.219 -0.1063 -0.2815 -0.5650
 6495TIP3    H219492   3.903   1.826   2.277  0.0931  1.8053 -2.8224
 6496TIP3   OH219493   1.373   4.220   2.377  0.6811  0.3063 -0.1418
 6496TIP3    H119494   1.457   4.263   2.390  0.0964  0.9498  1.8700
 6496TIP3    H219495   1.389   4.157   2.307  2.4754  1.3277 -0.7215
 6497TIP3   OH219496   3.039   1.808   3.237  0.4514 -0.2075  0.4352
 6497TIP3    H119497   3.001   1.793   3.324 -0.2772  2.0168  0.5801
 6497TIP3    H219498   3.046   1.904   3.231  0.1910 -0.2828 -2.0899
 6498TIP3   OH219499   3.819   1.748   0.972 -0.2671  0.4003  0.1690
 6498TIP3    H119500   3.762   1.820   0.943  0.1284  0.0679 -1.5622
 6498TIP3    H219501   3.842   1.702   0.891  3.6693  1.3887  0.5281
 6499TIP3   OH219502   2.695   1.925   0.247 -0.2892 -0.1958 -0.0501
 6499TIP3    H119503   2.666   1.915   0.338 -2.5937 -0.4985 -0.7763
 6499TIP3    H219504   2.751   1.848   0.232 -1.1112 -0.9658  0.6796
 6500TIP3   OH219505   6.181   3.568   2.393  0.0107  0.4839 -0.6625
 6500TIP3    H119506   6.205   3.625   2.465 -0.1692  0.7145 -0.7848
 6500TIP3    H219507   6.086   3.574   2.388 -0.3978 -2.3243  1.4133
 6501TIP3   OH219508   1.750   4.275   4.087  0.6901 -0.3079  0.0222
 6501TIP3    H119509   1.808   4.349   4.072  0.7426 -0.1796  0.8417
 6501TIP3    H219510   1.727   4.280   4.180  0.3376 -1.0601 -0.0148
 6502TIP3   OH219511   0.934   4.692  -0.014  0.9180 -0.5257 -0.3465
 6502TIP3    H119512   0.938   4.695   0.081  0.9784  0.5260 -0.3662
 6502TIP3    H219513   0.988   4.766  -0.043  0.2038 -0.3052 -1.1671
 6503TIP3   OH219514   5.472   5.093   1.252  0.4762 -0.8212 -0.1589
 6503TIP3    H119515   5.565   5.078   1.267  0.6020 -0.3095 -0.3974
 6503TIP3    H219516   5.469   5.169   1.195 -0.0894 -0.8706 -0.2035
 6504TIP3   OH219517   3.897   0.361   2.512  0.1315  0.4412 -0.0977
 6504TIP3    H119518   3.862   0.372   2.423 -1.4417 -0.2505  0.4010
 6504TIP3    H219519   3.958   0.288   2.505  0.5907  0.8841 -0.7622
 6505TIP3   OH219520   1.647   1.747   0.699 -0.4900  0.0007  0.1526
 6505TIP3    H119521   1.614   1.660   0.681 -2.7050  1.1921 -2.1556
 6505TIP3    H219522   1.582   1.786   0.758 -1.1655  1.0204 -1.2034
 6506TIP3   OH219523   5.031   4.057   0.589 -0.5044 -0.0597  0.5297
 6506TIP3    H119524   5.102   4.116   0.564  1.2356 -2.1682  0.1904
 6506TIP3    H219525   5.075   3.978   0.619 -2.7270 -0.8928  1.8185
 6507TIP3   OH219526   2.636   0.728   1.843 -0.1650  0.2940  0.0783
 6507TIP3    H119527   2.678   0.768   1.919  0.7982  0.5656 -0.5723
 6507TIP3    H219528   2.550   0.769   1.838  1.7622  4.7584 -2.2917
 6508TIP3   OH219529   1.034   5.838   3.101  0.3052  0.5851 -0.7044
 6508TIP3    H119530   1.111   5.874   3.145 -0.0001 -0.0629  0.4072
 6508TIP3    H219531   1.036   5.876   3.013  0.7469  2.1941 -0.0318
 6509TIP3   OH219532   2.761   4.753   1.149  0.0915 -0.0829 -0.4784
 6509TIP3    H119533   2.716   4.674   1.119 -1.1199  0.7629 -1.0295
 6509TIP3    H219534   2.802   4.728   1.232 -0.0109 -1.3622 -0.7957
 6510TIP3   OH219535   2.096   5.713   3.516  0.6367  0.4083  0.2296
 6510TIP3    H119536   2.082   5.647   3.447  2.2330  0.5835 -0.3045
 6510TIP3    H219537   2.141   5.665   3.586  3.1293  1.1673 -0.7543
 6511TIP3   OH219538   0.134   4.373   2.534 -0.4749 -0.0638 -0.0475
 6511TIP3    H119539   0.039   4.361   2.532 -0.3703 -1.9134  2.3146
 6511TIP3    H219540   0.152   4.407   2.621  1.0661  0.3896 -0.5074
 6512TIP3   OH219541   4.807   5.601   4.662 -0.2560 -0.4056  0.4705
 6512TIP3    H119542   4.822   5.689   4.628  0.2647  0.2261  2.1857
 6512TIP3    H219543   4.723   5.574   4.625  0.8873 -0.3934 -2.3701
 6513TIP3   OH219544   2.376   1.186   3.798  0.9400  0.2826 -0.1271
 6513TIP3    H119545   2.352   1.233   3.719 -0.9711  1.6070  1.1649
 6513TIP3    H219546   2.457   1.140   3.775  1.6656  2.4094 -2.1250
 6514TIP3   OH219547   2.637   1.062   3.262  0.2034 -0.1731 -0.4964
 6514TIP3    H119548   2.547   1.087   3.245  0.1254 -1.7084 -2.7201
 6514TIP3    H219549   2.668   1.025   3.180  2.6567 -0.3172  0.4089
 6515TIP3   OH219550   2.234   1.277   0.514 -0.6259  0.4500 -0.2622
 6515TIP3    H119551   2.279   1.207   0.467 -1.9868 -0.2621 -0.5382
 6515TIP3    H219552   2.239   1.252   0.606 -2.3484 -0.8031 -0.4625
 6516TIP3   OH219553   1.675   1.043   3.791 -0.3405  0.2671 -0.7037
 6516TIP3    H119554   1.612   1.101   3.835 -0.4511 -0.8792  0.7299
 6516TIP3    H219555   1.641   0.955   3.806  0.3661 -0.2414 -1.9575
 6517TIP3   OH219556   4.654   2.726   1.618  0.0510  0.4788 -0.4991
 6517TIP3    H119557   4.623   2.705   1.706 -0.8147  0.5796 -0.7660
 6517TIP3    H219558   4.680   2.641   1.581 -1.9652  0.0426 -1.0237
 6518TIP3   OH219559   2.808   5.789   2.905 -0.2673  0.5410 -0.0312
 6518TIP3    H119560   2.897   5.807   2.934  0.1493 -0.1311 -0.8261
 6518TIP3    H219561   2.781   5.867   2.856 -0.0925  0.7196  0.1600
 6519TIP3   OH219562   5.251   1.550   4.654  0.2871  0.1599  0.1981
 6519TIP3    H119563   5.245   1.615   4.583  0.2354  0.5434  0.5507
 6519TIP3    H219564   5.193   1.479   4.625 -0.9751  0.9995  0.5595
 6520TIP3   OH219565   6.081   5.328   0.288 -0.8755 -0.3377 -0.1042
 6520TIP3    H119566   6.101   5.420   0.308 -0.9301 -0.1073 -1.0492
 6520TIP3    H219567   6.114   5.279   0.363  3.0190  0.0211 -1.3734
 6521TIP3   OH219568   5.558   3.472   4.653  0.2114 -0.0658 -0.5595
 6521TIP3    H119569   5.634   3.530   4.661  1.8364 -1.8626 -2.0224
 6521TIP3    H219570   5.552   3.455   4.559 -1.4227 -0.7561 -0.3551
 6522TIP3   OH219571   0.437   0.527   0.600 -0.0416  0.0731  0.6016
 6522TIP3    H119572   0.522   0.553   0.635  0.6532  1.3519 -1.8190
 6522TIP3    H219573   0.391   0.609   0.584  0.2371 -0.2654 -2.5743
 6523TIP3   OH219574   2.871   4.105   1.769  0.3757 -0.3120 -0.2164
 6523TIP3    H119575   2.804   4.050   1.810  2.9220 -1.4861  2.6982
 6523TIP3    H219576   2.878   4.181   1.827 -0.1481  1.1172 -1.9273
 6524TIP3   OH219577   0.272   4.749   2.512 -0.0411 -0.4455  0.2492
 6524TIP3    H119578   0.363   4.778   2.518 -0.3902  0.7334  0.0159
 6524TIP3    H219579   0.241   4.746   2.602 -0.0390  0.0242  0.2653
 6525TIP3   OH219580   2.024   1.132   2.473  0.5327  0.4103 -1.3148
 6525TIP3    H119581   2.069   1.140   2.389  1.3094  2.2379 -0.7685
 6525TIP3    H219582   2.057   1.205   2.525 -1.1668  0.2784  0.0250
 6526TIP3   OH219583   0.503   1.353   3.376  0.1279  0.4639 -0.1952
 6526TIP3    H119584   0.593   1.331   3.352 -0.3520  0.4546 -2.1704
 6526TIP3    H219585   0.461   1.269   3.395  0.7782  0.5467  1.8471
 6527TIP3   OH219586   3.309   5.667   1.054  0.2424 -0.2823 -0.1928
 6527TIP3    H119587   3.381   5.670   1.117  1.1266  0.8441 -1.2040
 6527TIP3    H219588   3.348   5.697   0.972 -1.1247 -0.7435 -1.0408
 6528TIP3   OH219589   3.697   4.458   0.838 -0.5625  0.4360 -0.3134
 6528TIP3    H119590   3.683   4.365   0.855  1.1183 -0.1462 -1.8300
 6528TIP3    H219591   3.625   4.482   0.779  0.5523 -0.6864 -2.2451
 6529TIP3   OH219592   2.432   4.025   5.105 -0.2640 -0.1834 -0.1285
 6529TIP3    H119593   2.522   4.055   5.114  0.1905 -1.7211  0.8142
 6529TIP3    H219594   2.383   4.103   5.080  1.5283  0.4254 -2.0010
 6530TIP3   OH219595   4.493   2.389   1.586  0.3689  0.1922  0.3935
 6530TIP3    H119596   4.539   2.464   1.550 -1.3709 -0.1578 -3.0403
 6530TIP3    H219597   4.525   2.314   1.535 -1.0451 -0.6602  0.6811
 6531TIP3   OH219598   2.971   4.640   1.903 -0.0361 -0.0182 -0.1355
 6531TIP3    H119599   2.959   4.677   1.990  0.8670 -0.7758  0.3237
 6531TIP3    H219600   3.065   4.647   1.887 -0.2179  0.3018 -1.1362
 6532TIP3   OH219601   0.537   3.839   1.327  0.1086  0.4675  0.3362
 6532TIP3    H119602   0.527   3.847   1.422  1.7050 -1.3889  0.7276
 6532TIP3    H219603   0.498   3.755   1.305  0.4931  0.4977 -0.5145
 6533TIP3   OH219604   2.399   2.401   4.136 -0.3676 -0.7070  0.0527
 6533TIP3    H119605   2.336   2.472   4.151 -0.1623 -0.8742  1.8807
 6533TIP3    H219606   2.482   2.435   4.170 -0.6912 -2.5256  3.0288
 6534TIP3   OH219607   6.123   5.053   0.855  0.1629 -0.8660 -0.2565
 6534TIP3    H119608   6.206   5.087   0.890 -0.2814  0.4882 -0.4422
 6534TIP3    H219609   6.104   5.109   0.780 -2.1065  0.4670  1.1848
 6535TIP3   OH219610   1.764   0.174   3.897 -0.0518  0.2169  0.0504
 6535TIP3    H119611   1.855   0.197   3.914 -0.0021  0.6678 -0.7807
 6535TIP3    H219612   1.714   0.228   3.958  0.2071  0.4399  0.0697
 6536TIP3   OH219613   2.118   4.673   0.733 -0.0747 -0.1803  0.7261
 6536TIP3    H119614   2.150   4.583   0.722  0.7076  0.2671 -1.0368
 6536TIP3    H219615   2.189   4.717   0.780 -0.0624 -0.2650  0.7884
 6537TIP3   OH219616   3.647   2.974   4.930 -0.5149  0.7315 -0.0790
 6537TIP3    H119617   3.594   2.894   4.933 -0.5206  0.7446  0.2722
 6537TIP3    H219618   3.694   2.969   4.847  1.9820 -1.2688  1.3249
 6538TIP3   OH219619   1.984   0.331   4.497 -0.0078  0.1503 -0.4044
 6538TIP3    H119620   2.043   0.402   4.473  0.6779 -0.8298 -1.7636
 6538TIP3    H219621   1.933   0.314   4.418 -0.3394 -0.6971 -0.0277
 6539TIP3   OH219622   1.492   5.263   5.079  0.3493  0.1116 -0.7348
 6539TIP3    H119623   1.480   5.251   4.985  3.2425 -1.0019 -1.0715
 6539TIP3    H219624   1.585   5.245   5.094 -0.5192 -2.7515  2.7559
 6540TIP3   OH219625   3.517   2.063   3.898 -0.3063  1.1870  0.0436
 6540TIP3    H119626   3.560   2.145   3.924 -1.4461  2.1767 -1.0506
 6540TIP3    H219627   3.548   2.048   3.808  0.7273 -0.1911  0.6019
 6541TIP3   OH219628   3.395   4.798   4.067 -0.3298 -0.2014 -0.0989
 6541TIP3    H119629   3.335   4.761   4.132  0.2984 -0.5050  0.3089
 6541TIP3    H219630   3.461   4.731   4.054  1.1559  0.9764  1.0720
 6542TIP3   OH219631   0.740   2.240   3.260  0.0292  0.1550 -0.6500
 6542TIP3    H119632   0.709   2.160   3.302 -0.2555  0.4872 -0.2194
 6542TIP3    H219633   0.751   2.303   3.331  2.6099 -0.1978 -0.6443
 6543TIP3   OH219634   0.321   5.066   5.040  0.2740 -0.2330  0.1484
 6543TIP3    H119635   0.358   5.129   4.978  0.7793 -1.4307 -0.8400
 6543TIP3    H219636   0.368   5.081   5.122  1.5688 -0.3915 -0.5315
 6544TIP3   OH219637   3.681   0.019   3.601 -0.1882 -0.0321  0.8181
 6544TIP3    H119638   3.679  -0.055   3.662  0.5051 -0.7287  0.0347
 6544TIP3    H219639   3.749   0.076   3.635  0.2720 -0.4701  0.6501
 6545TIP3   OH219640   5.379   2.762   0.426 -0.0182 -0.2259 -0.9053
 6545TIP3    H119641   5.381   2.819   0.349  0.6385 -0.7600 -1.2957
 6545TIP3    H219642   5.311   2.799   0.482 -0.3662  0.2824 -1.6556
 6546TIP3   OH219643   0.677   2.844   3.582 -0.2954 -0.0472 -0.2289
 6546TIP3    H119644   0.645   2.754   3.594  0.3773 -0.1474  0.9327
 6546TIP3    H219645   0.600   2.892   3.553 -1.2252 -0.5661  1.2372
 6547TIP3   OH219646   4.198   3.351   4.218 -0.2885 -0.3412  0.0093
 6547TIP3    H119647   4.194   3.346   4.122  0.4433 -1.3319  0.0105
 6547TIP3    H219648   4.186   3.444   4.237  1.6825  0.2342 -1.1903
 6548TIP3   OH219649   2.640   5.596   4.189 -0.1450 -0.7570 -0.0362
 6548TIP3    H119650   2.612   5.631   4.274  2.2823 -1.8068  1.3252
 6548TIP3    H219651   2.639   5.501   4.201  2.9916 -0.8981 -0.0879
 6549TIP3   OH219652   2.915   2.504   3.443 -0.2010 -0.0949  0.5266
 6549TIP3    H119653   2.976   2.533   3.511  0.8614 -1.0391  0.0106
 6549TIP3    H219654   2.911   2.578   3.382 -0.1496  0.2525  0.9358
 6550TIP3   OH219655   0.570   1.696   0.849 -0.3656  0.5377 -0.5777
 6550TIP3    H119656   0.533   1.626   0.904  0.4521 -1.4283 -2.3794
 6550TIP3    H219657   0.594   1.765   0.911 -0.0549 -1.2903  1.4681
 6551TIP3   OH219658   5.185   2.699   5.166 -0.3265  0.1463 -0.4955
 6551TIP3    H119659   5.133   2.666   5.240 -2.8501  2.2972 -1.1739
 6551TIP3    H219660   5.133   2.677   5.089  0.8249  0.5711 -1.4189
 6552TIP3   OH219661   0.268   2.655   1.319  0.0016 -0.3150 -0.3061
 6552TIP3    H119662   0.267   2.572   1.271  0.7837 -1.0493  0.8888
 6552TIP3    H219663   0.329   2.710   1.269  0.6901 -1.0097 -0.2544
 6553TIP3   OH219664   6.015   0.524   2.671 -0.2091 -0.0617  0.3795
 6553TIP3    H119665   6.098   0.477   2.684  0.0471  0.2569 -0.0613
 6553TIP3    H219666   6.034   0.613   2.702 -0.3926  0.0093  0.2880
 6554TIP3   OH219667   4.650   1.897   4.087 -0.2897  0.2441 -0.2652
 6554TIP3    H119668   4.615   1.880   4.174 -1.3046 -0.9371 -0.8689
 6554TIP3    H219669   4.719   1.962   4.101  1.9557 -2.3741  1.9012
 6555TIP3   OH219670   2.758   5.898   3.745 -0.3429 -0.0724 -0.0017
 6555TIP3    H119671   2.796   5.815   3.773 -2.4507 -1.4844 -1.1159
 6555TIP3    H219672   2.759   5.895   3.650  0.1220  1.4963 -0.0823
 6556TIP3   OH219673   5.735   3.136   2.314  0.6601 -0.0769  0.6765
 6556TIP3    H119674   5.679   3.172   2.382  1.1507  2.0385  0.0113
 6556TIP3    H219675   5.823   3.140   2.352  0.6422 -1.6087  0.9757
 6557TIP3   OH219676   1.475   1.196   3.968  0.1249  0.5730 -0.2055
 6557TIP3    H119677   1.424   1.204   4.049 -0.4616 -2.5045 -0.1358
 6557TIP3    H219678   1.564   1.219   3.994 -0.0153 -0.5233  1.4209
 6558TIP3   OH219679   1.654   2.622   3.478 -0.5518  0.1336  0.6311
 6558TIP3    H119680   1.706   2.610   3.398  0.6078 -0.3640  1.4430
 6558TIP3    H219681   1.660   2.716   3.497  0.6054 -0.0116  1.0654
 6559TIP3   OH219682   2.911   0.180   3.132 -0.0095  0.1721 -0.2757
 6559TIP3    H119683   3.000   0.178   3.097  0.7427  1.1954  1.4613
 6559TIP3    H219684   2.869   0.103   3.094  1.6429 -0.4002 -1.0456
 6560TIP3   OH219685   3.596   5.218   2.830  0.0370  0.2874 -0.0620
 6560TIP3    H119686   3.558   5.192   2.746 -0.3744  0.6116  0.0150
 6560TIP3    H219687   3.685   5.246   2.809  0.8307 -2.0167 -0.0169
 6561TIP3   OH219688   0.032   0.175   2.115  0.5133  0.0098  0.0082
 6561TIP3    H119689   0.075   0.197   2.033 -0.9153 -1.5808 -1.2374
 6561TIP3    H219690  -0.061   0.172   2.094  0.1828 -1.3772  1.4418
 6562TIP3   OH219691   0.253   5.761   1.183  0.0964 -0.1649 -0.6618
 6562TIP3    H119692   0.323   5.698   1.167  0.7783  0.5253 -0.5150
 6562TIP3    H219693   0.242   5.761   1.278 -0.1562 -0.3258 -0.6907
 6563TIP3   OH219694   0.644   0.505   3.553 -0.1745  0.1638 -0.0414
 6563TIP3    H119695   0.614   0.477   3.466  2.7340  1.1512 -1.4855
 6563TIP3    H219696   0.697   0.432   3.583 -0.7754  0.0351  0.7289
 6564TIP3   OH219697   1.983   4.267   0.897  0.4210  0.1037  0.4541
 6564TIP3    H119698   2.003   4.316   0.977 -0.9439  0.2875  0.7019
 6564TIP3    H219699   1.891   4.241   0.906  0.9067 -1.9807  0.0458
 6565TIP3   OH219700   1.694   3.996   0.532  0.3133 -0.3657 -0.1975
 6565TIP3    H119701   1.608   3.953   0.540 -0.3876  0.6542 -1.9008
 6565TIP3    H219702   1.748   3.952   0.598 -1.8763 -0.1016  1.9077
 6566TIP3   OH219703   5.484   4.500   4.981  0.2020 -0.2241  0.3930
 6566TIP3    H119704   5.412   4.559   5.004 -0.7483 -1.6354  1.2089
 6566TIP3    H219705   5.535   4.548   4.917 -1.5146  0.8119 -0.2690
 6567TIP3   OH219706   2.726   3.824   1.070  0.5129  0.2997  0.1697
 6567TIP3    H119707   2.663   3.807   1.000  1.0725  1.3984 -0.6484
 6567TIP3    H219708   2.779   3.745   1.075 -0.9370 -0.6696  0.9162
 6568TIP3   OH219709   2.034   2.460   3.520 -0.3507 -0.1249  0.1818
 6568TIP3    H119710   2.021   2.542   3.472 -2.0460 -0.4980 -0.0731
 6568TIP3    H219711   2.096   2.482   3.589  0.3617  0.9963 -0.7853
 6569TIP3   OH219712   3.049   5.670   1.253  0.2293 -0.2638  0.1085
 6569TIP3    H119713   2.987   5.666   1.181 -1.9243 -0.6439  1.8699
 6569TIP3    H219714   3.132   5.642   1.215 -0.3948  1.1181 -2.5702
 6570TIP3   OH219715   3.834   0.750   1.461  0.0401 -0.1825 -0.5084
 6570TIP3    H119716   3.811   0.824   1.517 -0.4162  1.0780 -2.2750
 6570TIP3    H219717   3.914   0.714   1.500 -0.5042  0.3455  1.1749
 6571TIP3   OH219718   0.532   2.517   0.821 -0.2249 -0.5188 -0.3882
 6571TIP3    H119719   0.477   2.585   0.860 -0.5382 -1.0919  0.2062
 6571TIP3    H219720   0.489   2.494   0.739 -1.6444 -1.8798  0.6822
 6572TIP3   OH219721   0.682   5.586   2.263 -0.1467 -0.2056 -0.2815
 6572TIP3    H119722   0.666   5.634   2.344 -2.1064  1.2494 -1.4612
 6572TIP3    H219723   0.744   5.641   2.215 -0.6012  0.0102 -0.6341
 6573TIP3   OH219724   6.155   4.218   0.406 -0.1540 -0.0358 -0.4030
 6573TIP3    H119725   6.224   4.163   0.443  0.2816 -0.1348 -1.3241
 6573TIP3    H219726   6.194   4.305   0.402 -0.5783  0.1908  0.3609
 6574TIP3   OH219727   3.086   2.750   0.147 -0.2642  0.4431 -0.3595
 6574TIP3    H119728   3.122   2.818   0.090 -0.6403 -0.0018 -1.1424
 6574TIP3    H219729   3.149   2.742   0.218 -0.1958  1.5887 -0.2715
 6575TIP3   OH219730   2.663   1.475   0.993  0.5754  0.2106 -0.0186
 6575TIP3    H119731   2.658   1.449   1.085  1.4737 -0.6458 -0.1871
 6575TIP3    H219732   2.707   1.401   0.950  1.2244  1.0969 -0.9247
 6576TIP3   OH219733   2.277   2.545   5.058  0.9577  0.0567 -0.0382
 6576TIP3    H119734   2.275   2.641   5.067 -1.4589 -0.0862  1.8750
 6576TIP3    H219735   2.319   2.514   5.138  2.1877 -0.5433 -0.8707
 6577TIP3   OH219736   2.124   5.547   3.746  0.4129  0.2832 -0.7151
 6577TIP3    H119737   2.157   5.457   3.741  3.2957  1.1513  0.4526
 6577TIP3    H219738   2.080   5.552   3.830  1.1693  0.2128 -0.3084
 6578TIP3   OH219739   0.821   5.741   0.900  0.2279  0.1500  0.1077
 6578TIP3    H119740   0.744   5.743   0.842  0.7400  0.8912 -0.5750
 6578TIP3    H219741   0.885   5.797   0.856  0.9109  0.1037  1.0168
 6579TIP3   OH219742   2.966   0.123   2.649 -0.2682  0.0090  0.0715
 6579TIP3    H119743   2.953   0.030   2.666  0.7175 -0.1763 -0.1409
 6579TIP3    H219744   2.899   0.167   2.701 -0.0017 -0.7650  1.0902
 6580TIP3   OH219745   1.772   4.124   2.472 -0.1466 -0.2641  0.2529
 6580TIP3    H119746   1.709   4.140   2.542 -0.0680  1.3345 -0.0080
 6580TIP3    H219747   1.819   4.207   2.463  2.3148 -1.4852  0.7416
 6581TIP3   OH219748   5.445   5.060   0.212  0.3608  0.4976  0.0370
 6581TIP3    H119749   5.361   5.022   0.238  1.2367 -1.5282  0.0787
 6581TIP3    H219750   5.423   5.119   0.140 -1.0052 -0.6179 -0.5117
 6582TIP3   OH219751   6.110   0.461   3.558  0.3510 -0.0362  0.3684
 6582TIP3    H119752   6.167   0.441   3.632  0.6222  2.1375  0.8231
 6582TIP3    H219753   6.170   0.483   3.487  0.0898  0.5444  0.3229
 6583TIP3   OH219754   1.403   1.594   0.634  0.2002  0.0783 -0.5292
 6583TIP3    H119755   1.441   1.597   0.546  0.1362  0.2573 -0.5529
 6583TIP3    H219756   1.365   1.507   0.641  0.0505  0.1230 -0.7484
 6584TIP3   OH219757   2.681   4.408   4.702  0.1399  0.2423  0.1725
 6584TIP3    H119758   2.643   4.321   4.688 -0.2909  0.3821  0.4492
 6584TIP3    H219759   2.775   4.393   4.706  0.1512 -0.0506 -0.9611
 6585TIP3   OH219760   1.690   5.174   1.285  0.4339  0.3260 -0.3302
 6585TIP3    H119761   1.779   5.190   1.315  0.7498 -3.1291  0.9223
 6585TIP3    H219762   1.688   5.082   1.259 -2.4160  0.6469 -1.6907
 6586TIP3   OH219763   0.763   3.719   1.494  0.6944 -0.0118  0.3317
 6586TIP3    H119764   0.737   3.629   1.478  0.4044  0.0819  0.2680
 6586TIP3    H219765   0.725   3.768   1.420  1.1489  0.1089  0.1712
 6587TIP3   OH219766   4.913   1.027   2.772  0.3423  0.3894 -0.0559
 6587TIP3    H119767   4.881   0.938   2.783  0.4445  0.0665 -2.1227
 6587TIP3    H219768   4.887   1.072   2.853 -0.2250 -1.3408  0.7613
 6588TIP3   OH219769   4.769   1.132   4.521 -0.3667 -0.0371 -0.1745
 6588TIP3    H119770   4.772   1.205   4.458 -0.4160 -1.2290 -1.6247
 6588TIP3    H219771   4.676   1.113   4.529 -0.3708  0.2118  0.4064
 6589TIP3   OH219772   0.643   2.047   1.251  0.1941  0.2438  0.3006
 6589TIP3    H119773   0.608   2.049   1.340 -0.0356  0.6835  0.2082
 6589TIP3    H219774   0.724   2.098   1.256 -0.1568  0.8381  0.1309
 6590TIP3   OH219775   3.323   4.350   0.053  0.2675 -0.1841  0.3009
 6590TIP3    H119776   3.262   4.362  -0.021  0.2648 -2.1284 -0.0567
 6590TIP3    H219777   3.266   4.344   0.130 -0.0498 -1.8865 -0.0192
 6591TIP3   OH219778   4.329   2.018   4.263 -0.0926  0.0124 -0.0774
 6591TIP3    H119779   4.367   2.065   4.188  1.6157 -1.8043 -0.4461
 6591TIP3    H219780   4.236   2.040   4.260  0.2167  1.3848 -1.6731
 6592TIP3   OH219781   4.090   2.706   1.442 -0.3730  0.1598 -0.2957
 6592TIP3    H119782   4.109   2.780   1.499  1.2967 -1.2420  1.0819
 6592TIP3    H219783   4.011   2.667   1.478  0.9939 -1.0643  1.5465
 6593TIP3   OH219784   3.057   0.085   2.355 -0.1612 -0.7399  0.5100
 6593TIP3    H119785   3.062  -0.010   2.343 -1.0836 -1.0537  2.2340
 6593TIP3    H219786   3.033   0.096   2.447 -1.4289  1.1294  0.0185
 6594TIP3   OH219787   0.147   3.758   1.044  0.3539 -0.4166  0.3170
 6594TIP3    H119788   0.123   3.676   1.001  1.0466 -0.4396 -0.0381
 6594TIP3    H219789   0.241   3.765   1.031  0.4355  0.0031  1.1087
 6595TIP3   OH219790   5.801   2.852   0.078  0.0219 -0.4355  0.0159
 6595TIP3    H119791   5.757   2.795   0.141 -1.3388 -0.2274 -0.7073
 6595TIP3    H219792   5.795   2.805  -0.006 -0.5671  0.4807 -0.4662
 6596TIP3   OH219793   4.936   1.793   2.652  0.2493 -0.7097 -0.1699
 6596TIP3    H119794   4.957   1.757   2.738  1.0258  1.2948  0.5477
 6596TIP3    H219795   4.854   1.750   2.627 -0.0637 -1.2472  1.6323
 6597TIP3   OH219796   3.026   0.977   2.194 -0.4948  0.0277 -1.0809
 6597TIP3    H119797   3.116   0.989   2.165 -0.2466  1.8963  0.2890
 6597TIP3    H219798   2.974   1.024   2.129 -0.6381 -1.8544 -2.4162
 6598TIP3   OH219799   2.233   0.100   4.376  0.3063 -0.1505  0.2846
 6598TIP3    H119800   2.157   0.070   4.325  0.6180 -0.3662 -0.0532
 6598TIP3    H219801   2.249   0.030   4.439 -0.4957  0.4114  1.1390
 6599TIP3   OH219802   4.140   2.229   2.058 -0.3786 -0.7687 -0.8563
 6599TIP3    H119803   4.155   2.157   2.119 -0.6249  0.1008  0.2715
 6599TIP3    H219804   4.204   2.296   2.084 -2.7644  1.0515  0.8773
 6600TIP3   OH219805   5.521   2.160   0.401  0.1028  0.0216  0.0480
 6600TIP3    H119806   5.570   2.223   0.348 -1.1251 -0.0137 -1.1831
 6600TIP3    H219807   5.471   2.213   0.462 -1.5023  0.3450 -1.4762
 6601TIP3   OH219808   0.886   0.390   1.699  0.0467  0.4898  0.3539
 6601TIP3    H119809   0.864   0.484   1.701 -0.1612  0.5095 -1.3907
 6601TIP3    H219810   0.861   0.358   1.786  1.0295  2.2300  1.3448
 6602TIP3   OH219811   2.673   4.295   2.316  0.3386 -0.0440  0.2126
 6602TIP3    H119812   2.767   4.306   2.329  0.3461 -0.8441  0.9364
 6602TIP3    H219813   2.651   4.216   2.366 -0.5085 -0.5159 -0.8598
 6603TIP3   OH219814   0.744   1.531   3.108  0.3494 -0.1494 -0.6540
 6603TIP3    H119815   0.813   1.464   3.102  1.0008  0.0886  2.4719
 6603TIP3    H219816   0.790   1.614   3.099  0.6297  0.0188  1.6375
 6604TIP3   OH219817   3.226   1.541   3.004  0.1232  0.6222  0.2503
 6604TIP3    H119818   3.166   1.601   2.960  2.0202  1.1122 -1.8377
 6604TIP3    H219819   3.204   1.549   3.097 -3.2159  0.5059 -0.4041
 6605TIP3   OH219820   2.708   1.285   3.624  0.8268 -0.2288 -0.5701
 6605TIP3    H119821   2.801   1.308   3.634  0.4521  0.6387  1.3444
 6605TIP3    H219822   2.663   1.341   3.687 -0.9185 -1.2341 -0.8777
 6606TIP3   OH219823   2.056   4.925   4.157  0.2622  0.3662 -0.2596
 6606TIP3    H119824   2.019   4.932   4.245 -0.3754 -0.7540 -0.4207
 6606TIP3    H219825   2.023   5.002   4.111  1.1928  1.3626  0.6654
 6607TIP3   OH219826   3.408   4.412   3.397 -0.1954  0.3035 -0.4371
 6607TIP3    H119827   3.413   4.398   3.302  0.5782  2.4830 -0.7977
 6607TIP3    H219828   3.317   4.437   3.413 -0.3989 -0.3580 -0.5544
 6608TIP3   OH219829   3.492   1.770   3.711 -0.2447  0.5829 -0.0011
 6608TIP3    H119830   3.498   1.754   3.806  2.0145  2.5569  0.3007
 6608TIP3    H219831   3.568   1.725   3.675  0.4712  2.0709 -0.4411
 6609TIP3   OH219832   1.359   3.658   3.446 -0.2081  0.2804  0.7125
 6609TIP3    H119833   1.415   3.666   3.369 -0.4223  0.5281  0.5759
 6609TIP3    H219834   1.276   3.625   3.411 -0.1677 -0.0187  0.9012
 6610TIP3   OH219835   0.716   1.194   1.697 -0.1779  0.3759  0.0910
 6610TIP3    H119836   0.787   1.198   1.761  1.4809  1.6659 -1.7096
 6610TIP3    H219837   0.698   1.285   1.675 -1.4689  0.0099 -0.4886
 6611TIP3   OH219838   3.613   3.486   3.943  0.5481  0.0604  0.0061
 6611TIP3    H119839   3.621   3.391   3.929  1.8108  0.5011 -3.0176
 6611TIP3    H219840   3.538   3.512   3.890  1.4976  0.9965 -0.9305
 6612TIP3   OH219841   2.576   4.867   1.773  0.6212 -0.4158 -0.1037
 6612TIP3    H119842   2.631   4.797   1.738 -0.1429 -1.0303 -0.1028
 6612TIP3    H219843   2.626   4.902   1.847  1.2797 -0.5403 -0.4772
 6613TIP3   OH219844   0.345   4.025   3.996 -0.0480 -0.0778 -0.2177
 6613TIP3    H119845   0.367   3.945   3.949 -0.6030 -1.2097  1.3562
 6613TIP3    H219846   0.253   4.013   4.022 -0.1868  1.1429 -0.0845
 6614TIP3   OH219847   2.981   4.292   4.732  0.2142 -0.1710 -0.8282
 6614TIP3    H119848   3.016   4.329   4.651 -0.2858  1.9113 -0.1642
 6614TIP3    H219849   3.054   4.294   4.793  0.7824 -2.3839 -1.3687
 6615TIP3   OH219850   4.987   4.068   2.783  0.0812 -0.4844 -0.1218
 6615TIP3    H119851   4.949   3.981   2.772 -1.2526  0.1430 -0.7418
 6615TIP3    H219852   4.925   4.115   2.839  0.7084  0.1251  0.0840
 6616TIP3   OH219853   5.228   0.687   0.117  0.0294 -0.1939  0.2467
 6616TIP3    H119854   5.153   0.671   0.059 -0.4550 -0.9357  1.0651
 6616TIP3    H219855   5.199   0.758   0.174  0.3082  0.1654 -0.0535
 6617TIP3   OH219856   1.899   0.290   2.087 -0.2107  0.6690 -0.1006
 6617TIP3    H119857   1.877   0.207   2.045  0.8582 -0.1605  0.9419
 6617TIP3    H219858   1.953   0.336   2.023  0.6652 -0.2018  0.0028
 6618TIP3   OH219859   0.134   2.381   1.176 -0.1643  0.1052  1.0300
 6618TIP3    H119860   0.208   2.329   1.207 -1.3666 -1.4327  1.4825
 6618TIP3    H219861   0.074   2.316   1.138 -0.8792  1.4157 -0.1498
 6619TIP3   OH219862   3.340   0.320   0.395 -0.4271  0.7451  0.5229
 6619TIP3    H119863   3.309   0.404   0.429 -0.8077  1.3088 -1.1378
 6619TIP3    H219864   3.389   0.343   0.316  1.6898 -0.3929  1.4268
 6620TIP3   OH219865   3.630   5.311   5.142 -0.7807 -0.4892  0.5419
 6620TIP3    H119866   3.582   5.336   5.063  2.9741  1.2431 -1.5036
 6620TIP3    H219867   3.687   5.239   5.113  1.3260  0.7734  1.2659
 6621TIP3   OH219868   3.024   1.071   3.243 -0.2900 -0.5054  0.6783
 6621TIP3    H119869   2.989   1.010   3.178 -0.4572 -0.3775  0.6476
 6621TIP3    H219870   3.012   1.026   3.327 -2.9303  0.5679  0.9749
 6622TIP3   OH219871   0.581   4.179   3.152 -0.2342  0.3192  0.3221
 6622TIP3    H119872   0.638   4.255   3.146 -1.2463  1.1025  0.2365
 6622TIP3    H219873   0.581   4.142   3.064 -1.8135  1.8263 -0.3865
 6623TIP3   OH219874   6.097   4.558   4.473 -0.2231 -0.6446 -0.2908
 6623TIP3    H119875   6.176   4.606   4.448 -1.3938  0.7034 -1.5921
 6623TIP3    H219876   6.096   4.482   4.415 -0.3777 -0.1223 -0.9900
 6624TIP3   OH219877   2.183   4.405   3.509 -0.2453 -0.6868 -0.0377
 6624TIP3    H119878   2.115   4.338   3.516 -3.3193  2.2315  1.0588
 6624TIP3    H219879   2.195   4.418   3.415 -1.2112 -1.3343 -0.2618
 6625TIP3   OH219880   1.598   3.439   3.526 -0.1003 -0.4101  0.2026
 6625TIP3    H119881   1.667   3.427   3.591  1.7352  0.7410 -1.4015
 6625TIP3    H219882   1.551   3.517   3.554  0.7844  0.1774  0.1163
 6626TIP3   OH219883   1.236   5.359   1.615 -0.2742  0.4946 -0.3201
 6626TIP3    H119884   1.229   5.356   1.710  0.7669 -0.0351 -0.2522
 6626TIP3    H219885   1.225   5.452   1.594 -0.6592  0.5974  0.2932
 6627TIP3   OH219886   4.494   1.972   1.030  0.3464 -0.5868  0.0475
 6627TIP3    H119887   4.552   2.000   0.958 -0.0406  1.4164  0.4598
 6627TIP3    H219888   4.553   1.927   1.091  0.9271 -1.1052 -0.8609
 6628TIP3   OH219889   5.748   4.296   1.569 -0.1470 -0.0411 -0.2840
 6628TIP3    H119890   5.836   4.281   1.604  0.1238  0.4244 -0.7477
 6628TIP3    H219891   5.723   4.211   1.533 -0.3534 -0.4754  0.8348
 6629TIP3   OH219892   4.685   5.668   0.094  0.1636  0.8740  0.5648
 6629TIP3    H119893   4.629   5.693   0.168  0.4730  1.5515  0.5732
 6629TIP3    H219894   4.765   5.634   0.136 -0.5955 -1.0140  0.5738
 6630TIP3   OH219895   2.876   1.757   4.970  0.3619  0.1593  0.4522
 6630TIP3    H119896   2.815   1.826   4.997  0.0613 -0.8417  2.4433
 6630TIP3    H219897   2.848   1.680   5.018  2.3573 -0.6829  0.3481
 6631TIP3   OH219898   0.090   2.268   2.708 -0.8968  0.3922  0.3350
 6631TIP3    H119899   0.056   2.356   2.726  0.0166  0.9778 -0.7346
 6631TIP3    H219900   0.178   2.268   2.745 -1.0245 -0.2224  0.6658
 6632TIP3   OH219901   1.950   3.280   2.763 -0.1690  0.8175  0.1737
 6632TIP3    H119902   1.871   3.229   2.747  1.9638 -2.9901  0.6597
 6632TIP3    H219903   1.977   3.310   2.676 -0.9164  0.2022 -0.2828
 6633TIP3   OH219904   5.915   0.939   3.685  0.3260  0.1282 -0.3031
 6633TIP3    H119905   5.989   0.882   3.704 -1.7506 -2.5926  0.2236
 6633TIP3    H219906   5.940   1.024   3.721  2.6095 -1.0385  1.0683
 6634TIP3   OH219907   1.583   1.980   3.598  0.1092  0.5152 -0.1643
 6634TIP3    H119908   1.488   1.987   3.608 -0.0373 -0.1542 -0.9940
 6634TIP3    H219909   1.612   1.936   3.677 -0.6086 -1.6535 -1.0278
 6635TIP3   OH219910   0.878   4.812   4.272  0.0829  0.7285 -0.4781
 6635TIP3    H119911   0.942   4.751   4.236  1.8429  2.5413 -0.5741
 6635TIP3    H219912   0.815   4.825   4.201 -0.0781 -0.5988 -0.6055
 6636TIP3   OH219913   1.941   4.794   2.792  0.2326  0.5920 -0.1955
 6636TIP3    H119914   1.900   4.864   2.843  1.8176  0.0060  1.9990
 6636TIP3    H219915   1.963   4.727   2.856  1.4835 -0.6115 -1.8038
 6637TIP3   OH219916   2.465   0.906   4.950 -0.5004 -0.1322 -0.2913
 6637TIP3    H119917   2.389   0.964   4.953  0.1744  0.8613 -1.6282
 6637TIP3    H219918   2.442   0.840   4.885 -0.5913 -0.3731 -0.0142
 6638TIP3   OH219919   2.382   0.695   4.359  0.4576 -0.0514  0.2023
 6638TIP3    H119920   2.294   0.658   4.352 -1.3138  1.8647  6.1271
 6638TIP3    H219921   2.377   0.778   4.311 -0.9738 -0.0176  0.3710
 6639TIP3   OH219922   5.167   1.696   3.736 -0.1112 -0.0667  0.5923
 6639TIP3    H119923   5.245   1.672   3.686  0.5169 -0.3085  1.6374
 6639TIP3    H219924   5.098   1.707   3.671  0.6840 -0.3234 -0.3118
 6640TIP3   OH219925   4.562   3.000   4.172  0.1084 -0.0808 -0.6395
 6640TIP3    H119926   4.498   3.055   4.128 -1.6490 -0.3512  1.4286
 6640TIP3    H219927   4.569   2.922   4.118 -0.1694  0.5837 -1.6541
 6641TIP3   OH219928   1.952   3.949   2.275  0.3572  0.2832  0.0649
 6641TIP3    H119929   1.905   3.980   2.197 -2.0463 -0.6294  1.0412
 6641TIP3    H219930   1.946   4.022   2.337 -0.0391  0.0656  0.2867
 6642TIP3   OH219931   5.148   0.045   3.289  0.2776  0.2777  0.3091
 6642TIP3    H119932   5.242   0.025   3.283  0.2754 -0.9457  2.8953
 6642TIP3    H219933   5.106  -0.041   3.292 -0.8862  0.8103 -0.2321
 6643TIP3   OH219934   3.064   5.384   0.448 -0.4444  0.1327 -0.5382
 6643TIP3    H119935   3.141   5.438   0.428  0.0355  0.8334  2.6237
 6643TIP3    H219936   3.003   5.444   0.491 -1.1832 -1.1865  0.3415
 6644TIP3   OH219937   2.783   0.566   3.429  0.0233  0.0087  0.0824
 6644TIP3    H119938   2.702   0.611   3.453 -0.0244 -1.0672  2.1966
 6644TIP3    H219939   2.755   0.477   3.407  0.5077  0.0022 -0.5570
 6645TIP3   OH219940   0.767   4.371   3.744 -0.1914  0.4728 -0.0348
 6645TIP3    H119941   0.763   4.375   3.649 -0.2710 -0.7859 -0.1069
 6645TIP3    H219942   0.688   4.322   3.769 -0.6332  1.5475  0.7462
   6.35114   5.98791   5.18569   0.00000   0.00000  -2.11706   0.00000  -2.11706  -2.99396
